Generated by CHARMM-GUI FF-Converter
55513
    1DOPE     N    1   4.607   4.658  16.765
    1DOPE   HN1    2   4.615   4.649  16.868
    1DOPE   HN2    3   4.626   4.776  16.735
    1DOPE   HN3    4   4.493   4.619  16.738
    1DOPE   C12    5   4.724   4.543  16.706
    1DOPE  H12A    6   4.846   4.580  16.741
    1DOPE  H12B    7   4.721   4.553  16.596
    1DOPE   C11    8   4.684   4.372  16.753
    1DOPE  H11A    9   4.777   4.285  16.719
    1DOPE  H11B   10   4.570   4.333  16.703
    1DOPE     P   11   4.804   4.361  16.999
    1DOPE   O13   12   4.835   4.194  17.043
    1DOPE   O14   13   4.759   4.482  17.101
    1DOPE   O11   14   4.943   4.418  16.904
    1DOPE   O12   15   4.661   4.363  16.894
    1DOPE    C1   16   5.105   4.456  16.933
    1DOPE    HA   17   5.159   4.372  17.006
    1DOPE    HB   18   5.111   4.579  16.975
    1DOPE    C2   19   5.204   4.453  16.802
    1DOPE    HS   20   5.329   4.492  16.828
    1DOPE   O21   21   5.136   4.566  16.712
    1DOPE   C21   22   5.210   4.598  16.601
    1DOPE   O22   23   5.335   4.541  16.560
    1DOPE   C22   24   5.108   4.728  16.535
    1DOPE   H2R   25   5.020   4.775  16.608
    1DOPE   H2S   26   5.042   4.668  16.453
    1DOPE    C3   27   5.215   4.284  16.736
    1DOPE    HX   28   5.244   4.205  16.821
    1DOPE    HY   29   5.322   4.288  16.671
    1DOPE   O31   30   5.074   4.226  16.666
    1DOPE   C31   31   5.095   4.079  16.612
    1DOPE   O32   32   5.224   4.010  16.605
    1DOPE   C32   33   4.940   4.001  16.566
    1DOPE   H2X   34   4.957   3.869  16.577
    1DOPE   H2Y   35   4.841   4.037  16.633
    1DOPE   C23   36   5.216   4.865  16.489
    1DOPE   H3R   37   5.311   4.890  16.565
    1DOPE   H3S   38   5.144   4.976  16.475
    1DOPE   C24   39   5.290   4.817  16.356
    1DOPE   H4R   40   5.334   4.692  16.363
    1DOPE   H4S   41   5.398   4.883  16.327
    1DOPE   C25   42   5.168   4.840  16.245
    1DOPE   H5R   43   5.154   4.972  16.226
    1DOPE   H5S   44   5.050   4.795  16.278
    1DOPE   C26   45   5.222   4.752  16.120
    1DOPE   H6R   46   5.347   4.792  16.101
    1DOPE   H6S   47   5.152   4.790  16.034
    1DOPE   C27   48   5.224   4.568  16.133
    1DOPE   H7R   49   5.267   4.529  16.233
    1DOPE   H7S   50   5.309   4.520  16.059
    1DOPE   C28   51   5.068   4.483  16.097
    1DOPE   H8R   52   5.040   4.506  15.990
    1DOPE   H8S   53   4.973   4.537  16.159
    1DOPE   C29   54   5.092   4.308  16.130
    1DOPE   H9R   55   5.135   4.291  16.233
    1DOPE  C210   56   5.075   4.177  16.052
    1DOPE  H10R   57   5.093   4.058  16.098
    1DOPE  C211   58   5.026   4.169  15.908
    1DOPE  H11R   59   5.015   4.295  15.868
    1DOPE  H11S   60   4.902   4.123  15.905
    1DOPE  C212   61   5.125   4.082  15.795
    1DOPE  H12R   62   5.186   4.193  15.768
    1DOPE  H12S   63   5.040   4.046  15.718
    1DOPE  C213   64   5.252   3.946  15.806
    1DOPE  H13R   65   5.188   3.833  15.830
    1DOPE  H13S   66   5.317   3.974  15.897
    1DOPE  C214   67   5.378   3.871  15.698
    1DOPE  H14R   68   5.356   3.744  15.712
    1DOPE  H14S   69   5.478   3.878  15.771
    1DOPE  C215   70   5.504   3.914  15.573
    1DOPE  H15R   71   5.531   3.792  15.562
    1DOPE  H15S   72   5.618   3.950  15.621
    1DOPE  C216   73   5.502   4.002  15.422
    1DOPE  H16R   74   5.569   4.115  15.423
    1DOPE  H16S   75   5.388   4.036  15.387
    1DOPE  C217   76   5.528   3.946  15.272
    1DOPE  H17R   77   5.556   3.820  15.269
    1DOPE  H17S   78   5.633   4.014  15.233
    1DOPE  C218   79   5.389   3.973  15.169
    1DOPE  H18R   80   5.352   4.100  15.163
    1DOPE  H18S   81   5.279   3.906  15.192
    1DOPE  H18T   82   5.425   3.932  15.068
    1DOPE   C33   83   4.900   4.038  16.419
    1DOPE   H3X   84   4.794   3.962  16.390
    1DOPE   H3Y   85   4.998   4.004  16.349
    1DOPE   C34   86   4.854   4.214  16.404
    1DOPE   H4X   87   4.802   4.258  16.500
    1DOPE   H4Y   88   4.963   4.288  16.385
    1DOPE   C35   89   4.729   4.244  16.295
    1DOPE   H5X   90   4.618   4.176  16.318
    1DOPE   H5Y   91   4.777   4.198  16.199
    1DOPE   C36   92   4.692   4.423  16.282
    1DOPE   H6X   93   4.793   4.493  16.327
    1DOPE   H6Y   94   4.580   4.452  16.339
    1DOPE   C37   95   4.669   4.476  16.137
    1DOPE   H7X   96   4.770   4.439  16.073
    1DOPE   H7Y   97   4.562   4.411  16.097
    1DOPE   C38   98   4.637   4.658  16.124
    1DOPE   H8X   99   4.555   4.687  16.208
    1DOPE   H8Y  100   4.567   4.672  16.030
    1DOPE   C39  101   4.771   4.778  16.128
    1DOPE   H9X  102   4.829   4.790  16.226
    1DOPE  C310  103   4.822   4.872  16.026
    1DOPE  H10X  104   4.926   4.951  16.040
    1DOPE  C311  105   4.751   4.872  15.888
    1DOPE  H11X  106   4.621   4.842  15.886
    1DOPE  H11Y  107   4.766   4.992  15.842
    1DOPE  C312  108   4.841   4.758  15.797
    1DOPE  H12X  109   4.772   4.748  15.702
    1DOPE  H12Y  110   4.850   4.634  15.840
    1DOPE  C313  111   5.006   4.826  15.767
    1DOPE  H13X  112   4.997   4.956  15.742
    1DOPE  H13Y  113   5.090   4.816  15.851
    1DOPE  C314  114   5.074   4.742  15.647
    1DOPE  H14X  115   4.974   4.738  15.572
    1DOPE  H14Y  116   5.099   4.613  15.666
    1DOPE  C315  117   5.203   4.842  15.574
    1DOPE  H15X  118   5.134   4.938  15.530
    1DOPE  H15Y  119   5.212   4.765  15.490
    1DOPE  C316  120   5.366   4.912  15.639
    1DOPE  H16X  121   5.348   4.916  15.746
    1DOPE  H16Y  122   5.348   5.033  15.606
    1DOPE  C317  123   5.554   4.940  15.596
    1DOPE  H17X  124   5.555   5.038  15.520
    1DOPE  H17Y  125   5.612   4.991  15.686
    1DOPE  C318  126   5.686   4.829  15.539
    1DOPE  H18X  127   5.782   4.915  15.508
    1DOPE  H18Y  128   5.731   4.735  15.609
    1DOPE  H18Z  129   5.647   4.764  15.449
    2DOPE     N  130   5.418   5.304  16.880
    2DOPE   HN1  131   5.420   5.417  16.926
    2DOPE   HN2  132   5.519   5.290  16.819
    2DOPE   HN3  133   5.316   5.296  16.821
    2DOPE   C12  134   5.422   5.171  16.985
    2DOPE  H12A  135   5.299   5.161  17.028
    2DOPE  H12B  136   5.504   5.207  17.065
    2DOPE   C11  137   5.476   5.005  16.929
    2DOPE  H11A  138   5.425   4.982  16.828
    2DOPE  H11B  139   5.425   4.913  16.998
    2DOPE     P  140   5.736   4.832  16.883
    2DOPE   O13  141   5.623   4.696  16.890
    2DOPE   O14  142   5.891   4.820  16.957
    2DOPE   O11  143   5.773   4.882  16.731
    2DOPE   O12  144   5.647   4.994  16.930
    2DOPE    C1  145   5.837   5.041  16.714
    2DOPE    HA  146   5.945   5.058  16.779
    2DOPE    HB  147   5.747   5.132  16.746
    2DOPE    C2  148   5.894   5.087  16.570
    2DOPE    HS  149   5.951   5.208  16.578
    2DOPE   O21  150   5.771   5.096  16.472
    2DOPE   C21  151   5.644   5.183  16.491
    2DOPE   O22  152   5.617   5.279  16.581
    2DOPE   C22  153   5.521   5.136  16.387
    2DOPE   H2R  154   5.430   5.072  16.447
    2DOPE   H2S  155   5.576   5.052  16.314
    2DOPE    C3  156   6.024   4.969  16.514
    2DOPE    HX  157   6.119   4.958  16.592
    2DOPE    HY  158   6.083   5.024  16.425
    2DOPE   O31  159   5.960   4.812  16.485
    2DOPE   C31  160   5.882   4.796  16.368
    2DOPE   O32  161   5.887   4.892  16.277
    2DOPE   C32  162   5.790   4.636  16.364
    2DOPE   H2X  163   5.855   4.549  16.429
    2DOPE   H2Y  164   5.671   4.658  16.410
    2DOPE   C23  165   5.431   5.273  16.313
    2DOPE   H3R  166   5.407   5.375  16.381
    2DOPE   H3S  167   5.312   5.222  16.282
    2DOPE   C24  168   5.513   5.330  16.185
    2DOPE   H4R  169   5.634   5.378  16.206
    2DOPE   H4S  170   5.440   5.429  16.142
    2DOPE   C25  171   5.526   5.198  16.079
    2DOPE   H5R  172   5.411   5.130  16.078
    2DOPE   H5S  173   5.621   5.110  16.106
    2DOPE   C26  174   5.556   5.269  15.938
    2DOPE   H6R  175   5.682   5.237  15.909
    2DOPE   H6S  176   5.538   5.401  15.935
    2DOPE   C27  177   5.444   5.192  15.835
    2DOPE   H7R  178   5.458   5.065  15.868
    2DOPE   H7S  179   5.489   5.206  15.731
    2DOPE   C28  180   5.266   5.242  15.837
    2DOPE   H8R  181   5.234   5.270  15.943
    2DOPE   H8S  182   5.195   5.131  15.815
    2DOPE   C29  183   5.218   5.382  15.747
    2DOPE   H9R  184   5.236   5.497  15.797
    2DOPE  C210  185   5.184   5.387  15.613
    2DOPE  H10R  186   5.170   5.503  15.561
    2DOPE  C211  187   5.191   5.243  15.524
    2DOPE  H11R  188   5.160   5.146  15.594
    2DOPE  H11S  189   5.321   5.238  15.497
    2DOPE  C212  190   5.118   5.188  15.389
    2DOPE  H12R  191   4.988   5.156  15.397
    2DOPE  H12S  192   5.174   5.070  15.362
    2DOPE  C213  193   5.159   5.302  15.275
    2DOPE  H13R  194   5.122   5.425  15.303
    2DOPE  H13S  195   5.093   5.260  15.185
    2DOPE  C214  196   5.332   5.308  15.225
    2DOPE  H14R  197   5.360   5.188  15.183
    2DOPE  H14S  198   5.419   5.335  15.305
    2DOPE  C215  199   5.341   5.432  15.113
    2DOPE  H15R  200   5.326   5.551  15.160
    2DOPE  H15S  201   5.238   5.414  15.043
    2DOPE  C216  202   5.497   5.423  15.034
    2DOPE  H16R  203   5.597   5.405  15.107
    2DOPE  H16S  204   5.520   5.538  14.981
    2DOPE  C217  205   5.496   5.285  14.932
    2DOPE  H17R  206   5.456   5.333  14.834
    2DOPE  H17S  207   5.407   5.192  14.963
    2DOPE  C218  208   5.658   5.201  14.915
    2DOPE  H18R  209   5.660   5.130  14.822
    2DOPE  H18S  210   5.689   5.126  15.003
    2DOPE  H18T  211   5.755   5.285  14.898
    2DOPE   C33  212   5.764   4.561  16.221
    2DOPE   H3X  213   5.730   4.433  16.236
    2DOPE   H3Y  214   5.876   4.559  16.165
    2DOPE   C34  215   5.632   4.646  16.136
    2DOPE   H4X  216   5.524   4.648  16.201
    2DOPE   H4Y  217   5.672   4.771  16.117
    2DOPE   C35  218   5.590   4.570  15.999
    2DOPE   H5X  219   5.534   4.450  16.013
    2DOPE   H5Y  220   5.707   4.549  15.949
    2DOPE   C36  221   5.490   4.667  15.891
    2DOPE   H6X  222   5.594   4.692  15.825
    2DOPE   H6Y  223   5.452   4.789  15.917
    2DOPE   C37  224   5.360   4.577  15.801
    2DOPE   H7X  225   5.364   4.454  15.842
    2DOPE   H7Y  226   5.237   4.613  15.822
    2DOPE   C38  227   5.417   4.584  15.646
    2DOPE   H8X  228   5.497   4.492  15.669
    2DOPE   H8Y  229   5.501   4.676  15.654
    2DOPE   C39  230   5.404   4.549  15.492
    2DOPE   H9X  231   5.402   4.422  15.473
    2DOPE  C310  232   5.396   4.627  15.370
    2DOPE  H10X  233   5.392   4.548  15.283
    2DOPE  C311  234   5.399   4.805  15.323
    2DOPE  H11X  235   5.279   4.829  15.278
    2DOPE  H11Y  236   5.396   4.896  15.401
    2DOPE  C312  237   5.527   4.871  15.228
    2DOPE  H12X  238   5.644   4.897  15.275
    2DOPE  H12Y  239   5.485   4.988  15.186
    2DOPE  C313  240   5.538   4.759  15.111
    2DOPE  H13X  241   5.628   4.811  15.043
    2DOPE  H13Y  242   5.582   4.640  15.144
    2DOPE  C314  243   5.366   4.751  15.055
    2DOPE  H14X  244   5.306   4.870  15.057
    2DOPE  H14Y  245   5.297   4.667  15.119
    2DOPE  C315  246   5.351   4.679  14.918
    2DOPE  H15X  247   5.228   4.625  14.911
    2DOPE  H15Y  248   5.440   4.582  14.923
    2DOPE  C316  249   5.369   4.798  14.802
    2DOPE  H16X  250   5.284   4.898  14.819
    2DOPE  H16Y  251   5.330   4.744  14.706
    2DOPE  C317  252   5.536   4.873  14.791
    2DOPE  H17X  253   5.540   4.957  14.704
    2DOPE  H17Y  254   5.534   4.944  14.885
    2DOPE  C318  255   5.692   4.774  14.796
    2DOPE  H18X  256   5.794   4.855  14.819
    2DOPE  H18Y  257   5.688   4.682  14.876
    2DOPE  H18Z  258   5.717   4.711  14.700
    3DOPE     N  259   4.339   6.162  16.705
    3DOPE   HN1  260   4.438   6.162  16.769
    3DOPE   HN2  261   4.339   6.053  16.654
    3DOPE   HN3  262   4.362   6.253  16.637
    3DOPE   C12  263   4.181   6.186  16.777
    3DOPE  H12A  264   4.084   6.181  16.701
    3DOPE  H12B  265   4.182   6.306  16.824
    3DOPE   C11  266   4.151   6.055  16.884
    3DOPE  H11A  267   4.254   6.058  16.955
    3DOPE  H11B  268   4.154   5.935  16.834
    3DOPE     P  269   3.850   5.974  16.928
    3DOPE   O13  270   3.725   6.005  17.030
    3DOPE   O14  271   3.902   5.807  16.907
    3DOPE   O11  272   3.796   6.052  16.791
    3DOPE   O12  273   4.006   6.080  16.957
    3DOPE    C1  274   3.668   5.983  16.714
    3DOPE    HA  275   3.596   6.082  16.671
    3DOPE    HB  276   3.587   5.906  16.776
    3DOPE    C2  277   3.734   5.884  16.595
    3DOPE    HS  278   3.805   5.784  16.642
    3DOPE   O21  279   3.833   5.986  16.512
    3DOPE   C21  280   3.944   5.902  16.447
    3DOPE   O22  281   3.959   5.758  16.452
    3DOPE   C22  282   4.064   6.016  16.381
    3DOPE   H2R  283   4.087   6.118  16.449
    3DOPE   H2S  284   4.009   6.061  16.289
    3DOPE    C3  285   3.594   5.813  16.513
    3DOPE    HX  286   3.522   5.738  16.583
    3DOPE    HY  287   3.643   5.730  16.435
    3DOPE   O31  288   3.496   5.941  16.462
    3DOPE   C31  289   3.500   5.964  16.330
    3DOPE   O32  290   3.548   5.868  16.248
    3DOPE   C32  291   3.444   6.136  16.299
    3DOPE   H2X  292   3.312   6.133  16.290
    3DOPE   H2Y  293   3.479   6.214  16.385
    3DOPE   C23  294   4.220   5.924  16.348
    3DOPE   H3R  295   4.252   5.842  16.432
    3DOPE   H3S  296   4.322   6.010  16.335
    3DOPE   C24  297   4.202   5.827  16.219
    3DOPE   H4R  298   4.075   5.790  16.206
    3DOPE   H4S  299   4.273   5.714  16.225
    3DOPE   C25  300   4.256   5.922  16.095
    3DOPE   H5R  301   4.390   5.920  16.091
    3DOPE   H5S  302   4.219   6.049  16.103
    3DOPE   C26  303   4.187   5.854  15.965
    3DOPE   H6R  304   4.196   5.720  15.966
    3DOPE   H6S  305   4.262   5.899  15.881
    3DOPE   C27  306   4.012   5.900  15.940
    3DOPE   H7R  307   4.008   6.007  15.874
    3DOPE   H7S  308   3.958   5.935  16.038
    3DOPE   C28  309   3.906   5.772  15.873
    3DOPE   H8R  310   3.920   5.656  15.927
    3DOPE   H8S  311   3.948   5.753  15.769
    3DOPE   C29  312   3.733   5.826  15.878
    3DOPE   H9R  313   3.664   5.783  15.964
    3DOPE  C210  314   3.662   5.927  15.791
    3DOPE  H10R  315   3.535   5.958  15.807
    3DOPE  C211  316   3.738   6.006  15.671
    3DOPE  H11R  317   3.821   5.923  15.618
    3DOPE  H11S  318   3.812   6.110  15.703
    3DOPE  C212  319   3.608   6.067  15.572
    3DOPE  H12R  320   3.672   6.113  15.481
    3DOPE  H12S  321   3.545   6.170  15.618
    3DOPE  C213  322   3.485   5.940  15.529
    3DOPE  H13R  323   3.391   5.998  15.465
    3DOPE  H13S  324   3.422   5.886  15.617
    3DOPE  C214  325   3.564   5.807  15.447
    3DOPE  H14R  326   3.672   5.761  15.499
    3DOPE  H14S  327   3.602   5.867  15.354
    3DOPE  C215  328   3.456   5.663  15.413
    3DOPE  H15R  329   3.350   5.704  15.354
    3DOPE  H15S  330   3.412   5.608  15.507
    3DOPE  C216  331   3.551   5.537  15.335
    3DOPE  H16R  332   3.655   5.498  15.397
    3DOPE  H16S  333   3.598   5.590  15.241
    3DOPE  C217  334   3.460   5.388  15.291
    3DOPE  H17R  335   3.406   5.324  15.378
    3DOPE  H17S  336   3.554   5.310  15.248
    3DOPE  C218  337   3.336   5.417  15.181
    3DOPE  H18R  338   3.392   5.486  15.098
    3DOPE  H18S  339   3.232   5.484  15.220
    3DOPE  H18T  340   3.293   5.300  15.139
    3DOPE   C33  341   3.523   6.200  16.171
    3DOPE   H3X  342   3.469   6.318  16.143
    3DOPE   H3Y  343   3.503   6.118  16.086
    3DOPE   C34  344   3.704   6.226  16.191
    3DOPE   H4X  345   3.725   6.330  16.260
    3DOPE   H4Y  346   3.758   6.119  16.239
    3DOPE   C35  347   3.793   6.254  16.060
    3DOPE   H5X  348   3.731   6.349  16.002
    3DOPE   H5Y  349   3.788   6.142  15.999
    3DOPE   C36  350   3.968   6.304  16.081
    3DOPE   H6X  351   4.034   6.206  16.131
    3DOPE   H6Y  352   3.971   6.410  16.148
    3DOPE   C37  353   4.051   6.343  15.950
    3DOPE   H7X  354   4.064   6.234  15.888
    3DOPE   H7Y  355   3.968   6.421  15.894
    3DOPE   C38  356   4.216   6.427  15.966
    3DOPE   H8X  357   4.224   6.474  16.070
    3DOPE   H8Y  358   4.213   6.535  15.900
    3DOPE   C39  359   4.361   6.328  15.931
    3DOPE   H9X  360   4.445   6.302  16.013
    3DOPE  C310  361   4.393   6.271  15.808
    3DOPE  H10X  362   4.508   6.209  15.791
    3DOPE  C311  363   4.292   6.296  15.684
    3DOPE  H11X  364   4.182   6.367  15.707
    3DOPE  H11Y  365   4.358   6.372  15.612
    3DOPE  C312  366   4.235   6.143  15.611
    3DOPE  H12X  367   4.194   6.176  15.508
    3DOPE  H12Y  368   4.126   6.101  15.665
    3DOPE  C313  369   4.354   6.001  15.601
    3DOPE  H13X  370   4.427   6.010  15.509
    3DOPE  H13Y  371   4.438   6.002  15.687
    3DOPE  C314  372   4.267   5.838  15.610
    3DOPE  H14X  373   4.180   5.845  15.693
    3DOPE  H14Y  374   4.354   5.741  15.633
    3DOPE  C315  375   4.171   5.792  15.485
    3DOPE  H15X  376   4.088   5.893  15.462
    3DOPE  H15Y  377   4.094   5.687  15.510
    3DOPE  C316  378   4.276   5.752  15.364
    3DOPE  H16X  379   4.224   5.644  15.314
    3DOPE  H16Y  380   4.398   5.718  15.396
    3DOPE  C317  381   4.284   5.891  15.264
    3DOPE  H17X  382   4.168   5.957  15.263
    3DOPE  H17Y  383   4.376   5.976  15.300
    3DOPE  C318  384   4.326   5.844  15.120
    3DOPE  H18X  385   4.432   5.765  15.120
    3DOPE  H18Y  386   4.237   5.776  15.065
    3DOPE  H18Z  387   4.345   5.954  15.062
    4DOPE     N  388   5.203   2.982  16.719
    4DOPE   HN1  389   5.124   3.078  16.734
    4DOPE   HN2  390   5.268   3.004  16.632
    4DOPE   HN3  391   5.136   2.878  16.707
    4DOPE   C12  392   5.318   2.960  16.833
    4DOPE  H12A  393   5.352   2.833  16.832
    4DOPE  H12B  394   5.252   2.980  16.926
    4DOPE   C11  395   5.470   3.068  16.824
    4DOPE  H11A  396   5.434   3.194  16.804
    4DOPE  H11B  397   5.548   3.031  16.739
    4DOPE     P  398   5.596   2.921  17.037
    4DOPE   O13  399   5.446   2.911  17.118
    4DOPE   O14  400   5.750   2.941  17.108
    4DOPE   O11  401   5.600   2.785  16.928
    4DOPE   O12  402   5.563   3.068  16.943
    4DOPE    C1  403   5.557   2.621  16.934
    4DOPE    HA  404   5.448   2.604  16.997
    4DOPE    HB  405   5.657   2.551  16.983
    4DOPE    C2  406   5.528   2.549  16.790
    4DOPE    HS  407   5.642   2.491  16.760
    4DOPE   O21  408   5.482   2.670  16.693
    4DOPE   C21  409   5.599   2.746  16.635
    4DOPE   O22  410   5.730   2.776  16.678
    4DOPE   C22  411   5.557   2.788  16.493
    4DOPE   H2R  412   5.428   2.807  16.479
    4DOPE   H2S  413   5.596   2.680  16.434
    4DOPE    C3  414   5.393   2.419  16.783
    4DOPE    HX  415   5.279   2.486  16.778
    4DOPE    HY  416   5.387   2.352  16.878
    4DOPE   O31  417   5.405   2.304  16.672
    4DOPE   C31  418   5.364   2.362  16.551
    4DOPE   O32  419   5.326   2.500  16.529
    4DOPE   C32  420   5.369   2.232  16.441
    4DOPE   H2X  421   5.476   2.156  16.452
    4DOPE   H2Y  422   5.260   2.158  16.451
    4DOPE   C23  423   5.662   2.930  16.450
    4DOPE   H3R  424   5.791   2.914  16.475
    4DOPE   H3S  425   5.626   3.044  16.500
    4DOPE   C24  426   5.653   2.947  16.301
    4DOPE   H4R  427   5.531   2.994  16.278
    4DOPE   H4S  428   5.663   2.827  16.250
    4DOPE   C25  429   5.779   3.056  16.240
    4DOPE   H5R  430   5.894   2.993  16.220
    4DOPE   H5S  431   5.806   3.162  16.305
    4DOPE   C26  432   5.701   3.108  16.112
    4DOPE   H6R  433   5.588   3.170  16.143
    4DOPE   H6S  434   5.668   3.000  16.053
    4DOPE   C27  435   5.790   3.222  16.021
    4DOPE   H7R  436   5.903   3.169  15.980
    4DOPE   H7S  437   5.821   3.332  16.077
    4DOPE   C28  438   5.672   3.248  15.906
    4DOPE   H8R  439   5.658   3.126  15.864
    4DOPE   H8S  440   5.731   3.320  15.825
    4DOPE   C29  441   5.508   3.322  15.938
    4DOPE   H9R  442   5.512   3.438  15.990
    4DOPE  C210  443   5.364   3.256  15.913
    4DOPE  H10R  444   5.257   3.329  15.931
    4DOPE  C211  445   5.330   3.095  15.849
    4DOPE  H11R  446   5.208   3.050  15.878
    4DOPE  H11S  447   5.416   3.005  15.892
    4DOPE  C212  448   5.346   3.091  15.695
    4DOPE  H12R  449   5.258   3.178  15.652
    4DOPE  H12S  450   5.310   2.971  15.657
    4DOPE  C213  451   5.516   3.137  15.650
    4DOPE  H13R  452   5.614   3.049  15.666
    4DOPE  H13S  453   5.543   3.250  15.703
    4DOPE  C214  454   5.537   3.209  15.515
    4DOPE  H14R  455   5.658   3.265  15.504
    4DOPE  H14S  456   5.444   3.304  15.518
    4DOPE  C215  457   5.498   3.092  15.406
    4DOPE  H15R  458   5.424   3.160  15.334
    4DOPE  H15S  459   5.422   2.999  15.450
    4DOPE  C216  460   5.646   3.022  15.338
    4DOPE  H16R  461   5.609   2.903  15.298
    4DOPE  H16S  462   5.743   3.000  15.413
    4DOPE  C217  463   5.702   3.138  15.230
    4DOPE  H17R  464   5.806   3.205  15.274
    4DOPE  H17S  465   5.605   3.227  15.212
    4DOPE  C218  466   5.747   3.074  15.092
    4DOPE  H18R  467   5.642   3.029  15.036
    4DOPE  H18S  468   5.836   2.976  15.103
    4DOPE  H18T  469   5.801   3.174  15.033
    4DOPE   C33  470   5.369   2.322  16.305
    4DOPE   H3X  471   5.471   2.410  16.307
    4DOPE   H3Y  472   5.257   2.394  16.302
    4DOPE   C34  473   5.377   2.234  16.170
    4DOPE   H4X  474   5.501   2.186  16.154
    4DOPE   H4Y  475   5.292   2.131  16.166
    4DOPE   C35  476   5.335   2.352  16.054
    4DOPE   H5X  477   5.204   2.377  16.057
    4DOPE   H5Y  478   5.363   2.296  15.956
    4DOPE   C36  479   5.423   2.514  16.066
    4DOPE   H6X  480   5.555   2.491  16.070
    4DOPE   H6Y  481   5.389   2.576  16.160
    4DOPE   C37  482   5.389   2.634  15.952
    4DOPE   H7X  483   5.275   2.603  15.899
    4DOPE   H7Y  484   5.375   2.756  15.996
    4DOPE   C38  485   5.532   2.632  15.857
    4DOPE   H8X  486   5.542   2.507  15.821
    4DOPE   H8Y  487   5.640   2.654  15.920
    4DOPE   C39  488   5.536   2.752  15.746
    4DOPE   H9X  489   5.560   2.873  15.781
    4DOPE  C310  490   5.527   2.720  15.614
    4DOPE  H10X  491   5.528   2.820  15.542
    4DOPE  C311  492   5.510   2.556  15.556
    4DOPE  H11X  493   5.492   2.464  15.634
    4DOPE  H11Y  494   5.399   2.551  15.497
    4DOPE  C312  495   5.660   2.500  15.477
    4DOPE  H12X  496   5.677   2.371  15.503
    4DOPE  H12Y  497   5.771   2.567  15.505
    4DOPE  C313  498   5.652   2.512  15.326
    4DOPE  H13X  499   5.633   2.640  15.298
    4DOPE  H13Y  500   5.767   2.472  15.281
    4DOPE  C314  501   5.516   2.411  15.270
    4DOPE  H14X  502   5.410   2.442  15.328
    4DOPE  H14Y  503   5.537   2.279  15.283
    4DOPE  C315  504   5.485   2.454  15.126
    4DOPE  H15X  505   5.532   2.357  15.063
    4DOPE  H15Y  506   5.560   2.562  15.103
    4DOPE  C316  507   5.310   2.501  15.101
    4DOPE  H16X  508   5.305   2.603  15.031
    4DOPE  H16Y  509   5.252   2.536  15.196
    4DOPE  C317  510   5.200   2.378  15.038
    4DOPE  H17X  511   5.249   2.342  14.940
    4DOPE  H17Y  512   5.196   2.272  15.104
    4DOPE  C318  513   5.033   2.452  15.018
    4DOPE  H18X  514   4.942   2.358  14.996
    4DOPE  H18Y  515   4.996   2.519  15.109
    4DOPE  H18Z  516   5.036   2.538  14.934
    5DOPE     N  517   2.010   5.095  16.742
    5DOPE   HN1  518   1.924   5.008  16.730
    5DOPE   HN2  519   1.960   5.207  16.765
    5DOPE   HN3  520   2.075   5.108  16.653
    5DOPE   C12  521   2.124   5.064  16.852
    5DOPE  H12A  522   2.053   5.041  16.943
    5DOPE  H12B  523   2.195   5.177  16.865
    5DOPE   C11  524   2.231   4.920  16.821
    5DOPE  H11A  525   2.315   4.938  16.736
    5DOPE  H11B  526   2.159   4.813  16.793
    5DOPE     P  527   2.450   5.008  16.993
    5DOPE   O13  528   2.584   4.900  17.032
    5DOPE   O14  529   2.372   5.111  17.095
    5DOPE   O11  530   2.482   5.105  16.856
    5DOPE   O12  531   2.320   4.886  16.937
    5DOPE    C1  532   2.632   5.166  16.812
    5DOPE    HA  533   2.731   5.078  16.829
    5DOPE    HB  534   2.662   5.276  16.870
    5DOPE    C2  535   2.644   5.209  16.657
    5DOPE    HS  536   2.759   5.275  16.644
    5DOPE   O21  537   2.510   5.308  16.612
    5DOPE   C21  538   2.434   5.268  16.500
    5DOPE   O22  539   2.489   5.258  16.387
    5DOPE   C22  540   2.267   5.206  16.544
    5DOPE   H2R  541   2.221   5.294  16.617
    5DOPE   H2S  542   2.291   5.098  16.602
    5DOPE    C3  543   2.658   5.051  16.572
    5DOPE    HX  544   2.744   4.970  16.624
    5DOPE    HY  545   2.716   5.093  16.477
    5DOPE   O31  546   2.510   4.961  16.551
    5DOPE   C31  547   2.512   4.878  16.436
    5DOPE   O32  548   2.618   4.883  16.354
    5DOPE   C32  549   2.357   4.781  16.423
    5DOPE   H2X  550   2.371   4.679  16.492
    5DOPE   H2Y  551   2.254   4.850  16.459
    5DOPE   C23  552   2.148   5.170  16.427
    5DOPE   H3R  553   2.142   5.041  16.401
    5DOPE   H3S  554   2.190   5.233  16.335
    5DOPE   C24  555   1.975   5.226  16.448
    5DOPE   H4R  556   1.975   5.357  16.441
    5DOPE   H4S  557   1.930   5.200  16.546
    5DOPE   C25  558   1.849   5.162  16.349
    5DOPE   H5R  559   1.733   5.224  16.365
    5DOPE   H5S  560   1.832   5.032  16.371
    5DOPE   C26  561   1.892   5.171  16.201
    5DOPE   H6R  562   1.819   5.074  16.154
    5DOPE   H6S  563   2.020   5.137  16.184
    5DOPE   C27  564   1.855   5.326  16.124
    5DOPE   H7R  565   1.926   5.424  16.167
    5DOPE   H7S  566   1.729   5.362  16.135
    5DOPE   C28  567   1.898   5.317  15.975
    5DOPE   H8R  568   2.023   5.270  15.964
    5DOPE   H8S  569   1.895   5.437  15.928
    5DOPE   C29  570   1.776   5.208  15.914
    5DOPE   H9R  571   1.654   5.258  15.903
    5DOPE  C210  572   1.801   5.054  15.889
    5DOPE  H10R  573   1.693   4.981  15.877
    5DOPE  C211  574   1.954   4.961  15.915
    5DOPE  H11R  575   1.930   4.841  15.957
    5DOPE  H11S  576   2.029   5.020  15.992
    5DOPE  C212  577   2.059   4.942  15.791
    5DOPE  H12R  578   2.158   4.858  15.819
    5DOPE  H12S  579   2.116   5.057  15.763
    5DOPE  C213  580   1.975   4.872  15.668
    5DOPE  H13R  581   1.937   4.972  15.602
    5DOPE  H13S  582   1.866   4.806  15.698
    5DOPE  C214  583   2.089   4.756  15.596
    5DOPE  H14R  584   2.129   4.662  15.669
    5DOPE  H14S  585   2.198   4.823  15.565
    5DOPE  C215  586   2.014   4.674  15.475
    5DOPE  H15R  587   1.924   4.585  15.510
    5DOPE  H15S  588   2.108   4.607  15.420
    5DOPE  C216  589   1.930   4.792  15.379
    5DOPE  H16R  590   1.818   4.836  15.428
    5DOPE  H16S  591   1.892   4.726  15.287
    5DOPE  C217  592   2.033   4.934  15.338
    5DOPE  H17R  593   2.092   4.991  15.426
    5DOPE  H17S  594   1.958   5.029  15.292
    5DOPE  C218  595   2.160   4.889  15.237
    5DOPE  H18R  596   2.251   4.985  15.229
    5DOPE  H18S  597   2.108   4.867  15.137
    5DOPE  H18T  598   2.219   4.777  15.270
    5DOPE   C33  599   2.326   4.721  16.279
    5DOPE   H3X  600   2.250   4.612  16.289
    5DOPE   H3Y  601   2.440   4.682  16.229
    5DOPE   C34  602   2.232   4.837  16.188
    5DOPE   H4X  603   2.200   4.777  16.093
    5DOPE   H4Y  604   2.116   4.865  16.238
    5DOPE   C35  605   2.316   4.998  16.157
    5DOPE   H5X  606   2.353   5.053  16.253
    5DOPE   H5Y  607   2.232   5.082  16.108
    5DOPE   C36  608   2.466   4.992  16.068
    5DOPE   H6X  609   2.556   4.915  16.118
    5DOPE   H6Y  610   2.516   5.116  16.062
    5DOPE   C37  611   2.435   4.931  15.926
    5DOPE   H7X  612   2.364   4.817  15.932
    5DOPE   H7Y  613   2.364   5.017  15.866
    5DOPE   C38  614   2.592   4.889  15.855
    5DOPE   H8X  615   2.574   4.776  15.798
    5DOPE   H8Y  616   2.680   4.858  15.934
    5DOPE   C39  617   2.659   5.021  15.769
    5DOPE   H9X  618   2.646   5.143  15.811
    5DOPE  C310  619   2.725   5.000  15.648
    5DOPE  H10X  620   2.764   5.107  15.592
    5DOPE  C311  621   2.746   4.843  15.576
    5DOPE  H11X  622   2.838   4.853  15.496
    5DOPE  H11Y  623   2.789   4.746  15.643
    5DOPE  C312  624   2.587   4.782  15.516
    5DOPE  H12X  625   2.494   4.777  15.595
    5DOPE  H12Y  626   2.603   4.656  15.480
    5DOPE  C313  627   2.528   4.885  15.401
    5DOPE  H13X  628   2.400   4.855  15.387
    5DOPE  H13Y  629   2.532   5.014  15.430
    5DOPE  C314  630   2.622   4.855  15.272
    5DOPE  H14X  631   2.628   4.723  15.253
    5DOPE  H14Y  632   2.747   4.898  15.288
    5DOPE  C315  633   2.550   4.939  15.150
    5DOPE  H15X  634   2.504   5.059  15.183
    5DOPE  H15Y  635   2.444   4.871  15.112
    5DOPE  C316  636   2.670   4.966  15.036
    5DOPE  H16X  637   2.675   4.858  14.971
    5DOPE  H16Y  638   2.791   4.982  15.080
    5DOPE  C317  639   2.632   5.118  14.956
    5DOPE  H17X  640   2.614   5.220  15.026
    5DOPE  H17Y  641   2.737   5.148  14.894
    5DOPE  C318  642   2.489   5.108  14.861
    5DOPE  H18X  643   2.377   5.075  14.915
    5DOPE  H18Y  644   2.470   5.226  14.812
    5DOPE  H18Z  645   2.513   5.020  14.781
    6DOPE     N  646   2.243   6.238  17.052
    6DOPE   HN1  647   2.201   6.120  17.058
    6DOPE   HN2  648   2.234   6.296  17.144
    6DOPE   HN3  649   2.184   6.299  16.975
    6DOPE   C12  650   2.411   6.220  17.003
    6DOPE  H12A  651   2.477   6.146  17.077
    6DOPE  H12B  652   2.465   6.341  16.995
    6DOPE   C11  653   2.405   6.132  16.867
    6DOPE  H11A  654   2.527   6.088  16.841
    6DOPE  H11B  655   2.371   6.221  16.790
    6DOPE     P  656   2.336   5.832  16.905
    6DOPE   O13  657   2.438   5.848  17.026
    6DOPE   O14  658   2.400   5.748  16.788
    6DOPE   O11  659   2.182   5.748  16.956
    6DOPE   O12  660   2.285   6.010  16.865
    6DOPE    C1  661   2.046   5.821  17.012
    6DOPE    HA  662   2.054   5.954  17.010
    6DOPE    HB  663   2.033   5.786  17.119
    6DOPE    C2  664   1.895   5.772  16.934
    6DOPE    HS  665   1.834   5.674  16.990
    6DOPE   O21  666   1.930   5.722  16.799
    6DOPE   C21  667   1.962   5.576  16.767
    6DOPE   O22  668   1.966   5.455  16.836
    6DOPE   C22  669   1.978   5.561  16.615
    6DOPE   H2R  670   1.862   5.542  16.564
    6DOPE   H2S  671   2.045   5.448  16.608
    6DOPE    C3  672   1.784   5.922  16.928
    6DOPE    HX  673   1.774   5.969  17.033
    6DOPE    HY  674   1.663   5.891  16.893
    6DOPE   O31  675   1.850   6.047  16.845
    6DOPE   C31  676   1.829   6.017  16.717
    6DOPE   O32  677   1.735   5.920  16.670
    6DOPE   C32  678   1.950   6.114  16.638
    6DOPE   H2X  679   1.966   6.233  16.687
    6DOPE   H2Y  680   2.065   6.048  16.644
    6DOPE   C23  681   2.077   5.686  16.537
    6DOPE   H3R  682   2.143   5.764  16.609
    6DOPE   H3S  683   1.992   5.760  16.484
    6DOPE   C24  684   2.202   5.614  16.439
    6DOPE   H4R  685   2.234   5.495  16.478
    6DOPE   H4S  686   2.312   5.684  16.459
    6DOPE   C25  687   2.164   5.592  16.285
    6DOPE   H5R  688   2.092   5.483  16.281
    6DOPE   H5S  689   2.280   5.568  16.234
    6DOPE   C26  690   2.080   5.734  16.210
    6DOPE   H6R  691   2.174   5.812  16.172
    6DOPE   H6S  692   2.004   5.783  16.287
    6DOPE   C27  693   1.958   5.740  16.092
    6DOPE   H7R  694   1.873   5.641  16.102
    6DOPE   H7S  695   2.016   5.724  15.995
    6DOPE   C28  696   1.873   5.908  16.089
    6DOPE   H8R  697   1.968   6.001  16.083
    6DOPE   H8S  698   1.813   5.926  16.186
    6DOPE   C29  699   1.751   5.947  15.985
    6DOPE   H9R  700   1.626   5.957  16.020
    6DOPE  C210  701   1.780   5.992  15.860
    6DOPE  H10R  702   1.675   6.007  15.793
    6DOPE  C211  703   1.939   6.011  15.795
    6DOPE  H11R  704   2.041   5.989  15.864
    6DOPE  H11S  705   1.956   6.134  15.752
    6DOPE  C212  706   1.936   5.890  15.681
    6DOPE  H12R  707   1.903   5.768  15.720
    6DOPE  H12S  708   2.057   5.881  15.635
    6DOPE  C213  709   1.812   5.938  15.574
    6DOPE  H13R  710   1.822   6.070  15.558
    6DOPE  H13S  711   1.688   5.910  15.608
    6DOPE  C214  712   1.838   5.854  15.442
    6DOPE  H14R  713   1.818   5.723  15.454
    6DOPE  H14S  714   1.966   5.872  15.411
    6DOPE  C215  715   1.730   5.922  15.333
    6DOPE  H15R  716   1.753   6.053  15.322
    6DOPE  H15S  717   1.602   5.909  15.362
    6DOPE  C216  718   1.760   5.838  15.201
    6DOPE  H16R  719   1.890   5.842  15.177
    6DOPE  H16S  720   1.696   5.905  15.121
    6DOPE  C217  721   1.702   5.664  15.201
    6DOPE  H17R  722   1.622   5.642  15.289
    6DOPE  H17S  723   1.806   5.582  15.212
    6DOPE  C218  724   1.608   5.626  15.074
    6DOPE  H18R  725   1.564   5.501  15.074
    6DOPE  H18S  726   1.686   5.644  14.985
    6DOPE  H18T  727   1.501   5.701  15.064
    6DOPE   C33  728   1.892   6.138  16.493
    6DOPE   H3X  729   1.892   6.268  16.474
    6DOPE   H3Y  730   1.765   6.102  16.482
    6DOPE   C34  731   1.986   6.046  16.384
    6DOPE   H4X  732   1.916   5.935  16.390
    6DOPE   H4Y  733   1.960   6.102  16.286
    6DOPE   C35  734   2.172   6.030  16.396
    6DOPE   H5X  735   2.224   5.990  16.493
    6DOPE   H5Y  736   2.171   6.156  16.405
    6DOPE   C36  737   2.298   6.035  16.278
    6DOPE   H6X  738   2.358   6.152  16.269
    6DOPE   H6Y  739   2.239   6.026  16.180
    6DOPE   C37  740   2.443   5.924  16.295
    6DOPE   H7X  741   2.518   5.964  16.382
    6DOPE   H7Y  742   2.400   5.804  16.324
    6DOPE   C38  743   2.552   5.912  16.171
    6DOPE   H8X  744   2.678   5.926  16.205
    6DOPE   H8Y  745   2.530   6.010  16.097
    6DOPE   C39  746   2.524   5.746  16.118
    6DOPE   H9X  747   2.543   5.653  16.195
    6DOPE  C310  748   2.489   5.695  15.996
    6DOPE  H10X  749   2.473   5.564  15.982
    6DOPE  C311  750   2.467   5.794  15.872
    6DOPE  H11X  751   2.398   5.904  15.893
    6DOPE  H11Y  752   2.586   5.827  15.829
    6DOPE  C312  753   2.380   5.686  15.772
    6DOPE  H12X  754   2.453   5.576  15.751
    6DOPE  H12Y  755   2.364   5.750  15.676
    6DOPE  C313  756   2.214   5.640  15.825
    6DOPE  H13X  757   2.218   5.570  15.921
    6DOPE  H13Y  758   2.155   5.758  15.844
    6DOPE  C314  759   2.113   5.545  15.726
    6DOPE  H14X  760   2.105   5.617  15.633
    6DOPE  H14Y  761   1.988   5.532  15.763
    6DOPE  C315  762   2.183   5.380  15.699
    6DOPE  H15X  763   2.146   5.298  15.781
    6DOPE  H15Y  764   2.316   5.381  15.698
    6DOPE  C316  765   2.128   5.321  15.564
    6DOPE  H16X  766   1.997   5.347  15.553
    6DOPE  H16Y  767   2.143   5.189  15.555
    6DOPE  C317  768   2.222   5.404  15.452
    6DOPE  H17X  769   2.237   5.534  15.472
    6DOPE  H17Y  770   2.345   5.351  15.446
    6DOPE  C318  771   2.134   5.383  15.322
    6DOPE  H18X  772   2.011   5.436  15.332
    6DOPE  H18Y  773   2.194   5.446  15.239
    6DOPE  H18Z  774   2.123   5.254  15.298
    7DOPE     N  775   5.876   6.948  17.194
    7DOPE   HN1  776   5.999   6.965  17.177
    7DOPE   HN2  777   5.830   7.057  17.227
    7DOPE   HN3  778   5.862   6.862  17.270
    7DOPE   C12  779   5.786   6.895  17.070
    7DOPE  H12A  780   5.658   6.908  17.094
    7DOPE  H12B  781   5.816   6.767  17.051
    7DOPE   C11  782   5.819   6.996  16.943
    7DOPE  H11A  783   5.945   6.978  16.911
    7DOPE  H11B  784   5.801   7.126  16.964
    7DOPE     P  785   5.543   7.016  16.809
    7DOPE   O13  786   5.556   7.184  16.764
    7DOPE   O14  787   5.438   6.982  16.925
    7DOPE   O11  788   5.477   6.920  16.687
    7DOPE   O12  789   5.717   6.943  16.837
    7DOPE    C1  790   5.526   6.761  16.658
    7DOPE    HA  791   5.414   6.688  16.649
    7DOPE    HB  792   5.600   6.704  16.738
    7DOPE    C2  793   5.615   6.750  16.523
    7DOPE    HS  794   5.596   6.622  16.494
    7DOPE   O21  795   5.785   6.792  16.534
    7DOPE   C21  796   5.857   6.739  16.423
    7DOPE   O22  797   5.790   6.647  16.347
    7DOPE   C22  798   6.022   6.817  16.400
    7DOPE   H2R  799   6.098   6.790  16.487
    7DOPE   H2S  800   6.005   6.948  16.393
    7DOPE    C3  801   5.534   6.859  16.415
    7DOPE    HX  802   5.408   6.883  16.447
    7DOPE    HY  803   5.532   6.792  16.319
    7DOPE   O31  804   5.612   7.012  16.404
    7DOPE   C31  805   5.666   7.066  16.290
    7DOPE   O32  806   5.687   6.991  16.187
    7DOPE   C32  807   5.694   7.246  16.312
    7DOPE   H2X  808   5.662   7.276  16.416
    7DOPE   H2Y  809   5.821   7.276  16.294
    7DOPE   C23  810   6.108   6.757  16.271
    7DOPE   H3R  811   6.150   6.632  16.285
    7DOPE   H3S  812   6.218   6.830  16.255
    7DOPE   C24  813   6.005   6.764  16.145
    7DOPE   H4R  814   5.969   6.889  16.120
    7DOPE   H4S  815   5.893   6.694  16.154
    7DOPE   C25  816   6.082   6.686  16.025
    7DOPE   H5R  817   6.103   6.557  16.046
    7DOPE   H5S  818   6.200   6.743  16.009
    7DOPE   C26  819   5.964   6.700  15.908
    7DOPE   H6R  820   5.939   6.827  15.882
    7DOPE   H6S  821   5.849   6.654  15.946
    7DOPE   C27  822   6.022   6.607  15.784
    7DOPE   H7R  823   5.936   6.593  15.701
    7DOPE   H7S  824   6.056   6.484  15.819
    7DOPE   C28  825   6.167   6.690  15.728
    7DOPE   H8R  826   6.234   6.610  15.659
    7DOPE   H8S  827   6.236   6.704  15.820
    7DOPE   C29  828   6.163   6.859  15.683
    7DOPE   H9R  829   6.109   6.946  15.754
    7DOPE  C210  830   6.212   6.912  15.565
    7DOPE  H10R  831   6.209   7.042  15.549
    7DOPE  C211  832   6.278   6.823  15.446
    7DOPE  H11R  833   6.407   6.791  15.454
    7DOPE  H11S  834   6.278   6.911  15.363
    7DOPE  C212  835   6.168   6.695  15.383
    7DOPE  H12R  836   6.137   6.598  15.455
    7DOPE  H12S  837   6.246   6.646  15.304
    7DOPE  C213  838   6.017   6.779  15.322
    7DOPE  H13R  839   6.062   6.895  15.285
    7DOPE  H13S  840   5.936   6.799  15.409
    7DOPE  C214  841   5.915   6.744  15.193
    7DOPE  H14R  842   5.812   6.826  15.212
    7DOPE  H14S  843   5.852   6.628  15.190
    7DOPE  C215  844   5.989   6.805  15.057
    7DOPE  H15R  845   6.097   6.739  15.034
    7DOPE  H15S  846   6.042   6.926  15.065
    7DOPE  C216  847   5.900   6.781  14.922
    7DOPE  H16R  848   5.773   6.818  14.932
    7DOPE  H16S  849   5.900   6.649  14.908
    7DOPE  C217  850   5.981   6.859  14.796
    7DOPE  H17R  851   5.984   6.989  14.812
    7DOPE  H17S  852   5.911   6.859  14.702
    7DOPE  C218  853   6.142   6.791  14.748
    7DOPE  H18R  854   6.203   6.889  14.693
    7DOPE  H18S  855   6.125   6.688  14.678
    7DOPE  H18T  856   6.220   6.748  14.829
    7DOPE   C33  857   5.584   7.343  16.220
    7DOPE   H3X  858   5.584   7.471  16.253
    7DOPE   H3Y  859   5.456   7.300  16.225
    7DOPE   C34  860   5.644   7.331  16.078
    7DOPE   H4X  861   5.770   7.285  16.075
    7DOPE   H4Y  862   5.568   7.240  16.026
    7DOPE   C35  863   5.641   7.489  16.004
    7DOPE   H5X  864   5.759   7.552  16.019
    7DOPE   H5Y  865   5.546   7.572  16.040
    7DOPE   C36  866   5.616   7.451  15.858
    7DOPE   H6X  867   5.491   7.474  15.828
    7DOPE   H6Y  868   5.641   7.321  15.840
    7DOPE   C37  869   5.729   7.546  15.771
    7DOPE   H7X  870   5.737   7.670  15.807
    7DOPE   H7Y  871   5.851   7.499  15.784
    7DOPE   C38  872   5.675   7.549  15.624
    7DOPE   H8X  873   5.784   7.579  15.570
    7DOPE   H8Y  874   5.593   7.649  15.607
    7DOPE   C39  875   5.594   7.405  15.564
    7DOPE   H9X  876   5.568   7.313  15.638
    7DOPE  C310  877   5.572   7.367  15.435
    7DOPE  H10X  878   5.520   7.247  15.421
    7DOPE  C311  879   5.615   7.448  15.304
    7DOPE  H11X  880   5.670   7.568  15.314
    7DOPE  H11Y  881   5.716   7.388  15.256
    7DOPE  C312  882   5.479   7.456  15.199
    7DOPE  H12X  883   5.522   7.488  15.097
    7DOPE  H12Y  884   5.405   7.553  15.236
    7DOPE  C313  885   5.357   7.320  15.191
    7DOPE  H13X  886   5.335   7.265  15.290
    7DOPE  H13Y  887   5.238   7.369  15.159
    7DOPE  C314  888   5.411   7.198  15.089
    7DOPE  H14X  889   5.542   7.208  15.073
    7DOPE  H14Y  890   5.363   7.228  14.990
    7DOPE  C315  891   5.369   7.028  15.129
    7DOPE  H15X  892   5.237   7.013  15.136
    7DOPE  H15Y  893   5.418   6.997  15.228
    7DOPE  C316  894   5.435   6.918  15.021
    7DOPE  H16X  895   5.564   6.947  15.006
    7DOPE  H16Y  896   5.370   6.947  14.927
    7DOPE  C317  897   5.416   6.743  15.057
    7DOPE  H17X  898   5.537   6.688  15.065
    7DOPE  H17Y  899   5.366   6.737  15.159
    7DOPE  C318  900   5.310   6.652  14.959
    7DOPE  H18X  901   5.344   6.672  14.854
    7DOPE  H18Y  902   5.310   6.521  14.982
    7DOPE  H18Z  903   5.186   6.694  14.955
    8DOPE     N  904   6.576   6.632  17.184
    8DOPE   HN1  905   6.485   6.559  17.223
    8DOPE   HN2  906   6.642   6.548  17.127
    8DOPE   HN3  907   6.644   6.679  17.262
    8DOPE   C12  908   6.512   6.757  17.091
    8DOPE  H12A  909   6.617   6.820  17.045
    8DOPE  H12B  910   6.438   6.842  17.148
    8DOPE   C11  911   6.419   6.676  16.978
    8DOPE  H11A  912   6.362   6.766  16.911
    8DOPE  H11B  913   6.323   6.601  17.022
    8DOPE     P  914   6.455   6.445  16.814
    8DOPE   O13  915   6.318   6.508  16.737
    8DOPE   O14  916   6.436   6.310  16.908
    8DOPE   O11  917   6.604   6.419  16.723
    8DOPE   O12  918   6.529   6.581  16.904
    8DOPE    C1  919   6.740   6.353  16.788
    8DOPE    HA  920   6.713   6.269  16.871
    8DOPE    HB  921   6.817   6.451  16.826
    8DOPE    C2  922   6.826   6.245  16.688
    8DOPE    HS  923   6.942   6.209  16.728
    8DOPE   O21  924   6.852   6.329  16.568
    8DOPE   C21  925   6.958   6.442  16.583
    8DOPE   O22  926   7.036   6.475  16.682
    8DOPE   C22  927   6.966   6.532  16.454
    8DOPE   H2R  928   7.094   6.560  16.441
    8DOPE   H2S  929   6.892   6.642  16.462
    8DOPE    C3  930   6.731   6.089  16.660
    8DOPE    HX  931   6.707   6.028  16.757
    8DOPE    HY  932   6.812   6.010  16.603
    8DOPE   O31  933   6.581   6.113  16.594
    8DOPE   C31  934   6.589   6.110  16.463
    8DOPE   O32  935   6.708   6.084  16.395
    8DOPE   C32  936   6.422   6.115  16.406
    8DOPE   H2X  937   6.406   5.992  16.370
    8DOPE   H2Y  938   6.334   6.146  16.484
    8DOPE   C23  939   6.919   6.434  16.331
    8DOPE   H3R  940   6.791   6.400  16.332
    8DOPE   H3S  941   6.986   6.323  16.324
    8DOPE   C24  942   6.972   6.524  16.209
    8DOPE   H4R  943   7.103   6.547  16.210
    8DOPE   H4S  944   6.912   6.640  16.219
    8DOPE   C25  945   6.926   6.439  16.081
    8DOPE   H5R  946   6.911   6.529  16.000
    8DOPE   H5S  947   6.810   6.374  16.096
    8DOPE   C26  948   7.058   6.324  16.041
    8DOPE   H6R  949   7.146   6.316  16.124
    8DOPE   H6S  950   7.123   6.373  15.954
    8DOPE   C27  951   6.997   6.156  16.010
    8DOPE   H7R  952   6.896   6.125  16.078
    8DOPE   H7S  953   7.097   6.070  16.031
    8DOPE   C28  954   6.949   6.149  15.864
    8DOPE   H8R  955   7.050   6.187  15.800
    8DOPE   H8S  956   6.848   6.235  15.849
    8DOPE   C29  957   6.902   5.983  15.824
    8DOPE   H9R  958   7.001   5.909  15.793
    8DOPE  C210  959   6.756   5.922  15.832
    8DOPE  H10R  960   6.731   5.806  15.784
    8DOPE  C211  961   6.614   6.013  15.884
    8DOPE  H11R  962   6.648   6.107  15.958
    8DOPE  H11S  963   6.527   5.930  15.931
    8DOPE  C212  964   6.541   6.094  15.762
    8DOPE  H12R  965   6.623   6.188  15.720
    8DOPE  H12S  966   6.428   6.155  15.793
    8DOPE  C213  967   6.505   5.971  15.654
    8DOPE  H13R  968   6.475   5.852  15.698
    8DOPE  H13S  969   6.611   5.953  15.587
    8DOPE  C214  970   6.366   6.029  15.572
    8DOPE  H14R  971   6.254   6.037  15.634
    8DOPE  H14S  972   6.349   5.930  15.498
    8DOPE  C215  973   6.404   6.192  15.511
    8DOPE  H15R  974   6.527   6.186  15.467
    8DOPE  H15S  975   6.407   6.288  15.588
    8DOPE  C216  976   6.287   6.236  15.401
    8DOPE  H16R  977   6.343   6.337  15.346
    8DOPE  H16S  978   6.174   6.281  15.446
    8DOPE  C217  979   6.258   6.094  15.307
    8DOPE  H17R  980   6.366   6.016  15.311
    8DOPE  H17S  981   6.254   6.131  15.201
    8DOPE  C218  982   6.113   5.988  15.340
    8DOPE  H18R  983   6.000   6.053  15.321
    8DOPE  H18S  984   6.109   5.945  15.444
    8DOPE  H18T  985   6.120   5.879  15.276
    8DOPE   C33  986   6.414   6.228  16.286
    8DOPE   H3X  987   6.300   6.206  16.230
    8DOPE   H3Y  988   6.516   6.197  16.218
    8DOPE   C34  989   6.419   6.403  16.329
    8DOPE   H4X  990   6.294   6.442  16.352
    8DOPE   H4Y  991   6.488   6.419  16.423
    8DOPE   C35  992   6.491   6.515  16.223
    8DOPE   H5X  993   6.622   6.527  16.239
    8DOPE   H5Y  994   6.439   6.637  16.236
    8DOPE   C36  995   6.467   6.460  16.079
    8DOPE   H6X  996   6.336   6.451  16.056
    8DOPE   H6Y  997   6.521   6.341  16.057
    8DOPE   C37  998   6.547   6.580  15.987
    8DOPE   H7X  999   6.523   6.701  16.029
    8DOPE   H7Y 1000   6.678   6.562  15.988
    8DOPE   C38 1001   6.496   6.560  15.843
    8DOPE   H8X 1002   6.370   6.517  15.843
    8DOPE   H8Y 1003   6.563   6.460  15.797
    8DOPE   C39 1004   6.520   6.724  15.780
    8DOPE   H9X 1005   6.454   6.822  15.829
    8DOPE  C310 1006   6.619   6.758  15.681
    8DOPE  H10X 1007   6.631   6.883  15.647
    8DOPE  C311 1008   6.724   6.630  15.621
    8DOPE  H11X 1009   6.665   6.510  15.625
    8DOPE  H11Y 1010   6.740   6.653  15.515
    8DOPE  C312 1011   6.886   6.624  15.695
    8DOPE  H12X 1012   6.857   6.630  15.804
    8DOPE  H12Y 1013   6.958   6.732  15.670
    8DOPE  C313 1014   6.982   6.467  15.677
    8DOPE  H13X 1015   7.048   6.446  15.772
    8DOPE  H13Y 1016   6.894   6.368  15.665
    8DOPE  C314 1017   7.103   6.458  15.560
    8DOPE  H14X 1018   7.220   6.508  15.591
    8DOPE  H14Y 1019   7.062   6.542  15.481
    8DOPE  C315 1020   7.117   6.295  15.487
    8DOPE  H15X 1021   7.184   6.200  15.542
    8DOPE  H15Y 1022   7.190   6.318  15.396
    8DOPE  C316 1023   6.956   6.224  15.443
    8DOPE  H16X 1024   6.893   6.168  15.529
    8DOPE  H16Y 1025   6.980   6.126  15.373
    8DOPE  C317 1026   6.847   6.344  15.372
    8DOPE  H17X 1027   6.730   6.288  15.348
    8DOPE  H17Y 1028   6.820   6.443  15.441
    8DOPE  C318 1029   6.920   6.408  15.242
    8DOPE  H18X 1030   7.045   6.366  15.226
    8DOPE  H18Y 1031   6.916   6.538  15.232
    8DOPE  H18Z 1032   6.845   6.374  15.156
    9DOPE     N 1033   1.576   5.618  16.644
    9DOPE   HN1 1034   1.699   5.611  16.638
    9DOPE   HN2 1035   1.524   5.644  16.551
    9DOPE   HN3 1036   1.554   5.717  16.706
    9DOPE   C12 1037   1.496   5.476  16.708
    9DOPE  H12A 1038   1.512   5.370  16.643
    9DOPE  H12B 1039   1.367   5.503  16.713
    9DOPE   C11 1040   1.554   5.449  16.853
    9DOPE  H11A 1041   1.670   5.384  16.847
    9DOPE  H11B 1042   1.468   5.368  16.904
    9DOPE     P 1043   1.459   5.664  17.033
    9DOPE   O13 1044   1.504   5.832  17.065
    9DOPE   O14 1045   1.445   5.551  17.146
    9DOPE   O11 1046   1.304   5.666  16.947
    9DOPE   O12 1047   1.579   5.596  16.923
    9DOPE    C1 1048   1.145   5.644  16.991
    9DOPE    HA 1049   1.102   5.755  17.041
    9DOPE    HB 1050   1.134   5.542  17.062
    9DOPE    C2 1051   1.040   5.612  16.867
    9DOPE    HS 1052   0.918   5.572  16.898
    9DOPE   O21 1053   1.115   5.501  16.778
    9DOPE   C21 1054   1.056   5.357  16.768
    9DOPE   O22 1055   0.958   5.296  16.842
    9DOPE   C22 1056   1.128   5.278  16.644
    9DOPE   H2R 1057   1.050   5.174  16.628
    9DOPE   H2S 1058   1.249   5.236  16.668
    9DOPE    C3 1059   1.018   5.768  16.785
    9DOPE    HX 1060   0.926   5.839  16.841
    9DOPE    HY 1061   0.964   5.736  16.687
    9DOPE   O31 1062   1.158   5.870  16.769
    9DOPE   C31 1063   1.254   5.837  16.669
    9DOPE   O32 1064   1.258   5.717  16.602
    9DOPE   C32 1065   1.349   5.984  16.630
    9DOPE   H2X 1066   1.260   6.082  16.616
    9DOPE   H2Y 1067   1.430   6.017  16.713
    9DOPE   C23 1068   1.121   5.381  16.514
    9DOPE   H3R 1069   1.206   5.480  16.526
    9DOPE   H3S 1070   0.998   5.431  16.501
    9DOPE   C24 1071   1.175   5.300  16.383
    9DOPE   H4R 1072   1.178   5.393  16.303
    9DOPE   H4S 1073   1.086   5.209  16.352
    9DOPE   C25 1074   1.340   5.225  16.395
    9DOPE   H5R 1075   1.343   5.148  16.486
    9DOPE   H5S 1076   1.435   5.318  16.407
    9DOPE   C26 1077   1.385   5.112  16.281
    9DOPE   H6R 1078   1.291   5.022  16.259
    9DOPE   H6S 1079   1.490   5.047  16.322
    9DOPE   C27 1080   1.447   5.192  16.153
    9DOPE   H7R 1081   1.544   5.118  16.108
    9DOPE   H7S 1082   1.505   5.304  16.187
    9DOPE   C28 1083   1.320   5.228  16.045
    9DOPE   H8R 1084   1.384   5.299  15.967
    9DOPE   H8S 1085   1.231   5.312  16.089
    9DOPE   C29 1086   1.235   5.087  15.984
    9DOPE   H9R 1087   1.141   5.034  16.049
    9DOPE  C210 1088   1.267   5.016  15.865
    9DOPE  H10R 1089   1.198   4.910  15.835
    9DOPE  C211 1090   1.398   5.069  15.770
    9DOPE  H11R 1091   1.496   4.981  15.782
    9DOPE  H11S 1092   1.446   5.188  15.798
    9DOPE  C212 1093   1.374   5.075  15.617
    9DOPE  H12R 1094   1.294   5.177  15.591
    9DOPE  H12S 1095   1.318   4.962  15.581
    9DOPE  C213 1096   1.537   5.096  15.546
    9DOPE  H13R 1097   1.602   4.979  15.548
    9DOPE  H13S 1098   1.612   5.183  15.603
    9DOPE  C214 1099   1.523   5.158  15.401
    9DOPE  H14R 1100   1.493   5.287  15.406
    9DOPE  H14S 1101   1.423   5.094  15.350
    9DOPE  C215 1102   1.676   5.138  15.317
    9DOPE  H15R 1103   1.702   5.009  15.297
    9DOPE  H15S 1104   1.780   5.189  15.374
    9DOPE  C216 1105   1.664   5.227  15.184
    9DOPE  H16R 1106   1.615   5.345  15.213
    9DOPE  H16S 1107   1.576   5.168  15.116
    9DOPE  C217 1108   1.824   5.260  15.112
    9DOPE  H17R 1109   1.915   5.287  15.187
    9DOPE  H17S 1110   1.812   5.369  15.049
    9DOPE  C218 1111   1.886   5.125  15.023
    9DOPE  H18R 1112   1.950   5.033  15.081
    9DOPE  H18S 1113   1.970   5.171  14.945
    9DOPE  H18T 1114   1.781   5.069  14.975
    9DOPE   C33 1115   1.445   5.957  16.499
    9DOPE   H3X 1116   1.530   5.856  16.508
    9DOPE   H3Y 1117   1.523   6.064  16.483
    9DOPE   C34 1118   1.346   5.927  16.373
    9DOPE   H4X 1119   1.265   5.824  16.386
    9DOPE   H4Y 1120   1.266   6.030  16.349
    9DOPE   C35 1121   1.452   5.892  16.251
    9DOPE   H5X 1122   1.562   5.965  16.251
    9DOPE   H5Y 1123   1.379   5.932  16.165
    9DOPE   C36 1124   1.489   5.712  16.242
    9DOPE   H6X 1125   1.388   5.642  16.285
    9DOPE   H6Y 1126   1.597   5.687  16.304
    9DOPE   C37 1127   1.523   5.645  16.101
    9DOPE   H7X 1128   1.651   5.659  16.082
    9DOPE   H7Y 1129   1.502   5.514  16.101
    9DOPE   C38 1130   1.436   5.717  15.980
    9DOPE   H8X 1131   1.524   5.708  15.896
    9DOPE   H8Y 1132   1.412   5.846  15.989
    9DOPE   C39 1133   1.285   5.632  15.946
    9DOPE   H9X 1134   1.219   5.576  16.030
    9DOPE  C310 1135   1.219   5.633  15.824
    9DOPE  H10X 1136   1.103   5.574  15.808
    9DOPE  C311 1137   1.288   5.720  15.705
    9DOPE  H11X 1138   1.237   5.844  15.696
    9DOPE  H11Y 1139   1.421   5.734  15.709
    9DOPE  C312 1140   1.247   5.628  15.578
    9DOPE  H12X 1141   1.115   5.632  15.558
    9DOPE  H12Y 1142   1.282   5.500  15.589
    9DOPE  C313 1143   1.339   5.695  15.458
    9DOPE  H13X 1144   1.470   5.693  15.477
    9DOPE  H13Y 1145   1.319   5.604  15.380
    9DOPE  C314 1146   1.289   5.862  15.406
    9DOPE  H14X 1147   1.372   5.952  15.448
    9DOPE  H14Y 1148   1.165   5.894  15.439
    9DOPE  C315 1149   1.294   5.862  15.252
    9DOPE  H15X 1150   1.177   5.816  15.214
    9DOPE  H15Y 1151   1.386   5.774  15.223
    9DOPE  C316 1152   1.333   6.022  15.184
    9DOPE  H16X 1153   1.458   6.054  15.208
    9DOPE  H16Y 1154   1.252   6.114  15.228
    9DOPE  C317 1155   1.309   6.024  15.031
    9DOPE  H17X 1156   1.219   5.930  15.002
    9DOPE  H17Y 1157   1.255   6.143  15.005
    9DOPE  C318 1158   1.460   6.007  14.944
    9DOPE  H18X 1159   1.560   6.080  14.985
    9DOPE  H18Y 1160   1.501   5.881  14.937
    9DOPE  H18Z 1161   1.436   6.047  14.840
   10DOPE     N 1162   2.466   7.415  16.986
   10DOPE   HN1 1163   2.390   7.430  17.067
   10DOPE   HN2 1164   2.562   7.340  17.014
   10DOPE   HN3 1165   2.495   7.524  16.941
   10DOPE   C12 1166   2.375   7.319  16.888
   10DOPE  H12A 1167   2.366   7.386  16.793
   10DOPE  H12B 1168   2.254   7.302  16.932
   10DOPE   C11 1169   2.459   7.159  16.871
   10DOPE  H11A 1170   2.591   7.170  16.866
   10DOPE  H11B 1171   2.420   7.120  16.769
   10DOPE     P 1172   2.357   6.880  16.945
   10DOPE   O13 1173   2.432   6.755  17.029
   10DOPE   O14 1174   2.360   6.868  16.801
   10DOPE   O11 1175   2.172   6.894  16.984
   10DOPE   O12 1176   2.416   7.055  16.981
   10DOPE    C1 1177   2.078   6.750  16.990
   10DOPE    HA 1178   1.990   6.760  17.073
   10DOPE    HB 1179   2.153   6.644  17.020
   10DOPE    C2 1180   1.985   6.698  16.859
   10DOPE    HS 1181   1.928   6.581  16.884
   10DOPE   O21 1182   2.095   6.680  16.748
   10DOPE   C21 1183   2.214   6.568  16.762
   10DOPE   O22 1184   2.212   6.461  16.846
   10DOPE   C22 1185   2.346   6.589  16.654
   10DOPE   H2R 1186   2.448   6.656  16.693
   10DOPE   H2S 1187   2.298   6.662  16.573
   10DOPE    C3 1188   1.834   6.816  16.817
   10DOPE    HX 1189   1.768   6.848  16.908
   10DOPE    HY 1190   1.770   6.720  16.767
   10DOPE   O31 1191   1.838   6.955  16.729
   10DOPE   C31 1192   1.722   7.012  16.641
   10DOPE   O32 1193   1.586   6.956  16.637
   10DOPE   C32 1194   1.774   7.157  16.533
   10DOPE   H2X 1195   1.660   7.218  16.511
   10DOPE   H2Y 1196   1.838   7.225  16.599
   10DOPE   C23 1197   2.418   6.434  16.599
   10DOPE   H3R 1198   2.494   6.373  16.673
   10DOPE   H3S 1199   2.496   6.464  16.512
   10DOPE   C24 1200   2.290   6.330  16.541
   10DOPE   H4R 1201   2.218   6.269  16.618
   10DOPE   H4S 1202   2.359   6.235  16.487
   10DOPE   C25 1203   2.186   6.422  16.439
   10DOPE   H5R 1204   2.138   6.529  16.485
   10DOPE   H5S 1205   2.076   6.366  16.403
   10DOPE   C26 1206   2.285   6.450  16.314
   10DOPE   H6R 1207   2.401   6.386  16.320
   10DOPE   H6S 1208   2.315   6.578  16.323
   10DOPE   C27 1209   2.200   6.404  16.182
   10DOPE   H7R 1210   2.168   6.275  16.184
   10DOPE   H7S 1211   2.282   6.420  16.096
   10DOPE   C28 1212   2.044   6.496  16.159
   10DOPE   H8R 1213   1.956   6.472  16.240
   10DOPE   H8S 1214   1.982   6.450  16.068
   10DOPE   C29 1215   2.090   6.670  16.152
   10DOPE   H9R 1216   2.158   6.713  16.239
   10DOPE  C210 1217   2.041   6.780  16.066
   10DOPE  H10R 1218   2.090   6.902  16.076
   10DOPE  C211 1219   1.924   6.752  15.956
   10DOPE  H11R 1220   1.897   6.868  15.906
   10DOPE  H11S 1221   1.810   6.710  16.001
   10DOPE  C212 1222   1.992   6.635  15.850
   10DOPE  H12R 1223   1.898   6.604  15.777
   10DOPE  H12S 1224   2.034   6.521  15.894
   10DOPE  C213 1225   2.135   6.710  15.779
   10DOPE  H13R 1226   2.221   6.750  15.856
   10DOPE  H13S 1227   2.092   6.818  15.725
   10DOPE  C214 1228   2.225   6.601  15.681
   10DOPE  H14R 1229   2.285   6.502  15.734
   10DOPE  H14S 1230   2.321   6.676  15.634
   10DOPE  C215 1231   2.114   6.535  15.571
   10DOPE  H15R 1232   2.021   6.626  15.549
   10DOPE  H15S 1233   2.053   6.426  15.609
   10DOPE  C216 1234   2.204   6.498  15.440
   10DOPE  H16R 1235   2.335   6.511  15.456
   10DOPE  H16S 1236   2.167   6.588  15.363
   10DOPE  C217 1237   2.167   6.334  15.381
   10DOPE  H17R 1238   2.156   6.244  15.463
   10DOPE  H17S 1239   2.269   6.296  15.317
   10DOPE  C218 1240   2.015   6.336  15.296
   10DOPE  H18R 1241   1.909   6.365  15.359
   10DOPE  H18S 1242   1.994   6.217  15.247
   10DOPE  H18T 1243   2.024   6.430  15.217
   10DOPE   C33 1244   1.895   7.178  16.399
   10DOPE   H3X 1245   1.808   7.206  16.318
   10DOPE   H3Y 1246   1.960   7.073  16.371
   10DOPE   C34 1247   2.045   7.297  16.376
   10DOPE   H4X 1248   2.047   7.316  16.265
   10DOPE   H4Y 1249   2.024   7.418  16.412
   10DOPE   C35 1250   2.227   7.259  16.404
   10DOPE   H5X 1251   2.254   7.220  16.507
   10DOPE   H5Y 1252   2.293   7.375  16.396
   10DOPE   C36 1253   2.324   7.141  16.314
   10DOPE   H6X 1254   2.338   7.192  16.212
   10DOPE   H6Y 1255   2.258   7.026  16.306
   10DOPE   C37 1256   2.494   7.104  16.373
   10DOPE   H7X 1257   2.563   7.217  16.380
   10DOPE   H7Y 1258   2.482   7.058  16.477
   10DOPE   C38 1259   2.597   6.982  16.295
   10DOPE   H8X 1260   2.712   6.973  16.350
   10DOPE   H8Y 1261   2.626   7.037  16.197
   10DOPE   C39 1262   2.540   6.810  16.281
   10DOPE   H9X 1263   2.537   6.743  16.375
   10DOPE  C310 1264   2.485   6.737  16.170
   10DOPE  H10X 1265   2.470   6.606  16.173
   10DOPE  C311 1266   2.462   6.802  16.033
   10DOPE  H11X 1267   2.420   6.701  15.969
   10DOPE  H11Y 1268   2.366   6.895  16.032
   10DOPE  C312 1269   2.616   6.866  15.971
   10DOPE  H12X 1270   2.717   6.785  15.997
   10DOPE  H12Y 1271   2.645   6.989  16.007
   10DOPE  C313 1272   2.600   6.874  15.820
   10DOPE  H13X 1273   2.717   6.914  15.776
   10DOPE  H13Y 1274   2.574   6.751  15.782
   10DOPE  C314 1275   2.471   6.986  15.768
   10DOPE  H14X 1276   2.488   7.110  15.807
   10DOPE  H14Y 1277   2.350   6.946  15.799
   10DOPE  C315 1278   2.486   6.982  15.616
   10DOPE  H15X 1279   2.510   6.854  15.586
   10DOPE  H15Y 1280   2.594   7.052  15.587
   10DOPE  C316 1281   2.340   7.039  15.540
   10DOPE  H16X 1282   2.314   7.165  15.567
   10DOPE  H16Y 1283   2.233   6.965  15.566
   10DOPE  C317 1284   2.375   7.024  15.392
   10DOPE  H17X 1285   2.290   7.103  15.339
   10DOPE  H17Y 1286   2.500   7.066  15.371
   10DOPE  C318 1287   2.354   6.854  15.337
   10DOPE  H18X 1288   2.431   6.767  15.391
   10DOPE  H18Y 1289   2.226   6.820  15.349
   10DOPE  H18Z 1290   2.383   6.848  15.229
   11DOPE     N 1291   1.754   3.592  17.141
   11DOPE   HN1 1292   1.782   3.593  17.242
   11DOPE   HN2 1293   1.795   3.692  17.091
   11DOPE   HN3 1294   1.630   3.592  17.123
   11DOPE   C12 1295   1.824   3.452  17.061
   11DOPE  H12A 1296   1.789   3.338  17.111
   11DOPE  H12B 1297   1.956   3.464  17.059
   11DOPE   C11 1298   1.752   3.458  16.921
   11DOPE  H11A 1299   1.759   3.338  16.872
   11DOPE  H11B 1300   1.820   3.540  16.854
   11DOPE     P 1301   1.489   3.548  16.804
   11DOPE   O13 1302   1.579   3.674  16.734
   11DOPE   O14 1303   1.322   3.571  16.844
   11DOPE   O11 1304   1.512   3.385  16.728
   11DOPE   O12 1305   1.590   3.514  16.933
   11DOPE    C1 1306   1.457   3.245  16.799
   11DOPE    HA 1307   1.351   3.268  16.868
   11DOPE    HB 1308   1.554   3.193  16.862
   11DOPE    C2 1309   1.402   3.115  16.700
   11DOPE    HS 1310   1.390   3.002  16.759
   11DOPE   O21 1311   1.507   3.089  16.588
   11DOPE   C21 1312   1.658   3.073  16.599
   11DOPE   O22 1313   1.736   3.067  16.704
   11DOPE   C22 1314   1.739   3.070  16.456
   11DOPE   H2R 1315   1.856   3.082  16.502
   11DOPE   H2S 1316   1.716   3.180  16.399
   11DOPE    C3 1317   1.234   3.154  16.641
   11DOPE    HX 1318   1.145   3.143  16.723
   11DOPE    HY 1319   1.211   3.055  16.568
   11DOPE   O31 1320   1.217   3.310  16.579
   11DOPE   C31 1321   1.298   3.337  16.468
   11DOPE   O32 1322   1.375   3.241  16.403
   11DOPE   C32 1323   1.264   3.503  16.413
   11DOPE   H2X 1324   1.133   3.509  16.394
   11DOPE   H2Y 1325   1.296   3.596  16.487
   11DOPE   C23 1326   1.782   2.915  16.369
   11DOPE   H3R 1327   1.710   2.814  16.406
   11DOPE   H3S 1328   1.908   2.884  16.393
   11DOPE   C24 1329   1.780   2.906  16.213
   11DOPE   H4R 1330   1.698   2.814  16.170
   11DOPE   H4S 1331   1.898   2.852  16.184
   11DOPE   C25 1332   1.768   3.064  16.136
   11DOPE   H5R 1333   1.846   3.058  16.046
   11DOPE   H5S 1334   1.813   3.160  16.201
   11DOPE   C26 1335   1.602   3.118  16.087
   11DOPE   H6R 1336   1.544   3.196  16.164
   11DOPE   H6S 1337   1.530   3.010  16.080
   11DOPE   C27 1338   1.622   3.202  15.951
   11DOPE   H7R 1339   1.667   3.113  15.877
   11DOPE   H7S 1340   1.723   3.287  15.969
   11DOPE   C28 1341   1.486   3.304  15.890
   11DOPE   H8R 1342   1.547   3.378  15.814
   11DOPE   H8S 1343   1.446   3.388  15.970
   11DOPE   C29 1344   1.336   3.232  15.828
   11DOPE   H9R 1345   1.241   3.204  15.901
   11DOPE  C210 1346   1.309   3.200  15.697
   11DOPE  H10R 1347   1.188   3.160  15.667
   11DOPE  C211 1348   1.424   3.230  15.584
   11DOPE  H11R 1349   1.487   3.347  15.602
   11DOPE  H11S 1350   1.360   3.242  15.487
   11DOPE  C212 1351   1.555   3.100  15.572
   11DOPE  H12R 1352   1.504   2.992  15.523
   11DOPE  H12S 1353   1.595   3.066  15.674
   11DOPE  C213 1354   1.709   3.155  15.498
   11DOPE  H13R 1355   1.754   3.269  15.543
   11DOPE  H13S 1356   1.675   3.186  15.393
   11DOPE  C214 1357   1.844   3.028  15.496
   11DOPE  H14R 1358   1.801   2.916  15.545
   11DOPE  H14S 1359   1.950   3.068  15.555
   11DOPE  C215 1360   1.889   2.995  15.350
   11DOPE  H15R 1361   2.006   2.938  15.330
   11DOPE  H15S 1362   1.894   3.114  15.301
   11DOPE  C216 1363   1.758   2.897  15.284
   11DOPE  H16R 1364   1.651   2.892  15.351
   11DOPE  H16S 1365   1.802   2.772  15.273
   11DOPE  C217 1366   1.711   2.957  15.146
   11DOPE  H17R 1367   1.684   3.088  15.146
   11DOPE  H17S 1368   1.601   2.894  15.112
   11DOPE  C218 1369   1.848   2.920  15.050
   11DOPE  H18R 1370   1.945   3.010  15.056
   11DOPE  H18S 1371   1.806   2.905  14.947
   11DOPE  H18T 1372   1.904   2.806  15.082
   11DOPE   C33 1373   1.358   3.522  16.280
   11DOPE   H3X 1374   1.332   3.421  16.210
   11DOPE   H3Y 1375   1.489   3.522  16.300
   11DOPE   C34 1376   1.306   3.677  16.213
   11DOPE   H4X 1377   1.176   3.659  16.192
   11DOPE   H4Y 1378   1.321   3.772  16.290
   11DOPE   C35 1379   1.386   3.731  16.083
   11DOPE   H5X 1380   1.288   3.776  16.018
   11DOPE   H5Y 1381   1.439   3.626  16.030
   11DOPE   C36 1382   1.507   3.869  16.097
   11DOPE   H6X 1383   1.568   3.866  16.195
   11DOPE   H6Y 1384   1.454   3.990  16.091
   11DOPE   C37 1385   1.626   3.869  15.981
   11DOPE   H7X 1386   1.745   3.910  16.019
   11DOPE   H7Y 1387   1.632   3.745  15.943
   11DOPE   C38 1388   1.582   3.973  15.861
   11DOPE   H8X 1389   1.670   3.955  15.779
   11DOPE   H8Y 1390   1.591   4.099  15.897
   11DOPE   C39 1391   1.412   3.940  15.818
   11DOPE   H9X 1392   1.338   4.048  15.821
   11DOPE  C310 1393   1.346   3.814  15.758
   11DOPE  H10X 1394   1.222   3.827  15.725
   11DOPE  C311 1395   1.423   3.659  15.710
   11DOPE  H11X 1396   1.549   3.641  15.742
   11DOPE  H11Y 1397   1.350   3.551  15.731
   11DOPE  C312 1398   1.410   3.709  15.565
   11DOPE  H12X 1399   1.478   3.824  15.550
   11DOPE  H12Y 1400   1.279   3.722  15.541
   11DOPE  C313 1401   1.468   3.616  15.445
   11DOPE  H13X 1402   1.598   3.589  15.444
   11DOPE  H13Y 1403   1.400   3.502  15.431
   11DOPE  C314 1404   1.423   3.738  15.338
   11DOPE  H14X 1405   1.524   3.826  15.328
   11DOPE  H14Y 1406   1.315   3.808  15.367
   11DOPE  C315 1407   1.376   3.670  15.207
   11DOPE  H15X 1408   1.465   3.577  15.190
   11DOPE  H15Y 1409   1.384   3.768  15.132
   11DOPE  C316 1410   1.216   3.584  15.196
   11DOPE  H16X 1411   1.132   3.673  15.159
   11DOPE  H16Y 1412   1.176   3.532  15.291
   11DOPE  C317 1413   1.220   3.461  15.086
   11DOPE  H17X 1414   1.283   3.353  15.123
   11DOPE  H17Y 1415   1.098   3.426  15.051
   11DOPE  C318 1416   1.313   3.538  14.971
   11DOPE  H18X 1417   1.262   3.655  14.950
   11DOPE  H18Y 1418   1.440   3.559  14.995
   11DOPE  H18Z 1419   1.309   3.467  14.880
   12DOPE     N 1420   3.726   7.782  16.905
   12DOPE   HN1 1421   3.616   7.768  16.859
   12DOPE   HN2 1422   3.821   7.762  16.837
   12DOPE   HN3 1423   3.737   7.698  16.982
   12DOPE   C12 1424   3.750   7.946  16.959
   12DOPE  H12A 1425   3.668   7.964  17.044
   12DOPE  H12B 1426   3.722   8.034  16.878
   12DOPE   C11 1427   3.926   7.967  16.999
   12DOPE  H11A 1428   3.961   7.880  17.078
   12DOPE  H11B 1429   3.936   8.090  17.043
   12DOPE     P 1430   4.171   8.063  16.863
   12DOPE   O13 1431   4.241   8.028  16.730
   12DOPE   O14 1432   4.279   8.051  16.981
   12DOPE   O11 1433   4.063   8.222  16.857
   12DOPE   O12 1434   4.028   7.939  16.887
   12DOPE    C1 1435   4.081   8.342  16.754
   12DOPE    HA 1436   4.174   8.306  16.679
   12DOPE    HB 1437   4.134   8.452  16.801
   12DOPE    C2 1438   3.925   8.401  16.673
   12DOPE    HS 1439   3.923   8.534  16.688
   12DOPE   O21 1440   3.772   8.333  16.713
   12DOPE   C21 1441   3.646   8.406  16.653
   12DOPE   O22 1442   3.653   8.534  16.596
   12DOPE   C22 1443   3.488   8.311  16.668
   12DOPE   H2R 1444   3.389   8.398  16.654
   12DOPE   H2S 1445   3.484   8.264  16.771
   12DOPE    C3 1446   3.950   8.368  16.520
   12DOPE    HX 1447   4.058   8.435  16.486
   12DOPE    HY 1448   3.847   8.412  16.459
   12DOPE   O31 1449   3.972   8.200  16.501
   12DOPE   C31 1450   4.001   8.144  16.381
   12DOPE   O32 1451   3.988   8.215  16.275
   12DOPE   C32 1452   4.064   7.973  16.403
   12DOPE   H2X 1453   4.150   7.979  16.489
   12DOPE   H2Y 1454   3.961   7.901  16.437
   12DOPE   C23 1455   3.458   8.172  16.569
   12DOPE   H3R 1456   3.440   8.220  16.466
   12DOPE   H3S 1457   3.344   8.112  16.599
   12DOPE   C24 1458   3.596   8.051  16.572
   12DOPE   H4R 1459   3.618   8.014  16.677
   12DOPE   H4S 1460   3.706   8.112  16.535
   12DOPE   C25 1461   3.568   7.902  16.486
   12DOPE   H5R 1462   3.470   7.830  16.535
   12DOPE   H5S 1463   3.678   7.826  16.484
   12DOPE   C26 1464   3.512   7.937  16.342
   12DOPE   H6R 1465   3.394   7.996  16.348
   12DOPE   H6S 1466   3.500   7.818  16.293
   12DOPE   C27 1467   3.608   8.047  16.248
   12DOPE   H7R 1468   3.731   7.999  16.231
   12DOPE   H7S 1469   3.623   8.168  16.294
   12DOPE   C28 1470   3.520   8.060  16.113
   12DOPE   H8R 1471   3.401   8.116  16.130
   12DOPE   H8S 1472   3.497   7.936  16.078
   12DOPE   C29 1473   3.611   8.154  16.009
   12DOPE   H9R 1474   3.655   8.272  16.045
   12DOPE  C210 1475   3.643   8.108  15.883
   12DOPE  H10R 1476   3.718   8.189  15.821
   12DOPE  C211 1477   3.596   7.956  15.812
   12DOPE  H11R 1478   3.518   7.877  15.874
   12DOPE  H11S 1479   3.707   7.886  15.790
   12DOPE  C212 1480   3.510   7.986  15.678
   12DOPE  H12R 1481   3.390   8.041  15.694
   12DOPE  H12S 1482   3.490   7.867  15.629
   12DOPE  C213 1483   3.606   8.093  15.583
   12DOPE  H13R 1484   3.734   8.054  15.581
   12DOPE  H13S 1485   3.604   8.219  15.620
   12DOPE  C214 1486   3.538   8.088  15.442
   12DOPE  H14R 1487   3.407   8.112  15.446
   12DOPE  H14S 1488   3.554   7.967  15.398
   12DOPE  C215 1489   3.618   8.214  15.355
   12DOPE  H15R 1490   3.749   8.189  15.350
   12DOPE  H15S 1491   3.602   8.334  15.402
   12DOPE  C216 1492   3.547   8.215  15.216
   12DOPE  H16R 1493   3.420   8.256  15.221
   12DOPE  H16S 1494   3.545   8.092  15.174
   12DOPE  C217 1495   3.637   8.323  15.119
   12DOPE  H17R 1496   3.636   8.450  15.145
   12DOPE  H17S 1497   3.558   8.323  15.032
   12DOPE  C218 1498   3.810   8.275  15.087
   12DOPE  H18R 1499   3.870   8.362  15.020
   12DOPE  H18S 1500   3.809   8.159  15.035
   12DOPE  H18T 1501   3.884   8.266  15.179
   12DOPE   C33 1502   4.150   7.895  16.282
   12DOPE   H3X 1503   4.280   7.892  16.302
   12DOPE   H3Y 1504   4.129   7.966  16.189
   12DOPE   C34 1505   4.091   7.723  16.259
   12DOPE   H4X 1506   4.169   7.662  16.186
   12DOPE   H4Y 1507   4.110   7.658  16.354
   12DOPE   C35 1508   3.913   7.718  16.215
   12DOPE   H5X 1509   3.842   7.801  16.277
   12DOPE   H5Y 1510   3.858   7.601  16.236
   12DOPE   C36 1511   3.887   7.754  16.066
   12DOPE   H6X 1512   3.924   7.880  16.045
   12DOPE   H6Y 1513   3.757   7.745  16.042
   12DOPE   C37 1514   3.983   7.638  15.979
   12DOPE   H7X 1515   4.112   7.664  15.991
   12DOPE   H7Y 1516   3.960   7.516  16.018
   12DOPE   C38 1517   3.946   7.646  15.830
   12DOPE   H8X 1518   3.974   7.769  15.793
   12DOPE   H8Y 1519   3.816   7.628  15.810
   12DOPE   C39 1520   4.045   7.516  15.767
   12DOPE   H9X 1521   4.006   7.393  15.792
   12DOPE  C310 1522   4.174   7.535  15.687
   12DOPE  H10X 1523   4.237   7.428  15.650
   12DOPE  C311 1524   4.242   7.693  15.644
   12DOPE  H11X 1525   4.222   7.788  15.721
   12DOPE  H11Y 1526   4.374   7.682  15.633
   12DOPE  C312 1527   4.174   7.752  15.510
   12DOPE  H12X 1528   4.193   7.660  15.432
   12DOPE  H12Y 1529   4.243   7.861  15.480
   12DOPE  C313 1530   3.996   7.800  15.511
   12DOPE  H13X 1531   3.919   7.690  15.514
   12DOPE  H13Y 1532   3.968   7.870  15.603
   12DOPE  C314 1533   3.949   7.901  15.389
   12DOPE  H14X 1534   4.015   8.017  15.393
   12DOPE  H14Y 1535   3.820   7.930  15.394
   12DOPE  C315 1536   3.984   7.816  15.256
   12DOPE  H15X 1537   3.922   7.698  15.257
   12DOPE  H15Y 1538   4.115   7.795  15.246
   12DOPE  C316 1539   3.925   7.913  15.136
   12DOPE  H16X 1540   3.998   8.024  15.130
   12DOPE  H16Y 1541   3.798   7.946  15.153
   12DOPE  C317 1542   3.940   7.822  15.003
   12DOPE  H17X 1543   4.067   7.784  14.989
   12DOPE  H17Y 1544   3.865   7.711  15.010
   12DOPE  C318 1545   3.886   7.919  14.880
   12DOPE  H18X 1546   3.905   7.849  14.787
   12DOPE  H18Y 1547   3.756   7.950  14.887
   12DOPE  H18Z 1548   3.955   8.033  14.872
   13DOPE     N 1549   2.993   1.310  17.177
   13DOPE   HN1 1550   2.956   1.428  17.195
   13DOPE   HN2 1551   2.964   1.237  17.257
   13DOPE   HN3 1552   3.118   1.318  17.170
   13DOPE   C12 1553   2.923   1.243  17.051
   13DOPE  H12A 1554   2.795   1.217  17.066
   13DOPE  H12B 1555   2.988   1.129  17.027
   13DOPE   C11 1556   2.948   1.360  16.936
   13DOPE  H11A 1557   2.876   1.470  16.952
   13DOPE  H11B 1558   2.899   1.298  16.844
   13DOPE     P 1559   3.170   1.448  16.778
   13DOPE   O13 1560   3.320   1.542  16.778
   13DOPE   O14 1561   3.030   1.520  16.713
   13DOPE   O11 1562   3.206   1.273  16.723
   13DOPE   O12 1563   3.115   1.398  16.925
   13DOPE    C1 1564   3.343   1.196  16.785
   13DOPE    HA 1565   3.317   1.169  16.891
   13DOPE    HB 1566   3.450   1.277  16.784
   13DOPE    C2 1567   3.397   1.037  16.716
   13DOPE    HS 1568   3.509   1.000  16.767
   13DOPE   O21 1569   3.425   1.051  16.574
   13DOPE   C21 1570   3.553   1.135  16.543
   13DOPE   O22 1571   3.652   1.187  16.622
   13DOPE   C22 1572   3.563   1.165  16.395
   13DOPE   H2R 1573   3.460   1.109  16.342
   13DOPE   H2S 1574   3.677   1.115  16.356
   13DOPE    C3 1575   3.275   0.899  16.737
   13DOPE    HX 1576   3.287   0.852  16.840
   13DOPE    HY 1577   3.313   0.800  16.671
   13DOPE   O31 1578   3.110   0.942  16.713
   13DOPE   C31 1579   3.074   0.972  16.586
   13DOPE   O32 1580   3.149   0.929  16.488
   13DOPE   C32 1581   2.917   1.064  16.581
   13DOPE   H2X 1582   2.821   0.977  16.605
   13DOPE   H2Y 1583   2.921   1.157  16.660
   13DOPE   C23 1584   3.560   1.349  16.383
   13DOPE   H3R 1585   3.566   1.384  16.276
   13DOPE   H3S 1586   3.668   1.399  16.434
   13DOPE   C24 1587   3.410   1.418  16.450
   13DOPE   H4R 1588   3.397   1.381  16.555
   13DOPE   H4S 1589   3.305   1.374  16.394
   13DOPE   C25 1590   3.402   1.601  16.451
   13DOPE   H5R 1591   3.509   1.651  16.501
   13DOPE   H5S 1592   3.295   1.638  16.510
   13DOPE   C26 1593   3.386   1.658  16.308
   13DOPE   H6R 1594   3.385   1.552  16.241
   13DOPE   H6S 1595   3.497   1.723  16.281
   13DOPE   C27 1596   3.230   1.751  16.279
   13DOPE   H7R 1597   3.248   1.882  16.295
   13DOPE   H7S 1598   3.136   1.714  16.351
   13DOPE   C28 1599   3.179   1.709  16.136
   13DOPE   H8R 1600   3.168   1.577  16.131
   13DOPE   H8S 1601   3.278   1.739  16.068
   13DOPE   C29 1602   3.025   1.777  16.083
   13DOPE   H9R 1603   2.944   1.836  16.155
   13DOPE  C210 1604   2.986   1.763  15.953
   13DOPE  H10R 1605   2.872   1.812  15.918
   13DOPE  C211 1606   3.085   1.679  15.848
   13DOPE  H11R 1607   3.047   1.552  15.841
   13DOPE  H11S 1608   3.216   1.678  15.870
   13DOPE  C212 1609   3.059   1.759  15.713
   13DOPE  H12R 1610   3.108   1.883  15.712
   13DOPE  H12S 1611   2.927   1.769  15.695
   13DOPE  C213 1612   3.128   1.667  15.593
   13DOPE  H13R 1613   3.101   1.536  15.603
   13DOPE  H13S 1614   3.260   1.680  15.586
   13DOPE  C214 1615   3.047   1.735  15.470
   13DOPE  H14R 1616   3.062   1.867  15.468
   13DOPE  H14S 1617   2.917   1.708  15.482
   13DOPE  C215 1618   3.094   1.668  15.334
   13DOPE  H15R 1619   3.077   1.535  15.332
   13DOPE  H15S 1620   3.221   1.694  15.310
   13DOPE  C216 1621   2.982   1.747  15.232
   13DOPE  H16R 1622   3.010   1.877  15.228
   13DOPE  H16S 1623   2.861   1.741  15.276
   13DOPE  C217 1624   2.994   1.672  15.093
   13DOPE  H17R 1625   2.953   1.544  15.092
   13DOPE  H17S 1626   3.124   1.669  15.083
   13DOPE  C218 1627   2.930   1.765  14.972
   13DOPE  H18R 1628   2.802   1.744  14.953
   13DOPE  H18S 1629   2.995   1.732  14.879
   13DOPE  H18T 1630   2.945   1.896  14.985
   13DOPE   C33 1631   2.888   1.145  16.444
   13DOPE   H3X 1632   2.767   1.200  16.442
   13DOPE   H3Y 1633   2.898   1.057  16.361
   13DOPE   C34 1634   3.011   1.278  16.423
   13DOPE   H4X 1635   3.016   1.356  16.514
   13DOPE   H4Y 1636   3.131   1.222  16.414
   13DOPE   C35 1637   2.978   1.387  16.304
   13DOPE   H5X 1638   3.065   1.487  16.311
   13DOPE   H5Y 1639   2.857   1.441  16.313
   13DOPE   C36 1640   2.996   1.310  16.166
   13DOPE   H6X 1641   2.974   1.403  16.089
   13DOPE   H6Y 1642   2.904   1.216  16.153
   13DOPE   C37 1643   3.166   1.242  16.144
   13DOPE   H7X 1644   3.256   1.334  16.174
   13DOPE   H7Y 1645   3.185   1.136  16.211
   13DOPE   C38 1646   3.197   1.196  15.998
   13DOPE   H8X 1647   3.323   1.157  15.985
   13DOPE   H8Y 1648   3.179   1.304  15.934
   13DOPE   C39 1649   3.084   1.062  15.962
   13DOPE   H9X 1650   3.091   0.958  16.029
   13DOPE  C310 1651   2.978   1.060  15.861
   13DOPE  H10X 1652   2.906   0.950  15.847
   13DOPE  C311 1653   2.947   1.189  15.759
   13DOPE  H11X 1654   2.816   1.200  15.740
   13DOPE  H11Y 1655   2.987   1.309  15.794
   13DOPE  C312 1656   3.035   1.144  15.629
   13DOPE  H12X 1657   3.031   1.010  15.617
   13DOPE  H12Y 1658   3.163   1.178  15.636
   13DOPE  C313 1659   2.959   1.213  15.501
   13DOPE  H13X 1660   2.826   1.216  15.514
   13DOPE  H13Y 1661   2.999   1.339  15.486
   13DOPE  C314 1662   2.998   1.111  15.376
   13DOPE  H14X 1663   2.903   1.130  15.299
   13DOPE  H14Y 1664   2.995   0.982  15.404
   13DOPE  C315 1665   3.161   1.157  15.315
   13DOPE  H15X 1666   3.227   1.229  15.392
   13DOPE  H15Y 1667   3.143   1.235  15.227
   13DOPE  C316 1668   3.274   1.018  15.277
   13DOPE  H16X 1669   3.229   0.959  15.185
   13DOPE  H16Y 1670   3.274   0.925  15.358
   13DOPE  C317 1671   3.445   1.085  15.261
   13DOPE  H17X 1672   3.433   1.218  15.251
   13DOPE  H17Y 1673   3.515   1.061  15.354
   13DOPE  C318 1674   3.545   1.028  15.141
   13DOPE  H18X 1675   3.655   0.967  15.174
   13DOPE  H18Y 1676   3.478   0.944  15.076
   13DOPE  H18Z 1677   3.586   1.132  15.080
   14DOPE     N 1678   8.134   5.452  17.191
   14DOPE   HN1 1679   8.162   5.435  17.292
   14DOPE   HN2 1680   8.134   5.574  17.168
   14DOPE   HN3 1681   8.020   5.406  17.169
   14DOPE   C12 1682   8.255   5.371  17.101
   14DOPE  H12A 1683   8.226   5.242  17.097
   14DOPE  H12B 1684   8.375   5.387  17.145
   14DOPE   C11 1685   8.254   5.440  16.959
   14DOPE  H11A 1686   8.334   5.364  16.895
   14DOPE  H11B 1687   8.308   5.562  16.963
   14DOPE     P 1688   8.078   5.527  16.763
   14DOPE   O13 1689   7.906   5.530  16.731
   14DOPE   O14 1690   8.192   5.456  16.668
   14DOPE   O11 1691   8.137   5.702  16.804
   14DOPE   O12 1692   8.094   5.441  16.907
   14DOPE    C1 1693   8.059   5.800  16.903
   14DOPE    HA 1694   8.146   5.837  16.982
   14DOPE    HB 1695   7.961   5.732  16.954
   14DOPE    C2 1696   7.978   5.952  16.842
   14DOPE    HS 1697   7.890   5.992  16.919
   14DOPE   O21 1698   7.903   5.916  16.719
   14DOPE   C21 1699   7.753   5.874  16.725
   14DOPE   O22 1700   7.682   5.837  16.827
   14DOPE   C22 1701   7.696   5.904  16.583
   14DOPE   H2R 1702   7.753   6.016  16.546
   14DOPE   H2S 1703   7.565   5.923  16.580
   14DOPE    C3 1704   8.081   6.102  16.807
   14DOPE    HX 1705   8.141   6.142  16.900
   14DOPE    HY 1706   7.996   6.202  16.783
   14DOPE   O31 1707   8.192   6.072  16.698
   14DOPE   C31 1708   8.144   6.116  16.576
   14DOPE   O32 1709   8.033   6.204  16.550
   14DOPE   C32 1710   8.258   6.053  16.466
   14DOPE   H2X 1711   8.294   6.160  16.407
   14DOPE   H2Y 1712   8.365   5.996  16.510
   14DOPE   C23 1713   7.738   5.765  16.491
   14DOPE   H3R 1714   7.644   5.671  16.503
   14DOPE   H3S 1715   7.854   5.707  16.518
   14DOPE   C24 1716   7.745   5.819  16.345
   14DOPE   H4R 1717   7.866   5.858  16.317
   14DOPE   H4S 1718   7.660   5.918  16.324
   14DOPE   C25 1719   7.708   5.674  16.263
   14DOPE   H5R 1720   7.579   5.646  16.278
   14DOPE   H5S 1721   7.774   5.569  16.308
   14DOPE   C26 1722   7.750   5.680  16.116
   14DOPE   H6R 1723   7.670   5.584  16.082
   14DOPE   H6S 1724   7.873   5.644  16.094
   14DOPE   C27 1725   7.710   5.826  16.029
   14DOPE   H7R 1726   7.810   5.914  16.040
   14DOPE   H7S 1727   7.598   5.885  16.065
   14DOPE   C28 1728   7.698   5.767  15.881
   14DOPE   H8R 1729   7.814   5.719  15.851
   14DOPE   H8S 1730   7.669   5.873  15.819
   14DOPE   C29 1731   7.576   5.636  15.865
   14DOPE   H9R 1732   7.482   5.660  15.937
   14DOPE  C210 1733   7.562   5.494  15.805
   14DOPE  H10R 1734   7.447   5.430  15.818
   14DOPE  C211 1735   7.673   5.396  15.722
   14DOPE  H11R 1736   7.728   5.309  15.790
   14DOPE  H11S 1737   7.776   5.465  15.682
   14DOPE  C212 1738   7.573   5.303  15.616
   14DOPE  H12R 1739   7.448   5.284  15.651
   14DOPE  H12S 1740   7.616   5.177  15.609
   14DOPE  C213 1741   7.567   5.382  15.476
   14DOPE  H13R 1742   7.445   5.430  15.470
   14DOPE  H13S 1743   7.571   5.288  15.398
   14DOPE  C214 1744   7.697   5.514  15.452
   14DOPE  H14R 1745   7.817   5.458  15.464
   14DOPE  H14S 1746   7.681   5.605  15.533
   14DOPE  C215 1747   7.703   5.617  15.323
   14DOPE  H15R 1748   7.820   5.682  15.323
   14DOPE  H15S 1749   7.613   5.716  15.330
   14DOPE  C216 1750   7.686   5.528  15.189
   14DOPE  H16R 1751   7.586   5.441  15.195
   14DOPE  H16S 1752   7.800   5.461  15.173
   14DOPE  C217 1753   7.656   5.641  15.069
   14DOPE  H17R 1754   7.694   5.580  14.976
   14DOPE  H17S 1755   7.732   5.752  15.078
   14DOPE  C218 1756   7.480   5.684  15.050
   14DOPE  H18R 1757   7.441   5.774  15.123
   14DOPE  H18S 1758   7.405   5.579  15.069
   14DOPE  H18T 1759   7.454   5.731  14.948
   14DOPE   C33 1760   8.174   5.929  16.374
   14DOPE   H3X 1761   8.216   5.932  16.268
   14DOPE   H3Y 1762   8.048   5.968  16.372
   14DOPE   C34 1763   8.195   5.759  16.432
   14DOPE   H4X 1764   8.321   5.740  16.464
   14DOPE   H4Y 1765   8.120   5.761  16.525
   14DOPE   C35 1766   8.140   5.611  16.351
   14DOPE   H5X 1767   8.016   5.628  16.316
   14DOPE   H5Y 1768   8.138   5.507  16.422
   14DOPE   C36 1769   8.246   5.562  16.231
   14DOPE   H6X 1770   8.356   5.504  16.272
   14DOPE   H6Y 1771   8.275   5.671  16.173
   14DOPE   C37 1772   8.165   5.444  16.136
   14DOPE   H7X 1773   8.126   5.341  16.199
   14DOPE   H7Y 1774   8.058   5.503  16.094
   14DOPE   C38 1775   8.262   5.381  16.015
   14DOPE   H8X 1776   8.182   5.311  15.948
   14DOPE   H8Y 1777   8.353   5.294  16.052
   14DOPE   C39 1778   8.345   5.507  15.933
   14DOPE   H9X 1779   8.474   5.503  15.952
   14DOPE  C310 1780   8.286   5.605  15.838
   14DOPE  H10X 1781   8.368   5.696  15.795
   14DOPE  C311 1782   8.117   5.615  15.788
   14DOPE  H11X 1783   8.053   5.498  15.802
   14DOPE  H11Y 1784   8.052   5.706  15.849
   14DOPE  C312 1785   8.100   5.668  15.639
   14DOPE  H12X 1786   8.126   5.798  15.632
   14DOPE  H12Y 1787   7.972   5.651  15.609
   14DOPE  C313 1788   8.207   5.579  15.538
   14DOPE  H13X 1789   8.334   5.588  15.571
   14DOPE  H13Y 1790   8.174   5.449  15.535
   14DOPE  C314 1791   8.195   5.651  15.397
   14DOPE  H14X 1792   8.198   5.784  15.406
   14DOPE  H14Y 1793   8.077   5.617  15.351
   14DOPE  C315 1794   8.333   5.603  15.302
   14DOPE  H15X 1795   8.449   5.604  15.355
   14DOPE  H15Y 1796   8.339   5.695  15.222
   14DOPE  C316 1797   8.308   5.438  15.236
   14DOPE  H16X 1798   8.182   5.429  15.201
   14DOPE  H16Y 1799   8.329   5.344  15.312
   14DOPE  C317 1800   8.417   5.413  15.114
   14DOPE  H17X 1801   8.540   5.455  15.138
   14DOPE  H17Y 1802   8.424   5.281  15.095
   14DOPE  C318 1803   8.354   5.498  14.989
   14DOPE  H18X 1804   8.352   5.630  15.002
   14DOPE  H18Y 1805   8.432   5.474  14.901
   14DOPE  H18Z 1806   8.231   5.456  14.965
   15DOPE     N 1807   1.423   2.131  16.819
   15DOPE   HN1 1808   1.304   2.100  16.836
   15DOPE   HN2 1809   1.423   2.255  16.796
   15DOPE   HN3 1810   1.469   2.065  16.740
   15DOPE   C12 1811   1.526   2.123  16.942
   15DOPE  H12A 1812   1.655   2.129  16.911
   15DOPE  H12B 1813   1.506   2.012  16.998
   15DOPE   C11 1814   1.484   2.269  17.026
   15DOPE  H11A 1815   1.553   2.276  17.121
   15DOPE  H11B 1816   1.352   2.275  17.046
   15DOPE     P 1817   1.446   2.561  16.937
   15DOPE   O13 1818   1.541   2.670  17.023
   15DOPE   O14 1819   1.272   2.540  16.955
   15DOPE   O11 1820   1.484   2.573  16.786
   15DOPE   O12 1821   1.530   2.394  16.944
   15DOPE    C1 1822   1.648   2.543  16.748
   15DOPE    HA 1823   1.662   2.414  16.723
   15DOPE    HB 1824   1.734   2.576  16.829
   15DOPE    C2 1825   1.699   2.640  16.625
   15DOPE    HS 1826   1.700   2.771  16.653
   15DOPE   O21 1827   1.594   2.605  16.512
   15DOPE   C21 1828   1.459   2.695  16.525
   15DOPE   O22 1829   1.434   2.789  16.615
   15DOPE   C22 1830   1.349   2.694  16.404
   15DOPE   H2R 1831   1.223   2.711  16.440
   15DOPE   H2S 1832   1.358   2.582  16.345
   15DOPE    C3 1833   1.878   2.598  16.595
   15DOPE    HX 1834   1.944   2.600  16.692
   15DOPE    HY 1835   1.932   2.695  16.535
   15DOPE   O31 1836   1.889   2.438  16.538
   15DOPE   C31 1837   1.906   2.443  16.405
   15DOPE   O32 1838   1.960   2.555  16.341
   15DOPE   C32 1839   1.847   2.291  16.342
   15DOPE   H2X 1840   1.957   2.230  16.305
   15DOPE   H2Y 1841   1.787   2.212  16.415
   15DOPE   C23 1842   1.399   2.845  16.325
   15DOPE   H3R 1843   1.513   2.809  16.280
   15DOPE   H3S 1844   1.422   2.950  16.392
   15DOPE   C24 1845   1.290   2.899  16.212
   15DOPE   H4R 1846   1.315   3.026  16.186
   15DOPE   H4S 1847   1.164   2.894  16.247
   15DOPE   C25 1848   1.320   2.786  16.093
   15DOPE   H5R 1849   1.219   2.702  16.108
   15DOPE   H5S 1850   1.429   2.712  16.107
   15DOPE   C26 1851   1.332   2.858  15.951
   15DOPE   H6R 1852   1.453   2.903  15.924
   15DOPE   H6S 1853   1.249   2.962  15.943
   15DOPE   C27 1854   1.292   2.735  15.844
   15DOPE   H7R 1855   1.392   2.646  15.838
   15DOPE   H7S 1856   1.283   2.794  15.744
   15DOPE   C28 1857   1.138   2.647  15.880
   15DOPE   H8R 1858   1.162   2.558  15.961
   15DOPE   H8S 1859   1.106   2.572  15.794
   15DOPE   C29 1860   1.008   2.764  15.923
   15DOPE   H9R 1861   1.033   2.842  16.009
   15DOPE  C210 1862   0.864   2.771  15.869
   15DOPE  H10R 1863   0.772   2.849  15.913
   15DOPE  C211 1864   0.812   2.663  15.759
   15DOPE  H11R 1865   0.685   2.632  15.776
   15DOPE  H11S 1866   0.881   2.552  15.764
   15DOPE  C212 1867   0.839   2.702  15.614
   15DOPE  H12R 1868   0.768   2.809  15.597
   15DOPE  H12S 1869   0.786   2.603  15.554
   15DOPE  C213 1870   1.013   2.716  15.571
   15DOPE  H13R 1871   1.076   2.604  15.602
   15DOPE  H13S 1872   1.073   2.820  15.618
   15DOPE  C214 1873   1.028   2.720  15.421
   15DOPE  H14R 1874   1.039   2.848  15.389
   15DOPE  H14S 1875   0.924   2.664  15.375
   15DOPE  C215 1876   1.164   2.621  15.367
   15DOPE  H15R 1877   1.129   2.570  15.268
   15DOPE  H15S 1878   1.188   2.516  15.431
   15DOPE  C216 1879   1.310   2.725  15.355
   15DOPE  H16R 1880   1.367   2.737  15.455
   15DOPE  H16S 1881   1.277   2.849  15.322
   15DOPE  C217 1882   1.417   2.651  15.251
   15DOPE  H17R 1883   1.435   2.522  15.276
   15DOPE  H17S 1884   1.534   2.711  15.257
   15DOPE  C218 1885   1.349   2.670  15.110
   15DOPE  H18R 1886   1.280   2.560  15.082
   15DOPE  H18S 1887   1.444   2.692  15.036
   15DOPE  H18T 1888   1.266   2.774  15.105
   15DOPE   C33 1889   1.736   2.329  16.223
   15DOPE   H3X 1890   1.774   2.443  16.171
   15DOPE   H3Y 1891   1.609   2.342  16.253
   15DOPE   C34 1892   1.765   2.196  16.122
   15DOPE   H4X 1893   1.891   2.225  16.092
   15DOPE   H4Y 1894   1.759   2.075  16.169
   15DOPE   C35 1895   1.666   2.201  15.996
   15DOPE   H5X 1896   1.740   2.170  15.907
   15DOPE   H5Y 1897   1.630   2.328  15.984
   15DOPE   C36 1898   1.525   2.083  16.003
   15DOPE   H6X 1899   1.459   2.106  16.098
   15DOPE   H6Y 1900   1.571   1.957  16.006
   15DOPE   C37 1901   1.406   2.101  15.888
   15DOPE   H7X 1902   1.457   2.045  15.795
   15DOPE   H7Y 1903   1.294   2.035  15.913
   15DOPE   C38 1904   1.372   2.278  15.861
   15DOPE   H8X 1905   1.483   2.339  15.830
   15DOPE   H8Y 1906   1.332   2.336  15.956
   15DOPE   C39 1907   1.249   2.299  15.754
   15DOPE   H9X 1908   1.124   2.294  15.789
   15DOPE  C310 1909   1.279   2.315  15.624
   15DOPE  H10X 1910   1.177   2.332  15.555
   15DOPE  C311 1911   1.444   2.315  15.563
   15DOPE  H11X 1912   1.510   2.210  15.604
   15DOPE  H11Y 1913   1.435   2.296  15.453
   15DOPE  C312 1914   1.552   2.462  15.587
   15DOPE  H12X 1915   1.529   2.516  15.687
   15DOPE  H12Y 1916   1.524   2.556  15.512
   15DOPE  C313 1917   1.730   2.417  15.580
   15DOPE  H13X 1918   1.804   2.527  15.592
   15DOPE  H13Y 1919   1.757   2.336  15.666
   15DOPE  C314 1920   1.780   2.333  15.448
   15DOPE  H14X 1921   1.702   2.226  15.431
   15DOPE  H14Y 1922   1.904   2.286  15.462
   15DOPE  C315 1923   1.780   2.452  15.330
   15DOPE  H15X 1924   1.904   2.497  15.322
   15DOPE  H15Y 1925   1.704   2.555  15.359
   15DOPE  C316 1926   1.727   2.399  15.189
   15DOPE  H16X 1927   1.596   2.370  15.186
   15DOPE  H16Y 1928   1.794   2.291  15.159
   15DOPE  C317 1929   1.759   2.533  15.086
   15DOPE  H17X 1930   1.694   2.641  15.120
   15DOPE  H17Y 1931   1.889   2.562  15.092
   15DOPE  C318 1932   1.709   2.509  14.940
   15DOPE  H18X 1933   1.781   2.586  14.872
   15DOPE  H18Y 1934   1.727   2.383  14.912
   15DOPE  H18Z 1935   1.580   2.538  14.925
   16DOPE     N 1936   0.566   4.430  17.127
   16DOPE   HN1 1937   0.589   4.483  17.034
   16DOPE   HN2 1938   0.466   4.484  17.173
   16DOPE   HN3 1939   0.668   4.438  17.185
   16DOPE   C12 1940   0.542   4.256  17.097
   16DOPE  H12A 1941   0.433   4.241  17.036
   16DOPE  H12B 1942   0.530   4.189  17.192
   16DOPE   C11 1943   0.690   4.202  17.018
   16DOPE  H11A 1944   0.684   4.068  17.012
   16DOPE  H11B 1945   0.804   4.229  17.072
   16DOPE     P 1946   0.703   4.172  16.764
   16DOPE   O13 1947   0.834   4.054  16.781
   16DOPE   O14 1948   0.689   4.267  16.641
   16DOPE   O11 1949   0.535   4.088  16.792
   16DOPE   O12 1950   0.697   4.284  16.892
   16DOPE    C1 1951   0.494   3.931  16.747
   16DOPE    HA 1952   0.396   3.883  16.810
   16DOPE    HB 1953   0.598   3.846  16.755
   16DOPE    C2 1954   0.439   3.932  16.600
   16DOPE    HS 1955   0.368   3.821  16.586
   16DOPE   O21 1956   0.584   3.922  16.529
   16DOPE   C21 1957   0.569   3.906  16.402
   16DOPE   O22 1958   0.470   3.824  16.342
   16DOPE   C22 1959   0.702   3.992  16.339
   16DOPE   H2R 1960   0.756   4.081  16.409
   16DOPE   H2S 1961   0.656   4.056  16.250
   16DOPE    C3 1962   0.342   4.084  16.553
   16DOPE    HX 1963   0.420   4.192  16.563
   16DOPE    HY 1964   0.248   4.099  16.627
   16DOPE   O31 1965   0.272   4.078  16.419
   16DOPE   C31 1966   0.186   3.948  16.388
   16DOPE   O32 1967   0.151   3.839  16.463
   16DOPE   C32 1968   0.142   3.932  16.236
   16DOPE   H2X 1969   0.182   3.810  16.210
   16DOPE   H2Y 1970   0.008   3.934  16.234
   16DOPE   C23 1971   0.814   3.854  16.305
   16DOPE   H3R 1972   0.869   3.794  16.392
   16DOPE   H3S 1973   0.905   3.919  16.252
   16DOPE   C24 1974   0.743   3.742  16.200
   16DOPE   H4R 1975   0.648   3.816  16.152
   16DOPE   H4S 1976   0.680   3.637  16.246
   16DOPE   C25 1977   0.864   3.691  16.094
   16DOPE   H5R 1978   0.889   3.562  16.103
   16DOPE   H5S 1979   0.980   3.755  16.107
   16DOPE   C26 1980   0.810   3.734  15.952
   16DOPE   H6R 1981   0.880   3.659  15.881
   16DOPE   H6S 1982   0.844   3.859  15.931
   16DOPE   C27 1983   0.630   3.712  15.926
   16DOPE   H7R 1984   0.557   3.815  15.961
   16DOPE   H7S 1985   0.589   3.604  15.984
   16DOPE   C28 1986   0.599   3.673  15.779
   16DOPE   H8R 1987   0.472   3.634  15.770
   16DOPE   H8S 1988   0.678   3.569  15.765
   16DOPE   C29 1989   0.631   3.797  15.671
   16DOPE   H9R 1990   0.538   3.889  15.665
   16DOPE  C210 1991   0.756   3.812  15.585
   16DOPE  H10R 1992   0.744   3.904  15.508
   16DOPE  C211 1993   0.908   3.721  15.562
   16DOPE  H11R 1994   0.940   3.638  15.645
   16DOPE  H11S 1995   1.009   3.808  15.553
   16DOPE  C212 1996   0.900   3.635  15.425
   16DOPE  H12R 1997   0.811   3.538  15.418
   16DOPE  H12S 1998   1.019   3.576  15.417
   16DOPE  C213 1999   0.871   3.744  15.305
   16DOPE  H13R 2000   0.924   3.689  15.215
   16DOPE  H13S 2001   0.929   3.862  15.323
   16DOPE  C214 2002   0.698   3.762  15.255
   16DOPE  H14R 2003   0.697   3.876  15.197
   16DOPE  H14S 2004   0.610   3.773  15.337
   16DOPE  C215 2005   0.650   3.629  15.155
   16DOPE  H15R 2006   0.635   3.515  15.212
   16DOPE  H15S 2007   0.749   3.607  15.082
   16DOPE  C216 2008   0.497   3.672  15.080
   16DOPE  H16R 2009   0.410   3.718  15.157
   16DOPE  H16S 2010   0.439   3.564  15.038
   16DOPE  C217 2011   0.516   3.802  14.971
   16DOPE  H17R 2012   0.571   3.910  15.017
   16DOPE  H17S 2013   0.394   3.838  14.936
   16DOPE  C218 2014   0.613   3.756  14.846
   16DOPE  H18R 2015   0.640   3.866  14.787
   16DOPE  H18S 2016   0.545   3.676  14.779
   16DOPE  H18T 2017   0.728   3.700  14.873
   16DOPE   C33 2018   0.200   4.049  16.123
   16DOPE   H3X 2019   0.137   4.012  16.030
   16DOPE   H3Y 2020   0.329   4.030  16.101
   16DOPE   C34 2021   0.145   4.220  16.155
   16DOPE   H4X 2022   0.014   4.211  16.138
   16DOPE   H4Y 2023   0.169   4.244  16.262
   16DOPE   C35 2024   0.199   4.373  16.080
   16DOPE   H5X 2025   0.116   4.469  16.116
   16DOPE   H5Y 2026   0.175   4.357  15.972
   16DOPE   C36 2027   0.373   4.432  16.104
   16DOPE   H6X 2028   0.391   4.470  16.210
   16DOPE   H6Y 2029   0.392   4.538  16.039
   16DOPE   C37 2030   0.487   4.294  16.069
   16DOPE   H7X 2031   0.470   4.206  16.152
   16DOPE   H7Y 2032   0.433   4.247  15.975
   16DOPE   C38 2033   0.671   4.310  16.054
   16DOPE   H8X 2034   0.731   4.312  16.154
   16DOPE   H8Y 2035   0.710   4.417  15.998
   16DOPE   C39 2036   0.704   4.154  15.981
   16DOPE   H9X 2037   0.714   4.048  16.045
   16DOPE  C310 2038   0.727   4.138  15.849
   16DOPE  H10X 2039   0.732   4.016  15.808
   16DOPE  C311 2040   0.726   4.268  15.745
   16DOPE  H11X 2041   0.736   4.387  15.794
   16DOPE  H11Y 2042   0.840   4.252  15.690
   16DOPE  C312 2043   0.595   4.280  15.637
   16DOPE  H12X 2044   0.600   4.408  15.605
   16DOPE  H12Y 2045   0.474   4.260  15.677
   16DOPE  C313 2046   0.635   4.182  15.512
   16DOPE  H13X 2047   0.758   4.134  15.523
   16DOPE  H13Y 2048   0.550   4.081  15.499
   16DOPE  C314 2049   0.643   4.285  15.386
   16DOPE  H14X 2050   0.727   4.386  15.408
   16DOPE  H14Y 2051   0.522   4.337  15.364
   16DOPE  C315 2052   0.706   4.202  15.261
   16DOPE  H15X 2053   0.617   4.111  15.228
   16DOPE  H15Y 2054   0.822   4.141  15.281
   16DOPE  C316 2055   0.727   4.331  15.154
   16DOPE  H16X 2056   0.833   4.406  15.179
   16DOPE  H16Y 2057   0.618   4.408  15.156
   16DOPE  C317 2058   0.744   4.273  15.010
   16DOPE  H17X 2059   0.858   4.207  15.002
   16DOPE  H17Y 2060   0.643   4.192  14.984
   16DOPE  C318 2061   0.748   4.417  14.915
   16DOPE  H18X 2062   0.733   4.378  14.810
   16DOPE  H18Y 2063   0.648   4.500  14.939
   16DOPE  H18Z 2064   0.860   4.486  14.926
   17DOPE     N 2065   3.300   8.628  17.131
   17DOPE   HN1 2066   3.190   8.608  17.084
   17DOPE   HN2 2067   3.335   8.519  17.174
   17DOPE   HN3 2068   3.286   8.717  17.203
   17DOPE   C12 2069   3.416   8.672  17.022
   17DOPE  H12A 2070   3.536   8.624  17.048
   17DOPE  H12B 2071   3.424   8.804  17.013
   17DOPE   C11 2072   3.355   8.602  16.891
   17DOPE  H11A 2073   3.446   8.624  16.810
   17DOPE  H11B 2074   3.244   8.664  16.860
   17DOPE     P 2075   3.167   8.345  16.917
   17DOPE   O13 2076   3.190   8.182  16.970
   17DOPE   O14 2077   3.098   8.359  16.783
   17DOPE   O11 2078   3.056   8.440  17.024
   17DOPE   O12 2079   3.334   8.435  16.913
   17DOPE    C1 2080   2.903   8.363  17.050
   17DOPE    HA 2081   2.849   8.419  17.141
   17DOPE    HB 2082   2.914   8.233  17.076
   17DOPE    C2 2083   2.773   8.389  16.936
   17DOPE    HS 2084   2.653   8.360  16.979
   17DOPE   O21 2085   2.791   8.292  16.816
   17DOPE   C21 2086   2.797   8.132  16.832
   17DOPE   O22 2087   2.759   8.066  16.936
   17DOPE   C22 2088   2.856   8.045  16.703
   17DOPE   H2R 2089   2.789   7.932  16.694
   17DOPE   H2S 2090   2.982   8.010  16.723
   17DOPE    C3 2091   2.768   8.569  16.894
   17DOPE    HX 2092   2.748   8.641  16.984
   17DOPE    HY 2093   2.663   8.581  16.825
   17DOPE   O31 2094   2.915   8.620  16.832
   17DOPE   C31 2095   2.898   8.726  16.736
   17DOPE   O32 2096   2.785   8.819  16.728
   17DOPE   C32 2097   3.038   8.713  16.638
   17DOPE   H2X 2098   3.088   8.836  16.625
   17DOPE   H2Y 2099   3.132   8.635  16.681
   17DOPE   C23 2100   2.839   8.148  16.573
   17DOPE   H3R 2101   2.947   8.227  16.573
   17DOPE   H3S 2102   2.734   8.226  16.591
   17DOPE   C24 2103   2.812   8.086  16.426
   17DOPE   H4R 2104   2.914   8.119  16.360
   17DOPE   H4S 2105   2.717   8.167  16.396
   17DOPE   C25 2106   2.740   7.920  16.385
   17DOPE   H5R 2107   2.617   7.906  16.424
   17DOPE   H5S 2108   2.814   7.829  16.437
   17DOPE   C26 2109   2.746   7.874  16.231
   17DOPE   H6R 2110   2.713   7.745  16.222
   17DOPE   H6S 2111   2.873   7.886  16.202
   17DOPE   C27 2112   2.659   7.962  16.113
   17DOPE   H7R 2113   2.666   8.094  16.125
   17DOPE   H7S 2114   2.532   7.922  16.110
   17DOPE   C28 2115   2.740   7.931  15.974
   17DOPE   H8R 2116   2.766   7.801  15.972
   17DOPE   H8S 2117   2.857   7.993  15.978
   17DOPE   C29 2118   2.654   7.976  15.845
   17DOPE   H9R 2119   2.525   7.997  15.854
   17DOPE  C210 2120   2.723   7.986  15.722
   17DOPE  H10R 2121   2.651   8.022  15.635
   17DOPE  C211 2122   2.897   7.951  15.691
   17DOPE  H11R 2123   2.942   7.866  15.767
   17DOPE  H11S 2124   2.971   8.062  15.701
   17DOPE  C212 2125   2.935   7.871  15.556
   17DOPE  H12R 2126   2.857   7.764  15.540
   17DOPE  H12S 2127   3.061   7.826  15.562
   17DOPE  C213 2128   2.935   7.976  15.432
   17DOPE  H13R 2129   2.990   8.095  15.457
   17DOPE  H13S 2130   2.810   7.997  15.397
   17DOPE  C214 2131   3.038   7.898  15.323
   17DOPE  H14R 2132   2.993   7.776  15.299
   17DOPE  H14S 2133   3.163   7.885  15.362
   17DOPE  C215 2134   3.046   7.999  15.196
   17DOPE  H15R 2135   3.145   7.956  15.130
   17DOPE  H15S 2136   3.073   8.124  15.225
   17DOPE  C216 2137   2.890   7.996  15.117
   17DOPE  H16R 2138   2.784   8.003  15.183
   17DOPE  H16S 2139   2.884   7.879  15.064
   17DOPE  C217 2140   2.886   8.130  15.014
   17DOPE  H17R 2141   3.014   8.154  14.992
   17DOPE  H17S 2142   2.840   8.243  15.059
   17DOPE  C218 2143   2.802   8.089  14.882
   17DOPE  H18R 2144   2.809   7.960  14.859
   17DOPE  H18S 2145   2.858   8.156  14.798
   17DOPE  H18T 2146   2.674   8.122  14.882
   17DOPE   C33 2147   2.986   8.633  16.507
   17DOPE   H3X 2148   2.908   8.718  16.450
   17DOPE   H3Y 2149   2.917   8.522  16.530
   17DOPE   C34 2150   3.122   8.581  16.414
   17DOPE   H4X 2151   3.217   8.674  16.414
   17DOPE   H4Y 2152   3.176   8.468  16.452
   17DOPE   C35 2153   3.058   8.561  16.271
   17DOPE   H5X 2154   2.954   8.646  16.259
   17DOPE   H5Y 2155   3.010   8.438  16.259
   17DOPE   C36 2156   3.175   8.602  16.159
   17DOPE   H6X 2157   3.265   8.504  16.149
   17DOPE   H6Y 2158   3.245   8.711  16.183
   17DOPE   C37 2159   3.083   8.630  16.028
   17DOPE   H7X 2160   2.983   8.717  16.050
   17DOPE   H7Y 2161   3.162   8.689  15.953
   17DOPE   C38 2162   3.008   8.478  15.968
   17DOPE   H8X 2163   2.934   8.513  15.881
   17DOPE   H8Y 2164   2.926   8.422  16.042
   17DOPE   C39 2165   3.140   8.363  15.931
   17DOPE   H9X 2166   3.206   8.310  16.016
   17DOPE  C310 2167   3.186   8.321  15.807
   17DOPE  H10X 2168   3.292   8.242  15.797
   17DOPE  C311 2169   3.115   8.378  15.678
   17DOPE  H11X 2170   3.031   8.287  15.638
   17DOPE  H11Y 2171   3.047   8.492  15.688
   17DOPE  C312 2172   3.247   8.404  15.573
   17DOPE  H12X 2173   3.337   8.305  15.579
   17DOPE  H12Y 2174   3.311   8.518  15.595
   17DOPE  C313 2175   3.181   8.406  15.430
   17DOPE  H13X 2176   3.266   8.339  15.367
   17DOPE  H13Y 2177   3.064   8.342  15.423
   17DOPE  C314 2178   3.164   8.576  15.374
   17DOPE  H14X 2179   3.245   8.659  15.431
   17DOPE  H14Y 2180   3.040   8.620  15.386
   17DOPE  C315 2181   3.222   8.581  15.229
   17DOPE  H15X 2182   3.353   8.558  15.228
   17DOPE  H15Y 2183   3.204   8.702  15.184
   17DOPE  C316 2184   3.145   8.461  15.134
   17DOPE  H16X 2185   3.012   8.459  15.145
   17DOPE  H16Y 2186   3.191   8.339  15.154
   17DOPE  C317 2187   3.194   8.514  14.993
   17DOPE  H17X 2188   3.139   8.634  14.974
   17DOPE  H17Y 2189   3.326   8.530  14.992
   17DOPE  C318 2190   3.146   8.400  14.883
   17DOPE  H18X 2191   3.212   8.285  14.895
   17DOPE  H18Y 2192   3.016   8.375  14.888
   17DOPE  H18Z 2193   3.172   8.452  14.783
   18DOPE     N 2194   9.030   3.710  17.087
   18DOPE   HN1 2195   8.970   3.811  17.123
   18DOPE   HN2 2196   9.072   3.640  17.165
   18DOPE   HN3 2197   9.130   3.752  17.032
   18DOPE   C12 2198   8.911   3.620  17.003
   18DOPE  H12A 2199   8.832   3.554  17.073
   18DOPE  H12B 2200   8.977   3.535  16.938
   18DOPE   C11 2201   8.809   3.736  16.919
   18DOPE  H11A 2202   8.686   3.685  16.904
   18DOPE  H11B 2203   8.867   3.739  16.818
   18DOPE     P 2204   8.788   4.037  16.880
   18DOPE   O13 2205   8.774   4.183  16.963
   18DOPE   O14 2206   8.662   3.996  16.781
   18DOPE   O11 2207   8.959   4.016  16.823
   18DOPE   O12 2208   8.797   3.889  16.981
   18DOPE    C1 2209   9.101   4.056  16.892
   18DOPE    HA 2210   9.115   3.988  16.986
   18DOPE    HB 2211   9.106   4.186  16.918
   18DOPE    C2 2212   9.233   4.014  16.791
   18DOPE    HS 2213   9.353   4.044  16.835
   18DOPE   O21 2214   9.206   4.105  16.671
   18DOPE   C21 2215   9.233   4.261  16.685
   18DOPE   O22 2216   9.296   4.325  16.781
   18DOPE   C22 2217   9.196   4.351  16.558
   18DOPE   H2R 2218   9.302   4.340  16.491
   18DOPE   H2S 2219   9.184   4.480  16.587
   18DOPE    C3 2220   9.235   3.828  16.759
   18DOPE    HX 2221   9.216   3.766  16.855
   18DOPE    HY 2222   9.355   3.797  16.719
   18DOPE   O31 2223   9.112   3.780  16.668
   18DOPE   C31 2224   9.106   3.629  16.630
   18DOPE   O32 2225   9.181   3.518  16.681
   18DOPE   C32 2226   8.966   3.611  16.531
   18DOPE   H2X 2227   8.867   3.554  16.588
   18DOPE   H2Y 2228   8.926   3.733  16.500
   18DOPE   C23 2229   9.041   4.291  16.492
   18DOPE   H3R 2230   8.960   4.396  16.486
   18DOPE   H3S 2231   8.974   4.201  16.551
   18DOPE   C24 2232   9.070   4.232  16.350
   18DOPE   H4R 2233   9.168   4.144  16.350
   18DOPE   H4S 2234   9.112   4.340  16.295
   18DOPE   C25 2235   8.920   4.165  16.281
   18DOPE   H5R 2236   8.815   4.214  16.336
   18DOPE   H5S 2237   8.912   4.032  16.291
   18DOPE   C26 2238   8.912   4.223  16.134
   18DOPE   H6R 2239   8.963   4.130  16.065
   18DOPE   H6S 2240   8.990   4.331  16.125
   18DOPE   C27 2241   8.746   4.282  16.092
   18DOPE   H7R 2242   8.716   4.386  16.157
   18DOPE   H7S 2243   8.659   4.184  16.112
   18DOPE   C28 2244   8.728   4.334  15.944
   18DOPE   H8R 2245   8.604   4.381  15.932
   18DOPE   H8S 2246   8.731   4.223  15.883
   18DOPE   C29 2247   8.843   4.458  15.891
   18DOPE   H9R 2248   8.819   4.583  15.922
   18DOPE  C210 2249   8.962   4.429  15.804
   18DOPE  H10R 2250   9.040   4.529  15.772
   18DOPE  C211 2251   9.001   4.268  15.744
   18DOPE  H11R 2252   8.998   4.174  15.823
   18DOPE  H11S 2253   9.127   4.270  15.707
   18DOPE  C212 2254   8.890   4.214  15.629
   18DOPE  H12R 2255   8.774   4.170  15.671
   18DOPE  H12S 2256   8.946   4.111  15.578
   18DOPE  C213 2257   8.852   4.343  15.523
   18DOPE  H13R 2258   8.783   4.440  15.571
   18DOPE  H13S 2259   8.774   4.289  15.445
   18DOPE  C214 2260   9.004   4.408  15.452
   18DOPE  H14R 2261   9.101   4.427  15.526
   18DOPE  H14S 2262   8.978   4.525  15.404
   18DOPE  C215 2263   9.058   4.290  15.343
   18DOPE  H15R 2264   8.963   4.283  15.265
   18DOPE  H15S 2265   9.068   4.170  15.390
   18DOPE  C216 2266   9.218   4.331  15.277
   18DOPE  H16R 2267   9.306   4.366  15.356
   18DOPE  H16S 2268   9.204   4.434  15.208
   18DOPE  C217 2269   9.284   4.187  15.200
   18DOPE  H17R 2270   9.283   4.079  15.267
   18DOPE  H17S 2271   9.413   4.212  15.175
   18DOPE  C218 2272   9.193   4.148  15.072
   18DOPE  H18R 2273   9.164   4.259  15.015
   18DOPE  H18S 2274   9.079   4.085  15.092
   18DOPE  H18T 2275   9.265   4.069  15.007
   18DOPE   C33 2276   9.005   3.509  16.406
   18DOPE   H3X 2277   8.890   3.456  16.370
   18DOPE   H3Y 2278   9.086   3.407  16.431
   18DOPE   C34 2279   9.074   3.610  16.291
   18DOPE   H4X 2280   8.990   3.710  16.269
   18DOPE   H4Y 2281   9.190   3.664  16.325
   18DOPE   C35 2282   9.106   3.516  16.161
   18DOPE   H5X 2283   8.996   3.450  16.132
   18DOPE   H5Y 2284   9.202   3.425  16.180
   18DOPE   C36 2285   9.157   3.626  16.045
   18DOPE   H6X 2286   9.275   3.679  16.072
   18DOPE   H6Y 2287   9.070   3.726  16.034
   18DOPE   C37 2288   9.178   3.542  15.909
   18DOPE   H7X 2289   9.239   3.425  15.927
   18DOPE   H7Y 2290   9.059   3.517  15.864
   18DOPE   C38 2291   9.284   3.638  15.810
   18DOPE   H8X 2292   9.317   3.556  15.727
   18DOPE   H8Y 2293   9.400   3.667  15.861
   18DOPE   C39 2294   9.210   3.790  15.755
   18DOPE   H9X 2295   9.230   3.899  15.815
   18DOPE  C310 2296   9.124   3.803  15.642
   18DOPE  H10X 2297   9.082   3.922  15.611
   18DOPE  C311 2298   9.082   3.670  15.546
   18DOPE  H11X 2299   9.149   3.684  15.451
   18DOPE  H11Y 2300   9.116   3.551  15.589
   18DOPE  C312 2301   8.900   3.656  15.514
   18DOPE  H12X 2302   8.832   3.659  15.609
   18DOPE  H12Y 2303   8.876   3.539  15.465
   18DOPE  C313 2304   8.834   3.788  15.422
   18DOPE  H13X 2305   8.701   3.784  15.428
   18DOPE  H13Y 2306   8.873   3.908  15.460
   18DOPE  C314 2307   8.880   3.775  15.274
   18DOPE  H14X 2308   8.819   3.670  15.227
   18DOPE  H14Y 2309   9.012   3.755  15.266
   18DOPE  C315 2310   8.840   3.929  15.197
   18DOPE  H15X 2311   8.868   3.918  15.089
   18DOPE  H15Y 2312   8.917   4.025  15.240
   18DOPE  C316 2313   8.668   3.989  15.212
   18DOPE  H16X 2314   8.650   4.001  15.321
   18DOPE  H16Y 2315   8.579   3.901  15.173
   18DOPE  C317 2316   8.641   4.158  15.157
   18DOPE  H17X 2317   8.758   4.222  15.158
   18DOPE  H17Y 2318   8.600   4.150  15.051
   18DOPE  C318 2319   8.521   4.256  15.241
   18DOPE  H18X 2320   8.402   4.198  15.243
   18DOPE  H18Y 2321   8.562   4.268  15.346
   18DOPE  H18Z 2322   8.508   4.379  15.198
   19DOPE     N 2323   9.019   5.126  17.131
   19DOPE   HN1 2324   8.922   5.047  17.132
   19DOPE   HN2 2325   9.110   5.089  17.197
   19DOPE   HN3 2326   8.980   5.240  17.158
   19DOPE   C12 2327   9.077   5.122  16.988
   19DOPE  H12A 2328   9.157   5.016  16.980
   19DOPE  H12B 2329   9.144   5.233  16.968
   19DOPE   C11 2330   8.936   5.104  16.887
   19DOPE  H11A 2331   8.988   5.102  16.783
   19DOPE  H11B 2332   8.860   5.213  16.892
   19DOPE     P 2333   8.882   4.798  16.844
   19DOPE   O13 2334   8.862   4.673  16.949
   19DOPE   O14 2335   9.046   4.816  16.787
   19DOPE   O11 2336   8.749   4.798  16.729
   19DOPE   O12 2337   8.840   4.964  16.913
   19DOPE    C1 2338   8.582   4.805  16.768
   19DOPE    HA 2339   8.557   4.908  16.834
   19DOPE    HB 2340   8.554   4.693  16.824
   19DOPE    C2 2341   8.454   4.804  16.652
   19DOPE    HS 2342   8.353   4.723  16.683
   19DOPE   O21 2343   8.514   4.746  16.527
   19DOPE   C21 2344   8.598   4.614  16.526
   19DOPE   O22 2345   8.633   4.524  16.616
   19DOPE   C22 2346   8.648   4.592  16.382
   19DOPE   H2R 2347   8.582   4.673  16.313
   19DOPE   H2S 2348   8.622   4.466  16.355
   19DOPE    C3 2349   8.375   4.970  16.625
   19DOPE    HX 2350   8.320   5.012  16.720
   19DOPE    HY 2351   8.276   4.960  16.550
   19DOPE   O31 2352   8.491   5.087  16.585
   19DOPE   C31 2353   8.521   5.098  16.456
   19DOPE   O32 2354   8.436   5.051  16.364
   19DOPE   C32 2355   8.688   5.171  16.442
   19DOPE   H2X 2356   8.681   5.293  16.484
   19DOPE   H2Y 2357   8.771   5.100  16.506
   19DOPE   C23 2358   8.830   4.620  16.376
   19DOPE   H3R 2359   8.880   4.518  16.317
   19DOPE   H3S 2360   8.885   4.620  16.478
   19DOPE   C24 2361   8.890   4.772  16.314
   19DOPE   H4R 2362   8.874   4.876  16.383
   19DOPE   H4S 2363   8.825   4.799  16.219
   19DOPE   C25 2364   9.067   4.740  16.289
   19DOPE   H5R 2365   9.077   4.649  16.208
   19DOPE   H5S 2366   9.122   4.687  16.380
   19DOPE   C26 2367   9.161   4.888  16.247
   19DOPE   H6R 2368   9.286   4.846  16.229
   19DOPE   H6S 2369   9.167   4.978  16.330
   19DOPE   C27 2370   9.085   4.963  16.122
   19DOPE   H7R 2371   8.970   5.022  16.150
   19DOPE   H7S 2372   9.054   4.864  16.052
   19DOPE   C28 2373   9.192   5.086  16.052
   19DOPE   H8R 2374   9.208   5.190  16.120
   19DOPE   H8S 2375   9.131   5.131  15.961
   19DOPE   C29 2376   9.350   5.006  16.021
   19DOPE   H9R 2377   9.450   5.034  16.090
   19DOPE  C210 2378   9.376   4.904  15.919
   19DOPE  H10R 2379   9.496   4.852  15.905
   19DOPE  C211 2380   9.250   4.852  15.819
   19DOPE  H11R 2381   9.126   4.891  15.846
   19DOPE  H11S 2382   9.248   4.718  15.812
   19DOPE  C212 2383   9.292   4.925  15.683
   19DOPE  H12R 2384   9.205   4.878  15.608
   19DOPE  H12S 2385   9.412   4.882  15.652
   19DOPE  C213 2386   9.293   5.111  15.682
   19DOPE  H13R 2387   9.406   5.153  15.637
   19DOPE  H13S 2388   9.293   5.160  15.785
   19DOPE  C214 2389   9.155   5.192  15.606
   19DOPE  H14R 2390   9.181   5.322  15.596
   19DOPE  H14S 2391   9.049   5.178  15.672
   19DOPE  C215 2392   9.114   5.120  15.469
   19DOPE  H15R 2393   9.047   5.008  15.486
   19DOPE  H15S 2394   9.227   5.090  15.414
   19DOPE  C216 2395   9.010   5.232  15.383
   19DOPE  H16R 2396   9.084   5.326  15.336
   19DOPE  H16S 2397   8.920   5.292  15.448
   19DOPE  C217 2398   8.912   5.140  15.278
   19DOPE  H17R 2399   8.849   5.045  15.336
   19DOPE  H17S 2400   8.995   5.080  15.207
   19DOPE  C218 2401   8.784   5.236  15.204
   19DOPE  H18R 2402   8.706   5.299  15.277
   19DOPE  H18S 2403   8.706   5.153  15.145
   19DOPE  H18T 2404   8.838   5.323  15.134
   19DOPE   C33 2405   8.753   5.172  16.298
   19DOPE   H3X 2406   8.743   5.052  16.250
   19DOPE   H3Y 2407   8.882   5.207  16.303
   19DOPE   C34 2408   8.666   5.296  16.212
   19DOPE   H4X 2409   8.548   5.250  16.180
   19DOPE   H4Y 2410   8.642   5.394  16.283
   19DOPE   C35 2411   8.765   5.356  16.092
   19DOPE   H5X 2412   8.893   5.366  16.118
   19DOPE   H5Y 2413   8.723   5.478  16.064
   19DOPE   C36 2414   8.742   5.252  15.968
   19DOPE   H6X 2415   8.610   5.243  15.951
   19DOPE   H6Y 2416   8.790   5.130  15.984
   19DOPE   C37 2417   8.820   5.333  15.848
   19DOPE   H7X 2418   8.790   5.461  15.852
   19DOPE   H7Y 2419   8.952   5.323  15.859
   19DOPE   C38 2420   8.768   5.272  15.710
   19DOPE   H8X 2421   8.785   5.140  15.709
   19DOPE   H8Y 2422   8.855   5.324  15.638
   19DOPE   C39 2423   8.604   5.322  15.664
   19DOPE   H9X 2424   8.602   5.426  15.598
   19DOPE  C310 2425   8.467   5.242  15.687
   19DOPE  H10X 2426   8.353   5.292  15.651
   19DOPE  C311 2427   8.458   5.087  15.763
   19DOPE  H11X 2428   8.574   5.052  15.809
   19DOPE  H11Y 2429   8.370   5.098  15.846
   19DOPE  C312 2430   8.410   4.948  15.670
   19DOPE  H12X 2431   8.282   4.966  15.642
   19DOPE  H12Y 2432   8.416   4.834  15.726
   19DOPE  C313 2433   8.506   4.933  15.539
   19DOPE  H13X 2434   8.444   4.842  15.476
   19DOPE  H13Y 2435   8.504   5.047  15.482
   19DOPE  C314 2436   8.680   4.879  15.564
   19DOPE  H14X 2437   8.692   4.844  15.671
   19DOPE  H14Y 2438   8.765   4.979  15.545
   19DOPE  C315 2439   8.726   4.733  15.480
   19DOPE  H15X 2440   8.632   4.639  15.494
   19DOPE  H15Y 2441   8.842   4.685  15.520
   19DOPE  C316 2442   8.748   4.765  15.331
   19DOPE  H16X 2443   8.875   4.801  15.315
   19DOPE  H16Y 2444   8.670   4.865  15.297
   19DOPE  C317 2445   8.714   4.620  15.242
   19DOPE  H17X 2446   8.729   4.507  15.301
   19DOPE  H17Y 2447   8.588   4.625  15.207
   19DOPE  C318 2448   8.831   4.616  15.123
   19DOPE  H18X 2449   8.802   4.717  15.054
   19DOPE  H18Y 2450   8.956   4.633  15.159
   19DOPE  H18Z 2451   8.824   4.501  15.068
   20DOPE     N 2452   7.541   8.328  16.978
   20DOPE   HN1 2453   7.644   8.392  17.006
   20DOPE   HN2 2454   7.561   8.242  16.904
   20DOPE   HN3 2455   7.457   8.402  16.934
   20DOPE   C12 2456   7.462   8.238  17.089
   20DOPE  H12A 2457   7.357   8.306  17.125
   20DOPE  H12B 2458   7.549   8.220  17.172
   20DOPE   C11 2459   7.406   8.080  17.028
   20DOPE  H11A 2460   7.331   8.016  17.104
   20DOPE  H11B 2461   7.514   8.004  17.005
   20DOPE     P 2462   7.247   7.957  16.833
   20DOPE   O13 2463   7.177   7.849  16.937
   20DOPE   O14 2464   7.380   7.897  16.750
   20DOPE   O11 2465   7.109   8.039  16.749
   20DOPE   O12 2466   7.318   8.112  16.909
   20DOPE    C1 2467   6.965   8.087  16.816
   20DOPE    HA 2468   6.988   8.153  16.912
   20DOPE    HB 2469   6.894   7.978  16.842
   20DOPE    C2 2470   6.859   8.198  16.726
   20DOPE    HS 2471   6.737   8.198  16.770
   20DOPE   O21 2472   6.857   8.138  16.590
   20DOPE   C21 2473   6.782   7.998  16.583
   20DOPE   O22 2474   6.683   7.950  16.664
   20DOPE   C22 2475   6.835   7.908  16.459
   20DOPE   H2R 2476   6.818   7.778  16.481
   20DOPE   H2S 2477   6.965   7.928  16.441
   20DOPE    C3 2478   6.917   8.377  16.726
   20DOPE    HX 2479   6.910   8.418  16.831
   20DOPE    HY 2480   6.829   8.446  16.664
   20DOPE   O31 2481   7.079   8.396  16.679
   20DOPE   C31 2482   7.124   8.528  16.620
   20DOPE   O32 2483   7.049   8.653  16.609
   20DOPE   C32 2484   7.300   8.508  16.579
   20DOPE   H2X 2485   7.346   8.629  16.554
   20DOPE   H2Y 2486   7.367   8.461  16.666
   20DOPE   C23 2487   6.732   7.954  16.336
   20DOPE   H3R 2488   6.605   7.922  16.359
   20DOPE   H3S 2489   6.773   7.877  16.252
   20DOPE   C24 2490   6.734   8.129  16.291
   20DOPE   H4R 2491   6.694   8.209  16.372
   20DOPE   H4S 2492   6.649   8.144  16.206
   20DOPE   C25 2493   6.894   8.192  16.239
   20DOPE   H5R 2494   6.953   8.099  16.176
   20DOPE   H5S 2495   6.974   8.219  16.325
   20DOPE   C26 2496   6.865   8.345  16.156
   20DOPE   H6R 2497   6.755   8.404  16.196
   20DOPE   H6S 2498   6.840   8.310  16.051
   20DOPE   C27 2499   7.001   8.468  16.165
   20DOPE   H7R 2500   7.115   8.401  16.180
   20DOPE   H7S 2501   6.983   8.546  16.253
   20DOPE   C28 2502   7.024   8.568  16.037
   20DOPE   H8R 2503   7.033   8.480  15.953
   20DOPE   H8S 2504   7.144   8.623  16.047
   20DOPE   C29 2505   6.905   8.701  16.010
   20DOPE   H9R 2506   6.877   8.778  16.097
   20DOPE  C210 2507   6.827   8.728  15.894
   20DOPE  H10R 2508   6.738   8.826  15.888
   20DOPE  C211 2509   6.845   8.629  15.769
   20DOPE  H11R 2510   6.740   8.548  15.768
   20DOPE  H11S 2511   6.954   8.554  15.773
   20DOPE  C212 2512   6.853   8.717  15.632
   20DOPE  H12R 2513   6.978   8.762  15.620
   20DOPE  H12S 2514   6.770   8.821  15.629
   20DOPE  C213 2515   6.816   8.605  15.513
   20DOPE  H13R 2516   6.904   8.628  15.432
   20DOPE  H13S 2517   6.697   8.636  15.469
   20DOPE  C214 2518   6.812   8.425  15.548
   20DOPE  H14R 2519   6.698   8.396  15.599
   20DOPE  H14S 2520   6.913   8.392  15.616
   20DOPE  C215 2521   6.826   8.318  15.427
   20DOPE  H15R 2522   6.742   8.366  15.350
   20DOPE  H15S 2523   6.782   8.196  15.449
   20DOPE  C216 2524   7.000   8.311  15.379
   20DOPE  H16R 2525   7.068   8.214  15.429
   20DOPE  H16S 2526   7.063   8.425  15.404
   20DOPE  C217 2527   7.007   8.292  15.229
   20DOPE  H17R 2528   6.947   8.177  15.199
   20DOPE  H17S 2529   7.134   8.284  15.199
   20DOPE  C218 2530   6.926   8.432  15.158
   20DOPE  H18R 2531   6.936   8.544  15.219
   20DOPE  H18S 2532   6.798   8.404  15.146
   20DOPE  H18T 2533   6.980   8.459  15.060
   20DOPE   C33 2534   7.321   8.394  16.459
   20DOPE   H3X 2535   7.438   8.424  16.410
   20DOPE   H3Y 2536   7.225   8.412  16.383
   20DOPE   C34 2537   7.328   8.216  16.500
   20DOPE   H4X 2538   7.405   8.203  16.590
   20DOPE   H4Y 2539   7.207   8.171  16.527
   20DOPE   C35 2540   7.403   8.111  16.390
   20DOPE   H5X 2541   7.429   7.990  16.433
   20DOPE   H5Y 2542   7.517   8.164  16.355
   20DOPE   C36 2543   7.289   8.092  16.271
   20DOPE   H6X 2544   7.277   8.212  16.223
   20DOPE   H6Y 2545   7.170   8.056  16.312
   20DOPE   C37 2546   7.342   7.966  16.169
   20DOPE   H7X 2547   7.456   8.002  16.121
   20DOPE   H7Y 2548   7.364   7.853  16.226
   20DOPE   C38 2549   7.212   7.931  16.063
   20DOPE   H8X 2550   7.102   7.891  16.115
   20DOPE   H8Y 2551   7.253   7.826  16.002
   20DOPE   C39 2552   7.177   8.077  15.978
   20DOPE   H9X 2553   7.154   8.188  16.035
   20DOPE  C310 2554   7.166   8.084  15.844
   20DOPE  H10X 2555   7.135   8.200  15.797
   20DOPE  C311 2556   7.188   7.945  15.750
   20DOPE  H11X 2557   7.249   7.984  15.657
   20DOPE  H11Y 2558   7.262   7.848  15.794
   20DOPE  C312 2559   7.024   7.872  15.715
   20DOPE  H12X 2560   6.955   7.837  15.807
   20DOPE  H12Y 2561   7.046   7.759  15.659
   20DOPE  C313 2562   6.919   7.981  15.628
   20DOPE  H13X 2563   6.822   8.036  15.689
   20DOPE  H13Y 2564   6.994   8.082  15.589
   20DOPE  C314 2565   6.848   7.889  15.509
   20DOPE  H14X 2566   6.748   7.956  15.463
   20DOPE  H14Y 2567   6.798   7.774  15.547
   20DOPE  C315 2568   6.977   7.854  15.403
   20DOPE  H15X 2569   7.054   7.754  15.440
   20DOPE  H15Y 2570   7.056   7.960  15.391
   20DOPE  C316 2571   6.908   7.812  15.265
   20DOPE  H16X 2572   7.008   7.778  15.197
   20DOPE  H16Y 2573   6.850   7.921  15.222
   20DOPE  C317 2574   6.785   7.676  15.269
   20DOPE  H17X 2575   6.834   7.572  15.323
   20DOPE  H17Y 2576   6.678   7.720  15.325
   20DOPE  C318 2577   6.733   7.621  15.129
   20DOPE  H18X 2578   6.691   7.727  15.071
   20DOPE  H18Y 2579   6.835   7.566  15.075
   20DOPE  H18Z 2580   6.635   7.532  15.136
   21DOPE     N 2581   4.032   8.898  16.795
   21DOPE   HN1 2582   3.961   8.975  16.736
   21DOPE   HN2 2583   4.109   8.825  16.741
   21DOPE   HN3 2584   3.947   8.827  16.844
   21DOPE   C12 2585   4.114   8.993  16.903
   21DOPE  H12A 2586   4.162   9.104  16.858
   21DOPE  H12B 2587   4.213   8.918  16.943
   21DOPE   C11 2588   3.994   9.029  17.016
   21DOPE  H11A 2589   4.058   9.102  17.092
   21DOPE  H11B 2590   3.958   8.916  17.068
   21DOPE     P 2591   3.691   9.044  16.929
   21DOPE   O13 2592   3.583   9.043  17.047
   21DOPE   O14 2593   3.722   8.890  16.861
   21DOPE   O11 2594   3.636   9.168  16.820
   21DOPE   O12 2595   3.859   9.118  16.969
   21DOPE    C1 2596   3.738   9.200  16.708
   21DOPE    HA 2597   3.805   9.092  16.674
   21DOPE    HB 2598   3.826   9.296  16.737
   21DOPE    C2 2599   3.644   9.263  16.584
   21DOPE    HS 2600   3.554   9.350  16.623
   21DOPE   O21 2601   3.569   9.134  16.513
   21DOPE   C21 2602   3.431   9.084  16.562
   21DOPE   O22 2603   3.362   9.137  16.660
   21DOPE   C22 2604   3.353   8.969  16.461
   21DOPE   H2R 2605   3.348   8.854  16.517
   21DOPE   H2S 2606   3.432   8.950  16.374
   21DOPE    C3 2607   3.748   9.359  16.481
   21DOPE    HX 2608   3.821   9.450  16.533
   21DOPE    HY 2609   3.662   9.425  16.417
   21DOPE   O31 2610   3.844   9.258  16.394
   21DOPE   C31 2611   3.978   9.204  16.446
   21DOPE   O32 2612   4.030   9.236  16.557
   21DOPE   C32 2613   4.061   9.085  16.354
   21DOPE   H2X 2614   4.190   9.092  16.382
   21DOPE   H2Y 2615   4.020   8.962  16.378
   21DOPE   C23 2616   3.176   9.012  16.420
   21DOPE   H3R 2617   3.118   9.082  16.502
   21DOPE   H3S 2618   3.110   8.897  16.414
   21DOPE   C24 2619   3.133   9.090  16.284
   21DOPE   H4R 2620   3.142   9.221  16.293
   21DOPE   H4S 2621   3.001   9.070  16.270
   21DOPE   C25 2622   3.215   9.026  16.157
   21DOPE   H5R 2623   3.131   8.938  16.111
   21DOPE   H5S 2624   3.326   8.960  16.182
   21DOPE   C26 2625   3.259   9.152  16.050
   21DOPE   H6R 2626   3.360   9.226  16.087
   21DOPE   H6S 2627   3.155   9.234  16.034
   21DOPE   C27 2628   3.311   9.085  15.913
   21DOPE   H7R 2629   3.307   9.182  15.837
   21DOPE   H7S 2630   3.221   8.993  15.882
   21DOPE   C28 2631   3.479   9.010  15.910
   21DOPE   H8R 2632   3.492   8.950  15.811
   21DOPE   H8S 2633   3.482   8.911  15.985
   21DOPE   C29 2634   3.619   9.121  15.933
   21DOPE   H9R 2635   3.637   9.152  16.039
   21DOPE  C210 2636   3.715   9.192  15.842
   21DOPE  H10R 2637   3.808   9.276  15.878
   21DOPE  C211 2638   3.707   9.178  15.690
   21DOPE  H11R 2639   3.625   9.078  15.659
   21DOPE  H11S 2640   3.827   9.150  15.647
   21DOPE  C212 2641   3.642   9.343  15.641
   21DOPE  H12R 2642   3.740   9.433  15.642
   21DOPE  H12S 2643   3.554   9.377  15.719
   21DOPE  C213 2644   3.533   9.362  15.516
   21DOPE  H13R 2645   3.598   9.416  15.431
   21DOPE  H13S 2646   3.438   9.451  15.541
   21DOPE  C214 2647   3.438   9.216  15.477
   21DOPE  H14R 2648   3.355   9.192  15.562
   21DOPE  H14S 2649   3.521   9.112  15.468
   21DOPE  C215 2650   3.341   9.226  15.347
   21DOPE  H15R 2651   3.425   9.216  15.261
   21DOPE  H15S 2652   3.271   9.338  15.336
   21DOPE  C216 2653   3.228   9.080  15.355
   21DOPE  H16R 2654   3.143   9.097  15.439
   21DOPE  H16S 2655   3.310   8.980  15.384
   21DOPE  C217 2656   3.140   9.025  15.230
   21DOPE  H17R 2657   3.116   8.897  15.252
   21DOPE  H17S 2658   3.220   9.030  15.141
   21DOPE  C218 2659   2.974   9.094  15.202
   21DOPE  H18R 2660   2.899   9.094  15.295
   21DOPE  H18S 2661   2.912   9.017  15.127
   21DOPE  H18T 2662   2.978   9.218  15.163
   21DOPE   C33 2663   4.046   9.118  16.203
   21DOPE   H3X 2664   4.043   9.248  16.183
   21DOPE   H3Y 2665   3.934   9.067  16.162
   21DOPE   C34 2666   4.195   9.048  16.134
   21DOPE   H4X 2667   4.204   9.090  16.028
   21DOPE   H4Y 2668   4.301   9.096  16.188
   21DOPE   C35 2669   4.208   8.866  16.137
   21DOPE   H5X 2670   4.228   8.827  16.241
   21DOPE   H5Y 2671   4.313   8.825  16.076
   21DOPE   C36 2672   4.056   8.785  16.086
   21DOPE   H6X 2673   3.955   8.812  16.156
   21DOPE   H6Y 2674   4.073   8.653  16.086
   21DOPE   C37 2675   4.010   8.846  15.946
   21DOPE   H7X 2676   4.010   8.980  15.942
   21DOPE   H7Y 2677   4.100   8.804  15.872
   21DOPE   C38 2678   3.840   8.798  15.908
   21DOPE   H8X 2679   3.808   8.864  15.815
   21DOPE   H8Y 2680   3.757   8.838  15.989
   21DOPE   C39 2681   3.830   8.620  15.892
   21DOPE   H9X 2682   3.904   8.549  15.961
   21DOPE  C310 2683   3.743   8.546  15.799
   21DOPE  H10X 2684   3.750   8.416  15.791
   21DOPE  C311 2685   3.640   8.628  15.697
   21DOPE  H11X 2686   3.521   8.567  15.695
   21DOPE  H11Y 2687   3.616   8.756  15.719
   21DOPE  C312 2688   3.719   8.618  15.560
   21DOPE  H12X 2689   3.766   8.495  15.541
   21DOPE  H12Y 2690   3.823   8.702  15.555
   21DOPE  C313 2691   3.600   8.657  15.450
   21DOPE  H13X 2692   3.502   8.566  15.454
   21DOPE  H13Y 2693   3.542   8.776  15.467
   21DOPE  C314 2694   3.678   8.646  15.313
   21DOPE  H14X 2695   3.581   8.651  15.237
   21DOPE  H14Y 2696   3.743   8.530  15.307
   21DOPE  C315 2697   3.794   8.778  15.276
   21DOPE  H15X 2698   3.830   8.764  15.169
   21DOPE  H15Y 2699   3.906   8.770  15.337
   21DOPE  C316 2700   3.714   8.939  15.299
   21DOPE  H16X 2701   3.713   8.958  15.410
   21DOPE  H16Y 2702   3.588   8.939  15.263
   21DOPE  C317 2703   3.806   9.074  15.236
   21DOPE  H17X 2704   3.934   9.034  15.228
   21DOPE  H17Y 2705   3.758   9.097  15.133
   21DOPE  C318 2706   3.802   9.229  15.317
   21DOPE  H18X 2707   3.694   9.298  15.285
   21DOPE  H18Y 2708   3.796   9.203  15.425
   21DOPE  H18Z 2709   3.907   9.306  15.301
   22DOPE     N 2710   8.837   5.728  16.898
   22DOPE   HN1 2711   8.730   5.701  16.850
   22DOPE   HN2 2712   8.906   5.804  16.840
   22DOPE   HN3 2713   8.912   5.628  16.914
   22DOPE   C12 2714   8.840   5.826  17.024
   22DOPE  H12A 2715   8.840   5.742  17.110
   22DOPE  H12B 2716   8.731   5.902  17.030
   22DOPE   C11 2717   8.993   5.933  17.019
   22DOPE  H11A 2718   9.058   5.926  17.117
   22DOPE  H11B 2719   8.953   6.060  17.009
   22DOPE     P 2720   9.215   5.748  16.920
   22DOPE   O13 2721   9.120   5.608  16.965
   22DOPE   O14 2722   9.348   5.800  17.007
   22DOPE   O11 2723   9.264   5.724  16.770
   22DOPE   O12 2724   9.095   5.894  16.907
   22DOPE    C1 2725   9.144   5.731  16.666
   22DOPE    HA 2726   9.056   5.827  16.683
   22DOPE    HB 2727   9.079   5.615  16.659
   22DOPE    C2 2728   9.226   5.760  16.528
   22DOPE    HS 2729   9.338   5.690  16.541
   22DOPE   O21 2730   9.254   5.928  16.498
   22DOPE   C21 2731   9.382   5.941  16.417
   22DOPE   O22 2732   9.485   5.839  16.404
   22DOPE   C22 2733   9.374   6.090  16.328
   22DOPE   H2R 2734   9.492   6.150  16.333
   22DOPE   H2S 2735   9.284   6.176  16.365
   22DOPE    C3 2736   9.130   5.688  16.407
   22DOPE    HX 2737   9.151   5.556  16.406
   22DOPE    HY 2738   9.186   5.734  16.313
   22DOPE   O31 2739   8.962   5.734  16.405
   22DOPE   C31 2740   8.856   5.615  16.404
   22DOPE   O32 2741   8.891   5.474  16.422
   22DOPE   C32 2742   8.681   5.672  16.388
   22DOPE   H2X 2743   8.608   5.580  16.440
   22DOPE   H2Y 2744   8.665   5.779  16.449
   22DOPE   C23 2745   9.358   6.037  16.182
   22DOPE   H3R 2746   9.233   5.998  16.160
   22DOPE   H3S 2747   9.438   5.930  16.165
   22DOPE   C24 2748   9.410   6.163  16.079
   22DOPE   H4R 2749   9.517   6.228  16.116
   22DOPE   H4S 2750   9.322   6.258  16.061
   22DOPE   C25 2751   9.452   6.077  15.949
   22DOPE   H5R 2752   9.372   5.974  15.929
   22DOPE   H5S 2753   9.568   6.017  15.966
   22DOPE   C26 2754   9.460   6.186  15.827
   22DOPE   H6R 2755   9.529   6.120  15.750
   22DOPE   H6S 2756   9.523   6.300  15.852
   22DOPE   C27 2757   9.295   6.221  15.765
   22DOPE   H7R 2758   9.247   6.329  15.815
   22DOPE   H7S 2759   9.210   6.124  15.791
   22DOPE   C28 2760   9.294   6.247  15.612
   22DOPE   H8R 2761   9.194   6.332  15.591
   22DOPE   H8S 2762   9.257   6.133  15.562
   22DOPE   C29 2763   9.446   6.310  15.549
   22DOPE   H9R 2764   9.541   6.347  15.620
   22DOPE  C210 2765   9.474   6.323  15.417
   22DOPE  H10R 2766   9.592   6.367  15.382
   22DOPE  C211 2767   9.354   6.276  15.310
   22DOPE  H11R 2768   9.232   6.307  15.348
   22DOPE  H11S 2769   9.353   6.144  15.297
   22DOPE  C212 2770   9.374   6.355  15.170
   22DOPE  H12R 2771   9.474   6.301  15.112
   22DOPE  H12S 2772   9.410   6.482  15.191
   22DOPE  C213 2773   9.216   6.366  15.088
   22DOPE  H13R 2774   9.212   6.484  15.036
   22DOPE  H13S 2775   9.125   6.367  15.168
   22DOPE  C214 2776   9.163   6.230  14.990
   22DOPE  H14R 2777   9.112   6.132  15.053
   22DOPE  H14S 2778   9.272   6.182  14.941
   22DOPE  C215 2779   9.036   6.272  14.879
   22DOPE  H15R 2780   9.024   6.169  14.810
   22DOPE  H15S 2781   9.086   6.374  14.820
   22DOPE  C216 2782   8.873   6.329  14.937
   22DOPE  H16R 2783   8.915   6.454  14.960
   22DOPE  H16S 2784   8.843   6.262  15.029
   22DOPE  C217 2785   8.711   6.366  14.867
   22DOPE  H17R 2786   8.660   6.472  14.921
   22DOPE  H17S 2787   8.614   6.278  14.878
   22DOPE  C218 2788   8.713   6.407  14.721
   22DOPE  H18R 2789   8.832   6.372  14.680
   22DOPE  H18S 2790   8.684   6.536  14.713
   22DOPE  H18T 2791   8.618   6.343  14.665
   22DOPE   C33 2792   8.599   5.699  16.249
   22DOPE   H3X 2793   8.479   5.752  16.276
   22DOPE   H3Y 2794   8.572   5.586  16.198
   22DOPE   C34 2795   8.668   5.807  16.139
   22DOPE   H4X 2796   8.670   5.933  16.168
   22DOPE   H4Y 2797   8.789   5.765  16.107
   22DOPE   C35 2798   8.556   5.815  16.020
   22DOPE   H5X 2799   8.429   5.824  16.055
   22DOPE   H5Y 2800   8.572   5.704  15.962
   22DOPE   C36 2801   8.590   5.952  15.924
   22DOPE   H6X 2802   8.585   6.071  15.975
   22DOPE   H6Y 2803   8.486   5.945  15.853
   22DOPE   C37 2804   8.749   5.938  15.846
   22DOPE   H7X 2805   8.755   6.034  15.771
   22DOPE   H7Y 2806   8.852   5.962  15.910
   22DOPE   C38 2807   8.788   5.774  15.783
   22DOPE   H8X 2808   8.792   5.689  15.868
   22DOPE   H8Y 2809   8.910   5.776  15.739
   22DOPE   C39 2810   8.666   5.726  15.679
   22DOPE   H9X 2811   8.587   5.627  15.707
   22DOPE  C310 2812   8.648   5.800  15.561
   22DOPE  H10X 2813   8.557   5.758  15.490
   22DOPE  C311 2814   8.746   5.941  15.514
   22DOPE  H11X 2815   8.668   6.041  15.478
   22DOPE  H11Y 2816   8.826   5.993  15.592
   22DOPE  C312 2817   8.864   5.893  15.407
   22DOPE  H12X 2818   8.923   5.779  15.436
   22DOPE  H12Y 2819   8.959   5.988  15.402
   22DOPE  C313 2820   8.790   5.880  15.269
   22DOPE  H13X 2821   8.696   5.784  15.267
   22DOPE  H13Y 2822   8.728   5.993  15.243
   22DOPE  C314 2823   8.922   5.843  15.168
   22DOPE  H14X 2824   9.022   5.929  15.177
   22DOPE  H14Y 2825   8.868   5.861  15.066
   22DOPE  C315 2826   8.981   5.670  15.182
   22DOPE  H15X 2827   9.007   5.621  15.082
   22DOPE  H15Y 2828   8.878   5.596  15.217
   22DOPE  C316 2829   9.125   5.633  15.275
   22DOPE  H16X 2830   9.197   5.534  15.229
   22DOPE  H16Y 2831   9.070   5.580  15.367
   22DOPE  C317 2832   9.241   5.764  15.328
   22DOPE  H17X 2833   9.172   5.862  15.375
   22DOPE  H17Y 2834   9.311   5.706  15.410
   22DOPE  C318 2835   9.364   5.838  15.232
   22DOPE  H18X 2836   9.446   5.918  15.289
   22DOPE  H18Y 2837   9.439   5.744  15.185
   22DOPE  H18Z 2838   9.304   5.910  15.154
   23DOPE     N 2839   5.597  -0.196  17.168
   23DOPE   HN1 2840   5.587  -0.222  17.270
   23DOPE   HN2 2841   5.681  -0.106  17.152
   23DOPE   HN3 2842   5.489  -0.156  17.126
   23DOPE   C12 2843   5.646  -0.344  17.094
   23DOPE  H12A 2844   5.540  -0.426  17.094
   23DOPE  H12B 2845   5.747  -0.402  17.146
   23DOPE   C11 2846   5.687  -0.298  16.951
   23DOPE  H11A 2847   5.693  -0.409  16.889
   23DOPE  H11B 2848   5.808  -0.240  16.948
   23DOPE     P 2849   5.579  -0.131  16.755
   23DOPE   O13 2850   5.422  -0.067  16.715
   23DOPE   O14 2851   5.646  -0.269  16.680
   23DOPE   O11 2852   5.706   0.010  16.772
   23DOPE   O12 2853   5.564  -0.188  16.906
   23DOPE    C1 2854   5.710   0.114  16.886
   23DOPE    HA 2855   5.768   0.052  16.971
   23DOPE    HB 2856   5.585   0.146  16.917
   23DOPE    C2 2857   5.803   0.275  16.862
   23DOPE    HS 2858   5.783   0.355  16.949
   23DOPE   O21 2859   5.749   0.354  16.745
   23DOPE   C21 2860   5.597   0.386  16.731
   23DOPE   O22 2861   5.498   0.402  16.821
   23DOPE   C22 2862   5.572   0.428  16.584
   23DOPE   H2R 2863   5.689   0.425  16.532
   23DOPE   H2S 2864   5.526   0.553  16.580
   23DOPE    C3 2865   5.990   0.257  16.850
   23DOPE    HX 2866   6.040   0.254  16.954
   23DOPE    HY 2867   6.041   0.367  16.803
   23DOPE   O31 2868   6.046   0.113  16.784
   23DOPE   C31 2869   6.017   0.108  16.653
   23DOPE   O32 2870   5.965   0.216  16.584
   23DOPE   C32 2871   6.085  -0.049  16.596
   23DOPE   H2X 2872   6.217  -0.040  16.599
   23DOPE   H2Y 2873   6.048  -0.149  16.663
   23DOPE   C23 2874   5.455   0.319  16.507
   23DOPE   H3R 2875   5.329   0.348  16.533
   23DOPE   H3S 2876   5.477   0.190  16.533
   23DOPE   C24 2877   5.486   0.341  16.357
   23DOPE   H4R 2878   5.608   0.289  16.334
   23DOPE   H4S 2879   5.490   0.470  16.333
   23DOPE   C25 2880   5.360   0.258  16.271
   23DOPE   H5R 2881   5.248   0.331  16.273
   23DOPE   H5S 2882   5.332   0.140  16.317
   23DOPE   C26 2883   5.416   0.232  16.127
   23DOPE   H6R 2884   5.318   0.163  16.076
   23DOPE   H6S 2885   5.524   0.152  16.125
   23DOPE   C27 2886   5.454   0.389  16.052
   23DOPE   H7R 2887   5.582   0.419  16.068
   23DOPE   H7S 2888   5.383   0.488  16.097
   23DOPE   C28 2889   5.418   0.380  15.901
   23DOPE   H8R 2890   5.486   0.280  15.855
   23DOPE   H8S 2891   5.459   0.493  15.853
   23DOPE   C29 2892   5.239   0.361  15.884
   23DOPE   H9R 2893   5.171   0.467  15.915
   23DOPE  C210 2894   5.158   0.228  15.849
   23DOPE  H10R 2895   5.028   0.233  15.868
   23DOPE  C211 2896   5.218   0.061  15.814
   23DOPE  H11R 2897   5.182  -0.017  15.899
   23DOPE  H11S 2898   5.351   0.056  15.813
   23DOPE  C212 2899   5.153  -0.026  15.687
   23DOPE  H12R 2900   5.021  -0.038  15.695
   23DOPE  H12S 2901   5.202  -0.150  15.692
   23DOPE  C213 2902   5.191   0.041  15.545
   23DOPE  H13R 2903   5.107   0.137  15.521
   23DOPE  H13S 2904   5.166  -0.053  15.470
   23DOPE  C214 2905   5.363   0.103  15.524
   23DOPE  H14R 2906   5.441   0.000  15.496
   23DOPE  H14S 2907   5.404   0.152  15.621
   23DOPE  C215 2908   5.387   0.242  15.424
   23DOPE  H15R 2909   5.502   0.305  15.449
   23DOPE  H15S 2910   5.290   0.330  15.441
   23DOPE  C216 2911   5.399   0.193  15.276
   23DOPE  H16R 2912   5.286   0.130  15.249
   23DOPE  H16S 2913   5.498   0.106  15.262
   23DOPE  C217 2914   5.424   0.335  15.180
   23DOPE  H17R 2915   5.401   0.292  15.076
   23DOPE  H17S 2916   5.551   0.376  15.185
   23DOPE  C218 2917   5.315   0.475  15.214
   23DOPE  H18R 2918   5.370   0.552  15.293
   23DOPE  H18S 2919   5.201   0.425  15.252
   23DOPE  H18T 2920   5.285   0.550  15.127
   23DOPE   C33 2921   6.026  -0.078  16.452
   23DOPE   H3X 2922   6.101  -0.172  16.403
   23DOPE   H3Y 2923   6.037   0.032  16.391
   23DOPE   C34 2924   5.851  -0.136  16.456
   23DOPE   H4X 2925   5.848  -0.265  16.483
   23DOPE   H4Y 2926   5.791  -0.068  16.537
   23DOPE   C35 2927   5.747  -0.103  16.333
   23DOPE   H5X 2928   5.737   0.029  16.315
   23DOPE   H5Y 2929   5.624  -0.148  16.358
   23DOPE   C36 2930   5.804  -0.187  16.207
   23DOPE   H6X 2931   5.851  -0.308  16.234
   23DOPE   H6Y 2932   5.904  -0.118  16.162
   23DOPE   C37 2933   5.668  -0.211  16.105
   23DOPE   H7X 2934   5.564  -0.265  16.159
   23DOPE   H7Y 2935   5.626  -0.094  16.066
   23DOPE   C38 2936   5.718  -0.322  15.991
   23DOPE   H8X 2937   5.616  -0.342  15.921
   23DOPE   H8Y 2938   5.748  -0.438  16.037
   23DOPE   C39 2939   5.864  -0.259  15.921
   23DOPE   H9X 2940   5.978  -0.319  15.944
   23DOPE  C310 2941   5.863  -0.136  15.836
   23DOPE  H10X 2942   5.976  -0.094  15.790
   23DOPE  C311 2943   5.714  -0.043  15.797
   23DOPE  H11X 2944   5.603  -0.115  15.808
   23DOPE  H11Y 2945   5.700   0.066  15.860
   23DOPE  C312 2946   5.732   0.006  15.651
   23DOPE  H12X 2947   5.838   0.086  15.638
   23DOPE  H12Y 2948   5.629   0.080  15.625
   23DOPE  C313 2949   5.743  -0.136  15.553
   23DOPE  H13X 2950   5.849  -0.211  15.578
   23DOPE  H13Y 2951   5.634  -0.214  15.561
   23DOPE  C314 2952   5.764  -0.077  15.410
   23DOPE  H14X 2953   5.858   0.018  15.411
   23DOPE  H14Y 2954   5.652  -0.019  15.374
   23DOPE  C315 2955   5.816  -0.209  15.314
   23DOPE  H15X 2956   5.909  -0.283  15.363
   23DOPE  H15Y 2957   5.874  -0.146  15.228
   23DOPE  C316 2958   5.678  -0.316  15.263
   23DOPE  H16X 2959   5.570  -0.240  15.247
   23DOPE  H16Y 2960   5.650  -0.406  15.342
   23DOPE  C317 2961   5.716  -0.402  15.131
   23DOPE  H17X 2962   5.818  -0.487  15.145
   23DOPE  H17Y 2963   5.610  -0.475  15.102
   23DOPE  C318 2964   5.755  -0.289  15.015
   23DOPE  H18X 2965   5.868  -0.221  15.033
   23DOPE  H18Y 2966   5.773  -0.358  14.922
   23DOPE  H18Z 2967   5.657  -0.202  14.999
   24DOPE     N 2968   8.226   7.442  17.174
   24DOPE   HN1 2969   8.164   7.334  17.176
   24DOPE   HN2 2970   8.327   7.423  17.115
   24DOPE   HN3 2971   8.258   7.472  17.272
   24DOPE   C12 2972   8.128   7.574  17.110
   24DOPE  H12A 2973   8.213   7.670  17.080
   24DOPE  H12B 2974   8.045   7.622  17.187
   24DOPE   C11 2975   8.033   7.517  16.987
   24DOPE  H11A 2976   7.980   7.624  16.937
   24DOPE  H11B 2977   7.933   7.436  17.018
   24DOPE     P 2978   8.156   7.480  16.746
   24DOPE   O13 2979   8.243   7.634  16.738
   24DOPE   O14 2980   8.003   7.463  16.673
   24DOPE   O11 2981   8.270   7.337  16.710
   24DOPE   O12 2982   8.135   7.433  16.898
   24DOPE    C1 2983   8.206   7.180  16.735
   24DOPE    HA 2984   8.077   7.168  16.703
   24DOPE    HB 2985   8.214   7.150  16.843
   24DOPE    C2 2986   8.302   7.052  16.658
   24DOPE    HS 2987   8.413   7.045  16.719
   24DOPE   O21 2988   8.334   7.105  16.524
   24DOPE   C21 2989   8.461   7.198  16.515
   24DOPE   O22 2990   8.572   7.208  16.595
   24DOPE   C22 2991   8.452   7.285  16.383
   24DOPE   H2R 2992   8.540   7.380  16.385
   24DOPE   H2S 2993   8.332   7.344  16.376
   24DOPE    C3 2994   8.221   6.884  16.651
   24DOPE    HX 2995   8.209   6.833  16.753
   24DOPE    HY 2996   8.300   6.803  16.594
   24DOPE   O31 2997   8.065   6.900  16.591
   24DOPE   C31 2998   8.050   6.842  16.470
   24DOPE   O32 2999   8.128   6.734  16.418
   24DOPE   C32 3000   7.921   6.938  16.400
   24DOPE   H2X 3001   7.914   6.893  16.296
   24DOPE   H2Y 3002   7.806   6.913  16.452
   24DOPE   C23 3003   8.492   7.180  16.261
   24DOPE   H3R 3004   8.602   7.108  16.275
   24DOPE   H3S 3005   8.515   7.265  16.178
   24DOPE   C24 3006   8.346   7.087  16.216
   24DOPE   H4R 3007   8.256   7.177  16.244
   24DOPE   H4S 3008   8.310   6.980  16.274
   24DOPE   C25 3009   8.326   7.073  16.065
   24DOPE   H5R 3010   8.340   6.953  16.022
   24DOPE   H5S 3011   8.418   7.147  16.018
   24DOPE   C26 3012   8.155   7.121  16.030
   24DOPE   H6R 3013   8.150   7.175  15.929
   24DOPE   H6S 3014   8.117   7.218  16.097
   24DOPE   C27 3015   8.044   6.976  16.050
   24DOPE   H7R 3016   7.925   7.016  16.086
   24DOPE   H7S 3017   8.095   6.898  16.130
   24DOPE   C28 3018   8.023   6.874  15.923
   24DOPE   H8R 3019   7.933   6.779  15.941
   24DOPE   H8S 3020   8.141   6.812  15.904
   24DOPE   C29 3021   7.975   6.985  15.811
   24DOPE   H9R 3022   7.884   7.074  15.839
   24DOPE  C210 3023   8.039   6.990  15.688
   24DOPE  H10R 3024   8.000   7.085  15.618
   24DOPE  C211 3025   8.172   6.884  15.639
   24DOPE  H11R 3026   8.250   6.842  15.723
   24DOPE  H11S 3027   8.252   6.950  15.570
   24DOPE  C212 3028   8.100   6.734  15.572
   24DOPE  H12R 3029   8.011   6.680  15.642
   24DOPE  H12S 3030   8.196   6.644  15.556
   24DOPE  C213 3031   8.018   6.768  15.437
   24DOPE  H13R 3032   7.933   6.870  15.449
   24DOPE  H13S 3033   7.946   6.661  15.407
   24DOPE  C214 3034   8.136   6.810  15.324
   24DOPE  H14R 3035   8.224   6.900  15.363
   24DOPE  H14S 3036   8.070   6.869  15.241
   24DOPE  C215 3037   8.233   6.670  15.266
   24DOPE  H15R 3038   8.154   6.593  15.204
   24DOPE  H15S 3039   8.285   6.598  15.349
   24DOPE  C216 3040   8.375   6.738  15.188
   24DOPE  H16R 3041   8.473   6.768  15.259
   24DOPE  H16S 3042   8.328   6.853  15.150
   24DOPE  C217 3043   8.441   6.650  15.065
   24DOPE  H17R 3044   8.389   6.532  15.049
   24DOPE  H17S 3045   8.573   6.635  15.075
   24DOPE  C218 3046   8.411   6.744  14.938
   24DOPE  H18R 3047   8.435   6.661  14.853
   24DOPE  H18S 3048   8.495   6.845  14.927
   24DOPE  H18T 3049   8.287   6.791  14.935
   24DOPE   C33 3050   7.961   7.120  16.403
   24DOPE   H3X 3051   8.062   7.144  16.334
   24DOPE   H3Y 3052   7.997   7.160  16.504
   24DOPE   C34 3053   7.825   7.226  16.356
   24DOPE   H4X 3054   7.788   7.180  16.258
   24DOPE   H4Y 3055   7.723   7.218  16.428
   24DOPE   C35 3056   7.873   7.402  16.328
   24DOPE   H5X 3057   7.979   7.432  16.391
   24DOPE   H5Y 3058   7.772   7.478  16.361
   24DOPE   C36 3059   7.907   7.433  16.178
   24DOPE   H6X 3060   7.802   7.498  16.134
   24DOPE   H6Y 3061   7.909   7.318  16.123
   24DOPE   C37 3062   8.063   7.528  16.149
   24DOPE   H7X 3063   8.052   7.648  16.195
   24DOPE   H7Y 3064   8.166   7.464  16.196
   24DOPE   C38 3065   8.095   7.547  15.997
   24DOPE   H8X 3066   7.984   7.594  15.952
   24DOPE   H8Y 3067   8.108   7.424  15.954
   24DOPE   C39 3068   8.233   7.652  15.952
   24DOPE   H9X 3069   8.215   7.782  15.963
   24DOPE  C310 3070   8.374   7.601  15.900
   24DOPE  H10X 3071   8.452   7.687  15.849
   24DOPE  C311 3072   8.420   7.428  15.878
   24DOPE  H11X 3073   8.552   7.410  15.885
   24DOPE  H11Y 3074   8.366   7.358  15.960
   24DOPE  C312 3075   8.360   7.360  15.743
   24DOPE  H12X 3076   8.228   7.348  15.746
   24DOPE  H12Y 3077   8.413   7.238  15.727
   24DOPE  C313 3078   8.407   7.470  15.628
   24DOPE  H13X 3079   8.364   7.594  15.651
   24DOPE  H13Y 3080   8.540   7.477  15.623
   24DOPE  C314 3081   8.333   7.440  15.491
   24DOPE  H14X 3082   8.203   7.472  15.493
   24DOPE  H14Y 3083   8.345   7.314  15.455
   24DOPE  C315 3084   8.423   7.556  15.401
   24DOPE  H15X 3085   8.550   7.532  15.422
   24DOPE  H15Y 3086   8.396   7.681  15.435
   24DOPE  C316 3087   8.396   7.538  15.250
   24DOPE  H16X 3088   8.339   7.650  15.216
   24DOPE  H16Y 3089   8.309   7.439  15.235
   24DOPE  C317 3090   8.556   7.498  15.177
   24DOPE  H17X 3091   8.653   7.577  15.214
   24DOPE  H17Y 3092   8.591   7.375  15.206
   24DOPE  C318 3093   8.564   7.507  15.024
   24DOPE  H18X 3094   8.574   7.631  14.991
   24DOPE  H18Y 3095   8.671   7.444  14.985
   24DOPE  H18Z 3096   8.456   7.459  14.976
   25DOPE     N 3097   9.217   7.195  16.782
   25DOPE   HN1 3098   9.299   7.140  16.846
   25DOPE   HN2 3099   9.151   7.102  16.741
   25DOPE   HN3 3100   9.272   7.265  16.708
   25DOPE   C12 3101   9.106   7.285  16.872
   25DOPE  H12A 3102   8.982   7.270  16.833
   25DOPE  H12B 3103   9.134   7.414  16.870
   25DOPE   C11 3104   9.126   7.213  17.013
   25DOPE  H11A 3105   9.038   7.267  17.084
   25DOPE  H11B 3106   9.247   7.248  17.051
   25DOPE     P 3107   8.950   6.958  17.010
   25DOPE   O13 3108   8.848   7.054  16.920
   25DOPE   O14 3109   8.892   6.938  17.149
   25DOPE   O11 3110   8.988   6.798  16.939
   25DOPE   O12 3111   9.120   7.042  17.011
   25DOPE    C1 3112   9.052   6.654  16.989
   25DOPE    HA 3113   8.958   6.582  17.040
   25DOPE    HB 3114   9.146   6.679  17.064
   25DOPE    C2 3115   9.126   6.552  16.873
   25DOPE    HS 3116   9.247   6.518  16.904
   25DOPE   O21 3117   9.132   6.632  16.743
   25DOPE   C21 3118   9.212   6.768  16.729
   25DOPE   O22 3119   9.274   6.852  16.814
   25DOPE   C22 3120   9.235   6.809  16.581
   25DOPE   H2R 3121   9.121   6.862  16.545
   25DOPE   H2S 3122   9.256   6.692  16.529
   25DOPE    C3 3123   9.037   6.388  16.855
   25DOPE    HX 3124   8.989   6.352  16.953
   25DOPE    HY 3125   9.126   6.292  16.828
   25DOPE   O31 3126   8.904   6.395  16.765
   25DOPE   C31 3127   8.950   6.383  16.638
   25DOPE   O32 3128   9.080   6.338  16.598
   25DOPE   C32 3129   8.814   6.446  16.553
   25DOPE   H2X 3130   8.704   6.377  16.557
   25DOPE   H2Y 3131   8.760   6.542  16.605
   25DOPE   C23 3132   9.376   6.925  16.548
   25DOPE   H3R 3133   9.490   6.864  16.574
   25DOPE   H3S 3134   9.372   7.033  16.611
   25DOPE   C24 3135   9.383   6.983  16.400
   25DOPE   H4R 3136   9.500   7.040  16.379
   25DOPE   H4S 3137   9.290   7.076  16.384
   25DOPE   C25 3138   9.352   6.844  16.302
   25DOPE   H5R 3139   9.241   6.780  16.326
   25DOPE   H5S 3140   9.442   6.752  16.319
   25DOPE   C26 3141   9.347   6.877  16.151
   25DOPE   H6R 3142   9.437   6.967  16.119
   25DOPE   H6S 3143   9.229   6.930  16.127
   25DOPE   C27 3144   9.364   6.721  16.070
   25DOPE   H7R 3145   9.246   6.690  16.026
   25DOPE   H7S 3146   9.391   6.620  16.139
   25DOPE   C28 3147   9.496   6.726  15.961
   25DOPE   H8R 3148   9.514   6.601  15.923
   25DOPE   H8S 3149   9.613   6.761  16.004
   25DOPE   C29 3150   9.454   6.838  15.849
   25DOPE   H9R 3151   9.498   6.961  15.858
   25DOPE  C210 3152   9.348   6.804  15.752
   25DOPE  H10R 3153   9.312   6.895  15.680
   25DOPE  C211 3154   9.257   6.649  15.743
   25DOPE  H11R 3155   9.299   6.559  15.817
   25DOPE  H11S 3156   9.272   6.593  15.644
   25DOPE  C212 3157   9.082   6.694  15.768
   25DOPE  H12R 3158   9.068   6.803  15.832
   25DOPE  H12S 3159   9.013   6.602  15.823
   25DOPE  C213 3160   8.993   6.716  15.638
   25DOPE  H13R 3161   9.037   6.829  15.595
   25DOPE  H13S 3162   8.866   6.731  15.659
   25DOPE  C214 3163   8.986   6.584  15.533
   25DOPE  H14R 3164   8.922   6.475  15.568
   25DOPE  H14S 3165   9.108   6.548  15.500
   25DOPE  C215 3166   8.896   6.656  15.414
   25DOPE  H15R 3167   8.916   6.788  15.412
   25DOPE  H15S 3168   8.764   6.635  15.421
   25DOPE  C216 3169   8.959   6.599  15.284
   25DOPE  H16R 3170   9.085   6.556  15.294
   25DOPE  H16S 3171   8.964   6.700  15.212
   25DOPE  C217 3172   8.848   6.472  15.232
   25DOPE  H17R 3173   8.911   6.436  15.144
   25DOPE  H17S 3174   8.730   6.521  15.202
   25DOPE  C218 3175   8.832   6.326  15.322
   25DOPE  H18R 3176   8.753   6.355  15.408
   25DOPE  H18S 3177   8.952   6.290  15.360
   25DOPE  H18T 3178   8.780   6.226  15.265
   25DOPE   C33 3179   8.849   6.502  16.411
   25DOPE   H3X 3180   8.754   6.589  16.404
   25DOPE   H3Y 3181   8.812   6.408  16.341
   25DOPE   C34 3182   8.987   6.618  16.376
   25DOPE   H4X 3183   9.005   6.679  16.472
   25DOPE   H4Y 3184   9.098   6.554  16.348
   25DOPE   C35 3185   8.942   6.748  16.269
   25DOPE   H5X 3186   8.818   6.727  16.238
   25DOPE   H5Y 3187   9.017   6.721  16.179
   25DOPE   C36 3188   8.962   6.929  16.306
   25DOPE   H6X 3189   9.079   6.948  16.352
   25DOPE   H6Y 3190   8.878   6.970  16.384
   25DOPE   C37 3191   8.950   7.044  16.185
   25DOPE   H7X 3192   8.984   6.973  16.095
   25DOPE   H7Y 3193   8.822   7.080  16.171
   25DOPE   C38 3194   9.058   7.196  16.189
   25DOPE   H8X 3195   9.186   7.164  16.194
   25DOPE   H8Y 3196   9.032   7.266  16.281
   25DOPE   C39 3197   9.029   7.304  16.070
   25DOPE   H9X 3198   8.947   7.405  16.093
   25DOPE  C310 3199   9.092   7.297  15.946
   25DOPE  H10X 3200   9.052   7.386  15.872
   25DOPE  C311 3201   9.214   7.181  15.890
   25DOPE  H11X 3202   9.304   7.146  15.967
   25DOPE  H11Y 3203   9.150   7.069  15.858
   25DOPE  C312 3204   9.304   7.247  15.766
   25DOPE  H12X 3205   9.388   7.152  15.731
   25DOPE  H12Y 3206   9.379   7.351  15.795
   25DOPE  C313 3207   9.193   7.294  15.649
   25DOPE  H13X 3208   9.088   7.213  15.646
   25DOPE  H13Y 3209   9.146   7.415  15.671
   25DOPE  C314 3210   9.274   7.303  15.511
   25DOPE  H14X 3211   9.383   7.376  15.517
   25DOPE  H14Y 3212   9.191   7.361  15.439
   25DOPE  C315 3213   9.330   7.145  15.453
   25DOPE  H15X 3214   9.415   7.086  15.523
   25DOPE  H15Y 3215   9.397   7.166  15.358
   25DOPE  C316 3216   9.188   7.036  15.425
   25DOPE  H16X 3217   9.104   7.091  15.353
   25DOPE  H16Y 3218   9.124   7.022  15.521
   25DOPE  C317 3219   9.242   6.872  15.376
   25DOPE  H17X 3220   9.358   6.844  15.424
   25DOPE  H17Y 3221   9.166   6.779  15.417
   25DOPE  C318 3222   9.242   6.857  15.224
   25DOPE  H18X 3223   9.275   6.733  15.193
   25DOPE  H18Y 3224   9.121   6.883  15.186
   25DOPE  H18Z 3225   9.323   6.944  15.176
   26DOPE     N 3226   0.766   7.690  16.740
   26DOPE   HN1 3227   0.803   7.778  16.808
   26DOPE   HN2 3228   0.840   7.590  16.752
   26DOPE   HN3 3229   0.778   7.745  16.648
   26DOPE   C12 3230   0.593   7.658  16.772
   26DOPE  H12A 3231   0.588   7.567  16.854
   26DOPE  H12B 3232   0.534   7.610  16.682
   26DOPE   C11 3233   0.511   7.813  16.822
   26DOPE  H11A 3234   0.385   7.782  16.849
   26DOPE  H11B 3235   0.503   7.904  16.740
   26DOPE     P 3236   0.716   8.014  16.937
   26DOPE   O13 3237   0.854   7.951  16.859
   26DOPE   O14 3238   0.745   8.062  17.078
   26DOPE   O11 3239   0.623   8.140  16.852
   26DOPE   O12 3240   0.589   7.871  16.939
   26DOPE    C1 3241   0.488   8.216  16.913
   26DOPE    HA 3242   0.535   8.318  16.972
   26DOPE    HB 3243   0.424   8.134  16.983
   26DOPE    C2 3244   0.361   8.276  16.810
   26DOPE    HS 3245   0.290   8.372  16.858
   26DOPE   O21 3246   0.260   8.141  16.782
   26DOPE   C21 3247   0.170   8.131  16.673
   26DOPE   O22 3248   0.125   8.240  16.602
   26DOPE   C22 3249   0.162   7.950  16.641
   26DOPE   H2R 3250   0.034   7.920  16.634
   26DOPE   H2S 3251   0.208   7.879  16.725
   26DOPE    C3 3252   0.442   8.348  16.683
   26DOPE    HX 3253   0.534   8.434  16.720
   26DOPE    HY 3254   0.350   8.418  16.627
   26DOPE   O31 3255   0.508   8.225  16.598
   26DOPE   C31 3256   0.650   8.254  16.547
   26DOPE   O32 3257   0.722   8.381  16.546
   26DOPE   C32 3258   0.708   8.100  16.479
   26DOPE   H2X 3259   0.734   8.010  16.557
   26DOPE   H2Y 3260   0.606   8.056  16.417
   26DOPE   C23 3261   0.262   7.913  16.513
   26DOPE   H3R 3262   0.382   7.968  16.528
   26DOPE   H3S 3263   0.212   7.984  16.430
   26DOPE   C24 3264   0.298   7.734  16.482
   26DOPE   H4R 3265   0.254   7.660  16.567
   26DOPE   H4S 3266   0.431   7.720  16.477
   26DOPE   C25 3267   0.235   7.658  16.349
   26DOPE   H5R 3268   0.148   7.562  16.376
   26DOPE   H5S 3269   0.336   7.594  16.299
   26DOPE   C26 3270   0.163   7.771  16.243
   26DOPE   H6R 3271   0.113   7.882  16.287
   26DOPE   H6S 3272   0.055   7.715  16.197
   26DOPE   C27 3273   0.286   7.819  16.134
   26DOPE   H7R 3274   0.310   7.712  16.070
   26DOPE   H7S 3275   0.401   7.854  16.182
   26DOPE   C28 3276   0.232   7.961  16.046
   26DOPE   H8R 3277   0.334   8.000  15.984
   26DOPE   H8S 3278   0.199   8.065  16.111
   26DOPE   C29 3279   0.090   7.907  15.964
   26DOPE   H9R 3280  -0.019   7.886  16.023
   26DOPE  C210 3281   0.089   7.873  15.833
   26DOPE  H10R 3282  -0.022   7.828  15.787
   26DOPE  C211 3283   0.232   7.885  15.740
   26DOPE  H11R 3284   0.319   7.975  15.779
   26DOPE  H11S 3285   0.192   7.931  15.641
   26DOPE  C212 3286   0.325   7.727  15.726
   26DOPE  H12R 3287   0.314   7.656  15.820
   26DOPE  H12S 3288   0.455   7.754  15.712
   26DOPE  C213 3289   0.271   7.622  15.607
   26DOPE  H13R 3290   0.140   7.603  15.615
   26DOPE  H13S 3291   0.335   7.505  15.617
   26DOPE  C214 3292   0.311   7.692  15.469
   26DOPE  H14R 3293   0.440   7.673  15.448
   26DOPE  H14S 3294   0.288   7.823  15.473
   26DOPE  C215 3295   0.214   7.626  15.350
   26DOPE  H15R 3296   0.085   7.646  15.372
   26DOPE  H15S 3297   0.234   7.495  15.335
   26DOPE  C216 3298   0.259   7.714  15.221
   26DOPE  H16R 3299   0.392   7.721  15.218
   26DOPE  H16S 3300   0.209   7.836  15.229
   26DOPE  C217 3301   0.208   7.643  15.086
   26DOPE  H17R 3302   0.076   7.630  15.083
   26DOPE  H17S 3303   0.262   7.522  15.073
   26DOPE  C218 3304   0.260   7.751  14.968
   26DOPE  H18R 3305   0.205   7.710  14.873
   26DOPE  H18S 3306   0.394   7.748  14.957
   26DOPE  H18T 3307   0.223   7.877  14.986
   26DOPE   C33 3308   0.854   8.129  16.388
   26DOPE   H3X 3309   0.966   8.137  16.448
   26DOPE   H3Y 3310   0.841   8.244  16.333
   26DOPE   C34 3311   0.871   7.996  16.283
   26DOPE   H4X 3312   0.892   7.879  16.334
   26DOPE   H4Y 3313   0.756   7.987  16.226
   26DOPE   C35 3314   1.008   8.027  16.185
   26DOPE   H5X 3315   1.120   8.057  16.242
   26DOPE   H5Y 3316   0.979   8.134  16.122
   26DOPE   C36 3317   1.044   7.882  16.095
   26DOPE   H6X 3318   1.093   7.784  16.159
   26DOPE   H6Y 3319   1.140   7.915  16.022
   26DOPE   C37 3320   0.900   7.816  16.018
   26DOPE   H7X 3321   0.802   7.786  16.090
   26DOPE   H7Y 3322   0.853   7.910  15.949
   26DOPE   C38 3323   0.947   7.664  15.940
   26DOPE   H8X 3324   1.002   7.578  16.011
   26DOPE   H8Y 3325   1.044   7.700  15.869
   26DOPE   C39 3326   0.806   7.588  15.870
   26DOPE   H9X 3327   0.698   7.576  15.932
   26DOPE  C310 3328   0.802   7.537  15.742
   26DOPE  H10X 3329   0.690   7.484  15.704
   26DOPE  C311 3330   0.936   7.549  15.641
   26DOPE  H11X 3331   1.050   7.591  15.685
   26DOPE  H11Y 3332   0.961   7.428  15.599
   26DOPE  C312 3333   0.893   7.663  15.525
   26DOPE  H12X 3334   0.785   7.619  15.472
   26DOPE  H12Y 3335   0.994   7.664  15.452
   26DOPE  C313 3336   0.864   7.837  15.572
   26DOPE  H13X 3337   0.768   7.840  15.650
   26DOPE  H13Y 3338   0.977   7.880  15.620
   26DOPE  C314 3339   0.816   7.956  15.463
   26DOPE  H14X 3340   0.904   7.954  15.379
   26DOPE  H14Y 3341   0.822   8.077  15.509
   26DOPE  C315 3342   0.644   7.937  15.411
   26DOPE  H15X 3343   0.562   7.954  15.497
   26DOPE  H15Y 3344   0.626   7.814  15.370
   26DOPE  C316 3345   0.602   8.062  15.304
   26DOPE  H16X 3346   0.682   8.047  15.215
   26DOPE  H16Y 3347   0.625   8.180  15.348
   26DOPE  C317 3348   0.426   8.048  15.262
   26DOPE  H17X 3349   0.426   7.958  15.180
   26DOPE  H17Y 3350   0.361   7.999  15.350
   26DOPE  C318 3351   0.330   8.194  15.213
   26DOPE  H18X 3352   0.203   8.155  15.199
   26DOPE  H18Y 3353   0.331   8.293  15.286
   26DOPE  H18Z 3354   0.376   8.236  15.115
   27DOPE     N 3355   7.018   8.966  16.658
   27DOPE   HN1 3356   6.895   8.988  16.665
   27DOPE   HN2 3357   7.069   9.037  16.584
   27DOPE   HN3 3358   7.034   8.845  16.634
   27DOPE   C12 3359   7.100   8.998  16.790
   27DOPE  H12A 3360   7.031   8.935  16.869
   27DOPE  H12B 3361   7.096   9.130  16.808
   27DOPE   C11 3362   7.276   8.934  16.790
   27DOPE  H11A 3363   7.352   9.004  16.719
   27DOPE  H11B 3364   7.276   8.808  16.754
   27DOPE     P 3365   7.358   9.103  16.997
   27DOPE   O13 3366   7.502   9.118  17.083
   27DOPE   O14 3367   7.201   9.148  17.056
   27DOPE   O11 3368   7.380   9.216  16.869
   27DOPE   O12 3369   7.345   8.934  16.922
   27DOPE    C1 3370   7.423   9.380  16.887
   27DOPE    HA 3371   7.549   9.389  16.923
   27DOPE    HB 3372   7.343   9.440  16.960
   27DOPE    C2 3373   7.405   9.484  16.758
   27DOPE    HS 3374   7.402   9.611  16.790
   27DOPE   O21 3375   7.260   9.440  16.688
   27DOPE   C21 3376   7.229   9.535  16.584
   27DOPE   O22 3377   7.308   9.650  16.549
   27DOPE   C22 3378   7.080   9.473  16.513
   27DOPE   H2R 3379   6.977   9.494  16.580
   27DOPE   H2S 3380   7.093   9.341  16.499
   27DOPE    C3 3381   7.558   9.466  16.666
   27DOPE    HX 3382   7.657   9.487  16.739
   27DOPE    HY 3383   7.561   9.564  16.593
   27DOPE   O31 3384   7.578   9.316  16.595
   27DOPE   C31 3385   7.733   9.292  16.564
   27DOPE   O32 3386   7.846   9.372  16.600
   27DOPE   C32 3387   7.751   9.137  16.486
   27DOPE   H2X 3388   7.824   9.062  16.554
   27DOPE   H2Y 3389   7.631   9.079  16.475
   27DOPE   C23 3390   7.052   9.557  16.378
   27DOPE   H3R 3391   7.075   9.689  16.386
   27DOPE   H3S 3392   6.924   9.542  16.350
   27DOPE   C24 3393   7.156   9.485  16.266
   27DOPE   H4R 3394   7.140   9.352  16.265
   27DOPE   H4S 3395   7.285   9.511  16.286
   27DOPE   C25 3396   7.108   9.551  16.128
   27DOPE   H5R 3397   7.126   9.683  16.127
   27DOPE   H5S 3398   6.977   9.527  16.114
   27DOPE   C26 3399   7.199   9.472  16.012
   27DOPE   H6R 3400   7.141   9.510  15.917
   27DOPE   H6S 3401   7.188   9.340  16.020
   27DOPE   C27 3402   7.379   9.515  16.005
   27DOPE   H7R 3403   7.439   9.463  16.094
   27DOPE   H7S 3404   7.392   9.648  16.010
   27DOPE   C28 3405   7.454   9.455  15.873
   27DOPE   H8R 3406   7.478   9.560  15.809
   27DOPE   H8S 3407   7.358   9.386  15.822
   27DOPE   C29 3408   7.601   9.349  15.883
   27DOPE   H9R 3409   7.616   9.284  15.977
   27DOPE  C210 3410   7.716   9.336  15.788
   27DOPE  H10R 3411   7.822   9.262  15.808
   27DOPE  C211 3412   7.712   9.427  15.658
   27DOPE  H11R 3413   7.716   9.557  15.685
   27DOPE  H11S 3414   7.596   9.407  15.609
   27DOPE  C212 3415   7.846   9.402  15.553
   27DOPE  H12R 3416   7.963   9.384  15.605
   27DOPE  H12S 3417   7.861   9.514  15.493
   27DOPE  C213 3418   7.822   9.257  15.460
   27DOPE  H13R 3419   7.835   9.161  15.534
   27DOPE  H13S 3420   7.918   9.248  15.383
   27DOPE  C214 3421   7.661   9.202  15.400
   27DOPE  H14R 3422   7.660   9.215  15.290
   27DOPE  H14S 3423   7.568   9.281  15.444
   27DOPE  C215 3424   7.603   9.029  15.439
   27DOPE  H15R 3425   7.490   8.999  15.387
   27DOPE  H15S 3426   7.578   9.037  15.548
   27DOPE  C216 3427   7.709   8.879  15.419
   27DOPE  H16R 3428   7.654   8.780  15.479
   27DOPE  H16S 3429   7.823   8.898  15.469
   27DOPE  C217 3430   7.741   8.815  15.278
   27DOPE  H17R 3431   7.836   8.720  15.292
   27DOPE  H17S 3432   7.796   8.910  15.215
   27DOPE  C218 3433   7.600   8.736  15.203
   27DOPE  H18R 3434   7.508   8.827  15.175
   27DOPE  H18S 3435   7.542   8.641  15.264
   27DOPE  H18T 3436   7.644   8.680  15.110
   27DOPE   C33 3437   7.840   9.151  16.351
   27DOPE   H3X 3438   7.913   9.041  16.336
   27DOPE   H3Y 3439   7.926   9.253  16.353
   27DOPE   C34 3440   7.727   9.162  16.229
   27DOPE   H4X 3441   7.646   9.268  16.239
   27DOPE   H4Y 3442   7.802   9.181  16.138
   27DOPE   C35 3443   7.628   9.008  16.209
   27DOPE   H5X 3444   7.567   8.971  16.303
   27DOPE   H5Y 3445   7.712   8.910  16.181
   27DOPE   C36 3446   7.498   9.019  16.102
   27DOPE   H6X 3447   7.548   9.067  16.008
   27DOPE   H6Y 3448   7.400   9.102  16.134
   27DOPE   C37 3449   7.429   8.854  16.067
   27DOPE   H7X 3450   7.531   8.768  16.065
   27DOPE   H7Y 3451   7.346   8.813  16.147
   27DOPE   C38 3452   7.348   8.852  15.929
   27DOPE   H8X 3453   7.298   8.730  15.909
   27DOPE   H8Y 3454   7.441   8.873  15.852
   27DOPE   C39 3455   7.218   8.977  15.924
   27DOPE   H9X 3456   7.142   8.983  16.014
   27DOPE  C310 3457   7.187   9.080  15.824
   27DOPE  H10X 3458   7.090   9.168  15.838
   27DOPE  C311 3459   7.273   9.097  15.691
   27DOPE  H11X 3460   7.339   9.212  15.685
   27DOPE  H11Y 3461   7.363   9.001  15.675
   27DOPE  C312 3462   7.148   9.094  15.577
   27DOPE  H12X 3463   7.032   9.149  15.608
   27DOPE  H12Y 3464   7.124   8.965  15.554
   27DOPE  C313 3465   7.201   9.180  15.448
   27DOPE  H13X 3466   7.326   9.150  15.427
   27DOPE  H13Y 3467   7.127   9.134  15.364
   27DOPE  C314 3468   7.192   9.364  15.449
   27DOPE  H14X 3469   7.285   9.410  15.517
   27DOPE  H14Y 3470   7.073   9.403  15.488
   27DOPE  C315 3471   7.218   9.431  15.307
   27DOPE  H15X 3472   7.184   9.560  15.306
   27DOPE  H15Y 3473   7.138   9.368  15.235
   27DOPE  C316 3474   7.393   9.414  15.263
   27DOPE  H16X 3475   7.418   9.286  15.242
   27DOPE  H16Y 3476   7.471   9.455  15.347
   27DOPE  C317 3477   7.452   9.516  15.146
   27DOPE  H17X 3478   7.477   9.640  15.183
   27DOPE  H17Y 3479   7.568   9.462  15.116
   27DOPE  C318 3480   7.339   9.524  15.026
   27DOPE  H18X 3481   7.222   9.572  15.058
   27DOPE  H18Y 3482   7.388   9.607  14.949
   27DOPE  H18Z 3483   7.321   9.404  14.981
   28DOPE     N 3484   9.010   8.341  17.061
   28DOPE   HN1 3485   9.028   8.312  16.958
   28DOPE   HN2 3486   8.891   8.376  17.073
   28DOPE   HN3 3487   9.089   8.429  17.091
   28DOPE   C12 3488   9.037   8.178  17.124
   28DOPE  H12A 3489   9.055   8.196  17.232
   28DOPE  H12B 3490   9.149   8.129  17.080
   28DOPE   C11 3491   8.896   8.063  17.093
   28DOPE  H11A 3492   8.802   8.084  17.171
   28DOPE  H11B 3493   8.936   7.937  17.105
   28DOPE     P 3494   8.920   8.068  16.832
   28DOPE   O13 3495   9.055   8.184  16.836
   28DOPE   O14 3496   8.806   8.082  16.721
   28DOPE   O11 3497   8.983   7.890  16.849
   28DOPE   O12 3498   8.820   8.088  16.966
   28DOPE    C1 3499   8.879   7.759  16.820
   28DOPE    HA 3500   8.748   7.793  16.816
   28DOPE    HB 3501   8.894   7.668  16.898
   28DOPE    C2 3502   8.929   7.682  16.687
   28DOPE    HS 3503   9.058   7.646  16.703
   28DOPE   O21 3504   8.912   7.805  16.587
   28DOPE   C21 3505   9.034   7.810  16.504
   28DOPE   O22 3506   9.127   7.698  16.487
   28DOPE   C22 3507   9.046   7.974  16.439
   28DOPE   H2R 3508   9.174   8.003  16.429
   28DOPE   H2S 3509   8.989   8.068  16.502
   28DOPE    C3 3510   8.831   7.529  16.651
   28DOPE    HX 3511   8.777   7.478  16.744
   28DOPE    HY 3512   8.912   7.435  16.610
   28DOPE   O31 3513   8.704   7.570  16.561
   28DOPE   C31 3514   8.743   7.568  16.433
   28DOPE   O32 3515   8.852   7.494  16.383
   28DOPE   C32 3516   8.620   7.676  16.364
   28DOPE   H2X 3517   8.501   7.650  16.409
   28DOPE   H2Y 3518   8.651   7.802  16.389
   28DOPE   C23 3519   8.975   7.966  16.299
   28DOPE   H3R 3520   8.843   7.960  16.307
   28DOPE   H3S 3521   9.019   7.855  16.249
   28DOPE   C24 3522   9.024   8.106  16.210
   28DOPE   H4R 3523   9.155   8.095  16.189
   28DOPE   H4S 3524   9.002   8.222  16.263
   28DOPE   C25 3525   8.924   8.095  16.084
   28DOPE   H5R 3526   8.796   8.123  16.108
   28DOPE   H5S 3527   8.928   7.968  16.053
   28DOPE   C26 3528   8.980   8.189  15.962
   28DOPE   H6R 3529   9.096   8.142  15.925
   28DOPE   H6S 3530   8.998   8.316  15.987
   28DOPE   C27 3531   8.852   8.173  15.852
   28DOPE   H7R 3532   8.740   8.230  15.887
   28DOPE   H7S 3533   8.825   8.044  15.840
   28DOPE   C28 3534   8.905   8.251  15.719
   28DOPE   H8R 3535   9.007   8.333  15.740
   28DOPE   H8S 3536   8.802   8.326  15.683
   28DOPE   C29 3537   8.954   8.131  15.615
   28DOPE   H9R 3538   9.043   8.044  15.650
   28DOPE  C210 3539   8.921   8.136  15.485
   28DOPE  H10R 3540   8.948   8.032  15.422
   28DOPE  C211 3541   8.827   8.264  15.416
   28DOPE  H11R 3542   8.873   8.279  15.312
   28DOPE  H11S 3543   8.855   8.376  15.470
   28DOPE  C212 3544   8.645   8.249  15.411
   28DOPE  H12R 3545   8.590   8.370  15.398
   28DOPE  H12S 3546   8.599   8.197  15.506
   28DOPE  C213 3547   8.597   8.147  15.292
   28DOPE  H13R 3548   8.666   8.033  15.295
   28DOPE  H13S 3549   8.630   8.210  15.197
   28DOPE  C214 3550   8.419   8.107  15.289
   28DOPE  H14R 3551   8.347   8.218  15.304
   28DOPE  H14S 3552   8.392   8.023  15.373
   28DOPE  C215 3553   8.371   8.032  15.157
   28DOPE  H15R 3554   8.359   8.128  15.080
   28DOPE  H15S 3555   8.250   7.980  15.174
   28DOPE  C216 3556   8.480   7.896  15.104
   28DOPE  H16R 3557   8.399   7.806  15.056
   28DOPE  H16S 3558   8.539   7.836  15.190
   28DOPE  C217 3559   8.605   7.937  14.996
   28DOPE  H17R 3560   8.672   7.828  14.971
   28DOPE  H17S 3561   8.698   8.021  15.035
   28DOPE  C218 3562   8.537   7.996  14.863
   28DOPE  H18R 3563   8.459   7.902  14.817
   28DOPE  H18S 3564   8.633   8.027  14.792
   28DOPE  H18T 3565   8.464   8.104  14.881
   28DOPE   C33 3566   8.615   7.648  16.212
   28DOPE   H3X 3567   8.513   7.718  16.170
   28DOPE   H3Y 3568   8.591   7.519  16.191
   28DOPE   C34 3569   8.767   7.700  16.140
   28DOPE   H4X 3570   8.771   7.831  16.149
   28DOPE   H4Y 3571   8.878   7.648  16.186
   28DOPE   C35 3572   8.762   7.657  15.992
   28DOPE   H5X 3573   8.664   7.729  15.947
   28DOPE   H5Y 3574   8.731   7.528  15.986
   28DOPE   C36 3575   8.918   7.682  15.915
   28DOPE   H6X 3576   9.017   7.615  15.964
   28DOPE   H6Y 3577   8.957   7.810  15.914
   28DOPE   C37 3578   8.899   7.630  15.769
   28DOPE   H7X 3579   9.019   7.601  15.728
   28DOPE   H7Y 3580   8.820   7.523  15.761
   28DOPE   C38 3581   8.836   7.770  15.687
   28DOPE   H8X 3582   8.945   7.843  15.674
   28DOPE   H8Y 3583   8.750   7.838  15.750
   28DOPE   C39 3584   8.759   7.745  15.554
   28DOPE   H9X 3585   8.639   7.800  15.548
   28DOPE  C310 3586   8.812   7.673  15.443
   28DOPE  H10X 3587   8.732   7.690  15.358
   28DOPE  C311 3588   8.965   7.590  15.404
   28DOPE  H11X 3589   9.064   7.619  15.474
   28DOPE  H11Y 3590   8.948   7.457  15.404
   28DOPE  C312 3591   9.008   7.642  15.259
   28DOPE  H12X 3592   8.922   7.590  15.186
   28DOPE  H12Y 3593   9.127   7.591  15.233
   28DOPE  C313 3594   9.010   7.825  15.247
   28DOPE  H13X 3595   8.882   7.870  15.252
   28DOPE  H13Y 3596   9.077   7.871  15.336
   28DOPE  C314 3597   9.083   7.907  15.124
   28DOPE  H14X 3598   9.216   7.906  15.132
   28DOPE  H14Y 3599   9.044   8.035  15.126
   28DOPE  C315 3600   9.035   7.835  14.990
   28DOPE  H15X 3601   8.905   7.812  14.988
   28DOPE  H15Y 3602   9.095   7.716  14.976
   28DOPE  C316 3603   9.083   7.948  14.875
   28DOPE  H16X 3604   9.209   7.985  14.892
   28DOPE  H16Y 3605   9.007   8.057  14.878
   28DOPE  C317 3606   9.072   7.867  14.737
   28DOPE  H17X 3607   9.132   7.948  14.663
   28DOPE  H17Y 3608   9.142   7.753  14.741
   28DOPE  C318 3609   8.902   7.834  14.689
   28DOPE  H18X 3610   8.836   7.759  14.763
   28DOPE  H18Y 3611   8.836   7.948  14.673
   28DOPE  H18Z 3612   8.903   7.768  14.592
   29DOPE     N 3613   8.438   0.962  16.957
   29DOPE   HN1 3614   8.428   1.082  16.991
   29DOPE   HN2 3615   8.419   0.962  16.853
   29DOPE   HN3 3616   8.345   0.906  17.008
   29DOPE   C12 3617   8.605   0.907  16.990
   29DOPE  H12A 3618   8.622   0.790  16.939
   29DOPE  H12B 3619   8.609   0.890  17.100
   29DOPE   C11 3620   8.735   1.030  16.946
   29DOPE  H11A 3621   8.696   1.150  16.982
   29DOPE  H11B 3622   8.741   1.032  16.834
   29DOPE     P 3623   9.053   1.001  16.928
   29DOPE   O13 3624   9.184   0.967  17.025
   29DOPE   O14 3625   9.071   1.140  16.839
   29DOPE   O11 3626   9.014   0.848  16.839
   29DOPE   O12 3627   8.888   1.001  17.006
   29DOPE    C1 3628   9.124   0.722  16.814
   29DOPE    HA 3629   9.062   0.608  16.838
   29DOPE    HB 3630   9.232   0.728  16.880
   29DOPE    C2 3631   9.180   0.714  16.664
   29DOPE    HS 3632   9.274   0.619  16.658
   29DOPE   O21 3633   9.244   0.863  16.615
   29DOPE   C21 3634   9.379   0.913  16.670
   29DOPE   O22 3635   9.457   0.841  16.754
   29DOPE   C22 3636   9.438   1.068  16.607
   29DOPE   H2R 3637   9.530   1.048  16.529
   29DOPE   H2S 3638   9.494   1.142  16.686
   29DOPE    C3 3639   9.040   0.660  16.569
   29DOPE    HX 3640   8.971   0.569  16.627
   29DOPE    HY 3641   9.092   0.599  16.480
   29DOPE   O31 3642   8.929   0.785  16.534
   29DOPE   C31 3643   8.923   0.842  16.411
   29DOPE   O32 3644   8.998   0.791  16.314
   29DOPE   C32 3645   8.812   0.989  16.413
   29DOPE   H2X 3646   8.748   0.983  16.511
   29DOPE   H2Y 3647   8.886   1.099  16.414
   29DOPE   C23 3648   9.310   1.160  16.532
   29DOPE   H3R 3649   9.358   1.284  16.515
   29DOPE   H3S 3650   9.197   1.172  16.589
   29DOPE   C24 3651   9.284   1.093  16.393
   29DOPE   H4R 3652   9.210   0.983  16.398
   29DOPE   H4S 3653   9.398   1.061  16.343
   29DOPE   C25 3654   9.202   1.224  16.315
   29DOPE   H5R 3655   9.288   1.321  16.291
   29DOPE   H5S 3656   9.104   1.272  16.379
   29DOPE   C26 3657   9.130   1.156  16.191
   29DOPE   H6R 3658   9.036   1.240  16.153
   29DOPE   H6S 3659   9.067   1.043  16.218
   29DOPE   C27 3660   9.253   1.122  16.083
   29DOPE   H7R 3661   9.342   1.031  16.117
   29DOPE   H7S 3662   9.320   1.234  16.059
   29DOPE   C28 3663   9.163   1.064  15.962
   29DOPE   H8R 3664   9.240   1.078  15.872
   29DOPE   H8S 3665   9.067   1.154  15.947
   29DOPE   C29 3666   9.097   0.898  15.986
   29DOPE   H9R 3667   9.006   0.882  16.065
   29DOPE  C210 3668   9.152   0.769  15.924
   29DOPE  H10R 3669   9.109   0.648  15.948
   29DOPE  C211 3670   9.284   0.782  15.824
   29DOPE  H11R 3671   9.347   0.665  15.827
   29DOPE  H11S 3672   9.376   0.875  15.852
   29DOPE  C212 3673   9.233   0.814  15.680
   29DOPE  H12R 3674   9.115   0.757  15.654
   29DOPE  H12S 3675   9.330   0.746  15.632
   29DOPE  C213 3676   9.251   0.979  15.616
   29DOPE  H13R 3677   9.376   1.024  15.626
   29DOPE  H13S 3678   9.174   1.068  15.667
   29DOPE  C214 3679   9.202   0.976  15.467
   29DOPE  H14R 3680   9.126   1.082  15.450
   29DOPE  H14S 3681   9.124   0.869  15.450
   29DOPE  C215 3682   9.344   0.982  15.370
   29DOPE  H15R 3683   9.449   0.922  15.416
   29DOPE  H15S 3684   9.378   1.110  15.356
   29DOPE  C216 3685   9.318   0.905  15.232
   29DOPE  H16R 3686   9.287   1.001  15.160
   29DOPE  H16S 3687   9.212   0.823  15.237
   29DOPE  C217 3688   9.463   0.811  15.176
   29DOPE  H17R 3689   9.514   0.726  15.250
   29DOPE  H17S 3690   9.566   0.893  15.160
   29DOPE  C218 3691   9.426   0.714  15.049
   29DOPE  H18R 3692   9.515   0.616  15.037
   29DOPE  H18S 3693   9.431   0.788  14.958
   29DOPE  H18T 3694   9.305   0.662  15.050
   29DOPE   C33 3695   8.683   0.997  16.301
   29DOPE   H3X 3696   8.566   1.036  16.343
   29DOPE   H3Y 3697   8.668   0.875  16.259
   29DOPE   C34 3698   8.725   1.111  16.185
   29DOPE   H4X 3699   8.743   1.235  16.225
   29DOPE   H4Y 3700   8.840   1.067  16.145
   29DOPE   C35 3701   8.603   1.104  16.071
   29DOPE   H5X 3702   8.484   1.151  16.106
   29DOPE   H5Y 3703   8.587   0.976  16.047
   29DOPE   C36 3704   8.645   1.183  15.935
   29DOPE   H6X 3705   8.670   1.310  15.948
   29DOPE   H6Y 3706   8.530   1.177  15.882
   29DOPE   C37 3707   8.768   1.088  15.851
   29DOPE   H7X 3708   8.861   1.063  15.926
   29DOPE   H7Y 3709   8.717   0.968  15.832
   29DOPE   C38 3710   8.861   1.144  15.718
   29DOPE   H8X 3711   8.869   1.033  15.656
   29DOPE   H8Y 3712   8.984   1.150  15.755
   29DOPE   C39 3713   8.850   1.291  15.627
   29DOPE   H9X 3714   8.855   1.399  15.686
   29DOPE  C310 3715   8.798   1.318  15.499
   29DOPE  H10X 3716   8.824   1.438  15.456
   29DOPE  C311 3717   8.729   1.198  15.402
   29DOPE  H11X 3718   8.776   1.079  15.431
   29DOPE  H11Y 3719   8.596   1.198  15.413
   29DOPE  C312 3720   8.764   1.192  15.251
   29DOPE  H12X 3721   8.681   1.268  15.192
   29DOPE  H12Y 3722   8.746   1.066  15.217
   29DOPE  C313 3723   8.938   1.235  15.226
   29DOPE  H13X 3724   8.938   1.367  15.230
   29DOPE  H13Y 3725   9.016   1.194  15.308
   29DOPE  C314 3726   9.007   1.174  15.095
   29DOPE  H14X 3727   9.020   1.040  15.100
   29DOPE  H14Y 3728   9.128   1.225  15.085
   29DOPE  C315 3729   8.904   1.217  14.974
   29DOPE  H15X 3730   8.792   1.144  14.978
   29DOPE  H15Y 3731   8.968   1.184  14.880
   29DOPE  C316 3732   8.855   1.394  14.971
   29DOPE  H16X 3733   8.797   1.432  15.066
   29DOPE  H16Y 3734   8.766   1.415  14.892
   29DOPE  C317 3735   8.993   1.508  14.945
   29DOPE  H17X 3736   9.092   1.484  15.013
   29DOPE  H17Y 3737   9.043   1.475  14.847
   29DOPE  C318 3738   8.940   1.685  14.955
   29DOPE  H18X 3739   8.848   1.712  14.878
   29DOPE  H18Y 3740   8.887   1.706  15.055
   29DOPE  H18Z 3741   9.043   1.768  14.941
   30DOPE     N 3742   0.784   8.765  17.098
   30DOPE   HN1 3743   0.895   8.780  17.056
   30DOPE   HN2 3744   0.785   8.674  17.170
   30DOPE   HN3 3745   0.715   8.723  17.016
   30DOPE   C12 3746   0.703   8.921  17.136
   30DOPE  H12A 3747   0.796   9.007  17.167
   30DOPE  H12B 3748   0.620   8.897  17.221
   30DOPE   C11 3749   0.605   8.982  17.016
   30DOPE  H11A 3750   0.680   9.004  16.926
   30DOPE  H11B 3751   0.552   9.100  17.045
   30DOPE     P 3752   0.493   8.716  16.897
   30DOPE   O13 3753   0.431   8.579  16.975
   30DOPE   O14 3754   0.662   8.706  16.855
   30DOPE   O11 3755   0.370   8.760  16.784
   30DOPE   O12 3756   0.480   8.869  16.989
   30DOPE    C1 3757   0.212   8.790  16.841
   30DOPE    HA 3758   0.215   8.868  16.933
   30DOPE    HB 3759   0.154   8.675  16.868
   30DOPE    C2 3760   0.101   8.886  16.749
   30DOPE    HS 3761  -0.022   8.875  16.793
   30DOPE   O21 3762   0.106   8.822  16.615
   30DOPE   C21 3763   0.038   8.681  16.604
   30DOPE   O22 3764  -0.036   8.609  16.691
   30DOPE   C22 3765   0.047   8.633  16.456
   30DOPE   H2R 3766  -0.016   8.729  16.400
   30DOPE   H2S 3767  -0.023   8.520  16.444
   30DOPE    C3 3768   0.145   9.067  16.749
   30DOPE    HX 3769   0.120   9.113  16.852
   30DOPE    HY 3770   0.066   9.137  16.681
   30DOPE   O31 3771   0.314   9.090  16.722
   30DOPE   C31 3772   0.349   9.073  16.593
   30DOPE   O32 3773   0.256   9.091  16.500
   30DOPE   C32 3774   0.527   9.035  16.577
   30DOPE   H2X 3775   0.593   9.113  16.648
   30DOPE   H2Y 3776   0.545   8.908  16.605
   30DOPE   C23 3777   0.214   8.614  16.392
   30DOPE   H3R 3778   0.284   8.522  16.448
   30DOPE   H3S 3779   0.281   8.729  16.396
   30DOPE   C24 3780   0.194   8.560  16.246
   30DOPE   H4R 3781   0.150   8.664  16.186
   30DOPE   H4S 3782   0.102   8.464  16.241
   30DOPE   C25 3783   0.349   8.496  16.182
   30DOPE   H5R 3784   0.404   8.404  16.249
   30DOPE   H5S 3785   0.436   8.597  16.177
   30DOPE   C26 3786   0.328   8.420  16.042
   30DOPE   H6R 3787   0.268   8.302  16.053
   30DOPE   H6S 3788   0.449   8.400  15.998
   30DOPE   C27 3789   0.227   8.520  15.944
   30DOPE   H7R 3790   0.247   8.650  15.966
   30DOPE   H7S 3791   0.098   8.495  15.962
   30DOPE   C28 3792   0.264   8.491  15.794
   30DOPE   H8R 3793   0.380   8.551  15.773
   30DOPE   H8S 3794   0.169   8.556  15.735
   30DOPE   C29 3795   0.276   8.321  15.748
   30DOPE   H9R 3796   0.205   8.233  15.806
   30DOPE  C210 3797   0.368   8.268  15.645
   30DOPE  H10R 3798   0.366   8.141  15.619
   30DOPE  C211 3799   0.476   8.369  15.557
   30DOPE  H11R 3800   0.431   8.494  15.547
   30DOPE  H11S 3801   0.473   8.317  15.455
   30DOPE  C212 3802   0.653   8.377  15.603
   30DOPE  H12R 3803   0.688   8.264  15.655
   30DOPE  H12S 3804   0.660   8.476  15.678
   30DOPE  C213 3805   0.782   8.407  15.494
   30DOPE  H13R 3806   0.804   8.300  15.431
   30DOPE  H13S 3807   0.895   8.428  15.550
   30DOPE  C214 3808   0.762   8.552  15.400
   30DOPE  H14R 3809   0.882   8.581  15.357
   30DOPE  H14S 3810   0.725   8.656  15.464
   30DOPE  C215 3811   0.642   8.542  15.283
   30DOPE  H15R 3812   0.641   8.665  15.241
   30DOPE  H15S 3813   0.521   8.514  15.323
   30DOPE  C216 3814   0.670   8.434  15.160
   30DOPE  H16R 3815   0.593   8.483  15.078
   30DOPE  H16S 3816   0.622   8.314  15.178
   30DOPE  C217 3817   0.838   8.411  15.104
   30DOPE  H17R 3818   0.914   8.351  15.180
   30DOPE  H17S 3819   0.893   8.530  15.079
   30DOPE  C218 3820   0.830   8.306  14.978
   30DOPE  H18R 3821   0.780   8.185  15.001
   30DOPE  H18S 3822   0.950   8.291  14.932
   30DOPE  H18T 3823   0.749   8.362  14.903
   30DOPE   C33 3824   0.584   9.068  16.433
   30DOPE   H3X 3825   0.698   9.139  16.440
   30DOPE   H3Y 3826   0.497   9.142  16.376
   30DOPE   C34 3827   0.619   8.922  16.345
   30DOPE   H4X 3828   0.721   8.854  16.389
   30DOPE   H4Y 3829   0.514   8.842  16.339
   30DOPE   C35 3830   0.661   8.981  16.204
   30DOPE   H5X 3831   0.703   9.108  16.210
   30DOPE   H5Y 3832   0.552   8.982  16.142
   30DOPE   C36 3833   0.799   8.891  16.137
   30DOPE   H6X 3834   0.898   8.905  16.210
   30DOPE   H6Y 3835   0.839   8.953  16.045
   30DOPE   C37 3836   0.779   8.710  16.113
   30DOPE   H7X 3837   0.901   8.657  16.102
   30DOPE   H7Y 3838   0.725   8.652  16.203
   30DOPE   C38 3839   0.682   8.663  15.988
   30DOPE   H8X 3840   0.553   8.681  16.009
   30DOPE   H8Y 3841   0.698   8.532  15.971
   30DOPE   C39 3842   0.730   8.754  15.864
   30DOPE   H9X 3843   0.832   8.704  15.808
   30DOPE  C310 3844   0.659   8.890  15.820
   30DOPE  H10X 3845   0.704   8.947  15.729
   30DOPE  C311 3846   0.521   8.977  15.886
   30DOPE  H11X 3847   0.461   8.905  15.965
   30DOPE  H11Y 3848   0.566   9.085  15.937
   30DOPE  C312 3849   0.392   9.025  15.784
   30DOPE  H12X 3850   0.450   9.070  15.691
   30DOPE  H12Y 3851   0.314   9.122  15.825
   30DOPE  C313 3852   0.287   8.881  15.752
   30DOPE  H13X 3853   0.367   8.778  15.733
   30DOPE  H13Y 3854   0.215   8.854  15.842
   30DOPE  C314 3855   0.178   8.899  15.631
   30DOPE  H14X 3856   0.098   9.006  15.643
   30DOPE  H14Y 3857   0.100   8.791  15.626
   30DOPE  C315 3858   0.270   8.910  15.500
   30DOPE  H15X 3859   0.350   8.803  15.492
   30DOPE  H15Y 3860   0.346   9.019  15.498
   30DOPE  C316 3861   0.154   8.914  15.382
   30DOPE  H16X 3862   0.071   9.018  15.392
   30DOPE  H16Y 3863   0.082   8.802  15.387
   30DOPE  C317 3864   0.234   8.916  15.245
   30DOPE  H17X 3865   0.143   8.935  15.166
   30DOPE  H17Y 3866   0.320   9.018  15.241
   30DOPE  C318 3867   0.322   8.759  15.221
   30DOPE  H18X 3868   0.432   8.764  15.282
   30DOPE  H18Y 3869   0.250   8.654  15.256
   30DOPE  H18Z 3870   0.354   8.741  15.115
   31DOPE     N 3871   3.810   3.830  12.807
   31DOPE   HN1 3872   3.790   3.732  12.746
   31DOPE   HN2 3873   3.698   3.877  12.835
   31DOPE   HN3 3874   3.880   3.918  12.761
   31DOPE   C12 3875   3.893   3.778  12.934
   31DOPE  H12A 3876   3.986   3.868  12.958
   31DOPE  H12B 3877   3.950   3.661  12.914
   31DOPE   C11 3878   3.769   3.766  13.046
   31DOPE  H11A 3879   3.719   3.887  13.065
   31DOPE  H11B 3880   3.830   3.726  13.140
   31DOPE     P 3881   3.468   3.670  13.060
   31DOPE   O13 3882   3.365   3.593  12.958
   31DOPE   O14 3883   3.438   3.841  13.090
   31DOPE   O11 3884   3.464   3.570  13.190
   31DOPE   O12 3885   3.647   3.655  13.009
   31DOPE    C1 3886   3.593   3.466  13.221
   31DOPE    HA 3887   3.714   3.509  13.191
   31DOPE    HB 3888   3.575   3.347  13.174
   31DOPE    C2 3889   3.604   3.454  13.373
   31DOPE    HS 3890   3.682   3.353  13.396
   31DOPE   O21 3891   3.452   3.425  13.433
   31DOPE   C21 3892   3.383   3.293  13.396
   31DOPE   O22 3893   3.440   3.182  13.332
   31DOPE   C22 3894   3.228   3.292  13.474
   31DOPE   H2R 3895   3.176   3.172  13.453
   31DOPE   H2S 3896   3.143   3.384  13.438
   31DOPE    C3 3897   3.673   3.606  13.441
   31DOPE    HX 3898   3.794   3.632  13.400
   31DOPE    HY 3899   3.682   3.569  13.547
   31DOPE   O31 3900   3.570   3.745  13.432
   31DOPE   C31 3901   3.610   3.847  13.528
   31DOPE   O32 3902   3.739   3.846  13.586
   31DOPE   C32 3903   3.463   3.943  13.569
   31DOPE   H2X 3904   3.397   3.985  13.479
   31DOPE   H2Y 3905   3.383   3.863  13.627
   31DOPE   C23 3906   3.265   3.306  13.625
   31DOPE   H3R 3907   3.374   3.234  13.644
   31DOPE   H3S 3908   3.167   3.245  13.680
   31DOPE   C24 3909   3.284   3.472  13.693
   31DOPE   H4R 3910   3.218   3.566  13.637
   31DOPE   H4S 3911   3.414   3.504  13.695
   31DOPE   C25 3912   3.218   3.458  13.835
   31DOPE   H5R 3913   3.265   3.348  13.882
   31DOPE   H5S 3914   3.086   3.443  13.827
   31DOPE   C26 3915   3.260   3.584  13.940
   31DOPE   H6R 3916   3.224   3.706  13.907
   31DOPE   H6S 3917   3.392   3.588  13.955
   31DOPE   C27 3918   3.181   3.536  14.074
   31DOPE   H7R 3919   3.217   3.625  14.152
   31DOPE   H7S 3920   3.230   3.418  14.104
   31DOPE   C28 3921   2.998   3.517  14.072
   31DOPE   H8R 3922   2.950   3.500  14.175
   31DOPE   H8S 3923   2.959   3.412  14.012
   31DOPE   C29 3924   2.945   3.671  14.010
   31DOPE   H9R 3925   2.929   3.672  13.900
   31DOPE  C210 3926   2.924   3.806  14.079
   31DOPE  H10R 3927   2.903   3.916  14.020
   31DOPE  C211 3928   2.946   3.834  14.227
   31DOPE  H11R 3929   3.006   3.732  14.279
   31DOPE  H11S 3930   2.825   3.846  14.272
   31DOPE  C212 3931   3.041   3.989  14.254
   31DOPE  H12R 3932   3.038   4.072  14.166
   31DOPE  H12S 3933   3.166   3.954  14.274
   31DOPE  C213 3934   2.984   4.088  14.373
   31DOPE  H13R 3935   2.864   4.140  14.350
   31DOPE  H13S 3936   3.068   4.190  14.389
   31DOPE  C214 3937   2.971   3.990  14.500
   31DOPE  H14R 3938   2.874   3.900  14.487
   31DOPE  H14S 3939   2.934   4.070  14.584
   31DOPE  C215 3940   3.122   3.899  14.542
   31DOPE  H15R 3941   3.230   3.976  14.544
   31DOPE  H15S 3942   3.144   3.797  14.473
   31DOPE  C216 3943   3.086   3.836  14.682
   31DOPE  H16R 3944   2.963   3.787  14.674
   31DOPE  H16S 3945   3.085   3.935  14.755
   31DOPE  C217 3946   3.187   3.697  14.730
   31DOPE  H17R 3947   3.317   3.721  14.715
   31DOPE  H17S 3948   3.146   3.596  14.666
   31DOPE  C218 3949   3.152   3.644  14.871
   31DOPE  H18R 3950   3.028   3.598  14.876
   31DOPE  H18S 3951   3.163   3.744  14.944
   31DOPE  H18T 3952   3.235   3.546  14.900
   31DOPE   C33 3953   3.521   4.082  13.655
   31DOPE   H3X 3954   3.590   4.165  13.589
   31DOPE   H3Y 3955   3.602   4.039  13.735
   31DOPE   C34 3956   3.385   4.177  13.718
   31DOPE   H4X 3957   3.430   4.301  13.741
   31DOPE   H4Y 3958   3.292   4.186  13.640
   31DOPE   C35 3959   3.314   4.109  13.848
   31DOPE   H5X 3960   3.263   3.989  13.828
   31DOPE   H5Y 3961   3.215   4.187  13.883
   31DOPE   C36 3962   3.436   4.098  13.964
   31DOPE   H6X 3963   3.487   4.218  13.986
   31DOPE   H6Y 3964   3.535   4.020  13.931
   31DOPE   C37 3965   3.356   4.031  14.090
   31DOPE   H7X 3966   3.283   4.129  14.134
   31DOPE   H7Y 3967   3.272   3.932  14.058
   31DOPE   C38 3968   3.467   3.960  14.200
   31DOPE   H8X 3969   3.396   3.888  14.272
   31DOPE   H8Y 3970   3.522   4.060  14.258
   31DOPE   C39 3971   3.587   3.851  14.136
   31DOPE   H9X 3972   3.547   3.797  14.041
   31DOPE  C310 3973   3.733   3.817  14.182
   31DOPE  H10X 3974   3.815   3.745  14.119
   31DOPE  C311 3975   3.805   3.880  14.309
   31DOPE  H11X 3976   3.893   3.977  14.284
   31DOPE  H11Y 3977   3.716   3.934  14.378
   31DOPE  C312 3978   3.898   3.746  14.382
   31DOPE  H12X 3979   3.998   3.809  14.432
   31DOPE  H12Y 3980   3.953   3.658  14.313
   31DOPE  C313 3981   3.802   3.665  14.493
   31DOPE  H13X 3982   3.730   3.757  14.545
   31DOPE  H13Y 3983   3.716   3.575  14.451
   31DOPE  C314 3984   3.911   3.586  14.597
   31DOPE  H14X 3985   4.021   3.660  14.612
   31DOPE  H14Y 3986   3.949   3.468  14.559
   31DOPE  C315 3987   3.827   3.564  14.732
   31DOPE  H15X 3988   3.727   3.478  14.715
   31DOPE  H15Y 3989   3.770   3.679  14.764
   31DOPE  C316 3990   3.938   3.504  14.842
   31DOPE  H16X 3991   3.960   3.600  14.918
   31DOPE  H16Y 3992   4.058   3.479  14.797
   31DOPE  C317 3993   3.877   3.348  14.906
   31DOPE  H17X 3994   3.871   3.258  14.824
   31DOPE  H17Y 3995   3.967   3.304  14.979
   31DOPE  C318 3996   3.709   3.353  14.970
   31DOPE  H18X 3997   3.624   3.422  14.907
   31DOPE  H18Y 3998   3.660   3.229  14.978
   31DOPE  H18Z 3999   3.709   3.407  15.071
   32DOPE     N 4000   5.586   3.450  13.287
   32DOPE   HN1 4001   5.590   3.413  13.386
   32DOPE   HN2 4002   5.612   3.356  13.222
   32DOPE   HN3 4003   5.674   3.536  13.265
   32DOPE   C12 4004   5.429   3.518  13.238
   32DOPE  H12A 4005   5.407   3.632  13.291
   32DOPE  H12B 4006   5.332   3.432  13.259
   32DOPE   C11 4007   5.447   3.551  13.088
   32DOPE  H11A 4008   5.344   3.623  13.050
   32DOPE  H11B 4009   5.452   3.436  13.030
   32DOPE     P 4010   5.640   3.740  12.948
   32DOPE   O13 4011   5.549   3.686  12.830
   32DOPE   O14 4012   5.816   3.734  12.946
   32DOPE   O11 4013   5.579   3.910  12.997
   32DOPE   O12 4014   5.596   3.631  13.071
   32DOPE    C1 4015   5.648   4.054  12.943
   32DOPE    HA 4016   5.560   4.115  12.878
   32DOPE    HB 4017   5.752   4.027  12.876
   32DOPE    C2 4018   5.711   4.175  13.050
   32DOPE    HS 4019   5.761   4.278  12.992
   32DOPE   O21 4020   5.830   4.102  13.135
   32DOPE   C21 4021   5.969   4.068  13.081
   32DOPE   O22 4022   6.016   4.110  12.971
   32DOPE   C22 4023   6.064   3.966  13.179
   32DOPE   H2R 4024   6.186   3.947  13.138
   32DOPE   H2S 4025   6.002   3.848  13.183
   32DOPE    C3 4026   5.584   4.253  13.145
   32DOPE    HX 4027   5.491   4.310  13.082
   32DOPE    HY 4028   5.645   4.351  13.202
   32DOPE   O31 4029   5.507   4.140  13.232
   32DOPE   C31 4030   5.578   4.111  13.349
   32DOPE   O32 4031   5.688   4.186  13.397
   32DOPE   C32 4032   5.492   3.964  13.411
   32DOPE   H2X 4033   5.363   3.978  13.391
   32DOPE   H2Y 4034   5.534   3.856  13.356
   32DOPE   C23 4035   6.071   4.045  13.319
   32DOPE   H3R 4036   5.951   4.087  13.352
   32DOPE   H3S 4037   6.149   4.153  13.311
   32DOPE   C24 4038   6.138   3.935  13.428
   32DOPE   H4R 4039   6.160   4.009  13.519
   32DOPE   H4S 4040   6.253   3.886  13.389
   32DOPE   C25 4041   6.036   3.792  13.471
   32DOPE   H5R 4042   6.114   3.703  13.524
   32DOPE   H5S 4043   5.989   3.733  13.379
   32DOPE   C26 4044   5.894   3.836  13.563
   32DOPE   H6R 4045   5.789   3.799  13.504
   32DOPE   H6S 4046   5.886   3.968  13.577
   32DOPE   C27 4047   5.890   3.754  13.701
   32DOPE   H7R 4048   5.964   3.643  13.700
   32DOPE   H7S 4049   5.764   3.714  13.719
   32DOPE   C28 4050   5.936   3.865  13.818
   32DOPE   H8R 4051   5.864   3.977  13.809
   32DOPE   H8S 4052   6.064   3.901  13.806
   32DOPE   C29 4053   5.911   3.794  13.955
   32DOPE   H9R 4054   5.858   3.674  13.959
   32DOPE  C210 4055   5.947   3.870  14.071
   32DOPE  H10R 4056   5.921   3.810  14.166
   32DOPE  C211 4057   6.019   4.036  14.084
   32DOPE  H11R 4058   6.072   4.078  13.988
   32DOPE  H11S 4059   6.120   4.033  14.157
   32DOPE  C212 4060   5.896   4.163  14.129
   32DOPE  H12R 4061   5.798   4.171  14.052
   32DOPE  H12S 4062   5.956   4.282  14.134
   32DOPE  C213 4063   5.818   4.129  14.265
   32DOPE  H13R 4064   5.753   4.012  14.263
   32DOPE  H13S 4065   5.726   4.224  14.285
   32DOPE  C214 4066   5.938   4.128  14.381
   32DOPE  H14R 4067   6.004   4.244  14.382
   32DOPE  H14S 4068   6.026   4.030  14.369
   32DOPE  C215 4069   5.850   4.106  14.514
   32DOPE  H15R 4070   5.764   4.006  14.507
   32DOPE  H15S 4071   5.779   4.218  14.529
   32DOPE  C216 4072   5.960   4.076  14.633
   32DOPE  H16R 4073   6.030   3.965  14.618
   32DOPE  H16S 4074   5.885   4.060  14.724
   32DOPE  C217 4075   6.076   4.216  14.659
   32DOPE  H17R 4076   6.010   4.332  14.653
   32DOPE  H17S 4077   6.172   4.218  14.581
   32DOPE  C218 4078   6.151   4.198  14.796
   32DOPE  H18R 4079   6.056   4.183  14.873
   32DOPE  H18S 4080   6.223   4.303  14.822
   32DOPE  H18T 4081   6.234   4.093  14.801
   32DOPE   C33 4082   5.518   3.938  13.563
   32DOPE   H3X 4083   5.593   4.037  13.604
   32DOPE   H3Y 4084   5.580   3.823  13.583
   32DOPE   C34 4085   5.363   3.924  13.645
   32DOPE   H4X 4086   5.268   3.990  13.592
   32DOPE   H4Y 4087   5.323   3.798  13.655
   32DOPE   C35 4088   5.384   4.001  13.783
   32DOPE   H5X 4089   5.268   4.028  13.832
   32DOPE   H5Y 4090   5.444   4.116  13.760
   32DOPE   C36 4091   5.488   3.902  13.880
   32DOPE   H6X 4092   5.534   3.979  13.963
   32DOPE   H6Y 4093   5.594   3.857  13.827
   32DOPE   C37 4094   5.392   3.764  13.941
   32DOPE   H7X 4095   5.310   3.814  14.019
   32DOPE   H7Y 4096   5.316   3.712  13.861
   32DOPE   C38 4097   5.498   3.634  14.001
   32DOPE   H8X 4098   5.566   3.685  14.087
   32DOPE   H8Y 4099   5.588   3.599  13.924
   32DOPE   C39 4100   5.400   3.491  14.042
   32DOPE   H9X 4101   5.269   3.502  14.029
   32DOPE  C310 4102   5.462   3.355  14.090
   32DOPE  H10X 4103   5.383   3.254  14.117
   32DOPE  C311 4104   5.639   3.326  14.110
   32DOPE  H11X 4105   5.668   3.204  14.074
   32DOPE  H11Y 4106   5.716   3.410  14.051
   32DOPE  C312 4107   5.689   3.340  14.258
   32DOPE  H12X 4108   5.818   3.304  14.267
   32DOPE  H12Y 4109   5.618   3.254  14.320
   32DOPE  C313 4110   5.681   3.509  14.319
   32DOPE  H13X 4111   5.741   3.596  14.253
   32DOPE  H13Y 4112   5.554   3.545  14.331
   32DOPE  C314 4113   5.765   3.504  14.454
   32DOPE  H14X 4114   5.894   3.475  14.441
   32DOPE  H14Y 4115   5.710   3.401  14.508
   32DOPE  C315 4116   5.752   3.656  14.539
   32DOPE  H15X 4117   5.623   3.694  14.545
   32DOPE  H15Y 4118   5.818   3.755  14.488
   32DOPE  C316 4119   5.818   3.632  14.681
   32DOPE  H16X 4120   5.788   3.742  14.742
   32DOPE  H16Y 4121   5.951   3.624  14.676
   32DOPE  C317 4122   5.750   3.482  14.752
   32DOPE  H17X 4123   5.801   3.373  14.703
   32DOPE  H17Y 4124   5.798   3.481  14.856
   32DOPE  C318 4125   5.567   3.473  14.753
   32DOPE  H18X 4126   5.519   3.455  14.650
   32DOPE  H18Y 4127   5.526   3.371  14.816
   32DOPE  H18Z 4128   5.514   3.586  14.792
   33DOPE     N 4129   4.247   2.612  12.914
   33DOPE   HN1 4130   4.332   2.585  12.840
   33DOPE   HN2 4131   4.200   2.512  12.960
   33DOPE   HN3 4132   4.150   2.676  12.874
   33DOPE   C12 4133   4.314   2.728  13.015
   33DOPE  H12A 4134   4.362   2.832  12.958
   33DOPE  H12B 4135   4.411   2.668  13.072
   33DOPE   C11 4136   4.180   2.792  13.104
   33DOPE  H11A 4137   4.225   2.903  13.156
   33DOPE  H11B 4138   4.152   2.701  13.183
   33DOPE     P 4139   3.880   2.874  13.102
   33DOPE   O13 4140   3.775   2.730  13.097
   33DOPE   O14 4141   3.817   3.022  13.040
   33DOPE   O11 4142   3.949   2.903  13.247
   33DOPE   O12 4143   4.042   2.828  13.025
   33DOPE    C1 4144   3.866   2.854  13.364
   33DOPE    HA 4145   3.954   2.816  13.441
   33DOPE    HB 4146   3.785   2.750  13.345
   33DOPE    C2 4147   3.768   2.995  13.422
   33DOPE    HS 4148   3.696   3.048  13.339
   33DOPE   O21 4149   3.872   3.113  13.480
   33DOPE   C21 4150   3.938   3.226  13.405
   33DOPE   O22 4151   3.926   3.247  13.286
   33DOPE   C22 4152   4.009   3.349  13.501
   33DOPE   H2R 4153   4.021   3.462  13.442
   33DOPE   H2S 4154   4.129   3.311  13.532
   33DOPE    C3 4155   3.647   2.932  13.529
   33DOPE    HX 4156   3.578   2.834  13.478
   33DOPE    HY 4157   3.562   3.030  13.552
   33DOPE   O31 4158   3.725   2.876  13.652
   33DOPE   C31 4159   3.637   2.770  13.722
   33DOPE   O32 4160   3.517   2.704  13.680
   33DOPE   C32 4161   3.698   2.753  13.866
   33DOPE   H2X 4162   3.797   2.664  13.868
   33DOPE   H2Y 4163   3.754   2.869  13.894
   33DOPE   C23 4164   3.898   3.380  13.622
   33DOPE   H3R 4165   3.769   3.352  13.597
   33DOPE   H3S 4166   3.904   3.511  13.648
   33DOPE   C24 4167   3.934   3.287  13.748
   33DOPE   H4R 4168   3.888   3.161  13.740
   33DOPE   H4S 4169   3.866   3.352  13.827
   33DOPE   C25 4170   4.109   3.284  13.793
   33DOPE   H5R 4171   4.154   3.410  13.798
   33DOPE   H5S 4172   4.182   3.216  13.720
   33DOPE   C26 4173   4.123   3.202  13.928
   33DOPE   H6R 4174   4.070   3.080  13.916
   33DOPE   H6S 4175   4.051   3.266  14.005
   33DOPE   C27 4176   4.297   3.185  13.976
   33DOPE   H7R 4177   4.334   3.298  14.027
   33DOPE   H7S 4178   4.375   3.168  13.887
   33DOPE   C28 4179   4.324   3.040  14.068
   33DOPE   H8R 4180   4.444   3.052  14.116
   33DOPE   H8S 4181   4.328   2.929  14.006
   33DOPE   C29 4182   4.188   3.026  14.167
   33DOPE   H9R 4183   4.072   2.993  14.124
   33DOPE  C210 4184   4.195   3.054  14.298
   33DOPE  H10R 4185   4.085   3.043  14.357
   33DOPE  C211 4186   4.343   3.103  14.376
   33DOPE  H11R 4187   4.447   3.131  14.311
   33DOPE  H11S 4188   4.379   3.001  14.439
   33DOPE  C212 4189   4.315   3.253  14.464
   33DOPE  H12R 4190   4.302   3.360  14.398
   33DOPE  H12S 4191   4.424   3.276  14.525
   33DOPE  C213 4192   4.168   3.246  14.556
   33DOPE  H13R 4193   4.062   3.268  14.491
   33DOPE  H13S 4194   4.175   3.347  14.629
   33DOPE  C214 4195   4.133   3.090  14.633
   33DOPE  H14R 4196   4.118   2.987  14.564
   33DOPE  H14S 4197   4.015   3.108  14.682
   33DOPE  C215 4198   4.249   3.044  14.745
   33DOPE  H15R 4199   4.189   2.952  14.809
   33DOPE  H15S 4200   4.272   3.151  14.809
   33DOPE  C216 4201   4.406   2.975  14.693
   33DOPE  H16R 4202   4.469   3.070  14.635
   33DOPE  H16S 4203   4.382   2.873  14.624
   33DOPE  C217 4204   4.522   2.924  14.803
   33DOPE  H17R 4205   4.522   3.025  14.876
   33DOPE  H17S 4206   4.644   2.914  14.761
   33DOPE  C218 4207   4.478   2.767  14.874
   33DOPE  H18R 4208   4.493   2.664  14.805
   33DOPE  H18S 4209   4.354   2.770  14.912
   33DOPE  H18T 4210   4.561   2.744  14.959
   33DOPE   C33 4211   3.560   2.698  13.962
   33DOPE   H3X 4212   3.552   2.564  13.960
   33DOPE   H3Y 4213   3.443   2.743  13.927
   33DOPE   C34 4214   3.572   2.746  14.111
   33DOPE   H4X 4215   3.505   2.857  14.131
   33DOPE   H4Y 4216   3.499   2.660  14.169
   33DOPE   C35 4217   3.745   2.760  14.161
   33DOPE   H5X 4218   3.749   2.834  14.254
   33DOPE   H5Y 4219   3.824   2.824  14.090
   33DOPE   C36 4220   3.814   2.593  14.189
   33DOPE   H6X 4221   3.938   2.606  14.228
   33DOPE   H6Y 4222   3.826   2.527  14.094
   33DOPE   C37 4223   3.708   2.500  14.288
   33DOPE   H7X 4224   3.592   2.466  14.244
   33DOPE   H7Y 4225   3.767   2.381  14.308
   33DOPE   C38 4226   3.678   2.596  14.417
   33DOPE   H8X 4227   3.593   2.532  14.484
   33DOPE   H8Y 4228   3.629   2.717  14.400
   33DOPE   C39 4229   3.846   2.599  14.469
   33DOPE   H9X 4230   3.923   2.704  14.444
   33DOPE  C310 4231   3.901   2.483  14.546
   33DOPE  H10X 4232   4.021   2.491  14.585
   33DOPE  C311 4233   3.814   2.339  14.595
   33DOPE  H11X 4234   3.721   2.299  14.524
   33DOPE  H11Y 4235   3.898   2.238  14.614
   33DOPE  C312 4236   3.737   2.399  14.726
   33DOPE  H12X 4237   3.702   2.296  14.789
   33DOPE  H12Y 4238   3.625   2.464  14.699
   33DOPE  C313 4239   3.845   2.515  14.808
   33DOPE  H13X 4240   3.954   2.450  14.837
   33DOPE  H13Y 4241   3.887   2.622  14.751
   33DOPE  C314 4242   3.770   2.594  14.929
   33DOPE  H14X 4243   3.870   2.658  14.980
   33DOPE  H14Y 4244   3.726   2.497  14.995
   33DOPE  C315 4245   3.640   2.717  14.892
   33DOPE  H15X 4246   3.560   2.746  14.977
   33DOPE  H15Y 4247   3.563   2.663  14.813
   33DOPE  C316 4248   3.704   2.875  14.839
   33DOPE  H16X 4249   3.818   2.857  14.784
   33DOPE  H16Y 4250   3.727   2.959  14.923
   33DOPE  C317 4251   3.581   2.952  14.748
   33DOPE  H17X 4252   3.533   2.861  14.676
   33DOPE  H17Y 4253   3.480   2.989  14.813
   33DOPE  C318 4254   3.649   3.094  14.671
   33DOPE  H18X 4255   3.611   3.208  14.719
   33DOPE  H18Y 4256   3.781   3.090  14.673
   33DOPE  H18Z 4257   3.611   3.090  14.565
   34DOPE     N 4258   2.884   5.178  12.953
   34DOPE   HN1 4259   2.993   5.153  12.909
   34DOPE   HN2 4260   2.800   5.094  12.923
   34DOPE   HN3 4261   2.844   5.292  12.922
   34DOPE   C12 4262   2.888   5.198  13.103
   34DOPE  H12A 4263   2.983   5.288  13.126
   34DOPE  H12B 4264   2.918   5.083  13.150
   34DOPE   C11 4265   2.725   5.263  13.149
   34DOPE  H11A 4266   2.726   5.292  13.258
   34DOPE  H11B 4267   2.635   5.168  13.130
   34DOPE     P 4268   2.513   5.479  13.080
   34DOPE   O13 4269   2.438   5.447  12.949
   34DOPE   O14 4270   2.526   5.648  13.124
   34DOPE   O11 4271   2.419   5.378  13.189
   34DOPE   O12 4272   2.687   5.401  13.073
   34DOPE    C1 4273   2.316   5.458  13.284
   34DOPE    HA 4274   2.207   5.383  13.303
   34DOPE    HB 4275   2.273   5.576  13.248
   34DOPE    C2 4276   2.399   5.488  13.421
   34DOPE    HS 4277   2.334   5.584  13.476
   34DOPE   O21 4278   2.566   5.521  13.402
   34DOPE   C21 4279   2.615   5.662  13.438
   34DOPE   O22 4280   2.533   5.780  13.459
   34DOPE   C22 4281   2.794   5.644  13.470
   34DOPE   H2R 4282   2.855   5.760  13.458
   34DOPE   H2S 4283   2.849   5.558  13.398
   34DOPE    C3 4284   2.393   5.339  13.511
   34DOPE    HX 4285   2.461   5.240  13.460
   34DOPE    HY 4286   2.266   5.300  13.523
   34DOPE   O31 4287   2.467   5.378  13.637
   34DOPE   C31 4288   2.450   5.263  13.726
   34DOPE   O32 4289   2.371   5.142  13.712
   34DOPE   C32 4290   2.546   5.304  13.849
   34DOPE   H2X 4291   2.676   5.288  13.826
   34DOPE   H2Y 4292   2.525   5.431  13.877
   34DOPE   C23 4293   2.814   5.579  13.614
   34DOPE   H3R 4294   2.768   5.453  13.619
   34DOPE   H3S 4295   2.738   5.653  13.683
   34DOPE   C24 4296   2.986   5.582  13.666
   34DOPE   H4R 4297   3.030   5.708  13.658
   34DOPE   H4S 4298   3.068   5.508  13.604
   34DOPE   C25 4299   2.992   5.531  13.812
   34DOPE   H5R 4300   2.882   5.576  13.864
   34DOPE   H5S 4301   3.096   5.584  13.863
   34DOPE   C26 4302   3.025   5.353  13.840
   34DOPE   H6R 4303   3.139   5.321  13.788
   34DOPE   H6S 4304   2.928   5.278  13.798
   34DOPE   C27 4305   3.046   5.324  13.991
   34DOPE   H7R 4306   3.140   5.405  14.031
   34DOPE   H7S 4307   3.085   5.198  14.006
   34DOPE   C28 4308   2.888   5.353  14.069
   34DOPE   H8R 4309   2.798   5.274  14.021
   34DOPE   H8S 4310   2.845   5.478  14.052
   34DOPE   C29 4311   2.892   5.312  14.216
   34DOPE   H9R 4312   2.944   5.194  14.239
   34DOPE  C210 4313   2.834   5.402  14.317
   34DOPE  H10R 4314   2.834   5.351  14.418
   34DOPE  C211 4315   2.754   5.564  14.304
   34DOPE  H11R 4316   2.808   5.632  14.220
   34DOPE  H11S 4317   2.777   5.638  14.395
   34DOPE  C212 4318   2.570   5.557  14.276
   34DOPE  H12R 4319   2.550   5.484  14.185
   34DOPE  H12S 4320   2.525   5.678  14.253
   34DOPE  C213 4321   2.467   5.488  14.390
   34DOPE  H13R 4322   2.520   5.372  14.416
   34DOPE  H13S 4323   2.342   5.468  14.354
   34DOPE  C214 4324   2.462   5.586  14.519
   34DOPE  H14R 4325   2.408   5.705  14.497
   34DOPE  H14S 4326   2.588   5.605  14.553
   34DOPE  C215 4327   2.370   5.506  14.635
   34DOPE  H15R 4328   2.434   5.394  14.664
   34DOPE  H15S 4329   2.248   5.472  14.600
   34DOPE  C216 4330   2.353   5.617  14.757
   34DOPE  H16R 4331   2.303   5.731  14.719
   34DOPE  H16S 4332   2.474   5.644  14.800
   34DOPE  C217 4333   2.243   5.567  14.871
   34DOPE  H17R 4334   2.124   5.528  14.832
   34DOPE  H17S 4335   2.221   5.678  14.931
   34DOPE  C218 4336   2.312   5.444  14.968
   34DOPE  H18R 4337   2.293   5.486  15.071
   34DOPE  H18S 4338   2.443   5.430  14.954
   34DOPE  H18T 4339   2.252   5.324  14.958
   34DOPE   C33 4340   2.498   5.192  13.965
   34DOPE   H3X 4341   2.366   5.174  13.970
   34DOPE   H3Y 4342   2.533   5.252  14.060
   34DOPE   C34 4343   2.582   5.030  13.955
   34DOPE   H4X 4344   2.546   4.968  13.861
   34DOPE   H4Y 4345   2.714   5.047  13.951
   34DOPE   C35 4346   2.544   4.922  14.074
   34DOPE   H5X 4347   2.626   4.818  14.069
   34DOPE   H5Y 4348   2.419   4.877  14.069
   34DOPE   C36 4349   2.579   5.000  14.209
   34DOPE   H6X 4350   2.662   5.104  14.198
   34DOPE   H6Y 4351   2.647   4.909  14.266
   34DOPE   C37 4352   2.426   5.054  14.282
   34DOPE   H7X 4353   2.384   5.171  14.241
   34DOPE   H7Y 4354   2.330   4.964  14.262
   34DOPE   C38 4355   2.454   5.068  14.433
   34DOPE   H8X 4356   2.346   5.116  14.485
   34DOPE   H8Y 4357   2.552   5.154  14.449
   34DOPE   C39 4358   2.503   4.907  14.485
   34DOPE   H9X 4359   2.413   4.812  14.473
   34DOPE  C310 4360   2.650   4.870  14.534
   34DOPE  H10X 4361   2.674   4.744  14.561
   34DOPE  C311 4362   2.791   4.980  14.549
   34DOPE  H11X 4363   2.880   4.961  14.468
   34DOPE  H11Y 4364   2.755   5.107  14.547
   34DOPE  C312 4365   2.866   4.944  14.686
   34DOPE  H12X 4366   2.903   4.816  14.688
   34DOPE  H12Y 4367   2.773   4.956  14.765
   34DOPE  C313 4368   3.011   5.047  14.726
   34DOPE  H13X 4369   3.042   5.020  14.831
   34DOPE  H13Y 4370   3.114   5.011  14.663
   34DOPE  C314 4371   2.993   5.230  14.710
   34DOPE  H14X 4372   2.873   5.263  14.671
   34DOPE  H14Y 4373   3.085   5.270  14.637
   34DOPE  C315 4374   3.020   5.321  14.841
   34DOPE  H15X 4375   3.139   5.287  14.884
   34DOPE  H15Y 4376   2.929   5.288  14.917
   34DOPE  C316 4377   3.014   5.502  14.815
   34DOPE  H16X 4378   2.894   5.538  14.777
   34DOPE  H16Y 4379   3.101   5.525  14.733
   34DOPE  C317 4380   3.058   5.602  14.938
   34DOPE  H17X 4381   3.166   5.546  14.985
   34DOPE  H17Y 4382   3.089   5.728  14.912
   34DOPE  C318 4383   2.923   5.611  15.037
   34DOPE  H18X 4384   2.878   5.488  15.051
   34DOPE  H18Y 4385   2.966   5.660  15.134
   34DOPE  H18Z 4386   2.824   5.688  15.000
   35DOPE     N 4387   6.931   3.406  13.150
   35DOPE   HN1 4388   6.942   3.469  13.239
   35DOPE   HN2 4389   6.928   3.282  13.170
   35DOPE   HN3 4390   7.028   3.434  13.090
   35DOPE   C12 4391   6.779   3.460  13.082
   35DOPE  H12A 4392   6.692   3.358  13.082
   35DOPE  H12B 4393   6.808   3.492  12.977
   35DOPE   C11 4394   6.703   3.605  13.154
   35DOPE  H11A 4395   6.797   3.696  13.177
   35DOPE  H11B 4396   6.647   3.566  13.250
   35DOPE     P 4397   6.606   3.830  12.990
   35DOPE   O13 4398   6.464   3.869  12.907
   35DOPE   O14 4399   6.763   3.815  12.920
   35DOPE   O11 4400   6.619   3.954  13.109
   35DOPE   O12 4401   6.581   3.667  13.070
   35DOPE    C1 4402   6.734   4.080  13.096
   35DOPE    HA 4403   6.685   4.176  13.029
   35DOPE    HB 4404   6.850   4.039  13.051
   35DOPE    C2 4405   6.775   4.158  13.233
   35DOPE    HS 4406   6.872   4.246  13.213
   35DOPE   O21 4407   6.827   4.044  13.333
   35DOPE   C21 4408   6.968   3.976  13.313
   35DOPE   O22 4409   7.058   4.000  13.219
   35DOPE   C22 4410   6.994   3.852  13.429
   35DOPE   H2R 4411   6.882   3.780  13.426
   35DOPE   H2S 4412   6.988   3.926  13.520
   35DOPE    C3 4413   6.629   4.255  13.287
   35DOPE    HX 4414   6.551   4.285  13.201
   35DOPE    HY 4415   6.672   4.369  13.330
   35DOPE   O31 4416   6.528   4.177  13.381
   35DOPE   C31 4417   6.564   4.194  13.508
   35DOPE   O32 4418   6.667   4.279  13.558
   35DOPE   C32 4419   6.449   4.087  13.582
   35DOPE   H2X 4420   6.344   4.157  13.619
   35DOPE   H2Y 4421   6.406   4.001  13.506
   35DOPE   C23 4422   7.134   3.725  13.438
   35DOPE   H3R 4423   7.186   3.708  13.335
   35DOPE   H3S 4424   7.080   3.610  13.472
   35DOPE   C24 4425   7.278   3.748  13.537
   35DOPE   H4R 4426   7.313   3.869  13.525
   35DOPE   H4S 4427   7.386   3.702  13.485
   35DOPE   C25 4428   7.295   3.659  13.678
   35DOPE   H5R 4429   7.404   3.590  13.650
   35DOPE   H5S 4430   7.207   3.560  13.693
   35DOPE   C26 4431   7.363   3.716  13.823
   35DOPE   H6R 4432   7.484   3.748  13.802
   35DOPE   H6S 4433   7.374   3.604  13.878
   35DOPE   C27 4434   7.336   3.858  13.929
   35DOPE   H7R 4435   7.309   3.983  13.904
   35DOPE   H7S 4436   7.459   3.874  13.969
   35DOPE   C28 4437   7.238   3.821  14.056
   35DOPE   H8R 4438   7.320   3.773  14.133
   35DOPE   H8S 4439   7.174   3.730  14.003
   35DOPE   C29 4440   7.098   3.910  14.112
   35DOPE   H9R 4441   7.058   4.008  14.048
   35DOPE  C210 4442   6.998   3.874  14.213
   35DOPE  H10R 4443   6.893   3.954  14.222
   35DOPE  C211 4444   6.988   3.734  14.309
   35DOPE  H11R 4445   6.881   3.662  14.278
   35DOPE  H11S 4446   6.954   3.784  14.408
   35DOPE  C212 4447   7.123   3.606  14.325
   35DOPE  H12R 4448   7.211   3.616  14.242
   35DOPE  H12S 4449   7.064   3.487  14.311
   35DOPE  C213 4450   7.225   3.593  14.454
   35DOPE  H13R 4451   7.315   3.690  14.457
   35DOPE  H13S 4452   7.301   3.484  14.445
   35DOPE  C214 4453   7.132   3.582  14.585
   35DOPE  H14R 4454   7.092   3.456  14.602
   35DOPE  H14S 4455   7.021   3.658  14.577
   35DOPE  C215 4456   7.226   3.641  14.707
   35DOPE  H15R 4457   7.285   3.757  14.684
   35DOPE  H15S 4458   7.325   3.554  14.729
   35DOPE  C216 4459   7.116   3.666  14.827
   35DOPE  H16R 4460   6.992   3.625  14.805
   35DOPE  H16S 4461   7.106   3.797  14.846
   35DOPE  C217 4462   7.176   3.595  14.959
   35DOPE  H17R 4463   7.306   3.566  14.952
   35DOPE  H17S 4464   7.110   3.481  14.979
   35DOPE  C218 4465   7.151   3.716  15.072
   35DOPE  H18R 4466   7.020   3.740  15.085
   35DOPE  H18S 4467   7.210   3.832  15.046
   35DOPE  H18T 4468   7.202   3.674  15.167
   35DOPE   C33 4469   6.515   3.972  13.689
   35DOPE   H3X 4470   6.527   4.040  13.784
   35DOPE   H3Y 4471   6.634   3.923  13.659
   35DOPE   C34 4472   6.390   3.836  13.697
   35DOPE   H4X 4473   6.271   3.896  13.705
   35DOPE   H4Y 4474   6.389   3.767  13.602
   35DOPE   C35 4475   6.406   3.721  13.815
   35DOPE   H5X 4476   6.497   3.628  13.792
   35DOPE   H5Y 4477   6.288   3.660  13.828
   35DOPE   C36 4478   6.451   3.808  13.945
   35DOPE   H6X 4479   6.358   3.898  13.971
   35DOPE   H6Y 4480   6.568   3.871  13.931
   35DOPE   C37 4481   6.475   3.689  14.058
   35DOPE   H7X 4482   6.545   3.586  14.016
   35DOPE   H7Y 4483   6.550   3.744  14.138
   35DOPE   C38 4484   6.313   3.635  14.118
   35DOPE   H8X 4485   6.221   3.631  14.038
   35DOPE   H8Y 4486   6.274   3.727  14.191
   35DOPE   C39 4487   6.332   3.470  14.177
   35DOPE   H9X 4488   6.344   3.373  14.103
   35DOPE  C310 4489   6.342   3.436  14.308
   35DOPE  H10X 4490   6.361   3.311  14.338
   35DOPE  C311 4491   6.335   3.557  14.420
   35DOPE  H11X 4492   6.246   3.653  14.398
   35DOPE  H11Y 4493   6.294   3.497  14.513
   35DOPE  C312 4494   6.498   3.638  14.447
   35DOPE  H12X 4495   6.540   3.704  14.357
   35DOPE  H12Y 4496   6.589   3.545  14.471
   35DOPE  C313 4497   6.488   3.756  14.565
   35DOPE  H13X 4498   6.418   3.863  14.534
   35DOPE  H13Y 4499   6.422   3.697  14.649
   35DOPE  C314 4500   6.654   3.809  14.614
   35DOPE  H14X 4501   6.721   3.859  14.527
   35DOPE  H14Y 4502   6.722   3.704  14.653
   35DOPE  C315 4503   6.646   3.941  14.722
   35DOPE  H15X 4504   6.564   4.037  14.686
   35DOPE  H15Y 4505   6.768   3.992  14.735
   35DOPE  C316 4506   6.586   3.887  14.859
   35DOPE  H16X 4507   6.664   3.790  14.897
   35DOPE  H16Y 4508   6.462   3.838  14.849
   35DOPE  C317 4509   6.583   4.030  14.957
   35DOPE  H17X 4510   6.709   4.068  14.976
   35DOPE  H17Y 4511   6.521   4.130  14.907
   35DOPE  C318 4512   6.499   3.998  15.091
   35DOPE  H18X 4513   6.379   3.943  15.074
   35DOPE  H18Y 4514   6.570   3.919  15.156
   35DOPE  H18Z 4515   6.481   4.114  15.145
   36DOPE     N 4516   6.942   5.382  13.242
   36DOPE   HN1 4517   6.952   5.420  13.142
   36DOPE   HN2 4518   7.027   5.440  13.299
   36DOPE   HN3 4519   6.961   5.258  13.241
   36DOPE   C12 4520   6.769   5.417  13.275
   36DOPE  H12A 4521   6.751   5.549  13.264
   36DOPE  H12B 4522   6.742   5.378  13.378
   36DOPE   C11 4523   6.667   5.335  13.169
   36DOPE  H11A 4524   6.539   5.375  13.174
   36DOPE  H11B 4525   6.667   5.203  13.186
   36DOPE     P 4526   6.670   5.508  12.952
   36DOPE   O13 4527   6.500   5.468  12.930
   36DOPE   O14 4528   6.776   5.533  12.835
   36DOPE   O11 4529   6.683   5.657  13.051
   36DOPE   O12 4530   6.740   5.368  13.043
   36DOPE    C1 4531   6.572   5.790  13.029
   36DOPE    HA 4532   6.460   5.753  12.977
   36DOPE    HB 4533   6.634   5.880  12.963
   36DOPE    C2 4534   6.522   5.884  13.158
   36DOPE    HS 4535   6.516   6.013  13.132
   36DOPE   O21 4536   6.634   5.857  13.264
   36DOPE   C21 4537   6.769   5.935  13.250
   36DOPE   O22 4538   6.804   6.028  13.159
   36DOPE   C22 4539   6.875   5.898  13.372
   36DOPE   H2R 4540   6.888   6.013  13.425
   36DOPE   H2S 4541   6.995   5.860  13.338
   36DOPE    C3 4542   6.350   5.844  13.211
   36DOPE    HX 4543   6.266   5.846  13.125
   36DOPE    HY 4544   6.313   5.942  13.280
   36DOPE   O31 4545   6.342   5.689  13.273
   36DOPE   C31 4546   6.365   5.684  13.404
   36DOPE   O32 4547   6.364   5.797  13.481
   36DOPE   C32 4548   6.385   5.508  13.440
   36DOPE   H2X 4549   6.260   5.467  13.457
   36DOPE   H2Y 4550   6.432   5.446  13.351
   36DOPE   C23 4551   6.802   5.777  13.473
   36DOPE   H3R 4552   6.809   5.654  13.433
   36DOPE   H3S 4553   6.673   5.806  13.493
   36DOPE   C24 4554   6.884   5.776  13.609
   36DOPE   H4R 4555   6.856   5.892  13.656
   36DOPE   H4S 4556   7.016   5.766  13.599
   36DOPE   C25 4557   6.820   5.641  13.699
   36DOPE   H5R 4558   6.838   5.522  13.651
   36DOPE   H5S 4559   6.688   5.664  13.707
   36DOPE   C26 4560   6.882   5.635  13.843
   36DOPE   H6R 4561   7.013   5.609  13.840
   36DOPE   H6S 4562   6.824   5.538  13.901
   36DOPE   C27 4563   6.852   5.795  13.913
   36DOPE   H7R 4564   6.728   5.839  13.906
   36DOPE   H7S 4565   6.925   5.882  13.857
   36DOPE   C28 4566   6.914   5.798  14.057
   36DOPE   H8R 4567   6.958   5.924  14.061
   36DOPE   H8S 4568   7.022   5.720  14.060
   36DOPE   C29 4569   6.820   5.790  14.185
   36DOPE   H9R 4570   6.738   5.891  14.203
   36DOPE  C210 4571   6.835   5.678  14.279
   36DOPE  H10R 4572   6.772   5.694  14.375
   36DOPE  C211 4573   6.949   5.540  14.275
   36DOPE  H11R 4574   6.995   5.515  14.173
   36DOPE  H11S 4575   6.882   5.434  14.309
   36DOPE  C212 4576   7.093   5.556  14.367
   36DOPE  H12R 4577   7.158   5.670  14.347
   36DOPE  H12S 4578   7.172   5.453  14.340
   36DOPE  C213 4579   7.051   5.537  14.515
   36DOPE  H13R 4580   6.960   5.444  14.528
   36DOPE  H13S 4581   6.996   5.650  14.551
   36DOPE  C214 4582   7.195   5.476  14.595
   36DOPE  H14R 4583   7.277   5.579  14.608
   36DOPE  H14S 4584   7.256   5.382  14.535
   36DOPE  C215 4585   7.160   5.393  14.728
   36DOPE  H15R 4586   7.279   5.358  14.772
   36DOPE  H15S 4587   7.094   5.280  14.709
   36DOPE  C216 4588   7.069   5.494  14.830
   36DOPE  H16R 4589   6.942   5.506  14.801
   36DOPE  H16S 4590   7.122   5.616  14.833
   36DOPE  C217 4591   7.086   5.430  14.973
   36DOPE  H17R 4592   6.990   5.486  15.035
   36DOPE  H17S 4593   7.202   5.474  15.010
   36DOPE  C218 4594   7.085   5.248  14.989
   36DOPE  H18R 4595   6.971   5.197  14.951
   36DOPE  H18S 4596   7.097   5.216  15.096
   36DOPE  H18T 4597   7.186   5.192  14.934
   36DOPE   C33 4598   6.496   5.462  13.559
   36DOPE   H3X 4599   6.613   5.519  13.545
   36DOPE   H3Y 4600   6.514   5.330  13.555
   36DOPE   C34 4601   6.425   5.501  13.697
   36DOPE   H4X 4602   6.437   5.632  13.717
   36DOPE   H4Y 4603   6.295   5.476  13.690
   36DOPE   C35 4604   6.499   5.402  13.813
   36DOPE   H5X 4605   6.623   5.446  13.829
   36DOPE   H5Y 4606   6.510   5.274  13.784
   36DOPE   C36 4607   6.410   5.416  13.947
   36DOPE   H6X 4608   6.493   5.382  14.030
   36DOPE   H6Y 4609   6.312   5.327  13.952
   36DOPE   C37 4610   6.340   5.584  13.973
   36DOPE   H7X 4611   6.268   5.628  13.888
   36DOPE   H7Y 4612   6.250   5.574  14.053
   36DOPE   C38 4613   6.473   5.707  14.000
   36DOPE   H8X 4614   6.504   5.753  13.899
   36DOPE   H8Y 4615   6.578   5.639  14.036
   36DOPE   C39 4616   6.445   5.845  14.093
   36DOPE   H9X 4617   6.473   5.965  14.051
   36DOPE  C310 4618   6.392   5.833  14.220
   36DOPE  H10X 4619   6.380   5.942  14.281
   36DOPE  C311 4620   6.350   5.678  14.289
   36DOPE  H11X 4621   6.228   5.684  14.331
   36DOPE  H11Y 4622   6.344   5.578  14.218
   36DOPE  C312 4623   6.469   5.602  14.384
   36DOPE  H12X 4624   6.523   5.681  14.460
   36DOPE  H12Y 4625   6.566   5.558  14.316
   36DOPE  C313 4626   6.398   5.447  14.444
   36DOPE  H13X 4627   6.340   5.464  14.543
   36DOPE  H13Y 4628   6.306   5.405  14.374
   36DOPE  C314 4629   6.526   5.318  14.449
   36DOPE  H14X 4630   6.562   5.299  14.342
   36DOPE  H14Y 4631   6.481   5.202  14.487
   36DOPE  C315 4632   6.674   5.376  14.521
   36DOPE  H15X 4633   6.710   5.498  14.490
   36DOPE  H15Y 4634   6.776   5.306  14.487
   36DOPE  C316 4635   6.678   5.377  14.674
   36DOPE  H16X 4636   6.679   5.504  14.693
   36DOPE  H16Y 4637   6.797   5.336  14.709
   36DOPE  C317 4638   6.548   5.290  14.755
   36DOPE  H17X 4639   6.432   5.353  14.746
   36DOPE  H17Y 4640   6.532   5.166  14.716
   36DOPE  C318 4641   6.598   5.280  14.902
   36DOPE  H18X 4642   6.607   5.401  14.947
   36DOPE  H18Y 4643   6.512   5.208  14.961
   36DOPE  H18Z 4644   6.719   5.226  14.910
   37DOPE     N 4645   3.316   2.813  12.957
   37DOPE   HN1 4646   3.340   2.848  12.859
   37DOPE   HN2 4647   3.275   2.912  13.012
   37DOPE   HN3 4648   3.416   2.762  13.002
   37DOPE   C12 4649   3.170   2.705  12.955
   37DOPE  H12A 4650   3.160   2.650  13.055
   37DOPE  H12B 4651   3.187   2.610  12.879
   37DOPE   C11 4652   3.024   2.809  12.924
   37DOPE  H11A 4653   2.910   2.738  12.933
   37DOPE  H11B 4654   3.028   2.852  12.818
   37DOPE     P 4655   2.965   2.923  13.159
   37DOPE   O13 4656   3.109   2.968  13.240
   37DOPE   O14 4657   2.897   2.761  13.176
   37DOPE   O11 4658   2.834   3.060  13.157
   37DOPE   O12 4659   3.025   2.946  13.010
   37DOPE    C1 4660   2.868   3.214  13.214
   37DOPE    HA 4661   2.821   3.307  13.146
   37DOPE    HB 4662   2.999   3.239  13.228
   37DOPE    C2 4663   2.786   3.227  13.352
   37DOPE    HS 4664   2.831   3.338  13.401
   37DOPE   O21 4665   2.819   3.082  13.427
   37DOPE   C21 4666   2.897   3.101  13.540
   37DOPE   O22 4667   2.911   3.228  13.599
   37DOPE   C22 4668   2.971   2.940  13.589
   37DOPE   H2R 4669   3.065   2.906  13.515
   37DOPE   H2S 4670   2.873   2.850  13.584
   37DOPE    C3 4671   2.603   3.250  13.330
   37DOPE    HX 4672   2.557   3.146  13.270
   37DOPE    HY 4673   2.586   3.356  13.265
   37DOPE   O31 4674   2.524   3.277  13.456
   37DOPE   C31 4675   2.461   3.145  13.508
   37DOPE   O32 4676   2.432   3.024  13.445
   37DOPE   C32 4677   2.429   3.169  13.658
   37DOPE   H2X 4678   2.393   3.298  13.664
   37DOPE   H2Y 4679   2.327   3.095  13.690
   37DOPE   C23 4680   3.043   2.944  13.733
   37DOPE   H3R 4681   2.992   2.839  13.790
   37DOPE   H3S 4682   3.000   3.053  13.786
   37DOPE   C24 4683   3.228   2.936  13.746
   37DOPE   H4R 4684   3.283   2.987  13.655
   37DOPE   H4S 4685   3.264   2.808  13.752
   37DOPE   C25 4686   3.290   3.028  13.870
   37DOPE   H5R 4687   3.288   2.944  13.956
   37DOPE   H5S 4688   3.203   3.122  13.897
   37DOPE   C26 4689   3.460   3.106  13.863
   37DOPE   H6R 4690   3.458   3.232  13.828
   37DOPE   H6S 4691   3.538   3.041  13.791
   37DOPE   C27 4692   3.538   3.108  14.002
   37DOPE   H7R 4693   3.614   3.001  14.004
   37DOPE   H7S 4694   3.438   3.094  14.074
   37DOPE   C28 4695   3.655   3.239  14.044
   37DOPE   H8R 4696   3.720   3.281  13.956
   37DOPE   H8S 4697   3.746   3.182  14.111
   37DOPE   C29 4698   3.587   3.377  14.120
   37DOPE   H9R 4699   3.612   3.497  14.079
   37DOPE  C210 4700   3.500   3.366  14.232
   37DOPE  H10R 4701   3.457   3.480  14.273
   37DOPE  C211 4702   3.450   3.220  14.312
   37DOPE  H11R 4703   3.514   3.220  14.409
   37DOPE  H11S 4704   3.481   3.103  14.266
   37DOPE  C212 4705   3.268   3.223  14.341
   37DOPE  H12R 4706   3.238   3.125  14.412
   37DOPE  H12S 4707   3.199   3.199  14.247
   37DOPE  C213 4708   3.211   3.384  14.399
   37DOPE  H13R 4709   3.085   3.376  14.436
   37DOPE  H13S 4710   3.208   3.475  14.319
   37DOPE  C214 4711   3.323   3.451  14.508
   37DOPE  H14R 4712   3.293   3.580  14.519
   37DOPE  H14S 4713   3.450   3.457  14.476
   37DOPE  C215 4714   3.325   3.350  14.635
   37DOPE  H15R 4715   3.388   3.414  14.719
   37DOPE  H15S 4716   3.398   3.245  14.608
   37DOPE  C216 4717   3.168   3.276  14.685
   37DOPE  H16R 4718   3.103   3.216  14.602
   37DOPE  H16S 4719   3.085   3.364  14.732
   37DOPE  C217 4720   3.215   3.146  14.785
   37DOPE  H17R 4721   3.308   3.192  14.855
   37DOPE  H17S 4722   3.270   3.048  14.725
   37DOPE  C218 4723   3.074   3.082  14.862
   37DOPE  H18R 4724   2.965   3.089  14.798
   37DOPE  H18S 4725   3.052   3.149  14.954
   37DOPE  H18T 4726   3.100   2.954  14.889
   37DOPE   C33 4727   2.578   3.149  13.751
   37DOPE   H3X 4728   2.560   3.215  13.845
   37DOPE   H3Y 4729   2.677   3.215  13.704
   37DOPE   C34 4730   2.633   2.977  13.789
   37DOPE   H4X 4731   2.608   2.891  13.707
   37DOPE   H4Y 4732   2.764   2.981  13.802
   37DOPE   C35 4733   2.574   2.910  13.925
   37DOPE   H5X 4734   2.592   2.778  13.926
   37DOPE   H5Y 4735   2.443   2.935  13.934
   37DOPE   C36 4736   2.660   2.975  14.050
   37DOPE   H6X 4737   2.594   2.929  14.139
   37DOPE   H6Y 4738   2.656   3.108  14.050
   37DOPE   C37 4739   2.839   2.935  14.073
   37DOPE   H7X 4740   2.912   2.986  13.990
   37DOPE   H7Y 4741   2.872   3.005  14.165
   37DOPE   C38 4742   2.879   2.758  14.097
   37DOPE   H8X 4743   2.867   2.689  14.002
   37DOPE   H8Y 4744   2.791   2.706  14.169
   37DOPE   C39 4745   3.049   2.755  14.149
   37DOPE   H9X 4746   3.138   2.800  14.077
   37DOPE  C310 4747   3.100   2.707  14.270
   37DOPE  H10X 4748   3.228   2.723  14.293
   37DOPE  C311 4749   3.000   2.644  14.384
   37DOPE  H11X 4750   2.869   2.671  14.373
   37DOPE  H11Y 4751   3.010   2.510  14.386
   37DOPE  C312 4752   3.055   2.705  14.523
   37DOPE  H12X 4753   3.188   2.712  14.525
   37DOPE  H12Y 4754   3.020   2.615  14.600
   37DOPE  C313 4755   2.984   2.868  14.562
   37DOPE  H13X 4756   3.074   2.929  14.626
   37DOPE  H13Y 4757   2.970   2.942  14.470
   37DOPE  C314 4758   2.824   2.863  14.637
   37DOPE  H14X 4759   2.734   2.801  14.574
   37DOPE  H14Y 4760   2.782   2.989  14.651
   37DOPE  C315 4761   2.826   2.783  14.776
   37DOPE  H15X 4762   2.896   2.852  14.850
   37DOPE  H15Y 4763   2.887   2.666  14.774
   37DOPE  C316 4764   2.659   2.773  14.836
   37DOPE  H16X 4765   2.574   2.706  14.771
   37DOPE  H16Y 4766   2.614   2.899  14.841
   37DOPE  C317 4767   2.658   2.706  14.979
   37DOPE  H17X 4768   2.748   2.764  15.044
   37DOPE  H17Y 4769   2.548   2.749  15.021
   37DOPE  C318 4770   2.645   2.524  14.995
   37DOPE  H18X 4771   2.609   2.490  15.097
   37DOPE  H18Y 4772   2.551   2.474  14.928
   37DOPE  H18Z 4773   2.764   2.470  14.973
   38DOPE     N 4774   6.390   6.518  12.837
   38DOPE   HN1 4775   6.370   6.552  12.736
   38DOPE   HN2 4776   6.318   6.583  12.902
   38DOPE   HN3 4777   6.509   6.535  12.860
   38DOPE   C12 4778   6.352   6.346  12.854
   38DOPE  H12A 4779   6.433   6.276  12.788
   38DOPE  H12B 4780   6.226   6.325  12.822
   38DOPE   C11 4781   6.372   6.296  13.000
   38DOPE  H11A 4782   6.492   6.329  13.040
   38DOPE  H11B 4783   6.370   6.162  12.998
   38DOPE     P 4784   6.139   6.252  13.166
   38DOPE   O13 4785   6.120   6.101  13.088
   38DOPE   O14 4786   5.996   6.335  13.217
   38DOPE   O11 4787   6.265   6.228  13.282
   38DOPE   O12 4788   6.248   6.370  13.079
   38DOPE    C1 4789   6.284   6.364  13.371
   38DOPE    HA 4790   6.168   6.428  13.391
   38DOPE    HB 4791   6.370   6.452  13.329
   38DOPE    C2 4792   6.338   6.307  13.510
   38DOPE    HS 4793   6.445   6.227  13.496
   38DOPE   O21 4794   6.203   6.226  13.566
   38DOPE   C21 4795   6.236   6.113  13.652
   38DOPE   O22 4796   6.370   6.076  13.690
   38DOPE   C22 4797   6.077   6.052  13.710
   38DOPE   H2R 4798   6.011   5.992  13.628
   38DOPE   H2S 4799   6.010   6.160  13.742
   38DOPE    C3 4800   6.388   6.456  13.597
   38DOPE    HX 4801   6.282   6.538  13.600
   38DOPE    HY 4802   6.484   6.521  13.541
   38DOPE   O31 4803   6.450   6.416  13.729
   38DOPE   C31 4804   6.338   6.408  13.824
   38DOPE   O32 4805   6.197   6.439  13.810
   38DOPE   C32 4806   6.408   6.349  13.957
   38DOPE   H2X 4807   6.338   6.240  13.984
   38DOPE   H2Y 4808   6.534   6.313  13.942
   38DOPE   C23 4809   6.094   5.938  13.832
   38DOPE   H3R 4810   6.170   5.995  13.910
   38DOPE   H3S 4811   6.155   5.825  13.800
   38DOPE   C24 4812   5.929   5.898  13.892
   38DOPE   H4R 4813   5.860   5.830  13.816
   38DOPE   H4S 4814   5.862   6.012  13.911
   38DOPE   C25 4815   5.932   5.801  14.023
   38DOPE   H5R 4816   6.014   5.696  14.015
   38DOPE   H5S 4817   5.808   5.755  14.041
   38DOPE   C26 4818   5.978   5.902  14.144
   38DOPE   H6R 4819   5.914   6.017  14.135
   38DOPE   H6S 4820   6.108   5.930  14.140
   38DOPE   C27 4821   5.936   5.825  14.279
   38DOPE   H7R 4822   5.981   5.700  14.280
   38DOPE   H7S 4823   5.803   5.821  14.290
   38DOPE   C28 4824   6.011   5.918  14.396
   38DOPE   H8R 4825   5.966   6.043  14.386
   38DOPE   H8S 4826   6.143   5.923  14.385
   38DOPE   C29 4827   5.965   5.861  14.533
   38DOPE   H9R 4828   5.838   5.882  14.557
   38DOPE  C210 4829   6.060   5.800  14.630
   38DOPE  H10R 4830   6.006   5.786  14.729
   38DOPE  C211 4831   6.239   5.773  14.626
   38DOPE  H11R 4832   6.299   5.890  14.617
   38DOPE  H11S 4833   6.260   5.717  14.529
   38DOPE  C212 4834   6.336   5.675  14.731
   38DOPE  H12R 4835   6.444   5.634  14.675
   38DOPE  H12S 4836   6.280   5.563  14.764
   38DOPE  C213 4837   6.398   5.762  14.856
   38DOPE  H13R 4838   6.311   5.747  14.940
   38DOPE  H13S 4839   6.409   5.891  14.841
   38DOPE  C214 4840   6.568   5.711  14.895
   38DOPE  H14R 4841   6.619   5.644  14.815
   38DOPE  H14S 4842   6.556   5.632  14.985
   38DOPE  C215 4843   6.702   5.834  14.924
   38DOPE  H15R 4844   6.805   5.750  14.943
   38DOPE  H15S 4845   6.652   5.872  15.018
   38DOPE  C216 4846   6.762   5.977  14.829
   38DOPE  H16R 4847   6.728   5.958  14.723
   38DOPE  H16S 4848   6.876   5.911  14.835
   38DOPE  C217 4849   6.886   6.130  14.845
   38DOPE  H17R 4850   6.924   6.144  14.740
   38DOPE  H17S 4851   6.991   6.088  14.904
   38DOPE  C218 4852   6.870   6.308  14.893
   38DOPE  H18R 4853   6.779   6.328  14.971
   38DOPE  H18S 4854   6.841   6.390  14.809
   38DOPE  H18T 4855   6.986   6.352  14.934
   38DOPE   C33 4856   6.390   6.478  14.067
   38DOPE   H3X 4857   6.266   6.527  14.065
   38DOPE   H3Y 4858   6.468   6.582  14.041
   38DOPE   C34 4859   6.433   6.426  14.211
   38DOPE   H4X 4860   6.562   6.392  14.213
   38DOPE   H4Y 4861   6.419   6.532  14.278
   38DOPE   C35 4862   6.336   6.287  14.272
   38DOPE   H5X 4863   6.398   6.247  14.365
   38DOPE   H5Y 4864   6.336   6.182  14.203
   38DOPE   C36 4865   6.162   6.329  14.310
   38DOPE   H6X 4866   6.158   6.438  14.373
   38DOPE   H6Y 4867   6.116   6.229  14.373
   38DOPE   C37 4868   6.052   6.347  14.187
   38DOPE   H7X 4869   6.064   6.470  14.147
   38DOPE   H7Y 4870   6.092   6.262  14.109
   38DOPE   C38 4871   5.873   6.318  14.210
   38DOPE   H8X 4872   5.855   6.196  14.247
   38DOPE   H8Y 4873   5.812   6.326  14.111
   38DOPE   C39 4874   5.796   6.434  14.305
   38DOPE   H9X 4875   5.857   6.550  14.318
   38DOPE  C310 4876   5.666   6.400  14.380
   38DOPE  H10X 4877   5.622   6.490  14.450
   38DOPE  C311 4878   5.578   6.241  14.383
   38DOPE  H11X 4879   5.446   6.263  14.385
   38DOPE  H11Y 4880   5.602   6.167  14.293
   38DOPE  C312 4881   5.626   6.144  14.508
   38DOPE  H12X 4882   5.758   6.127  14.504
   38DOPE  H12Y 4883   5.569   6.023  14.507
   38DOPE  C313 4884   5.582   6.233  14.636
   38DOPE  H13X 4885   5.645   6.349  14.628
   38DOPE  H13Y 4886   5.452   6.254  14.642
   38DOPE  C314 4887   5.644   6.163  14.768
   38DOPE  H14X 4888   5.584   6.046  14.784
   38DOPE  H14Y 4889   5.609   6.240  14.854
   38DOPE  C315 4890   5.824   6.137  14.773
   38DOPE  H15X 4891   5.864   6.067  14.686
   38DOPE  H15Y 4892   5.832   6.058  14.860
   38DOPE  C316 4893   5.945   6.274  14.793
   38DOPE  H16X 4894   5.899   6.380  14.845
   38DOPE  H16Y 4895   5.995   6.311  14.694
   38DOPE  C317 4896   6.084   6.214  14.877
   38DOPE  H17X 4897   6.191   6.288  14.861
   38DOPE  H17Y 4898   6.055   6.220  14.984
   38DOPE  C318 4899   6.134   6.046  14.841
   38DOPE  H18X 4900   6.227   6.006  14.907
   38DOPE  H18Y 4901   6.044   5.952  14.860
   38DOPE  H18Z 4902   6.175   6.044  14.737
   39DOPE     N 4903   2.305   4.313  13.236
   39DOPE   HN1 4904   2.347   4.308  13.333
   39DOPE   HN2 4905   2.179   4.315  13.234
   39DOPE   HN3 4906   2.348   4.214  13.183
   39DOPE   C12 4907   2.356   4.462  13.164
   39DOPE  H12A 4908   2.486   4.465  13.151
   39DOPE  H12B 4909   2.311   4.561  13.226
   39DOPE   C11 4910   2.261   4.474  13.037
   39DOPE  H11A 4911   2.279   4.370  12.968
   39DOPE  H11B 4912   2.305   4.583  12.982
   39DOPE     P 4913   1.996   4.616  13.010
   39DOPE   O13 4914   1.836   4.620  13.069
   39DOPE   O14 4915   2.008   4.588  12.865
   39DOPE   O11 4916   2.093   4.771  13.043
   39DOPE   O12 4917   2.096   4.480  13.080
   39DOPE    C1 4918   2.030   4.924  13.002
   39DOPE    HA 4919   1.896   4.924  12.995
   39DOPE    HB 4920   2.080   4.955  12.902
   39DOPE    C2 4921   2.077   5.048  13.108
   39DOPE    HS 4922   2.051   5.168  13.068
   39DOPE   O21 4923   2.249   5.034  13.131
   39DOPE   C21 4924   2.316   5.022  13.249
   39DOPE   O22 4925   2.262   5.065  13.357
   39DOPE   C22 4926   2.477   4.936  13.236
   39DOPE   H2R 4927   2.575   5.016  13.268
   39DOPE   H2S 4928   2.491   4.901  13.129
   39DOPE    C3 4929   1.970   5.021  13.235
   39DOPE    HX 4930   1.842   5.023  13.202
   39DOPE    HY 4931   1.988   5.126  13.302
   39DOPE   O31 4932   2.004   4.870  13.300
   39DOPE   C31 4933   1.954   4.868  13.426
   39DOPE   O32 4934   1.878   4.976  13.478
   39DOPE   C32 4935   2.003   4.714  13.497
   39DOPE   H2X 4936   1.975   4.614  13.427
   39DOPE   H2Y 4937   2.134   4.716  13.516
   39DOPE   C23 4938   2.480   4.789  13.328
   39DOPE   H3R 4939   2.572   4.702  13.292
   39DOPE   H3S 4940   2.358   4.736  13.328
   39DOPE   C24 4941   2.512   4.823  13.477
   39DOPE   H4R 4942   2.417   4.904  13.516
   39DOPE   H4S 4943   2.629   4.884  13.489
   39DOPE   C25 4944   2.508   4.663  13.553
   39DOPE   H5R 4945   2.591   4.580  13.500
   39DOPE   H5S 4946   2.386   4.610  13.547
   39DOPE   C26 4947   2.564   4.673  13.698
   39DOPE   H6R 4948   2.628   4.788  13.717
   39DOPE   H6S 4949   2.656   4.576  13.710
   39DOPE   C27 4950   2.436   4.644  13.806
   39DOPE   H7R 4951   2.344   4.560  13.765
   39DOPE   H7S 4952   2.376   4.758  13.832
   39DOPE   C28 4953   2.514   4.561  13.928
   39DOPE   H8R 4954   2.622   4.628  13.960
   39DOPE   H8S 4955   2.562   4.450  13.885
   39DOPE   C29 4956   2.401   4.519  14.042
   39DOPE   H9R 4957   2.281   4.481  14.006
   39DOPE  C210 4958   2.426   4.518  14.175
   39DOPE  H10R 4959   2.327   4.480  14.240
   39DOPE  C211 4960   2.576   4.559  14.254
   39DOPE  H11R 4961   2.545   4.654  14.328
   39DOPE  H11S 4962   2.670   4.612  14.189
   39DOPE  C212 4963   2.657   4.421  14.333
   39DOPE  H12R 4964   2.744   4.472  14.405
   39DOPE  H12S 4965   2.729   4.352  14.258
   39DOPE  C213 4966   2.549   4.298  14.408
   39DOPE  H13R 4967   2.626   4.198  14.443
   39DOPE  H13S 4968   2.461   4.247  14.337
   39DOPE  C214 4969   2.454   4.361  14.529
   39DOPE  H14R 4970   2.356   4.272  14.548
   39DOPE  H14S 4971   2.394   4.475  14.500
   39DOPE  C215 4972   2.549   4.376  14.660
   39DOPE  H15R 4973   2.664   4.442  14.644
   39DOPE  H15S 4974   2.579   4.255  14.697
   39DOPE  C216 4975   2.449   4.466  14.767
   39DOPE  H16R 4976   2.500   4.446  14.868
   39DOPE  H16S 4977   2.324   4.420  14.764
   39DOPE  C217 4978   2.450   4.648  14.737
   39DOPE  H17R 4979   2.426   4.657  14.628
   39DOPE  H17S 4980   2.573   4.694  14.757
   39DOPE  C218 4981   2.329   4.756  14.805
   39DOPE  H18R 4982   2.311   4.867  14.747
   39DOPE  H18S 4983   2.374   4.790  14.906
   39DOPE  H18T 4984   2.210   4.698  14.814
   39DOPE   C33 4985   1.906   4.692  13.627
   39DOPE   H3X 4986   1.912   4.562  13.655
   39DOPE   H3Y 4987   1.778   4.724  13.604
   39DOPE   C34 4988   1.955   4.789  13.752
   39DOPE   H4X 4989   2.083   4.769  13.773
   39DOPE   H4Y 4990   1.937   4.920  13.733
   39DOPE   C35 4991   1.853   4.738  13.874
   39DOPE   H5X 4992   1.865   4.606  13.886
   39DOPE   H5Y 4993   1.724   4.765  13.854
   39DOPE   C36 4994   1.901   4.819  14.007
   39DOPE   H6X 4995   1.872   4.949  13.998
   39DOPE   H6Y 4996   2.033   4.808  14.021
   39DOPE   C37 4997   1.813   4.748  14.129
   39DOPE   H7X 4998   1.684   4.734  14.103
   39DOPE   H7Y 4999   1.861   4.626  14.150
   39DOPE   C38 5000   1.820   4.852  14.257
   39DOPE   H8X 5001   1.756   4.786  14.337
   39DOPE   H8Y 5002   1.747   4.962  14.240
   39DOPE   C39 5003   1.986   4.903  14.303
   39DOPE   H9X 5004   2.059   4.956  14.223
   39DOPE  C310 5005   2.058   4.879  14.423
   39DOPE  H10X 5006   2.182   4.921  14.434
   39DOPE  C311 5007   1.997   4.794  14.546
   39DOPE  H11X 5008   1.914   4.708  14.504
   39DOPE  H11Y 5009   2.105   4.728  14.578
   39DOPE  C312 5010   1.916   4.876  14.672
   39DOPE  H12X 5011   1.812   4.939  14.629
   39DOPE  H12Y 5012   2.008   4.964  14.710
   39DOPE  C313 5013   1.852   4.794  14.807
   39DOPE  H13X 5014   1.942   4.752  14.879
   39DOPE  H13Y 5015   1.831   4.920  14.841
   39DOPE  C314 5016   1.672   4.748  14.847
   39DOPE  H14X 5017   1.584   4.772  14.766
   39DOPE  H14Y 5018   1.639   4.842  14.924
   39DOPE  C315 5019   1.619   4.606  14.938
   39DOPE  H15X 5020   1.492   4.637  14.956
   39DOPE  H15Y 5021   1.676   4.619  15.037
   39DOPE  C316 5022   1.600   4.427  14.899
   39DOPE  H16X 5023   1.637   4.400  14.795
   39DOPE  H16Y 5024   1.468   4.399  14.903
   39DOPE  C317 5025   1.670   4.308  14.999
   39DOPE  H17X 5026   1.583   4.302  15.083
   39DOPE  H17Y 5027   1.673   4.187  14.950
   39DOPE  C318 5028   1.836   4.354  15.055
   39DOPE  H18X 5029   1.856   4.314  15.159
   39DOPE  H18Y 5030   1.931   4.304  14.992
   39DOPE  H18Z 5031   1.860   4.484  15.058
   40DOPE     N 5032   4.957   7.183  13.301
   40DOPE   HN1 5033   4.942   7.068  13.262
   40DOPE   HN2 5034   4.976   7.180  13.403
   40DOPE   HN3 5035   4.848   7.241  13.276
   40DOPE   C12 5036   5.093   7.255  13.222
   40DOPE  H12A 5037   5.192   7.168  13.223
   40DOPE  H12B 5038   5.130   7.368  13.271
   40DOPE   C11 5039   5.041   7.288  13.076
   40DOPE  H11A 5040   5.149   7.314  13.014
   40DOPE  H11B 5041   4.967   7.400  13.073
   40DOPE     P 5042   4.772   7.163  12.996
   40DOPE   O13 5043   4.705   7.007  12.958
   40DOPE   O14 5044   4.734   7.307  12.917
   40DOPE   O11 5045   4.720   7.195  13.144
   40DOPE   O12 5046   4.960   7.151  13.023
   40DOPE    C1 5047   4.585   7.116  13.201
   40DOPE    HA 5048   4.627   7.022  13.272
   40DOPE    HB 5049   4.505   7.056  13.126
   40DOPE    C2 5050   4.486   7.242  13.276
   40DOPE    HS 5051   4.404   7.298  13.200
   40DOPE   O21 5052   4.592   7.360  13.333
   40DOPE   C21 5053   4.512   7.488  13.374
   40DOPE   O22 5054   4.369   7.508  13.358
   40DOPE   C22 5055   4.626   7.607  13.441
   40DOPE   H2R 5056   4.550   7.687  13.503
   40DOPE   H2S 5057   4.678   7.681  13.359
   40DOPE    C3 5058   4.386   7.157  13.384
   40DOPE    HX 5059   4.315   7.061  13.332
   40DOPE    HY 5060   4.301   7.241  13.433
   40DOPE   O31 5061   4.498   7.092  13.480
   40DOPE   C31 5062   4.432   6.983  13.557
   40DOPE   O32 5063   4.295   6.932  13.545
   40DOPE   C32 5064   4.559   6.923  13.656
   40DOPE   H2X 5065   4.658   6.871  13.595
   40DOPE   H2Y 5066   4.606   7.024  13.716
   40DOPE   C23 5067   4.763   7.532  13.525
   40DOPE   H3R 5068   4.866   7.619  13.522
   40DOPE   H3S 5069   4.806   7.417  13.483
   40DOPE   C24 5070   4.721   7.511  13.674
   40DOPE   H4R 5071   4.687   7.630  13.715
   40DOPE   H4S 5072   4.830   7.470  13.728
   40DOPE   C25 5073   4.584   7.391  13.700
   40DOPE   H5R 5074   4.608   7.279  13.642
   40DOPE   H5S 5075   4.470   7.444  13.663
   40DOPE   C26 5076   4.565   7.346  13.848
   40DOPE   H6R 5077   4.660   7.259  13.875
   40DOPE   H6S 5078   4.446   7.288  13.862
   40DOPE   C27 5079   4.580   7.492  13.941
   40DOPE   H7R 5080   4.526   7.596  13.889
   40DOPE   H7S 5081   4.709   7.519  13.960
   40DOPE   C28 5082   4.489   7.476  14.075
   40DOPE   H8R 5083   4.368   7.433  14.050
   40DOPE   H8S 5084   4.472   7.600  14.115
   40DOPE   C29 5085   4.556   7.368  14.181
   40DOPE   H9R 5086   4.522   7.242  14.171
   40DOPE  C210 5087   4.652   7.414  14.282
   40DOPE  H10R 5088   4.688   7.322  14.356
   40DOPE  C211 5089   4.711   7.582  14.310
   40DOPE  H11R 5090   4.682   7.616  14.414
   40DOPE  H11S 5091   4.654   7.672  14.244
   40DOPE  C212 5092   4.895   7.594  14.287
   40DOPE  H12R 5093   4.933   7.720  14.302
   40DOPE  H12S 5094   4.921   7.561  14.181
   40DOPE  C213 5095   4.996   7.487  14.379
   40DOPE  H13R 5096   5.125   7.499  14.355
   40DOPE  H13S 5097   4.962   7.363  14.358
   40DOPE  C214 5098   4.967   7.513  14.528
   40DOPE  H14R 5099   4.840   7.482  14.553
   40DOPE  H14S 5100   4.987   7.642  14.551
   40DOPE  C215 5101   5.075   7.409  14.616
   40DOPE  H15R 5102   5.203   7.427  14.587
   40DOPE  H15S 5103   5.047   7.280  14.599
   40DOPE  C216 5104   5.051   7.452  14.763
   40DOPE  H16R 5105   4.921   7.438  14.789
   40DOPE  H16S 5106   5.082   7.580  14.777
   40DOPE  C217 5107   5.150   7.351  14.859
   40DOPE  H17R 5108   5.158   7.416  14.956
   40DOPE  H17S 5109   5.275   7.342  14.819
   40DOPE  C218 5110   5.082   7.183  14.884
   40DOPE  H18R 5111   5.141   7.121  14.968
   40DOPE  H18S 5112   5.104   7.106  14.796
   40DOPE  H18T 5113   4.952   7.188  14.908
   40DOPE   C33 5114   4.494   6.790  13.748
   40DOPE   H3X 5115   4.591   6.713  13.787
   40DOPE   H3Y 5116   4.411   6.716  13.685
   40DOPE   C34 5117   4.391   6.850  13.863
   40DOPE   H4X 5118   4.334   6.966  13.835
   40DOPE   H4Y 5119   4.294   6.758  13.876
   40DOPE   C35 5120   4.463   6.858  14.002
   40DOPE   H5X 5121   4.477   6.734  14.042
   40DOPE   H5Y 5122   4.370   6.917  14.065
   40DOPE   C36 5123   4.619   6.948  14.027
   40DOPE   H6X 5124   4.612   7.074  13.993
   40DOPE   H6Y 5125   4.721   6.889  13.976
   40DOPE   C37 5126   4.622   6.949  14.179
   40DOPE   H7X 5127   4.522   7.025  14.215
   40DOPE   H7Y 5128   4.590   6.823  14.213
   40DOPE   C38 5129   4.775   6.977  14.261
   40DOPE   H8X 5130   4.846   6.875  14.236
   40DOPE   H8Y 5131   4.718   6.953  14.358
   40DOPE   C39 5132   4.908   7.094  14.276
   40DOPE   H9X 5133   4.907   7.201  14.210
   40DOPE  C310 5134   5.028   7.068  14.365
   40DOPE  H10X 5135   5.135   7.146  14.365
   40DOPE  C311 5136   5.044   6.923  14.457
   40DOPE  H11X 5137   5.008   6.812  14.404
   40DOPE  H11Y 5138   5.173   6.905  14.481
   40DOPE  C312 5139   4.954   6.925  14.594
   40DOPE  H12X 5140   4.988   7.037  14.645
   40DOPE  H12Y 5141   4.994   6.822  14.656
   40DOPE  C313 5142   4.770   6.926  14.586
   40DOPE  H13X 5143   4.739   7.036  14.528
   40DOPE  H13Y 5144   4.727   6.817  14.533
   40DOPE  C314 5145   4.674   6.950  14.714
   40DOPE  H14X 5146   4.726   6.883  14.800
   40DOPE  H14Y 5147   4.550   6.904  14.697
   40DOPE  C315 5148   4.661   7.129  14.742
   40DOPE  H15X 5149   4.603   7.190  14.655
   40DOPE  H15Y 5150   4.783   7.181  14.752
   40DOPE  C316 5151   4.562   7.165  14.867
   40DOPE  H16X 5152   4.613   7.096  14.953
   40DOPE  H16Y 5153   4.438   7.123  14.850
   40DOPE  C317 5154   4.562   7.344  14.900
   40DOPE  H17X 5155   4.686   7.382  14.928
   40DOPE  H17Y 5156   4.530   7.412  14.808
   40DOPE  C318 5157   4.445   7.384  15.012
   40DOPE  H18X 5158   4.420   7.514  15.016
   40DOPE  H18Y 5159   4.328   7.320  14.994
   40DOPE  H18Z 5160   4.493   7.342  15.110
   41DOPE     N 5161   2.437   6.028  13.167
   41DOPE   HN1 5162   2.507   6.109  13.224
   41DOPE   HN2 5163   2.500   5.922  13.146
   41DOPE   HN3 5164   2.404   6.085  13.079
   41DOPE   C12 5165   2.282   5.998  13.239
   41DOPE  H12A 5166   2.248   6.112  13.290
   41DOPE  H12B 5167   2.304   5.906  13.317
   41DOPE   C11 5168   2.148   5.944  13.140
   41DOPE  H11A 5169   2.030   5.945  13.195
   41DOPE  H11B 5170   2.176   5.816  13.115
   41DOPE     P 5171   2.071   6.205  13.010
   41DOPE   O13 5172   1.918   6.220  13.082
   41DOPE   O14 5173   2.092   6.283  12.878
   41DOPE   O11 5174   2.213   6.269  13.100
   41DOPE   O12 5175   2.136   6.028  13.015
   41DOPE    C1 5176   2.336   6.379  13.068
   41DOPE    HA 5177   2.329   6.418  12.961
   41DOPE    HB 5178   2.458   6.325  13.080
   41DOPE    C2 5179   2.317   6.533  13.155
   41DOPE    HS 5180   2.359   6.636  13.093
   41DOPE   O21 5181   2.398   6.545  13.282
   41DOPE   C21 5182   2.446   6.420  13.348
   41DOPE   O22 5183   2.524   6.306  13.304
   41DOPE   C22 5184   2.383   6.437  13.489
   41DOPE   H2R 5185   2.252   6.454  13.481
   41DOPE   H2S 5186   2.438   6.548  13.531
   41DOPE    C3 5187   2.138   6.554  13.186
   41DOPE    HX 5188   2.076   6.520  13.093
   41DOPE    HY 5189   2.111   6.684  13.201
   41DOPE   O31 5190   2.077   6.451  13.292
   41DOPE   C31 5191   1.954   6.517  13.354
   41DOPE   O32 5192   1.916   6.658  13.348
   41DOPE   C32 5193   1.855   6.412  13.442
   41DOPE   H2X 5194   1.873   6.455  13.546
   41DOPE   H2Y 5195   1.728   6.439  13.413
   41DOPE   C23 5196   2.420   6.292  13.579
   41DOPE   H3R 5197   2.554   6.277  13.584
   41DOPE   H3S 5198   2.370   6.179  13.536
   41DOPE   C24 5199   2.358   6.308  13.723
   41DOPE   H4R 5200   2.225   6.304  13.727
   41DOPE   H4S 5201   2.398   6.427  13.762
   41DOPE   C25 5202   2.434   6.175  13.807
   41DOPE   H5R 5203   2.566   6.188  13.794
   41DOPE   H5S 5204   2.398   6.058  13.763
   41DOPE   C26 5205   2.402   6.169  13.957
   41DOPE   H6R 5206   2.291   6.235  13.985
   41DOPE   H6S 5207   2.504   6.230  14.007
   41DOPE   C27 5208   2.392   5.995  14.009
   41DOPE   H7R 5209   2.491   5.920  13.971
   41DOPE   H7S 5210   2.280   5.944  13.965
   41DOPE   C28 5211   2.380   5.980  14.162
   41DOPE   H8R 5212   2.324   5.862  14.187
   41DOPE   H8S 5213   2.292   6.073  14.190
   41DOPE   C29 5214   2.521   6.006  14.252
   41DOPE   H9R 5215   2.590   5.898  14.282
   41DOPE  C210 5216   2.576   6.149  14.293
   41DOPE  H10R 5217   2.681   6.151  14.360
   41DOPE  C211 5218   2.507   6.310  14.256
   41DOPE  H11R 5219   2.398   6.299  14.194
   41DOPE  H11S 5220   2.597   6.379  14.197
   41DOPE  C212 5221   2.459   6.407  14.379
   41DOPE  H12R 5222   2.380   6.331  14.441
   41DOPE  H12S 5223   2.384   6.510  14.348
   41DOPE  C213 5224   2.606   6.466  14.457
   41DOPE  H13R 5225   2.684   6.536  14.388
   41DOPE  H13S 5226   2.677   6.360  14.489
   41DOPE  C214 5227   2.567   6.565  14.582
   41DOPE  H14R 5228   2.522   6.686  14.555
   41DOPE  H14S 5229   2.678   6.578  14.642
   41DOPE  C215 5230   2.435   6.488  14.666
   41DOPE  H15R 5231   2.435   6.359  14.645
   41DOPE  H15S 5232   2.318   6.535  14.631
   41DOPE  C216 5233   2.460   6.508  14.816
   41DOPE  H16R 5234   2.488   6.636  14.834
   41DOPE  H16S 5235   2.569   6.439  14.846
   41DOPE  C217 5236   2.317   6.450  14.903
   41DOPE  H17R 5237   2.342   6.481  15.009
   41DOPE  H17S 5238   2.316   6.317  14.896
   41DOPE  C218 5239   2.149   6.512  14.866
   41DOPE  H18R 5240   2.136   6.641  14.892
   41DOPE  H18S 5241   2.056   6.444  14.922
   41DOPE  H18T 5242   2.124   6.498  14.758
   41DOPE   C33 5243   1.870   6.229  13.441
   41DOPE   H3X 5244   1.984   6.193  13.491
   41DOPE   H3Y 5245   1.868   6.173  13.341
   41DOPE   C34 5246   1.718   6.182  13.519
   41DOPE   H4X 5247   1.687   6.277  13.593
   41DOPE   H4Y 5248   1.615   6.175  13.448
   41DOPE   C35 5249   1.739   6.025  13.591
   41DOPE   H5X 5250   1.762   5.953  13.502
   41DOPE   H5Y 5251   1.626   5.984  13.641
   41DOPE   C36 5252   1.879   6.020  13.687
   41DOPE   H6X 5253   1.997   6.014  13.635
   41DOPE   H6Y 5254   1.872   5.906  13.745
   41DOPE   C37 5255   1.874   6.170  13.777
   41DOPE   H7X 5256   1.937   6.271  13.726
   41DOPE   H7Y 5257   1.747   6.209  13.792
   41DOPE   C38 5258   1.944   6.139  13.915
   41DOPE   H8X 5259   1.949   6.252  13.973
   41DOPE   H8Y 5260   2.070   6.095  13.903
   41DOPE   C39 5261   1.835   6.016  13.976
   41DOPE   H9X 5262   1.727   5.983  13.919
   41DOPE  C310 5263   1.860   5.942  14.092
   41DOPE  H10X 5264   1.778   5.849  14.129
   41DOPE  C311 5265   2.004   5.980  14.174
   41DOPE  H11X 5266   2.087   5.876  14.172
   41DOPE  H11Y 5267   2.068   6.088  14.136
   41DOPE  C312 5268   1.952   6.018  14.316
   41DOPE  H12X 5269   1.891   5.912  14.362
   41DOPE  H12Y 5270   1.870   6.124  14.316
   41DOPE  C313 5271   2.099   6.061  14.400
   41DOPE  H13X 5272   2.188   5.962  14.391
   41DOPE  H13Y 5273   2.156   6.172  14.359
   41DOPE  C314 5274   2.056   6.089  14.546
   41DOPE  H14X 5275   2.016   5.972  14.589
   41DOPE  H14Y 5276   1.954   6.174  14.552
   41DOPE  C315 5277   2.198   6.152  14.625
   41DOPE  H15X 5278   2.170   6.155  14.733
   41DOPE  H15Y 5279   2.215   6.278  14.592
   41DOPE  C316 5280   2.348   6.050  14.598
   41DOPE  H16X 5281   2.395   6.076  14.496
   41DOPE  H16Y 5282   2.306   5.923  14.595
   41DOPE  C317 5283   2.491   6.058  14.695
   41DOPE  H17X 5284   2.561   6.170  14.684
   41DOPE  H17Y 5285   2.447   6.050  14.800
   41DOPE  C318 5286   2.609   5.921  14.668
   41DOPE  H18X 5287   2.542   5.808  14.666
   41DOPE  H18Y 5288   2.666   5.934  14.569
   41DOPE  H18Z 5289   2.700   5.906  14.747
   42DOPE     N 5290   1.944   5.370  12.916
   42DOPE   HN1 5291   1.891   5.267  12.954
   42DOPE   HN2 5292   1.902   5.382  12.818
   42DOPE   HN3 5293   2.070   5.359  12.918
   42DOPE   C12 5294   1.885   5.506  13.001
   42DOPE  H12A 5295   1.940   5.618  12.964
   42DOPE  H12B 5296   1.925   5.483  13.106
   42DOPE   C11 5297   1.702   5.513  12.995
   42DOPE  H11A 5298   1.666   5.566  12.897
   42DOPE  H11B 5299   1.662   5.600  13.073
   42DOPE     P 5300   1.513   5.311  13.128
   42DOPE   O13 5301   1.618   5.278  13.244
   42DOPE   O14 5302   1.396   5.190  13.082
   42DOPE   O11 5303   1.432   5.478  13.151
   42DOPE   O12 5304   1.631   5.356  13.008
   42DOPE    C1 5305   1.328   5.563  13.063
   42DOPE    HA 5306   1.249   5.479  13.007
   42DOPE    HB 5307   1.400   5.630  12.989
   42DOPE    C2 5308   1.222   5.683  13.142
   42DOPE    HS 5309   1.156   5.761  13.071
   42DOPE   O21 5310   1.308   5.782  13.235
   42DOPE   C21 5311   1.444   5.846  13.202
   42DOPE   O22 5312   1.481   5.899  13.092
   42DOPE   C22 5313   1.547   5.851  13.330
   42DOPE   H2R 5314   1.464   5.861  13.417
   42DOPE   H2S 5315   1.621   5.960  13.325
   42DOPE    C3 5316   1.099   5.594  13.229
   42DOPE    HX 5317   1.013   5.534  13.160
   42DOPE    HY 5318   1.028   5.680  13.292
   42DOPE   O31 5319   1.177   5.472  13.307
   42DOPE   C31 5320   1.234   5.510  13.426
   42DOPE   O32 5321   1.224   5.641  13.479
   42DOPE   C32 5322   1.294   5.357  13.494
   42DOPE   H2X 5323   1.193   5.304  13.552
   42DOPE   H2Y 5324   1.328   5.269  13.415
   42DOPE   C23 5325   1.651   5.696  13.341
   42DOPE   H3R 5326   1.745   5.701  13.263
   42DOPE   H3S 5327   1.572   5.592  13.323
   42DOPE   C24 5328   1.730   5.659  13.476
   42DOPE   H4R 5329   1.638   5.653  13.555
   42DOPE   H4S 5330   1.819   5.749  13.507
   42DOPE   C25 5331   1.843   5.514  13.479
   42DOPE   H5R 5332   1.921   5.521  13.389
   42DOPE   H5S 5333   1.777   5.399  13.474
   42DOPE   C26 5334   1.952   5.524  13.603
   42DOPE   H6R 5335   2.036   5.626  13.589
   42DOPE   H6S 5336   2.023   5.412  13.607
   42DOPE   C27 5337   1.864   5.552  13.736
   42DOPE   H7R 5338   1.781   5.450  13.754
   42DOPE   H7S 5339   1.788   5.663  13.731
   42DOPE   C28 5340   1.978   5.574  13.855
   42DOPE   H8R 5341   1.907   5.606  13.945
   42DOPE   H8S 5342   2.062   5.675  13.837
   42DOPE   C29 5343   2.066   5.418  13.869
   42DOPE   H9R 5344   2.164   5.398  13.798
   42DOPE  C210 5345   2.026   5.299  13.953
   42DOPE  H10R 5346   2.094   5.186  13.951
   42DOPE  C211 5347   1.884   5.302  14.046
   42DOPE  H11R 5348   1.810   5.192  14.033
   42DOPE  H11S 5349   1.802   5.406  14.031
   42DOPE  C212 5350   1.950   5.310  14.188
   42DOPE  H12R 5351   2.027   5.418  14.203
   42DOPE  H12S 5352   2.027   5.203  14.208
   42DOPE  C213 5353   1.816   5.316  14.290
   42DOPE  H13R 5354   1.723   5.224  14.265
   42DOPE  H13S 5355   1.756   5.435  14.286
   42DOPE  C214 5356   1.879   5.285  14.431
   42DOPE  H14R 5357   1.955   5.387  14.464
   42DOPE  H14S 5358   1.956   5.177  14.431
   42DOPE  C215 5359   1.744   5.258  14.530
   42DOPE  H15R 5360   1.670   5.153  14.499
   42DOPE  H15S 5361   1.666   5.365  14.529
   42DOPE  C216 5362   1.810   5.236  14.671
   42DOPE  H16R 5363   1.937   5.200  14.665
   42DOPE  H16S 5364   1.740   5.136  14.720
   42DOPE  C217 5365   1.784   5.382  14.759
   42DOPE  H17R 5366   1.774   5.491  14.696
   42DOPE  H17S 5367   1.885   5.401  14.830
   42DOPE  C218 5368   1.630   5.353  14.835
   42DOPE  H18R 5369   1.637   5.272  14.921
   42DOPE  H18S 5370   1.549   5.288  14.764
   42DOPE  H18T 5371   1.571   5.466  14.865
   42DOPE   C33 5372   1.439   5.384  13.586
   42DOPE   H3X 5373   1.538   5.422  13.519
   42DOPE   H3Y 5374   1.476   5.268  13.630
   42DOPE   C34 5375   1.417   5.507  13.700
   42DOPE   H4X 5376   1.530   5.510  13.759
   42DOPE   H4Y 5377   1.402   5.630  13.659
   42DOPE   C35 5378   1.277   5.470  13.792
   42DOPE   H5X 5379   1.303   5.357  13.846
   42DOPE   H5Y 5380   1.168   5.447  13.730
   42DOPE   C36 5381   1.232   5.605  13.890
   42DOPE   H6X 5382   1.147   5.555  13.964
   42DOPE   H6Y 5383   1.165   5.698  13.832
   42DOPE   C37 5384   1.369   5.694  13.963
   42DOPE   H7X 5385   1.439   5.765  13.889
   42DOPE   H7Y 5386   1.310   5.782  14.032
   42DOPE   C38 5387   1.487   5.590  14.044
   42DOPE   H8X 5388   1.554   5.668  14.115
   42DOPE   H8Y 5389   1.577   5.539  13.974
   42DOPE   C39 5390   1.403   5.453  14.115
   42DOPE   H9X 5391   1.355   5.362  14.046
   42DOPE  C310 5392   1.387   5.423  14.246
   42DOPE  H10X 5393   1.324   5.312  14.274
   42DOPE  C311 5394   1.446   5.515  14.365
   42DOPE  H11X 5395   1.471   5.420  14.439
   42DOPE  H11Y 5396   1.560   5.580  14.347
   42DOPE  C312 5397   1.326   5.628  14.434
   42DOPE  H12X 5398   1.213   5.560  14.446
   42DOPE  H12Y 5399   1.303   5.737  14.373
   42DOPE  C313 5400   1.370   5.672  14.578
   42DOPE  H13X 5401   1.488   5.734  14.578
   42DOPE  H13Y 5402   1.280   5.754  14.621
   42DOPE  C314 5403   1.382   5.527  14.671
   42DOPE  H14X 5404   1.369   5.569  14.776
   42DOPE  H14Y 5405   1.504   5.482  14.649
   42DOPE  C315 5406   1.266   5.387  14.654
   42DOPE  H15X 5407   1.294   5.314  14.565
   42DOPE  H15Y 5408   1.151   5.452  14.641
   42DOPE  C316 5409   1.247   5.278  14.778
   42DOPE  H16X 5410   1.138   5.320  14.829
   42DOPE  H16Y 5411   1.340   5.305  14.851
   42DOPE  C317 5412   1.248   5.093  14.761
   42DOPE  H17X 5413   1.160   5.051  14.687
   42DOPE  H17Y 5414   1.368   5.054  14.725
   42DOPE  C318 5415   1.205   5.000  14.888
   42DOPE  H18X 5416   1.170   4.876  14.862
   42DOPE  H18Y 5417   1.307   4.999  14.960
   42DOPE  H18Z 5418   1.102   5.057  14.939
   43DOPE     N 5419   1.585   4.117  13.115
   43DOPE   HN1 5420   1.475   4.171  13.098
   43DOPE   HN2 5421   1.579   4.060  13.207
   43DOPE   HN3 5422   1.668   4.211  13.120
   43DOPE   C12 5423   1.628   4.000  13.006
   43DOPE  H12A 5424   1.741   3.937  13.037
   43DOPE  H12B 5425   1.655   4.069  12.915
   43DOPE   C11 5426   1.495   3.876  12.978
   43DOPE  H11A 5427   1.526   3.809  12.885
   43DOPE  H11B 5428   1.382   3.940  12.952
   43DOPE     P 5429   1.555   3.601  13.099
   43DOPE   O13 5430   1.685   3.617  13.200
   43DOPE   O14 5431   1.601   3.552  12.962
   43DOPE   O11 5432   1.417   3.487  13.150
   43DOPE   O12 5433   1.466   3.772  13.090
   43DOPE    C1 5434   1.286   3.542  13.230
   43DOPE    HA 5435   1.213   3.436  13.258
   43DOPE    HB 5436   1.207   3.624  13.173
   43DOPE    C2 5437   1.331   3.626  13.366
   43DOPE    HS 5438   1.388   3.743  13.340
   43DOPE   O21 5439   1.435   3.524  13.443
   43DOPE   C21 5440   1.556   3.599  13.503
   43DOPE   O22 5441   1.580   3.743  13.505
   43DOPE   C22 5442   1.664   3.478  13.575
   43DOPE   H2R 5443   1.762   3.546  13.625
   43DOPE   H2S 5444   1.718   3.401  13.496
   43DOPE    C3 5445   1.170   3.662  13.442
   43DOPE    HX 5446   1.105   3.545  13.440
   43DOPE    HY 5447   1.099   3.750  13.384
   43DOPE   O31 5448   1.194   3.720  13.576
   43DOPE   C31 5449   1.074   3.679  13.659
   43DOPE   O32 5450   0.954   3.606  13.626
   43DOPE   C32 5451   1.121   3.719  13.802
   43DOPE   H2X 5452   1.163   3.604  13.845
   43DOPE   H2Y 5453   1.222   3.805  13.802
   43DOPE   C23 5454   1.578   3.371  13.679
   43DOPE   H3R 5455   1.666   3.281  13.716
   43DOPE   H3S 5456   1.477   3.304  13.632
   43DOPE   C24 5457   1.514   3.461  13.802
   43DOPE   H4R 5458   1.410   3.536  13.771
   43DOPE   H4S 5459   1.607   3.542  13.845
   43DOPE   C25 5460   1.463   3.341  13.909
   43DOPE   H5R 5461   1.572   3.304  13.965
   43DOPE   H5S 5462   1.414   3.232  13.861
   43DOPE   C26 5463   1.336   3.404  14.006
   43DOPE   H6R 5464   1.214   3.366  13.973
   43DOPE   H6S 5465   1.339   3.538  14.007
   43DOPE   C27 5466   1.370   3.344  14.147
   43DOPE   H7R 5467   1.411   3.217  14.139
   43DOPE   H7S 5468   1.260   3.349  14.210
   43DOPE   C28 5469   1.501   3.444  14.212
   43DOPE   H8R 5470   1.450   3.565  14.231
   43DOPE   H8S 5471   1.601   3.461  14.139
   43DOPE   C29 5472   1.566   3.370  14.337
   43DOPE   H9R 5473   1.528   3.246  14.361
   43DOPE  C210 5474   1.664   3.449  14.419
   43DOPE  H10R 5475   1.704   3.392  14.512
   43DOPE  C211 5476   1.720   3.619  14.395
   43DOPE  H11R 5477   1.656   3.680  14.312
   43DOPE  H11S 5478   1.849   3.623  14.369
   43DOPE  C212 5479   1.690   3.713  14.523
   43DOPE  H12R 5480   1.568   3.695  14.567
   43DOPE  H12S 5481   1.708   3.844  14.501
   43DOPE  C213 5482   1.807   3.672  14.630
   43DOPE  H13R 5483   1.922   3.695  14.579
   43DOPE  H13S 5484   1.804   3.545  14.662
   43DOPE  C214 5485   1.793   3.787  14.745
   43DOPE  H14R 5486   1.738   3.901  14.709
   43DOPE  H14S 5487   1.918   3.817  14.771
   43DOPE  C215 5488   1.702   3.720  14.864
   43DOPE  H15R 5489   1.584   3.671  14.830
   43DOPE  H15S 5490   1.675   3.823  14.932
   43DOPE  C216 5491   1.796   3.592  14.941
   43DOPE  H16R 5492   1.926   3.617  14.936
   43DOPE  H16S 5493   1.778   3.474  14.891
   43DOPE  C217 5494   1.747   3.582  15.089
   43DOPE  H17R 5495   1.649   3.670  15.103
   43DOPE  H17S 5496   1.846   3.629  15.153
   43DOPE  C218 5497   1.709   3.412  15.140
   43DOPE  H18R 5498   1.584   3.386  15.168
   43DOPE  H18S 5499   1.784   3.384  15.229
   43DOPE  H18T 5500   1.740   3.324  15.061
   43DOPE   C33 5501   0.980   3.782  13.889
   43DOPE   H3X 5502   0.864   3.731  13.855
   43DOPE   H3Y 5503   0.973   3.914  13.878
   43DOPE   C34 5504   1.002   3.738  14.037
   43DOPE   H4X 5505   0.899   3.785  14.096
   43DOPE   H4Y 5506   1.008   3.606  14.048
   43DOPE   C35 5507   1.154   3.814  14.091
   43DOPE   H5X 5508   1.150   3.944  14.073
   43DOPE   H5Y 5509   1.262   3.769  14.038
   43DOPE   C36 5510   1.180   3.787  14.241
   43DOPE   H6X 5511   1.201   3.659  14.264
   43DOPE   H6Y 5512   1.073   3.827  14.299
   43DOPE   C37 5513   1.322   3.892  14.277
   43DOPE   H7X 5514   1.420   3.868  14.202
   43DOPE   H7Y 5515   1.286   4.018  14.268
   43DOPE   C38 5516   1.393   3.868  14.414
   43DOPE   H8X 5517   1.512   3.928  14.411
   43DOPE   H8Y 5518   1.414   3.737  14.419
   43DOPE   C39 5519   1.306   3.932  14.532
   43DOPE   H9X 5520   1.302   4.063  14.541
   43DOPE  C310 5521   1.237   3.841  14.627
   43DOPE  H10X 5522   1.190   3.904  14.714
   43DOPE  C311 5523   1.235   3.661  14.634
   43DOPE  H11X 5524   1.316   3.604  14.560
   43DOPE  H11Y 5525   1.279   3.624  14.732
   43DOPE  C312 5526   1.067   3.588  14.611
   43DOPE  H12X 5527   1.020   3.638  14.515
   43DOPE  H12Y 5528   0.983   3.624  14.692
   43DOPE  C313 5529   1.069   3.404  14.599
   43DOPE  H13X 5530   0.958   3.366  14.547
   43DOPE  H13Y 5531   1.171   3.368  14.533
   43DOPE  C314 5532   1.081   3.313  14.733
   43DOPE  H14X 5533   0.980   3.226  14.740
   43DOPE  H14Y 5534   1.064   3.400  14.817
   43DOPE  C315 5535   1.243   3.226  14.747
   43DOPE  H15X 5536   1.338   3.316  14.726
   43DOPE  H15Y 5537   1.250   3.136  14.665
   43DOPE  C316 5538   1.274   3.142  14.882
   43DOPE  H16X 5539   1.226   3.018  14.876
   43DOPE  H16Y 5540   1.205   3.196  14.964
   43DOPE  C317 5541   1.451   3.116  14.927
   43DOPE  H17X 5542   1.457   3.143  15.037
   43DOPE  H17Y 5543   1.481   2.987  14.916
   43DOPE  C318 5544   1.580   3.211  14.855
   43DOPE  H18X 5545   1.700   3.169  14.890
   43DOPE  H18Y 5546   1.573   3.194  14.745
   43DOPE  H18Z 5547   1.568   3.341  14.878
   44DOPE     N 5548   3.835   1.534  13.140
   44DOPE   HN1 5549   3.900   1.628  13.098
   44DOPE   HN2 5550   3.715   1.542  13.111
   44DOPE   HN3 5551   3.840   1.541  13.243
   44DOPE   C12 5552   3.908   1.375  13.096
   44DOPE  H12A 5553   3.980   1.325  13.179
   44DOPE  H12B 5554   3.989   1.398  13.010
   44DOPE   C11 5555   3.774   1.260  13.055
   44DOPE  H11A 5556   3.694   1.318  12.980
   44DOPE  H11B 5557   3.698   1.236  13.146
   44DOPE     P 5558   3.833   0.960  13.082
   44DOPE   O13 5559   3.912   0.821  13.018
   44DOPE   O14 5560   3.664   0.944  13.124
   44DOPE   O11 5561   3.938   1.016  13.206
   44DOPE   O12 5562   3.842   1.120  12.994
   44DOPE    C1 5563   3.983   0.904  13.306
   44DOPE    HA 5564   4.078   0.959  13.369
   44DOPE    HB 5565   4.034   0.792  13.262
   44DOPE    C2 5566   3.841   0.859  13.400
   44DOPE    HS 5567   3.768   0.768  13.344
   44DOPE   O21 5568   3.746   1.001  13.425
   44DOPE   C21 5569   3.601   0.973  13.467
   44DOPE   O22 5570   3.523   0.851  13.456
   44DOPE   C22 5571   3.554   1.120  13.552
   44DOPE   H2R 5572   3.439   1.092  13.601
   44DOPE   H2S 5573   3.539   1.223  13.484
   44DOPE    C3 5574   3.899   0.785  13.534
   44DOPE    HX 5575   4.013   0.722  13.511
   44DOPE    HY 5576   3.806   0.696  13.566
   44DOPE   O31 5577   3.935   0.902  13.636
   44DOPE   C31 5578   3.928   0.850  13.762
   44DOPE   O32 5579   3.889   0.715  13.796
   44DOPE   C32 5580   3.977   0.984  13.858
   44DOPE   H2X 5581   4.018   1.086  13.797
   44DOPE   H2Y 5582   3.870   1.022  13.915
   44DOPE   C23 5583   3.684   1.159  13.659
   44DOPE   H3R 5584   3.803   1.177  13.610
   44DOPE   H3S 5585   3.695   1.057  13.730
   44DOPE   C24 5586   3.647   1.309  13.740
   44DOPE   H4R 5587   3.575   1.278  13.828
   44DOPE   H4S 5588   3.560   1.370  13.676
   44DOPE   C25 5589   3.793   1.420  13.770
   44DOPE   H5R 5590   3.756   1.547  13.778
   44DOPE   H5S 5591   3.880   1.415  13.685
   44DOPE   C26 5592   3.881   1.394  13.904
   44DOPE   H6R 5593   3.966   1.495  13.920
   44DOPE   H6S 5594   3.954   1.285  13.897
   44DOPE   C27 5595   3.768   1.382  14.025
   44DOPE   H7R 5596   3.662   1.308  13.999
   44DOPE   H7S 5597   3.722   1.504  14.052
   44DOPE   C28 5598   3.846   1.298  14.144
   44DOPE   H8R 5599   3.928   1.384  14.196
   44DOPE   H8S 5600   3.920   1.200  14.104
   44DOPE   C29 5601   3.722   1.226  14.236
   44DOPE   H9R 5602   3.691   1.100  14.216
   44DOPE  C210 5603   3.646   1.306  14.333
   44DOPE  H10R 5604   3.558   1.242  14.396
   44DOPE  C211 5605   3.672   1.480  14.367
   44DOPE  H11R 5606   3.557   1.546  14.366
   44DOPE  H11S 5607   3.754   1.538  14.294
   44DOPE  C212 5608   3.750   1.495  14.505
   44DOPE  H12R 5609   3.797   1.619  14.521
   44DOPE  H12S 5610   3.856   1.415  14.510
   44DOPE  C213 5611   3.635   1.454  14.619
   44DOPE  H13R 5612   3.540   1.370  14.582
   44DOPE  H13S 5613   3.576   1.566  14.651
   44DOPE  C214 5614   3.721   1.374  14.736
   44DOPE  H14R 5615   3.794   1.465  14.789
   44DOPE  H14S 5616   3.798   1.283  14.692
   44DOPE  C215 5617   3.611   1.285  14.832
   44DOPE  H15R 5618   3.512   1.373  14.838
   44DOPE  H15S 5619   3.671   1.272  14.930
   44DOPE  C216 5620   3.539   1.123  14.786
   44DOPE  H16R 5621   3.588   1.020  14.842
   44DOPE  H16S 5622   3.570   1.108  14.678
   44DOPE  C217 5623   3.355   1.127  14.793
   44DOPE  H17R 5624   3.301   1.050  14.714
   44DOPE  H17S 5625   3.325   1.252  14.769
   44DOPE  C218 5626   3.269   1.092  14.924
   44DOPE  H18R 5627   3.288   0.966  14.956
   44DOPE  H18S 5628   3.139   1.110  14.908
   44DOPE  H18T 5629   3.304   1.175  15.006
   44DOPE   C33 5630   4.110   0.926  13.955
   44DOPE   H3X 5631   4.196   0.852  13.897
   44DOPE   H3Y 5632   4.051   0.847  14.030
   44DOPE   C34 5633   4.211   1.050  14.033
   44DOPE   H4X 5634   4.132   1.104  14.110
   44DOPE   H4Y 5635   4.304   0.983  14.090
   44DOPE   C35 5636   4.295   1.182  13.952
   44DOPE   H5X 5637   4.205   1.250  13.893
   44DOPE   H5Y 5638   4.381   1.129  13.880
   44DOPE   C36 5639   4.390   1.303  14.037
   44DOPE   H6X 5640   4.457   1.386  13.969
   44DOPE   H6Y 5641   4.477   1.242  14.102
   44DOPE   C37 5642   4.272   1.398  14.122
   44DOPE   H7X 5643   4.180   1.451  14.053
   44DOPE   H7Y 5644   4.208   1.312  14.188
   44DOPE   C38 5645   4.345   1.530  14.208
   44DOPE   H8X 5646   4.404   1.621  14.144
   44DOPE   H8Y 5647   4.440   1.480  14.274
   44DOPE   C39 5648   4.205   1.596  14.287
   44DOPE   H9X 5649   4.140   1.696  14.240
   44DOPE  C310 5650   4.150   1.535  14.401
   44DOPE  H10X 5651   4.043   1.588  14.448
   44DOPE  C311 5652   4.222   1.388  14.466
   44DOPE  H11X 5653   4.321   1.343  14.404
   44DOPE  H11Y 5654   4.274   1.423  14.564
   44DOPE  C312 5655   4.115   1.241  14.486
   44DOPE  H12X 5656   4.176   1.132  14.447
   44DOPE  H12Y 5657   4.000   1.250  14.429
   44DOPE  C313 5658   4.084   1.213  14.634
   44DOPE  H13X 5659   4.196   1.202  14.691
   44DOPE  H13Y 5660   4.027   1.325  14.672
   44DOPE  C314 5661   3.977   1.067  14.659
   44DOPE  H14X 5662   3.881   1.058  14.582
   44DOPE  H14Y 5663   3.916   1.090  14.755
   44DOPE  C315 5664   4.067   0.908  14.671
   44DOPE  H15X 5665   4.182   0.929  14.724
   44DOPE  H15Y 5666   4.094   0.860  14.570
   44DOPE  C316 5667   3.967   0.787  14.752
   44DOPE  H16X 5668   4.024   0.667  14.745
   44DOPE  H16Y 5669   3.845   0.776  14.709
   44DOPE  C317 5670   3.955   0.838  14.900
   44DOPE  H17X 5671   4.079   0.862  14.938
   44DOPE  H17Y 5672   3.888   0.952  14.912
   44DOPE  C318 5673   3.871   0.713  14.988
   44DOPE  H18X 5674   3.748   0.691  14.950
   44DOPE  H18Y 5675   3.938   0.598  14.990
   44DOPE  H18Z 5676   3.864   0.761  15.092
   45DOPE     N 5677   5.180   0.947  12.979
   45DOPE   HN1 5678   5.282   1.020  12.975
   45DOPE   HN2 5679   5.166   0.895  13.073
   45DOPE   HN3 5680   5.197   0.859  12.905
   45DOPE   C12 5681   5.035   1.040  12.939
   45DOPE  H12A 5682   5.020   1.025  12.830
   45DOPE  H12B 5683   5.058   1.169  12.964
   45DOPE   C11 5684   4.885   0.982  13.010
   45DOPE  H11A 5685   4.912   0.976  13.120
   45DOPE  H11B 5686   4.849   0.859  12.979
   45DOPE     P 5687   4.700   1.207  13.090
   45DOPE   O13 5688   4.543   1.274  13.053
   45DOPE   O14 5689   4.838   1.313  13.119
   45DOPE   O11 5690   4.684   1.076  13.203
   45DOPE   O12 5691   4.757   1.088  12.977
   45DOPE    C1 5692   4.540   1.064  13.276
   45DOPE    HA 5693   4.543   0.952  13.335
   45DOPE    HB 5694   4.432   1.060  13.210
   45DOPE    C2 5695   4.526   1.207  13.373
   45DOPE    HS 5696   4.536   1.320  13.315
   45DOPE   O21 5697   4.654   1.192  13.470
   45DOPE   C21 5698   4.714   1.331  13.511
   45DOPE   O22 5699   4.655   1.462  13.491
   45DOPE   C22 5700   4.868   1.300  13.591
   45DOPE   H2R 5701   4.956   1.243  13.521
   45DOPE   H2S 5702   4.842   1.212  13.672
   45DOPE    C3 5703   4.360   1.201  13.437
   45DOPE    HX 5704   4.268   1.246  13.364
   45DOPE    HY 5705   4.362   1.286  13.523
   45DOPE   O31 5706   4.327   1.036  13.471
   45DOPE   C31 5707   4.302   1.016  13.599
   45DOPE   O32 5708   4.248   1.118  13.674
   45DOPE   C32 5709   4.355   0.850  13.644
   45DOPE   H2X 5710   4.243   0.791  13.677
   45DOPE   H2Y 5711   4.403   0.784  13.557
   45DOPE   C23 5712   4.943   1.453  13.652
   45DOPE   H3R 5713   4.872   1.493  13.740
   45DOPE   H3S 5714   4.934   1.552  13.577
   45DOPE   C24 5715   5.122   1.439  13.689
   45DOPE   H4R 5716   5.166   1.559  13.719
   45DOPE   H4S 5717   5.189   1.403  13.597
   45DOPE   C25 5718   5.160   1.318  13.802
   45DOPE   H5R 5719   5.291   1.316  13.820
   45DOPE   H5S 5720   5.124   1.195  13.768
   45DOPE   C26 5721   5.076   1.355  13.935
   45DOPE   H6R 5722   5.111   1.261  14.009
   45DOPE   H6S 5723   4.944   1.345  13.920
   45DOPE   C27 5724   5.114   1.520  13.994
   45DOPE   H7R 5725   5.064   1.614  13.928
   45DOPE   H7S 5726   5.248   1.536  13.995
   45DOPE   C28 5727   5.051   1.543  14.138
   45DOPE   H8R 5728   5.101   1.656  14.180
   45DOPE   H8S 5729   5.095   1.441  14.200
   45DOPE   C29 5730   4.870   1.549  14.138
   45DOPE   H9R 5731   4.813   1.495  14.050
   45DOPE  C210 5732   4.772   1.601  14.236
   45DOPE  H10R 5733   4.643   1.597  14.218
   45DOPE  C211 5734   4.816   1.664  14.373
   45DOPE  H11R 5735   4.704   1.709  14.423
   45DOPE  H11S 5736   4.898   1.769  14.365
   45DOPE  C212 5737   4.890   1.535  14.464
   45DOPE  H12R 5738   4.897   1.579  14.568
   45DOPE  H12S 5739   5.016   1.516  14.429
   45DOPE  C213 5740   4.805   1.369  14.461
   45DOPE  H13R 5741   4.892   1.285  14.502
   45DOPE  H13S 5742   4.783   1.328  14.357
   45DOPE  C214 5743   4.650   1.352  14.544
   45DOPE  H14R 5744   4.564   1.441  14.502
   45DOPE  H14S 5745   4.672   1.386  14.650
   45DOPE  C215 5746   4.571   1.184  14.535
   45DOPE  H15R 5747   4.614   1.122  14.443
   45DOPE  H15S 5748   4.441   1.199  14.522
   45DOPE  C216 5749   4.579   1.070  14.656
   45DOPE  H16R 5750   4.696   1.008  14.663
   45DOPE  H16S 5751   4.488   0.974  14.638
   45DOPE  C217 5752   4.542   1.144  14.792
   45DOPE  H17R 5753   4.442   1.231  14.785
   45DOPE  H17S 5754   4.651   1.210  14.828
   45DOPE  C218 5755   4.499   1.010  14.890
   45DOPE  H18R 5756   4.602   0.926  14.900
   45DOPE  H18S 5757   4.393   0.942  14.853
   45DOPE  H18T 5758   4.465   1.056  14.991
   45DOPE   C33 5759   4.482   0.848  13.759
   45DOPE   H3X 5760   4.512   0.721  13.781
   45DOPE   H3Y 5761   4.435   0.899  13.853
   45DOPE   C34 5762   4.638   0.935  13.722
   45DOPE   H4X 5763   4.685   0.877  13.630
   45DOPE   H4Y 5764   4.614   1.063  13.698
   45DOPE   C35 5765   4.769   0.924  13.830
   45DOPE   H5X 5766   4.886   0.937  13.776
   45DOPE   H5Y 5767   4.769   0.804  13.877
   45DOPE   C36 5768   4.772   1.058  13.936
   45DOPE   H6X 5769   4.711   1.168  13.897
   45DOPE   H6Y 5770   4.901   1.091  13.951
   45DOPE   C37 5771   4.709   1.016  14.076
   45DOPE   H7X 5772   4.736   1.120  14.143
   45DOPE   H7Y 5773   4.576   1.004  14.072
   45DOPE   C38 5774   4.776   0.862  14.139
   45DOPE   H8X 5775   4.706   0.758  14.099
   45DOPE   H8Y 5776   4.750   0.866  14.248
   45DOPE   C39 5777   4.952   0.830  14.115
   45DOPE   H9X 5778   4.980   0.760  14.025
   45DOPE  C310 5779   5.075   0.882  14.191
   45DOPE  H10X 5780   5.200   0.847  14.165
   45DOPE  C311 5781   5.057   0.982  14.315
   45DOPE  H11X 5782   5.165   1.056  14.332
   45DOPE  H11Y 5783   4.955   1.068  14.303
   45DOPE  C312 5784   5.022   0.878  14.439
   45DOPE  H12X 5785   5.124   0.798  14.464
   45DOPE  H12Y 5786   4.916   0.799  14.419
   45DOPE  C313 5787   4.978   0.983  14.560
   45DOPE  H13X 5788   4.868   1.048  14.529
   45DOPE  H13Y 5789   4.948   0.904  14.645
   45DOPE  C314 5790   5.104   1.108  14.603
   45DOPE  H14X 5791   5.129   1.190  14.519
   45DOPE  H14Y 5792   5.216   1.044  14.628
   45DOPE  C315 5793   5.054   1.210  14.724
   45DOPE  H15X 5794   4.954   1.291  14.700
   45DOPE  H15Y 5795   5.160   1.286  14.752
   45DOPE  C316 5796   5.005   1.112  14.846
   45DOPE  H16X 5797   5.100   1.021  14.866
   45DOPE  H16Y 5798   4.891   1.046  14.829
   45DOPE  C317 5799   4.987   1.216  14.971
   45DOPE  H17X 5800   5.095   1.295  14.981
   45DOPE  H17Y 5801   4.879   1.295  14.967
   45DOPE  C318 5802   4.976   1.105  15.090
   45DOPE  H18X 5803   4.993   1.172  15.184
   45DOPE  H18Y 5804   4.860   1.042  15.091
   45DOPE  H18Z 5805   5.071   1.012  15.083
   46DOPE     N 5806   5.171   7.986  13.179
   46DOPE   HN1 5807   5.110   8.086  13.144
   46DOPE   HN2 5808   5.110   7.922  13.251
   46DOPE   HN3 5809   5.276   8.033  13.221
   46DOPE   C12 5810   5.231   7.889  13.062
   46DOPE  H12A 5811   5.202   7.957  12.969
   46DOPE  H12B 5812   5.171   7.770  13.059
   46DOPE   C11 5813   5.413   7.874  13.074
   46DOPE  H11A 5814   5.466   7.829  12.979
   46DOPE  H11B 5815   5.444   7.788  13.155
   46DOPE     P 5816   5.498   8.172  13.014
   46DOPE   O13 5817   5.402   8.302  13.074
   46DOPE   O14 5818   5.453   8.118  12.878
   46DOPE   O11 5819   5.686   8.202  13.025
   46DOPE   O12 5820   5.477   8.026  13.111
   46DOPE    C1 5821   5.790   8.066  13.004
   46DOPE    HA 5822   5.905   8.110  12.963
   46DOPE    HB 5823   5.740   7.982  12.927
   46DOPE    C2 5824   5.826   7.970  13.135
   46DOPE    HS 5825   5.712   7.955  13.193
   46DOPE   O21 5826   5.947   8.052  13.211
   46DOPE   C21 5827   5.887   8.146  13.305
   46DOPE   O22 5828   5.747   8.166  13.333
   46DOPE   C22 5829   6.022   8.222  13.386
   46DOPE   H2R 5830   5.974   8.336  13.427
   46DOPE   H2S 5831   6.124   8.249  13.319
   46DOPE    C3 5832   5.880   7.795  13.107
   46DOPE    HX 5833   5.975   7.799  13.030
   46DOPE    HY 5834   5.776   7.728  13.065
   46DOPE   O31 5835   5.944   7.717  13.225
   46DOPE   C31 5836   5.834   7.672  13.317
   46DOPE   O32 5837   5.690   7.687  13.304
   46DOPE   C32 5838   5.926   7.615  13.441
   46DOPE   H2X 5839   5.995   7.507  13.409
   46DOPE   H2Y 5840   6.011   7.712  13.466
   46DOPE   C23 5841   6.071   8.114  13.503
   46DOPE   H3R 5842   6.194   8.143  13.538
   46DOPE   H3S 5843   6.074   7.985  13.474
   46DOPE   C24 5844   5.954   8.140  13.618
   46DOPE   H4R 5845   5.838   8.088  13.587
   46DOPE   H4S 5846   5.929   8.269  13.631
   46DOPE   C25 5847   6.016   8.071  13.750
   46DOPE   H5R 5848   6.112   7.980  13.730
   46DOPE   H5S 5849   5.918   8.008  13.804
   46DOPE   C26 5850   6.080   8.207  13.839
   46DOPE   H6R 5851   6.071   8.320  13.781
   46DOPE   H6S 5852   6.210   8.191  13.860
   46DOPE   C27 5853   5.987   8.243  13.967
   46DOPE   H7R 5854   5.858   8.252  13.942
   46DOPE   H7S 5855   6.029   8.364  13.999
   46DOPE   C28 5856   6.008   8.123  14.082
   46DOPE   H8R 5857   6.136   8.086  14.094
   46DOPE   H8S 5858   5.941   8.012  14.058
   46DOPE   C29 5859   5.944   8.208  14.204
   46DOPE   H9R 5860   5.813   8.220  14.207
   46DOPE  C210 5861   6.029   8.257  14.311
   46DOPE  H10R 5862   5.965   8.326  14.389
   46DOPE  C211 5863   6.206   8.238  14.333
   46DOPE  H11R 5864   6.270   8.254  14.236
   46DOPE  H11S 5865   6.233   8.113  14.366
   46DOPE  C212 5866   6.284   8.353  14.436
   46DOPE  H12R 5867   6.241   8.478  14.419
   46DOPE  H12S 5868   6.416   8.354  14.416
   46DOPE  C213 5869   6.264   8.308  14.585
   46DOPE  H13R 5870   6.322   8.402  14.647
   46DOPE  H13S 5871   6.330   8.195  14.604
   46DOPE  C214 5872   6.089   8.286  14.632
   46DOPE  H14R 5873   6.026   8.203  14.562
   46DOPE  H14S 5874   6.025   8.402  14.631
   46DOPE  C215 5875   6.071   8.203  14.768
   46DOPE  H15R 5876   6.140   8.090  14.768
   46DOPE  H15S 5877   5.942   8.174  14.785
   46DOPE  C216 5878   6.134   8.299  14.887
   46DOPE  H16R 5879   6.054   8.404  14.900
   46DOPE  H16S 5880   6.253   8.347  14.862
   46DOPE  C217 5881   6.131   8.198  15.016
   46DOPE  H17R 5882   6.077   8.080  14.997
   46DOPE  H17S 5883   6.041   8.268  15.073
   46DOPE  C218 5884   6.278   8.183  15.108
   46DOPE  H18R 5885   6.241   8.136  15.207
   46DOPE  H18S 5886   6.341   8.297  15.122
   46DOPE  H18T 5887   6.376   8.106  15.072
   46DOPE   C33 5888   5.827   7.572  13.568
   46DOPE   H3X 5889   5.891   7.474  13.622
   46DOPE   H3Y 5890   5.707   7.523  13.538
   46DOPE   C34 5891   5.810   7.715  13.664
   46DOPE   H4X 5892   5.929   7.742  13.708
   46DOPE   H4Y 5893   5.773   7.818  13.601
   46DOPE   C35 5894   5.688   7.688  13.778
   46DOPE   H5X 5895   5.736   7.597  13.848
   46DOPE   H5Y 5896   5.575   7.640  13.733
   46DOPE   C36 5897   5.642   7.840  13.859
   46DOPE   H6X 5898   5.749   7.883  13.915
   46DOPE   H6Y 5899   5.551   7.807  13.936
   46DOPE   C37 5900   5.574   7.976  13.772
   46DOPE   H7X 5901   5.666   8.009  13.698
   46DOPE   H7Y 5902   5.470   7.932  13.714
   46DOPE   C38 5903   5.531   8.134  13.845
   46DOPE   H8X 5904   5.515   8.230  13.769
   46DOPE   H8Y 5905   5.635   8.171  13.906
   46DOPE   C39 5906   5.381   8.117  13.927
   46DOPE   H9X 5907   5.268   8.122  13.869
   46DOPE  C310 5908   5.375   8.092  14.060
   46DOPE  H10X 5909   5.257   8.077  14.108
   46DOPE  C311 5910   5.518   8.077  14.152
   46DOPE  H11X 5911   5.632   8.060  14.095
   46DOPE  H11Y 5912   5.532   8.188  14.213
   46DOPE  C312 5913   5.500   7.936  14.249
   46DOPE  H12X 5914   5.478   7.822  14.194
   46DOPE  H12Y 5915   5.394   7.958  14.315
   46DOPE  C313 5916   5.648   7.913  14.338
   46DOPE  H13X 5917   5.692   8.032  14.373
   46DOPE  H13Y 5918   5.614   7.843  14.428
   46DOPE  C314 5919   5.784   7.824  14.266
   46DOPE  H14X 5920   5.797   7.871  14.164
   46DOPE  H14Y 5921   5.749   7.696  14.255
   46DOPE  C315 5922   5.944   7.834  14.342
   46DOPE  H15X 5923   5.972   7.958  14.370
   46DOPE  H15Y 5924   6.043   7.789  14.278
   46DOPE  C316 5925   5.930   7.735  14.470
   46DOPE  H16X 5926   5.881   7.618  14.437
   46DOPE  H16Y 5927   5.844   7.793  14.539
   46DOPE  C317 5928   6.085   7.699  14.544
   46DOPE  H17X 5929   6.053   7.614  14.625
   46DOPE  H17Y 5930   6.170   7.637  14.477
   46DOPE  C318 5931   6.162   7.848  14.605
   46DOPE  H18X 5932   6.068   7.904  14.668
   46DOPE  H18Y 5933   6.266   7.819  14.669
   46DOPE  H18Z 5934   6.200   7.936  14.528
   47DOPE     N 5935   1.826   7.375  13.119
   47DOPE   HN1 5936   1.843   7.498  13.109
   47DOPE   HN2 5937   1.704   7.356  13.138
   47DOPE   HN3 5938   1.891   7.327  13.198
   47DOPE   C12 5939   1.853   7.282  12.995
   47DOPE  H12A 5940   1.975   7.228  12.997
   47DOPE  H12B 5941   1.842   7.366  12.910
   47DOPE   C11 5942   1.730   7.146  12.997
   47DOPE  H11A 5943   1.751   7.090  13.093
   47DOPE  H11B 5944   1.750   7.057  12.919
   47DOPE     P 5945   1.430   7.073  13.043
   47DOPE   O13 5946   1.324   7.046  12.928
   47DOPE   O14 5947   1.368   7.136  13.169
   47DOPE   O11 5948   1.525   6.916  13.077
   47DOPE   O12 5949   1.570   7.194  12.998
   47DOPE    C1 5950   1.556   6.800  12.974
   47DOPE    HA 5951   1.601   6.857  12.881
   47DOPE    HB 5952   1.442   6.739  12.949
   47DOPE    C2 5953   1.682   6.674  13.021
   47DOPE    HS 5954   1.712   6.593  12.937
   47DOPE   O21 5955   1.624   6.581  13.131
   47DOPE   C21 5956   1.469   6.556  13.149
   47DOPE   O22 5957   1.376   6.496  13.069
   47DOPE   C22 5958   1.448   6.577  13.301
   47DOPE   H2R 5959   1.556   6.642  13.340
   47DOPE   H2S 5960   1.453   6.455  13.345
   47DOPE    C3 5961   1.842   6.751  13.072
   47DOPE    HX 5962   1.936   6.786  12.999
   47DOPE    HY 5963   1.885   6.643  13.121
   47DOPE   O31 5964   1.812   6.865  13.176
   47DOPE   C31 5965   1.915   6.948  13.246
   47DOPE   O32 5966   2.051   6.986  13.212
   47DOPE   C32 5967   1.805   7.032  13.352
   47DOPE   H2X 5968   1.874   7.134  13.389
   47DOPE   H2Y 5969   1.699   7.081  13.298
   47DOPE   C23 5970   1.298   6.667  13.353
   47DOPE   H3R 5971   1.188   6.602  13.325
   47DOPE   H3S 5972   1.291   6.790  13.308
   47DOPE   C24 5973   1.312   6.679  13.506
   47DOPE   H4R 5974   1.434   6.725  13.530
   47DOPE   H4S 5975   1.308   6.556  13.546
   47DOPE   C25 5976   1.189   6.787  13.579
   47DOPE   H5R 5977   1.067   6.764  13.539
   47DOPE   H5S 5978   1.219   6.914  13.558
   47DOPE   C26 5979   1.192   6.758  13.732
   47DOPE   H6R 5980   1.316   6.743  13.768
   47DOPE   H6S 5981   1.124   6.646  13.754
   47DOPE   C27 5982   1.112   6.892  13.814
   47DOPE   H7R 5983   1.006   6.929  13.754
   47DOPE   H7S 5984   1.194   6.997  13.820
   47DOPE   C28 5985   1.052   6.848  13.957
   47DOPE   H8R 5986   0.941   6.775  13.944
   47DOPE   H8S 5987   1.012   6.964  14.002
   47DOPE   C29 5988   1.164   6.763  14.052
   47DOPE   H9R 5989   1.172   6.635  14.033
   47DOPE  C210 5990   1.260   6.827  14.148
   47DOPE  H10R 5991   1.327   6.746  14.215
   47DOPE  C211 5992   1.267   7.004  14.171
   47DOPE  H11R 5993   1.145   7.051  14.190
   47DOPE  H11S 5994   1.303   7.050  14.071
   47DOPE  C212 5995   1.385   7.102  14.263
   47DOPE  H12R 5996   1.354   7.228  14.238
   47DOPE  H12S 5997   1.512   7.084  14.237
   47DOPE  C213 5998   1.355   7.110  14.413
   47DOPE  H13R 5999   1.404   7.003  14.465
   47DOPE  H13S 6000   1.223   7.109  14.426
   47DOPE  C214 6001   1.422   7.266  14.478
   47DOPE  H14R 6002   1.319   7.339  14.513
   47DOPE  H14S 6003   1.488   7.340  14.405
   47DOPE  C215 6004   1.528   7.234  14.599
   47DOPE  H15R 6005   1.652   7.214  14.564
   47DOPE  H15S 6006   1.484   7.121  14.648
   47DOPE  C216 6007   1.525   7.363  14.708
   47DOPE  H16R 6008   1.501   7.484  14.666
   47DOPE  H16S 6009   1.645   7.367  14.758
   47DOPE  C217 6010   1.403   7.320  14.816
   47DOPE  H17R 6011   1.417   7.192  14.845
   47DOPE  H17S 6012   1.280   7.332  14.774
   47DOPE  C218 6013   1.414   7.426  14.938
   47DOPE  H18R 6014   1.423   7.554  14.911
   47DOPE  H18S 6015   1.518   7.391  15.000
   47DOPE  H18T 6016   1.301   7.412  14.996
   47DOPE   C33 6017   1.732   6.936  13.473
   47DOPE   H3X 6018   1.794   6.821  13.487
   47DOPE   H3Y 6019   1.603   6.910  13.453
   47DOPE   C34 6020   1.747   7.013  13.613
   47DOPE   H4X 6021   1.877   7.024  13.639
   47DOPE   H4Y 6022   1.694   7.134  13.614
   47DOPE   C35 6023   1.660   6.911  13.720
   47DOPE   H5X 6024   1.729   6.799  13.740
   47DOPE   H5Y 6025   1.542   6.871  13.678
   47DOPE   C36 6026   1.620   7.000  13.850
   47DOPE   H6X 6027   1.567   6.917  13.926
   47DOPE   H6Y 6028   1.522   7.085  13.826
   47DOPE   C37 6029   1.760   7.092  13.914
   47DOPE   H7X 6030   1.841   7.145  13.838
   47DOPE   H7Y 6031   1.709   7.194  13.972
   47DOPE   C38 6032   1.856   6.989  14.012
   47DOPE   H8X 6033   1.769   6.938  14.085
   47DOPE   H8Y 6034   1.940   7.066  14.071
   47DOPE   C39 6035   1.949   6.860  13.938
   47DOPE   H9X 6036   2.041   6.906  13.869
   47DOPE  C310 6037   1.921   6.702  13.946
   47DOPE  H10X 6038   1.991   6.619  13.883
   47DOPE  C311 6039   1.794   6.624  14.032
   47DOPE  H11X 6040   1.676   6.684  14.016
   47DOPE  H11Y 6041   1.778   6.496  14.003
   47DOPE  C312 6042   1.836   6.632  14.182
   47DOPE  H12X 6043   1.850   6.760  14.213
   47DOPE  H12Y 6044   1.952   6.571  14.200
   47DOPE  C313 6045   1.706   6.557  14.270
   47DOPE  H13X 6046   1.590   6.620  14.252
   47DOPE  H13Y 6047   1.691   6.430  14.240
   47DOPE  C314 6048   1.744   6.564  14.421
   47DOPE  H14X 6049   1.861   6.503  14.440
   47DOPE  H14Y 6050   1.649   6.494  14.475
   47DOPE  C315 6051   1.748   6.734  14.478
   47DOPE  H15X 6052   1.645   6.804  14.436
   47DOPE  H15Y 6053   1.860   6.796  14.444
   47DOPE  C316 6054   1.739   6.743  14.632
   47DOPE  H16X 6055   1.825   6.658  14.678
   47DOPE  H16Y 6056   1.615   6.707  14.663
   47DOPE  C317 6057   1.774   6.912  14.684
   47DOPE  H17X 6058   1.902   6.941  14.667
   47DOPE  H17Y 6059   1.704   6.994  14.620
   47DOPE  C318 6060   1.732   6.944  14.831
   47DOPE  H18X 6061   1.746   7.074  14.854
   47DOPE  H18Y 6062   1.606   6.911  14.852
   47DOPE  H18Z 6063   1.812   6.875  14.898
   48DOPE     N 6064   7.655   2.117  12.793
   48DOPE   HN1 6065   7.536   2.105  12.769
   48DOPE   HN2 6066   7.664   2.222  12.849
   48DOPE   HN3 6067   7.724   2.135  12.707
   48DOPE   C12 6068   7.721   1.992  12.883
   48DOPE  H12A 6069   7.772   1.891  12.824
   48DOPE  H12B 6070   7.622   1.948  12.948
   48DOPE   C11 6071   7.848   2.078  12.966
   48DOPE  H11A 6072   7.957   2.092  12.906
   48DOPE  H11B 6073   7.883   2.003  13.053
   48DOPE     P 6074   7.684   2.257  13.126
   48DOPE   O13 6075   7.540   2.160  13.103
   48DOPE   O14 6076   7.664   2.431  13.153
   48DOPE   O11 6077   7.799   2.178  13.232
   48DOPE   O12 6078   7.795   2.238  13.000
   48DOPE    C1 6079   7.960   2.242  13.230
   48DOPE    HA 6080   7.962   2.375  13.219
   48DOPE    HB 6081   8.033   2.190  13.147
   48DOPE    C2 6082   8.046   2.204  13.361
   48DOPE    HS 6083   8.178   2.226  13.345
   48DOPE   O21 6084   8.022   2.045  13.409
   48DOPE   C21 6085   8.046   1.933  13.320
   48DOPE   O22 6086   8.134   1.943  13.222
   48DOPE   C22 6087   7.956   1.783  13.369
   48DOPE   H2R 6088   8.004   1.757  13.470
   48DOPE   H2S 6089   7.984   1.682  13.300
   48DOPE    C3 6090   7.990   2.322  13.470
   48DOPE    HX 6091   8.028   2.444  13.443
   48DOPE    HY 6092   8.054   2.279  13.558
   48DOPE   O31 6093   7.819   2.327  13.493
   48DOPE   C31 6094   7.766   2.237  13.593
   48DOPE   O32 6095   7.841   2.131  13.649
   48DOPE   C32 6096   7.603   2.299  13.637
   48DOPE   H2X 6097   7.565   2.396  13.567
   48DOPE   H2Y 6098   7.516   2.200  13.630
   48DOPE   C23 6099   7.771   1.796  13.388
   48DOPE   H3R 6100   7.715   1.822  13.289
   48DOPE   H3S 6101   7.741   1.898  13.455
   48DOPE   C24 6102   7.699   1.639  13.445
   48DOPE   H4R 6103   7.750   1.537  13.388
   48DOPE   H4S 6104   7.568   1.640  13.426
   48DOPE   C25 6105   7.728   1.608  13.595
   48DOPE   H5R 6106   7.858   1.589  13.613
   48DOPE   H5S 6107   7.666   1.494  13.621
   48DOPE   C26 6108   7.668   1.740  13.691
   48DOPE   H6R 6109   7.542   1.770  13.662
   48DOPE   H6S 6110   7.739   1.852  13.677
   48DOPE   C27 6111   7.669   1.686  13.839
   48DOPE   H7R 6112   7.640   1.556  13.840
   48DOPE   H7S 6113   7.571   1.747  13.895
   48DOPE   C28 6114   7.831   1.711  13.913
   48DOPE   H8R 6115   7.924   1.645  13.855
   48DOPE   H8S 6116   7.823   1.651  14.012
   48DOPE   C29 6117   7.885   1.884  13.929
   48DOPE   H9R 6118   7.888   1.950  13.833
   48DOPE  C210 6119   7.934   1.966  14.038
   48DOPE  H10R 6120   7.962   2.093  14.025
   48DOPE  C211 6121   7.954   1.910  14.181
   48DOPE  H11R 6122   8.075   1.877  14.207
   48DOPE  H11S 6123   7.902   1.790  14.192
   48DOPE  C212 6124   7.914   2.028  14.297
   48DOPE  H12R 6125   7.954   1.970  14.391
   48DOPE  H12S 6126   7.783   2.045  14.311
   48DOPE  C213 6127   7.990   2.196  14.286
   48DOPE  H13R 6128   7.957   2.251  14.189
   48DOPE  H13S 6129   8.123   2.182  14.291
   48DOPE  C214 6130   7.937   2.311  14.398
   48DOPE  H14R 6131   7.804   2.318  14.400
   48DOPE  H14S 6132   7.984   2.434  14.375
   48DOPE  C215 6133   8.000   2.261  14.535
   48DOPE  H15R 6134   8.131   2.240  14.527
   48DOPE  H15S 6135   7.944   2.144  14.564
   48DOPE  C216 6136   7.966   2.386  14.644
   48DOPE  H16R 6137   7.836   2.417  14.637
   48DOPE  H16S 6138   8.035   2.496  14.622
   48DOPE  C217 6139   8.003   2.330  14.788
   48DOPE  H17R 6140   7.903   2.256  14.827
   48DOPE  H17S 6141   8.005   2.440  14.853
   48DOPE  C218 6142   8.156   2.234  14.807
   48DOPE  H18R 6143   8.177   2.147  14.726
   48DOPE  H18S 6144   8.153   2.166  14.902
   48DOPE  H18T 6145   8.261   2.317  14.809
   48DOPE   C33 6146   7.606   2.369  13.781
   48DOPE   H3X 6147   7.498   2.446  13.796
   48DOPE   H3Y 6148   7.712   2.447  13.797
   48DOPE   C34 6149   7.601   2.239  13.889
   48DOPE   H4X 6150   7.501   2.155  13.866
   48DOPE   H4Y 6151   7.714   2.168  13.886
   48DOPE   C35 6152   7.578   2.308  14.030
   48DOPE   H5X 6153   7.458   2.365  14.038
   48DOPE   H5Y 6154   7.670   2.401  14.050
   48DOPE   C36 6155   7.595   2.177  14.136
   48DOPE   H6X 6156   7.560   2.221  14.236
   48DOPE   H6Y 6157   7.724   2.152  14.139
   48DOPE   C37 6158   7.508   2.018  14.102
   48DOPE   H7X 6159   7.396   2.051  14.051
   48DOPE   H7Y 6160   7.576   1.954  14.024
   48DOPE   C38 6161   7.468   1.913  14.226
   48DOPE   H8X 6162   7.363   1.835  14.206
   48DOPE   H8Y 6163   7.440   1.987  14.315
   48DOPE   C39 6164   7.609   1.807  14.243
   48DOPE   H9X 6165   7.673   1.793  14.148
   48DOPE  C310 6166   7.678   1.739  14.350
   48DOPE  H10X 6167   7.783   1.663  14.334
   48DOPE  C311 6168   7.627   1.750  14.492
   48DOPE  H11X 6169   7.504   1.798  14.503
   48DOPE  H11Y 6170   7.633   1.628  14.539
   48DOPE  C312 6171   7.742   1.849  14.573
   48DOPE  H12X 6172   7.741   1.973  14.532
   48DOPE  H12Y 6173   7.867   1.805  14.562
   48DOPE  C313 6174   7.686   1.842  14.717
   48DOPE  H13X 6175   7.553   1.829  14.717
   48DOPE  H13Y 6176   7.738   1.735  14.768
   48DOPE  C314 6177   7.723   1.998  14.788
   48DOPE  H14X 6178   7.854   2.021  14.772
   48DOPE  H14Y 6179   7.704   1.982  14.897
   48DOPE  C315 6180   7.621   2.137  14.733
   48DOPE  H15X 6181   7.600   2.131  14.623
   48DOPE  H15Y 6182   7.687   2.250  14.750
   48DOPE  C316 6183   7.460   2.154  14.805
   48DOPE  H16X 6184   7.496   2.126  14.909
   48DOPE  H16Y 6185   7.369   2.065  14.775
   48DOPE  C317 6186   7.396   2.327  14.814
   48DOPE  H17X 6187   7.334   2.344  14.911
   48DOPE  H17Y 6188   7.504   2.401  14.815
   48DOPE  C318 6189   7.291   2.394  14.703
   48DOPE  H18X 6190   7.177   2.329  14.698
   48DOPE  H18Y 6191   7.262   2.522  14.720
   48DOPE  H18Z 6192   7.354   2.382  14.605
   49DOPE     N 6193   2.154   7.529  12.803
   49DOPE   HN1 6194   2.176   7.430  12.863
   49DOPE   HN2 6195   2.078   7.496  12.724
   49DOPE   HN3 6196   2.268   7.561  12.766
   49DOPE   C12 6197   2.094   7.676  12.875
   49DOPE  H12A 6198   1.972   7.652  12.913
   49DOPE  H12B 6199   2.087   7.776  12.801
   49DOPE   C11 6200   2.203   7.724  12.991
   49DOPE  H11A 6201   2.328   7.746  12.954
   49DOPE  H11B 6202   2.203   7.627  13.066
   49DOPE     P 6203   2.186   7.951  13.180
   49DOPE   O13 6204   2.036   7.981  13.255
   49DOPE   O14 6205   2.290   8.092  13.148
   49DOPE   O11 6206   2.287   7.819  13.256
   49DOPE   O12 6207   2.140   7.867  13.045
   49DOPE    C1 6208   2.459   7.828  13.258
   49DOPE    HA 6209   2.500   7.948  13.293
   49DOPE    HB 6210   2.508   7.808  13.156
   49DOPE    C2 6211   2.538   7.699  13.352
   49DOPE    HS 6212   2.646   7.650  13.301
   49DOPE   O21 6213   2.430   7.568  13.383
   49DOPE   C21 6214   2.372   7.495  13.277
   49DOPE   O22 6215   2.430   7.496  13.165
   49DOPE   C22 6216   2.212   7.412  13.312
   49DOPE   H2R 6217   2.242   7.306  13.373
   49DOPE   H2S 6218   2.158   7.370  13.217
   49DOPE    C3 6219   2.593   7.777  13.486
   49DOPE    HX 6220   2.707   7.842  13.464
   49DOPE    HY 6221   2.624   7.681  13.560
   49DOPE   O31 6222   2.478   7.890  13.537
   49DOPE   C31 6223   2.351   7.826  13.599
   49DOPE   O32 6224   2.345   7.691  13.644
   49DOPE   C32 6225   2.219   7.952  13.617
   49DOPE   H2X 6226   2.237   8.002  13.718
   49DOPE   H2Y 6227   2.233   8.050  13.543
   49DOPE   C23 6228   2.092   7.519  13.391
   49DOPE   H3R 6229   2.058   7.631  13.336
   49DOPE   H3S 6230   2.153   7.559  13.484
   49DOPE   C24 6231   1.943   7.424  13.433
   49DOPE   H4R 6232   1.987   7.310  13.478
   49DOPE   H4S 6233   1.860   7.399  13.351
   49DOPE   C25 6234   1.836   7.502  13.536
   49DOPE   H5R 6235   1.716   7.441  13.536
   49DOPE   H5S 6236   1.814   7.632  13.514
   49DOPE   C26 6237   1.908   7.477  13.673
   49DOPE   H6R 6238   2.033   7.525  13.675
   49DOPE   H6S 6239   1.919   7.348  13.697
   49DOPE   C27 6240   1.798   7.558  13.773
   49DOPE   H7R 6241   1.685   7.493  13.762
   49DOPE   H7S 6242   1.775   7.685  13.748
   49DOPE   C28 6243   1.850   7.538  13.916
   49DOPE   H8R 6244   1.850   7.408  13.940
   49DOPE   H8S 6245   1.764   7.600  13.983
   49DOPE   C29 6246   2.017   7.601  13.930
   49DOPE   H9R 6247   2.066   7.682  13.854
   49DOPE  C210 6248   2.095   7.580  14.044
   49DOPE  H10R 6249   2.215   7.632  14.055
   49DOPE  C211 6250   2.024   7.496  14.163
   49DOPE  H11R 6251   2.054   7.367  14.172
   49DOPE  H11S 6252   1.891   7.507  14.170
   49DOPE  C212 6253   2.093   7.596  14.277
   49DOPE  H12R 6254   2.017   7.705  14.285
   49DOPE  H12S 6255   2.221   7.631  14.259
   49DOPE  C213 6256   2.099   7.513  14.409
   49DOPE  H13R 6257   2.154   7.396  14.383
   49DOPE  H13S 6258   1.975   7.492  14.446
   49DOPE  C214 6259   2.202   7.608  14.511
   49DOPE  H14R 6260   2.214   7.733  14.474
   49DOPE  H14S 6261   2.326   7.562  14.521
   49DOPE  C215 6262   2.132   7.609  14.653
   49DOPE  H15R 6263   2.028   7.526  14.660
   49DOPE  H15S 6264   2.092   7.733  14.668
   49DOPE  C216 6265   2.246   7.580  14.772
   49DOPE  H16R 6266   2.268   7.450  14.785
   49DOPE  H16S 6267   2.182   7.622  14.862
   49DOPE  C217 6268   2.410   7.666  14.766
   49DOPE  H17R 6269   2.486   7.597  14.695
   49DOPE  H17S 6270   2.465   7.655  14.867
   49DOPE  C218 6271   2.413   7.843  14.722
   49DOPE  H18R 6272   2.537   7.891  14.734
   49DOPE  H18S 6273   2.330   7.918  14.783
   49DOPE  H18T 6274   2.380   7.855  14.615
   49DOPE   C33 6275   2.051   7.873  13.603
   49DOPE   H3X 6276   2.053   7.756  13.652
   49DOPE   H3Y 6277   2.027   7.854  13.494
   49DOPE   C34 6278   1.906   7.963  13.663
   49DOPE   H4X 6279   1.895   8.072  13.599
   49DOPE   H4Y 6280   1.793   7.895  13.651
   49DOPE   C35 6281   1.926   8.020  13.808
   49DOPE   H5X 6282   1.900   8.147  13.793
   49DOPE   H5Y 6283   2.050   8.005  13.845
   49DOPE   C36 6284   1.805   7.979  13.918
   49DOPE   H6X 6285   1.825   7.858  13.960
   49DOPE   H6Y 6286   1.681   7.982  13.878
   49DOPE   C37 6287   1.816   8.104  14.033
   49DOPE   H7X 6288   1.765   8.220  13.999
   49DOPE   H7Y 6289   1.739   8.062  14.116
   49DOPE   C38 6290   1.982   8.140  14.094
   49DOPE   H8X 6291   1.955   8.207  14.187
   49DOPE   H8Y 6292   2.052   8.231  14.041
   49DOPE   C39 6293   2.093   7.997  14.114
   49DOPE   H9X 6294   2.111   7.918  14.027
   49DOPE  C310 6295   2.161   7.956  14.230
   49DOPE  H10X 6296   2.255   7.864  14.232
   49DOPE  C311 6297   2.137   8.048  14.355
   49DOPE  H11X 6298   2.218   8.011  14.438
   49DOPE  H11Y 6299   2.178   8.167  14.322
   49DOPE  C312 6300   1.963   8.062  14.408
   49DOPE  H12X 6301   1.876   8.053  14.325
   49DOPE  H12Y 6302   1.940   8.176  14.461
   49DOPE  C313 6303   1.916   7.930  14.504
   49DOPE  H13X 6304   1.788   7.901  14.485
   49DOPE  H13Y 6305   1.986   7.822  14.480
   49DOPE  C314 6306   1.933   7.976  14.651
   49DOPE  H14X 6307   1.891   8.101  14.671
   49DOPE  H14Y 6308   2.062   7.974  14.680
   49DOPE  C315 6309   1.834   7.856  14.731
   49DOPE  H15X 6310   1.847   7.736  14.682
   49DOPE  H15Y 6311   1.704   7.883  14.725
   49DOPE  C316 6312   1.889   7.841  14.874
   49DOPE  H16X 6313   1.834   7.938  14.934
   49DOPE  H16Y 6314   2.022   7.856  14.881
   49DOPE  C317 6315   1.847   7.678  14.934
   49DOPE  H17X 6316   1.715   7.660  14.930
   49DOPE  H17Y 6317   1.902   7.579  14.874
   49DOPE  C318 6318   1.907   7.673  15.077
   49DOPE  H18X 6319   1.837   7.589  15.139
   49DOPE  H18Y 6320   2.036   7.643  15.080
   49DOPE  H18Z 6321   1.892   7.794  15.120
   50DOPE     N 6322   0.384   5.135  12.973
   50DOPE   HN1 6323   0.394   5.015  12.998
   50DOPE   HN2 6324   0.299   5.150  12.897
   50DOPE   HN3 6325   0.494   5.179  12.939
   50DOPE   C12 6326   0.342   5.243  13.087
   50DOPE  H12A 6327   0.428   5.221  13.170
   50DOPE  H12B 6328   0.218   5.218  13.121
   50DOPE   C11 6329   0.356   5.414  13.037
   50DOPE  H11A 6330   0.331   5.503  13.119
   50DOPE  H11B 6331   0.264   5.431  12.959
   50DOPE     P 6332   0.661   5.465  13.068
   50DOPE   O13 6333   0.607   5.525  13.198
   50DOPE   O14 6334   0.781   5.562  12.996
   50DOPE   O11 6335   0.716   5.284  13.079
   50DOPE   O12 6336   0.508   5.443  12.977
   50DOPE    C1 6337   0.842   5.225  13.162
   50DOPE    HA 6338   0.959   5.287  13.145
   50DOPE    HB 6339   0.863   5.099  13.130
   50DOPE    C2 6340   0.806   5.214  13.317
   50DOPE    HS 6341   0.866   5.101  13.352
   50DOPE   O21 6342   0.640   5.220  13.351
   50DOPE   C21 6343   0.582   5.080  13.374
   50DOPE   O22 6344   0.614   4.957  13.313
   50DOPE   C22 6345   0.470   5.084  13.494
   50DOPE   H2R 6346   0.440   4.960  13.513
   50DOPE   H2S 6347   0.359   5.148  13.466
   50DOPE    C3 6348   0.887   5.348  13.401
   50DOPE    HX 6349   0.862   5.465  13.351
   50DOPE    HY 6350   1.012   5.309  13.391
   50DOPE   O31 6351   0.851   5.352  13.542
   50DOPE   C31 6352   0.833   5.494  13.605
   50DOPE   O32 6353   0.835   5.624  13.553
   50DOPE   C32 6354   0.810   5.455  13.755
   50DOPE   H2X 6355   0.698   5.386  13.764
   50DOPE   H2Y 6356   0.917   5.383  13.782
   50DOPE   C23 6357   0.544   5.158  13.623
   50DOPE   H3R 6358   0.449   5.156  13.701
   50DOPE   H3S 6359   0.574   5.285  13.602
   50DOPE   C24 6360   0.692   5.069  13.679
   50DOPE   H4R 6361   0.800   5.105  13.622
   50DOPE   H4S 6362   0.682   4.939  13.660
   50DOPE   C25 6363   0.726   5.094  13.829
   50DOPE   H5R 6364   0.630   5.161  13.882
   50DOPE   H5S 6365   0.840   5.162  13.835
   50DOPE   C26 6366   0.757   4.939  13.906
   50DOPE   H6R 6367   0.854   4.871  13.855
   50DOPE   H6S 6368   0.648   4.864  13.907
   50DOPE   C27 6369   0.808   4.975  14.050
   50DOPE   H7R 6370   0.828   5.107  14.064
   50DOPE   H7S 6371   0.924   4.916  14.067
   50DOPE   C28 6372   0.691   4.908  14.154
   50DOPE   H8R 6373   0.686   4.776  14.142
   50DOPE   H8S 6374   0.569   4.956  14.136
   50DOPE   C29 6375   0.748   4.950  14.291
   50DOPE   H9R 6376   0.834   4.868  14.335
   50DOPE  C210 6377   0.713   5.082  14.358
   50DOPE  H10R 6378   0.766   5.095  14.457
   50DOPE  C211 6379   0.610   5.220  14.316
   50DOPE  H11R 6380   0.509   5.178  14.253
   50DOPE  H11S 6381   0.678   5.304  14.251
   50DOPE  C212 6382   0.541   5.306  14.439
   50DOPE  H12R 6383   0.632   5.380  14.492
   50DOPE  H12S 6384   0.497   5.218  14.513
   50DOPE  C213 6385   0.403   5.414  14.398
   50DOPE  H13R 6386   0.314   5.430  14.480
   50DOPE  H13S 6387   0.340   5.351  14.316
   50DOPE  C214 6388   0.460   5.578  14.346
   50DOPE  H14R 6389   0.358   5.651  14.311
   50DOPE  H14S 6390   0.532   5.552  14.255
   50DOPE  C215 6391   0.539   5.690  14.448
   50DOPE  H15R 6392   0.552   5.812  14.402
   50DOPE  H15S 6393   0.660   5.648  14.476
   50DOPE  C216 6394   0.433   5.696  14.572
   50DOPE  H16R 6395   0.448   5.584  14.630
   50DOPE  H16S 6396   0.308   5.698  14.531
   50DOPE  C217 6397   0.442   5.839  14.665
   50DOPE  H17R 6398   0.436   5.953  14.608
   50DOPE  H17S 6399   0.552   5.844  14.727
   50DOPE  C218 6400   0.301   5.820  14.760
   50DOPE  H18R 6401   0.335   5.729  14.835
   50DOPE  H18S 6402   0.197   5.770  14.705
   50DOPE  H18T 6403   0.265   5.934  14.809
   50DOPE   C33 6404   0.798   5.592  13.859
   50DOPE   H3X 6405   0.690   5.666  13.843
   50DOPE   H3Y 6406   0.904   5.671  13.843
   50DOPE   C34 6407   0.804   5.536  14.007
   50DOPE   H4X 6408   0.686   5.486  14.040
   50DOPE   H4Y 6409   0.898   5.441  14.020
   50DOPE   C35 6410   0.852   5.684  14.087
   50DOPE   H5X 6411   0.770   5.780  14.050
   50DOPE   H5Y 6412   0.979   5.706  14.061
   50DOPE   C36 6413   0.846   5.701  14.237
   50DOPE   H6X 6414   0.736   5.648  14.272
   50DOPE   H6Y 6415   0.840   5.830  14.266
   50DOPE   C37 6416   0.986   5.623  14.308
   50DOPE   H7X 6417   1.094   5.621  14.243
   50DOPE   H7Y 6418   1.018   5.696  14.398
   50DOPE   C38 6419   0.926   5.455  14.344
   50DOPE   H8X 6420   0.899   5.406  14.243
   50DOPE   H8Y 6421   0.811   5.476  14.396
   50DOPE   C39 6422   1.007   5.318  14.413
   50DOPE   H9X 6423   1.092   5.256  14.348
   50DOPE  C310 6424   0.983   5.254  14.534
   50DOPE  H10X 6425   1.056   5.148  14.550
   50DOPE  C311 6426   0.872   5.284  14.653
   50DOPE  H11X 6427   0.763   5.207  14.641
   50DOPE  H11Y 6428   0.934   5.231  14.741
   50DOPE  C312 6429   0.810   5.453  14.697
   50DOPE  H12X 6430   0.679   5.437  14.718
   50DOPE  H12Y 6431   0.823   5.537  14.613
   50DOPE  C313 6432   0.876   5.527  14.828
   50DOPE  H13X 6433   1.003   5.566  14.817
   50DOPE  H13Y 6434   0.804   5.636  14.851
   50DOPE  C314 6435   0.856   5.410  14.945
   50DOPE  H14X 6436   0.948   5.316  14.936
   50DOPE  H14Y 6437   0.736   5.354  14.931
   50DOPE  C315 6438   0.869   5.465  15.089
   50DOPE  H15X 6439   0.869   5.356  15.155
   50DOPE  H15Y 6440   0.760   5.532  15.117
   50DOPE  C316 6441   1.021   5.560  15.118
   50DOPE  H16X 6442   0.985   5.659  15.188
   50DOPE  H16Y 6443   1.069   5.617  15.026
   50DOPE  C317 6444   1.153   5.464  15.188
   50DOPE  H17X 6445   1.247   5.554  15.209
   50DOPE  H17Y 6446   1.108   5.411  15.283
   50DOPE  C318 6447   1.243   5.338  15.107
   50DOPE  H18X 6448   1.162   5.245  15.065
   50DOPE  H18Y 6449   1.308   5.400  15.026
   50DOPE  H18Z 6450   1.333   5.275  15.171
   51DOPE     N 6451   3.282   8.592  12.881
   51DOPE   HN1 6452   3.344   8.588  12.791
   51DOPE   HN2 6453   3.235   8.478  12.897
   51DOPE   HN3 6454   3.190   8.676  12.867
   51DOPE   C12 6455   3.398   8.642  12.990
   51DOPE  H12A 6456   3.334   8.639  13.087
   51DOPE  H12B 6457   3.437   8.767  12.970
   51DOPE   C11 6458   3.550   8.534  12.999
   51DOPE  H11A 6459   3.624   8.543  12.907
   51DOPE  H11B 6460   3.512   8.407  13.011
   51DOPE     P 6461   3.794   8.687  13.124
   51DOPE   O13 6462   3.781   8.785  13.247
   51DOPE   O14 6463   3.816   8.766  12.993
   51DOPE   O11 6464   3.934   8.558  13.144
   51DOPE   O12 6465   3.638   8.578  13.115
   51DOPE    C1 6466   3.910   8.402  13.197
   51DOPE    HA 6467   4.030   8.344  13.205
   51DOPE    HB 6468   3.836   8.328  13.128
   51DOPE    C2 6469   3.836   8.402  13.341
   51DOPE    HS 6470   3.708   8.437  13.328
   51DOPE   O21 6471   3.925   8.518  13.418
   51DOPE   C21 6472   3.835   8.596  13.505
   51DOPE   O22 6473   3.700   8.558  13.539
   51DOPE   C22 6474   3.930   8.735  13.561
   51DOPE   H2R 6475   3.953   8.816  13.475
   51DOPE   H2S 6476   4.046   8.690  13.601
   51DOPE    C3 6477   3.842   8.234  13.407
   51DOPE    HX 6478   3.970   8.212  13.437
   51DOPE    HY 6479   3.811   8.146  13.328
   51DOPE   O31 6480   3.728   8.214  13.514
   51DOPE   C31 6481   3.784   8.245  13.635
   51DOPE   O32 6482   3.922   8.284  13.662
   51DOPE   C32 6483   3.654   8.218  13.741
   51DOPE   H2X 6484   3.548   8.291  13.714
   51DOPE   H2Y 6485   3.619   8.089  13.741
   51DOPE   C23 6486   3.836   8.828  13.669
   51DOPE   H3R 6487   3.862   8.778  13.768
   51DOPE   H3S 6488   3.704   8.818  13.655
   51DOPE   C24 6489   3.875   9.008  13.663
   51DOPE   H4R 6490   3.799   9.070  13.738
   51DOPE   H4S 6491   3.838   9.053  13.563
   51DOPE   C25 6492   4.051   9.058  13.682
   51DOPE   H5R 6493   4.058   9.191  13.686
   51DOPE   H5S 6494   4.120   9.017  13.593
   51DOPE   C26 6495   4.132   8.988  13.806
   51DOPE   H6R 6496   4.252   9.043  13.822
   51DOPE   H6S 6497   4.152   8.858  13.784
   51DOPE   C27 6498   4.033   9.001  13.936
   51DOPE   H7R 6499   3.910   9.044  13.918
   51DOPE   H7S 6500   4.091   9.092  14.002
   51DOPE   C28 6501   4.026   8.838  14.005
   51DOPE   H8R 6502   3.972   8.752  13.935
   51DOPE   H8S 6503   3.941   8.831  14.089
   51DOPE   C29 6504   4.196   8.798  14.045
   51DOPE   H9R 6505   4.252   8.878  14.120
   51DOPE  C210 6506   4.268   8.662  14.010
   51DOPE  H10R 6507   4.390   8.633  14.047
   51DOPE  C211 6508   4.180   8.538  13.930
   51DOPE  H11R 6509   4.253   8.443  13.883
   51DOPE  H11S 6510   4.111   8.591  13.844
   51DOPE  C212 6511   4.068   8.471  14.039
   51DOPE  H12R 6512   3.970   8.404  13.989
   51DOPE  H12S 6513   4.007   8.563  14.101
   51DOPE  C213 6514   4.152   8.358  14.137
   51DOPE  H13R 6515   4.280   8.351  14.106
   51DOPE  H13S 6516   4.098   8.244  14.111
   51DOPE  C214 6517   4.147   8.393  14.290
   51DOPE  H14R 6518   4.200   8.515  14.304
   51DOPE  H14S 6519   4.226   8.306  14.343
   51DOPE  C215 6520   3.986   8.393  14.367
   51DOPE  H15R 6521   3.896   8.455  14.306
   51DOPE  H15S 6522   4.002   8.468  14.458
   51DOPE  C216 6523   3.914   8.231  14.416
   51DOPE  H16R 6524   3.886   8.154  14.328
   51DOPE  H16S 6525   3.796   8.262  14.460
   51DOPE  C217 6526   4.006   8.129  14.520
   51DOPE  H17R 6527   4.092   8.050  14.468
   51DOPE  H17S 6528   3.917   8.045  14.566
   51DOPE  C218 6529   4.102   8.212  14.632
   51DOPE  H18R 6530   4.159   8.119  14.696
   51DOPE  H18S 6531   4.025   8.286  14.697
   51DOPE  H18T 6532   4.196   8.290  14.590
   51DOPE   C33 6533   3.724   8.269  13.877
   51DOPE   H3X 6534   3.756   8.399  13.867
   51DOPE   H3Y 6535   3.836   8.202  13.897
   51DOPE   C34 6536   3.617   8.251  14.000
   51DOPE   H4X 6537   3.497   8.303  13.978
   51DOPE   H4Y 6538   3.601   8.122  14.025
   51DOPE   C35 6539   3.689   8.340  14.121
   51DOPE   H5X 6540   3.814   8.296  14.136
   51DOPE   H5Y 6541   3.623   8.306  14.214
   51DOPE   C36 6542   3.691   8.524  14.105
   51DOPE   H6X 6543   3.775   8.562  14.026
   51DOPE   H6Y 6544   3.732   8.581  14.200
   51DOPE   C37 6545   3.528   8.596  14.068
   51DOPE   H7X 6546   3.535   8.729  14.064
   51DOPE   H7Y 6547   3.497   8.555  13.966
   51DOPE   C38 6548   3.402   8.540  14.167
   51DOPE   H8X 6549   3.398   8.407  14.176
   51DOPE   H8Y 6550   3.282   8.572  14.130
   51DOPE   C39 6551   3.427   8.618  14.299
   51DOPE   H9X 6552   3.514   8.719  14.304
   51DOPE  C310 6553   3.354   8.569  14.409
   51DOPE  H10X 6554   3.372   8.636  14.502
   51DOPE  C311 6555   3.238   8.430  14.416
   51DOPE  H11X 6556   3.132   8.461  14.478
   51DOPE  H11Y 6557   3.191   8.390  14.317
   51DOPE  C312 6558   3.331   8.293  14.478
   51DOPE  H12X 6559   3.414   8.240  14.402
   51DOPE  H12Y 6560   3.247   8.197  14.512
   51DOPE  C313 6561   3.433   8.352  14.595
   51DOPE  H13X 6562   3.545   8.408  14.555
   51DOPE  H13Y 6563   3.366   8.447  14.651
   51DOPE  C314 6564   3.479   8.225  14.694
   51DOPE  H14X 6565   3.541   8.123  14.646
   51DOPE  H14Y 6566   3.366   8.180  14.742
   51DOPE  C315 6567   3.582   8.300  14.801
   51DOPE  H15X 6568   3.607   8.201  14.872
   51DOPE  H15Y 6569   3.509   8.396  14.851
   51DOPE  C316 6570   3.744   8.371  14.756
   51DOPE  H16X 6571   3.767   8.327  14.654
   51DOPE  H16Y 6572   3.838   8.317  14.821
   51DOPE  C317 6573   3.767   8.555  14.759
   51DOPE  H17X 6574   3.893   8.579  14.726
   51DOPE  H17Y 6575   3.688   8.605  14.680
   51DOPE  C318 6576   3.740   8.642  14.892
   51DOPE  H18X 6577   3.613   8.634  14.924
   51DOPE  H18Y 6578   3.818   8.594  14.972
   51DOPE  H18Z 6579   3.770   8.772  14.882
   52DOPE     N 6580   8.617   5.730  12.956
   52DOPE   HN1 6581   8.526   5.771  12.892
   52DOPE   HN2 6582   8.698   5.826  12.971
   52DOPE   HN3 6583   8.687   5.644  12.908
   52DOPE   C12 6584   8.573   5.650  13.085
   52DOPE  H12A 6585   8.474   5.563  13.062
   52DOPE  H12B 6586   8.536   5.740  13.160
   52DOPE   C11 6587   8.712   5.549  13.133
   52DOPE  H11A 6588   8.665   5.468  13.214
   52DOPE  H11B 6589   8.812   5.622  13.173
   52DOPE     P 6590   8.870   5.310  13.037
   52DOPE   O13 6591   9.032   5.377  13.063
   52DOPE   O14 6592   8.844   5.215  12.916
   52DOPE   O11 6593   8.792   5.232  13.163
   52DOPE   O12 6594   8.760   5.460  13.018
   52DOPE    C1 6595   8.863   5.117  13.251
   52DOPE    HA 6596   8.996   5.119  13.243
   52DOPE    HB 6597   8.819   4.996  13.225
   52DOPE    C2 6598   8.812   5.158  13.397
   52DOPE    HS 6599   8.678   5.142  13.400
   52DOPE   O21 6600   8.861   5.318  13.420
   52DOPE   C21 6601   8.756   5.413  13.479
   52DOPE   O22 6602   8.612   5.394  13.490
   52DOPE   C22 6603   8.855   5.548  13.539
   52DOPE   H2R 6604   8.884   5.633  13.457
   52DOPE   H2S 6605   8.969   5.490  13.572
   52DOPE    C3 6606   8.886   5.058  13.514
   52DOPE    HX 6607   9.019   5.072  13.504
   52DOPE    HY 6608   8.860   4.927  13.508
   52DOPE   O31 6609   8.850   5.124  13.644
   52DOPE   C31 6610   8.698   5.120  13.684
   52DOPE   O32 6611   8.591   5.041  13.635
   52DOPE   C32 6612   8.686   5.239  13.801
   52DOPE   H2X 6613   8.755   5.186  13.884
   52DOPE   H2Y 6614   8.752   5.346  13.768
   52DOPE   C23 6615   8.785   5.641  13.658
   52DOPE   H3R 6616   8.760   5.569  13.748
   52DOPE   H3S 6617   8.670   5.700  13.632
   52DOPE   C24 6618   8.914   5.764  13.697
   52DOPE   H4R 6619   8.864   5.852  13.769
   52DOPE   H4S 6620   8.946   5.831  13.606
   52DOPE   C25 6621   9.067   5.683  13.753
   52DOPE   H5R 6622   9.154   5.777  13.783
   52DOPE   H5S 6623   9.132   5.616  13.674
   52DOPE   C26 6624   9.042   5.579  13.877
   52DOPE   H6R 6625   9.164   5.546  13.911
   52DOPE   H6S 6626   8.980   5.466  13.853
   52DOPE   C27 6627   8.954   5.671  13.987
   52DOPE   H7R 6628   8.850   5.740  13.949
   52DOPE   H7S 6629   9.041   5.762  14.023
   52DOPE   C28 6630   8.888   5.562  14.098
   52DOPE   H8R 6631   8.965   5.453  14.106
   52DOPE   H8S 6632   8.765   5.522  14.074
   52DOPE   C29 6633   8.903   5.656  14.224
   52DOPE   H9R 6634   9.016   5.720  14.228
   52DOPE  C210 6635   8.798   5.683  14.323
   52DOPE  H10R 6636   8.840   5.749  14.410
   52DOPE  C211 6637   8.632   5.627  14.339
   52DOPE  H11R 6638   8.588   5.558  14.250
   52DOPE  H11S 6639   8.546   5.729  14.354
   52DOPE  C212 6640   8.627   5.519  14.463
   52DOPE  H12R 6641   8.692   5.404  14.448
   52DOPE  H12S 6642   8.497   5.497  14.465
   52DOPE  C213 6643   8.647   5.585  14.605
   52DOPE  H13R 6644   8.591   5.495  14.670
   52DOPE  H13S 6645   8.570   5.690  14.619
   52DOPE  C214 6646   8.820   5.605  14.654
   52DOPE  H14R 6647   8.867   5.724  14.630
   52DOPE  H14S 6648   8.894   5.519  14.595
   52DOPE  C215 6649   8.849   5.573  14.804
   52DOPE  H15R 6650   8.783   5.464  14.834
   52DOPE  H15S 6651   8.802   5.662  14.875
   52DOPE  C216 6652   9.030   5.554  14.824
   52DOPE  H16R 6653   9.085   5.497  14.734
   52DOPE  H16S 6654   9.050   5.470  14.909
   52DOPE  C217 6655   9.116   5.711  14.852
   52DOPE  H17R 6656   9.031   5.796  14.900
   52DOPE  H17S 6657   9.157   5.766  14.757
   52DOPE  C218 6658   9.258   5.678  14.948
   52DOPE  H18R 6659   9.377   5.719  14.976
   52DOPE  H18S 6660   9.322   5.596  14.878
   52DOPE  H18T 6661   9.270   5.813  14.948
   52DOPE   C33 6662   8.518   5.285  13.856
   52DOPE   H3X 6663   8.420   5.237  13.791
   52DOPE   H3Y 6664   8.501   5.418  13.859
   52DOPE   C34 6665   8.507   5.222  14.001
   52DOPE   H4X 6666   8.528   5.092  13.999
   52DOPE   H4Y 6667   8.608   5.278  14.060
   52DOPE   C35 6668   8.348   5.258  14.072
   52DOPE   H5X 6669   8.251   5.207  14.008
   52DOPE   H5Y 6670   8.332   5.390  14.076
   52DOPE   C36 6671   8.324   5.186  14.214
   52DOPE   H6X 6672   8.374   5.064  14.218
   52DOPE   H6Y 6673   8.192   5.177  14.230
   52DOPE   C37 6674   8.394   5.287  14.329
   52DOPE   H7X 6675   8.525   5.274  14.329
   52DOPE   H7Y 6676   8.365   5.414  14.299
   52DOPE   C38 6677   8.318   5.268  14.473
   52DOPE   H8X 6678   8.196   5.269  14.436
   52DOPE   H8Y 6679   8.324   5.381  14.531
   52DOPE   C39 6680   8.312   5.131  14.573
   52DOPE   H9X 6681   8.226   5.040  14.541
   52DOPE  C310 6682   8.384   5.102  14.692
   52DOPE  H10X 6683   8.346   4.991  14.741
   52DOPE  C311 6684   8.503   5.189  14.782
   52DOPE  H11X 6685   8.568   5.287  14.731
   52DOPE  H11Y 6686   8.448   5.239  14.873
   52DOPE  C312 6687   8.635   5.071  14.826
   52DOPE  H12X 6688   8.586   4.946  14.826
   52DOPE  H12Y 6689   8.682   5.095  14.928
   52DOPE  C313 6690   8.771   5.083  14.723
   52DOPE  H13X 6691   8.821   4.963  14.703
   52DOPE  H13Y 6692   8.710   5.124  14.630
   52DOPE  C314 6693   8.904   5.204  14.757
   52DOPE  H14X 6694   8.898   5.236  14.865
   52DOPE  H14Y 6695   8.868   5.310  14.698
   52DOPE  C315 6696   9.080   5.178  14.715
   52DOPE  H15X 6697   9.158   5.245  14.787
   52DOPE  H15Y 6698   9.101   5.234  14.616
   52DOPE  C316 6699   9.133   5.004  14.709
   52DOPE  H16X 6700   9.263   5.003  14.683
   52DOPE  H16Y 6701   9.071   4.943  14.626
   52DOPE  C317 6702   9.106   4.910  14.839
   52DOPE  H17X 6703   8.983   4.860  14.837
   52DOPE  H17Y 6704   9.188   4.805  14.837
   52DOPE  C318 6705   9.126   5.005  14.970
   52DOPE  H18X 6706   9.133   4.922  15.056
   52DOPE  H18Y 6707   9.238   5.080  14.969
   52DOPE  H18Z 6708   9.024   5.087  14.987
   53DOPE     N 6709   7.339   7.826  12.791
   53DOPE   HN1 6710   7.388   7.718  12.758
   53DOPE   HN2 6711   7.285   7.810  12.885
   53DOPE   HN3 6712   7.249   7.866  12.725
   53DOPE   C12 6713   7.465   7.954  12.815
   53DOPE  H12A 6714   7.412   8.070  12.783
   53DOPE  H12B 6715   7.573   7.926  12.754
   53DOPE   C11 6716   7.504   7.963  12.964
   53DOPE  H11A 6717   7.572   8.076  12.984
   53DOPE  H11B 6718   7.576   7.858  12.998
   53DOPE     P 6719   7.331   8.012  13.182
   53DOPE   O13 6720   7.310   7.858  13.251
   53DOPE   O14 6721   7.199   8.130  13.187
   53DOPE   O11 6722   7.499   8.088  13.224
   53DOPE   O12 6723   7.355   7.964  13.030
   53DOPE    C1 6724   7.499   8.212  13.324
   53DOPE    HA 6725   7.408   8.305  13.303
   53DOPE    HB 6726   7.616   8.273  13.321
   53DOPE    C2 6727   7.474   8.138  13.466
   53DOPE    HS 6728   7.546   8.028  13.467
   53DOPE   O21 6729   7.307   8.107  13.485
   53DOPE   C21 6730   7.268   7.968  13.536
   53DOPE   O22 6731   7.357   7.859  13.570
   53DOPE   C22 6732   7.093   7.984  13.577
   53DOPE   H2R 6733   7.037   7.864  13.571
   53DOPE   H2S 6734   7.030   8.065  13.506
   53DOPE    C3 6735   7.535   8.245  13.583
   53DOPE    HX 6736   7.464   8.354  13.601
   53DOPE    HY 6737   7.650   8.290  13.546
   53DOPE   O31 6738   7.555   8.154  13.704
   53DOPE   C31 6739   7.478   8.204  13.812
   53DOPE   O32 6740   7.408   8.330  13.822
   53DOPE   C32 6741   7.488   8.072  13.920
   53DOPE   H2X 6742   7.378   7.999  13.917
   53DOPE   H2Y 6743   7.591   7.994  13.894
   53DOPE   C23 6744   7.097   8.053  13.719
   53DOPE   H3R 6745   7.061   8.182  13.720
   53DOPE   H3S 6746   7.219   8.050  13.761
   53DOPE   C24 6747   6.998   7.955  13.816
   53DOPE   H4R 6748   7.012   7.825  13.791
   53DOPE   H4S 6749   6.870   7.988  13.804
   53DOPE   C25 6750   7.048   7.974  13.963
   53DOPE   H5R 6751   7.097   8.095  13.984
   53DOPE   H5S 6752   7.141   7.884  13.989
   53DOPE   C26 6753   6.899   7.945  14.046
   53DOPE   H6R 6754   6.804   8.024  14.006
   53DOPE   H6S 6755   6.916   7.974  14.154
   53DOPE   C27 6756   6.842   7.772  14.032
   53DOPE   H7R 6757   6.842   7.733  13.925
   53DOPE   H7S 6758   6.718   7.759  14.067
   53DOPE   C28 6759   6.949   7.658  14.110
   53DOPE   H8R 6760   7.075   7.663  14.073
   53DOPE   H8S 6761   6.890   7.546  14.080
   53DOPE   C29 6762   6.938   7.658  14.259
   53DOPE   H9R 6763   6.847   7.574  14.297
   53DOPE  C210 6764   7.036   7.728  14.347
   53DOPE  H10R 6765   6.998   7.724  14.453
   53DOPE  C211 6766   7.184   7.826  14.320
   53DOPE  H11R 6767   7.159   7.957  14.330
   53DOPE  H11S 6768   7.229   7.806  14.217
   53DOPE  C212 6769   7.315   7.777  14.420
   53DOPE  H12R 6770   7.433   7.828  14.389
   53DOPE  H12S 6771   7.328   7.644  14.415
   53DOPE  C213 6772   7.288   7.826  14.567
   53DOPE  H13R 6773   7.158   7.826  14.592
   53DOPE  H13S 6774   7.331   7.952  14.579
   53DOPE  C214 6775   7.375   7.711  14.661
   53DOPE  H14R 6776   7.499   7.692  14.622
   53DOPE  H14S 6777   7.313   7.595  14.656
   53DOPE  C215 6778   7.386   7.760  14.809
   53DOPE  H15R 6779   7.266   7.784  14.852
   53DOPE  H15S 6780   7.457   7.874  14.814
   53DOPE  C216 6781   7.469   7.636  14.899
   53DOPE  H16R 6782   7.555   7.561  14.842
   53DOPE  H16S 6783   7.374   7.552  14.937
   53DOPE  C217 6784   7.546   7.721  15.019
   53DOPE  H17R 6785   7.454   7.718  15.099
   53DOPE  H17S 6786   7.566   7.848  14.992
   53DOPE  C218 6787   7.704   7.654  15.073
   53DOPE  H18R 6788   7.702   7.520  15.076
   53DOPE  H18S 6789   7.724   7.699  15.175
   53DOPE  H18T 6790   7.807   7.693  15.011
   53DOPE   C33 6791   7.514   8.137  14.063
   53DOPE   H3X 6792   7.595   8.242  14.056
   53DOPE   H3Y 6793   7.576   8.042  14.124
   53DOPE   C34 6794   7.366   8.192  14.140
   53DOPE   H4X 6795   7.328   8.310  14.096
   53DOPE   H4Y 6796   7.265   8.106  14.133
   53DOPE   C35 6797   7.406   8.218  14.288
   53DOPE   H5X 6798   7.524   8.275  14.289
   53DOPE   H5Y 6799   7.414   8.104  14.345
   53DOPE   C36 6800   7.310   8.342  14.362
   53DOPE   H6X 6801   7.316   8.455  14.306
   53DOPE   H6Y 6802   7.369   8.366  14.460
   53DOPE   C37 6803   7.136   8.305  14.386
   53DOPE   H7X 6804   7.068   8.284  14.294
   53DOPE   H7Y 6805   7.123   8.191  14.441
   53DOPE   C38 6806   7.079   8.458  14.457
   53DOPE   H8X 6807   7.120   8.563  14.399
   53DOPE   H8Y 6808   7.144   8.470  14.553
   53DOPE   C39 6809   6.900   8.462  14.471
   53DOPE   H9X 6810   6.833   8.456  14.376
   53DOPE  C310 6811   6.824   8.478  14.587
   53DOPE  H10X 6812   6.692   8.477  14.590
   53DOPE  C311 6813   6.907   8.492  14.720
   53DOPE  H11X 6814   7.009   8.579  14.717
   53DOPE  H11Y 6815   6.818   8.545  14.789
   53DOPE  C312 6816   6.964   8.334  14.783
   53DOPE  H12X 6817   6.863   8.250  14.789
   53DOPE  H12Y 6818   7.001   8.363  14.886
   53DOPE  C313 6819   7.100   8.238  14.719
   53DOPE  H13X 6820   7.050   8.182  14.627
   53DOPE  H13Y 6821   7.201   8.315  14.690
   53DOPE  C314 6822   7.162   8.104  14.811
   53DOPE  H14X 6823   7.265   8.046  14.761
   53DOPE  H14Y 6824   7.066   8.012  14.825
   53DOPE  C315 6825   7.219   8.156  14.951
   53DOPE  H15X 6826   7.273   8.051  15.002
   53DOPE  H15Y 6827   7.111   8.190  15.008
   53DOPE  C316 6828   7.339   8.296  14.946
   53DOPE  H16X 6829   7.282   8.401  14.898
   53DOPE  H16Y 6830   7.441   8.257  14.880
   53DOPE  C317 6831   7.409   8.351  15.081
   53DOPE  H17X 6832   7.512   8.432  15.060
   53DOPE  H17Y 6833   7.318   8.426  15.133
   53DOPE  C318 6834   7.465   8.218  15.176
   53DOPE  H18X 6835   7.552   8.137  15.124
   53DOPE  H18Y 6836   7.524   8.269  15.265
   53DOPE  H18Z 6837   7.362   8.144  15.210
   54DOPE     N 6838   0.355   4.314  12.969
   54DOPE   HN1 6839   0.474   4.302  12.937
   54DOPE   HN2 6840   0.292   4.208  12.954
   54DOPE   HN3 6841   0.300   4.403  12.909
   54DOPE   C12 6842   0.331   4.372  13.109
   54DOPE  H12A 6843   0.415   4.472  13.127
   54DOPE  H12B 6844   0.354   4.273  13.180
   54DOPE   C11 6845   0.158   4.432  13.115
   54DOPE  H11A 6846   0.140   4.499  13.210
   54DOPE  H11B 6847   0.077   4.326  13.121
   54DOPE     P 6848  -0.050   4.598  12.988
   54DOPE   O13 6849  -0.161   4.460  13.000
   54DOPE   O14 6850  -0.065   4.705  12.870
   54DOPE   O11 6851  -0.053   4.698  13.123
   54DOPE   O12 6852   0.128   4.531  12.998
   54DOPE    C1 6853   0.042   4.838  13.142
   54DOPE    HA 6854  -0.036   4.944  13.123
   54DOPE    HB 6855   0.148   4.846  13.073
   54DOPE    C2 6856   0.108   4.853  13.288
   54DOPE    HS 6857   0.170   4.969  13.299
   54DOPE   O21 6858   0.221   4.724  13.311
   54DOPE   C21 6859   0.262   4.697  13.437
   54DOPE   O22 6860   0.234   4.786  13.531
   54DOPE   C22 6861   0.360   4.544  13.446
   54DOPE   H2R 6862   0.353   4.476  13.351
   54DOPE   H2S 6863   0.313   4.468  13.526
   54DOPE    C3 6864  -0.037   4.849  13.388
   54DOPE    HX 6865  -0.124   4.933  13.344
   54DOPE    HY 6866  -0.005   4.900  13.488
   54DOPE   O31 6867  -0.115   4.696  13.397
   54DOPE   C31 6868  -0.116   4.616  13.509
   54DOPE   O32 6869  -0.064   4.660  13.617
   54DOPE   C32 6870  -0.204   4.460  13.482
   54DOPE   H2X 6871  -0.334   4.484  13.496
   54DOPE   H2Y 6872  -0.184   4.423  13.377
   54DOPE   C23 6873   0.533   4.595  13.477
   54DOPE   H3R 6874   0.572   4.685  13.402
   54DOPE   H3S 6875   0.614   4.492  13.465
   54DOPE   C24 6876   0.556   4.667  13.617
   54DOPE   H4R 6877   0.488   4.780  13.623
   54DOPE   H4S 6878   0.683   4.705  13.623
   54DOPE   C25 6879   0.510   4.570  13.743
   54DOPE   H5R 6880   0.599   4.601  13.822
   54DOPE   H5S 6881   0.522   4.439  13.723
   54DOPE   C26 6882   0.346   4.613  13.802
   54DOPE   H6R 6883   0.328   4.542  13.895
   54DOPE   H6S 6884   0.252   4.573  13.728
   54DOPE   C27 6885   0.314   4.790  13.834
   54DOPE   H7R 6886   0.194   4.824  13.793
   54DOPE   H7S 6887   0.404   4.868  13.784
   54DOPE   C28 6888   0.320   4.831  13.983
   54DOPE   H8R 6889   0.436   4.782  14.022
   54DOPE   H8S 6890   0.223   4.768  14.035
   54DOPE   C29 6891   0.306   5.010  14.005
   54DOPE   H9R 6892   0.346   5.084  13.920
   54DOPE  C210 6893   0.239   5.082  14.113
   54DOPE  H10R 6894   0.246   5.213  14.121
   54DOPE  C211 6895   0.166   5.002  14.234
   54DOPE  H11R 6896   0.082   4.904  14.206
   54DOPE  H11S 6897   0.092   5.092  14.289
   54DOPE  C212 6898   0.289   4.937  14.336
   54DOPE  H12R 6899   0.368   5.036  14.366
   54DOPE  H12S 6900   0.364   4.842  14.290
   54DOPE  C213 6901   0.202   4.873  14.461
   54DOPE  H13R 6902   0.132   4.766  14.431
   54DOPE  H13S 6903   0.113   4.967  14.489
   54DOPE  C214 6904   0.296   4.828  14.588
   54DOPE  H14R 6905   0.395   4.741  14.569
   54DOPE  H14S 6906   0.205   4.765  14.651
   54DOPE  C215 6907   0.367   4.962  14.672
   54DOPE  H15R 6908   0.331   5.077  14.626
   54DOPE  H15S 6909   0.500   4.955  14.668
   54DOPE  C216 6910   0.316   4.970  14.821
   54DOPE  H16R 6911   0.209   5.051  14.825
   54DOPE  H16S 6912   0.410   5.046  14.862
   54DOPE  C217 6913   0.266   4.820  14.906
   54DOPE  H17R 6914   0.217   4.726  14.842
   54DOPE  H17S 6915   0.167   4.865  14.969
   54DOPE  C218 6916   0.366   4.736  15.016
   54DOPE  H18R 6917   0.479   4.685  14.977
   54DOPE  H18S 6918   0.295   4.638  15.062
   54DOPE  H18T 6919   0.396   4.822  15.097
   54DOPE   C33 6920  -0.149   4.328  13.578
   54DOPE   H3X 6921  -0.223   4.219  13.561
   54DOPE   H3Y 6922  -0.164   4.367  13.684
   54DOPE   C34 6923   0.026   4.282  13.553
   54DOPE   H4X 6924   0.047   4.256  13.445
   54DOPE   H4Y 6925   0.106   4.381  13.584
   54DOPE   C35 6926   0.067   4.132  13.632
   54DOPE   H5X 6927   0.186   4.082  13.601
   54DOPE   H5Y 6928  -0.028   4.044  13.605
   54DOPE   C36 6929   0.062   4.152  13.783
   54DOPE   H6X 6930   0.103   4.038  13.829
   54DOPE   H6Y 6931  -0.061   4.177  13.820
   54DOPE   C37 6932   0.178   4.274  13.841
   54DOPE   H7X 6933   0.294   4.270  13.786
   54DOPE   H7Y 6934   0.124   4.396  13.829
   54DOPE   C38 6935   0.211   4.237  13.989
   54DOPE   H8X 6936   0.300   4.330  14.021
   54DOPE   H8Y 6937   0.276   4.123  13.997
   54DOPE   C39 6938   0.061   4.229  14.074
   54DOPE   H9X 6939  -0.001   4.114  14.076
   54DOPE  C310 6940   0.008   4.352  14.148
   54DOPE  H10X 6941  -0.097   4.339  14.213
   54DOPE  C311 6942   0.096   4.508  14.151
   54DOPE  H11X 6943   0.134   4.542  14.048
   54DOPE  H11Y 6944   0.017   4.608  14.186
   54DOPE  C312 6945   0.244   4.493  14.242
   54DOPE  H12X 6946   0.307   4.609  14.246
   54DOPE  H12Y 6947   0.332   4.405  14.203
   54DOPE  C313 6948   0.200   4.438  14.383
   54DOPE  H13X 6949   0.104   4.518  14.422
   54DOPE  H13Y 6950   0.150   4.314  14.382
   54DOPE  C314 6951   0.343   4.441  14.478
   54DOPE  H14X 6952   0.413   4.552  14.459
   54DOPE  H14Y 6953   0.426   4.339  14.456
   54DOPE  C315 6954   0.281   4.429  14.621
   54DOPE  H15X 6955   0.216   4.313  14.628
   54DOPE  H15Y 6956   0.188   4.523  14.639
   54DOPE  C316 6957   0.407   4.439  14.732
   54DOPE  H16X 6958   0.458   4.562  14.738
   54DOPE  H16Y 6959   0.506   4.356  14.708
   54DOPE  C317 6960   0.335   4.391  14.867
   54DOPE  H17X 6961   0.418   4.421  14.949
   54DOPE  H17Y 6962   0.222   4.459  14.885
   54DOPE  C318 6963   0.302   4.211  14.872
   54DOPE  H18X 6964   0.404   4.144  14.829
   54DOPE  H18Y 6965   0.286   4.169  14.977
   54DOPE  H18Z 6966   0.193   4.181  14.813
   55DOPE     N 6967   0.422   6.815  13.204
   55DOPE   HN1 6968   0.349   6.713  13.186
   55DOPE   HN2 6969   0.527   6.766  13.242
   55DOPE   HN3 6970   0.365   6.887  13.276
   55DOPE   C12 6971   0.467   6.907  13.079
   55DOPE  H12A 6972   0.356   6.938  13.023
   55DOPE  H12B 6973   0.541   6.827  13.016
   55DOPE   C11 6974   0.563   7.062  13.109
   55DOPE  H11A 6975   0.636   7.046  13.202
   55DOPE  H11B 6976   0.479   7.162  13.129
   55DOPE     P 6977   0.847   7.056  12.998
   55DOPE   O13 6978   0.925   7.124  12.877
   55DOPE   O14 6979   0.853   6.880  13.025
   55DOPE   O11 6980   0.889   7.159  13.129
   55DOPE   O12 6981   0.661   7.104  12.997
   55DOPE    C1 6982   0.904   7.328  13.101
   55DOPE    HA 6983   0.809   7.372  13.032
   55DOPE    HB 6984   1.022   7.344  13.053
   55DOPE    C2 6985   0.902   7.446  13.224
   55DOPE    HS 6986   0.968   7.556  13.199
   55DOPE   O21 6987   0.973   7.372  13.339
   55DOPE   C21 6988   1.130   7.345  13.318
   55DOPE   O22 6989   1.207   7.403  13.226
   55DOPE   C22 6990   1.194   7.248  13.440
   55DOPE   H2R 6991   1.290   7.166  13.407
   55DOPE   H2S 6992   1.092   7.174  13.477
   55DOPE    C3 6993   0.730   7.508  13.258
   55DOPE    HX 6994   0.676   7.558  13.164
   55DOPE    HY 6995   0.740   7.614  13.325
   55DOPE   O31 6996   0.623   7.388  13.308
   55DOPE   C31 6997   0.616   7.382  13.440
   55DOPE   O32 6998   0.664   7.483  13.518
   55DOPE   C32 6999   0.546   7.222  13.480
   55DOPE   H2X 7000   0.415   7.228  13.461
   55DOPE   H2Y 7001   0.602   7.128  13.417
   55DOPE   C23 7002   1.254   7.355  13.558
   55DOPE   H3R 7003   1.147   7.390  13.619
   55DOPE   H3S 7004   1.310   7.465  13.516
   55DOPE   C24 7005   1.380   7.280  13.651
   55DOPE   H4R 7006   1.494   7.273  13.593
   55DOPE   H4S 7007   1.343   7.157  13.677
   55DOPE   C25 7008   1.412   7.375  13.781
   55DOPE   H5R 7009   1.457   7.496  13.756
   55DOPE   H5S 7010   1.516   7.321  13.834
   55DOPE   C26 7011   1.268   7.384  13.876
   55DOPE   H6R 7012   1.189   7.280  13.849
   55DOPE   H6S 7013   1.193   7.492  13.858
   55DOPE   C27 7014   1.312   7.358  14.024
   55DOPE   H7R 7015   1.424   7.286  14.029
   55DOPE   H7S 7016   1.213   7.284  14.068
   55DOPE   C28 7017   1.333   7.504  14.117
   55DOPE   H8R 7018   1.421   7.582  14.065
   55DOPE   H8S 7019   1.391   7.472  14.213
   55DOPE   C29 7020   1.168   7.576  14.139
   55DOPE   H9R 7021   1.112   7.615  14.045
   55DOPE  C210 7022   1.082   7.602  14.252
   55DOPE  H10R 7023   0.962   7.650  14.239
   55DOPE  C211 7024   1.121   7.571  14.397
   55DOPE  H11R 7025   1.106   7.686  14.451
   55DOPE  H11S 7026   1.247   7.535  14.410
   55DOPE  C212 7027   1.007   7.452  14.467
   55DOPE  H12R 7028   1.033   7.330  14.428
   55DOPE  H12S 7029   0.880   7.481  14.443
   55DOPE  C213 7030   1.024   7.452  14.621
   55DOPE  H13R 7031   0.949   7.550  14.663
   55DOPE  H13S 7032   1.150   7.477  14.647
   55DOPE  C214 7033   0.977   7.295  14.692
   55DOPE  H14R 7034   0.846   7.276  14.676
   55DOPE  H14S 7035   0.997   7.313  14.801
   55DOPE  C215 7036   1.072   7.146  14.646
   55DOPE  H15R 7037   1.196   7.187  14.629
   55DOPE  H15S 7038   1.024   7.100  14.551
   55DOPE  C216 7039   1.088   7.008  14.747
   55DOPE  H16R 7040   0.976   6.938  14.743
   55DOPE  H16S 7041   1.106   7.061  14.848
   55DOPE  C217 7042   1.222   6.886  14.718
   55DOPE  H17R 7043   1.334   6.925  14.768
   55DOPE  H17S 7044   1.243   6.884  14.609
   55DOPE  C218 7045   1.183   6.712  14.761
   55DOPE  H18R 7046   1.277   6.629  14.724
   55DOPE  H18S 7047   1.066   6.673  14.719
   55DOPE  H18T 7048   1.177   6.700  14.872
   55DOPE   C33 7049   0.576   7.184  13.629
   55DOPE   H3X 7050   0.509   7.075  13.658
   55DOPE   H3Y 7051   0.527   7.285  13.690
   55DOPE   C34 7052   0.755   7.159  13.658
   55DOPE   H4X 7053   0.799   7.052  13.602
   55DOPE   H4Y 7054   0.824   7.265  13.620
   55DOPE   C35 7055   0.792   7.141  13.807
   55DOPE   H5X 7056   0.925   7.148  13.820
   55DOPE   H5Y 7057   0.752   7.020  13.841
   55DOPE   C36 7058   0.719   7.271  13.896
   55DOPE   H6X 7059   0.587   7.258  13.901
   55DOPE   H6Y 7060   0.749   7.390  13.853
   55DOPE   C37 7061   0.786   7.261  14.039
   55DOPE   H7X 7062   0.919   7.264  14.033
   55DOPE   H7Y 7063   0.748   7.370  14.094
   55DOPE   C38 7064   0.730   7.111  14.115
   55DOPE   H8X 7065   0.757   7.000  14.058
   55DOPE   H8Y 7066   0.596   7.116  14.123
   55DOPE   C39 7067   0.806   7.105  14.250
   55DOPE   H9X 7068   0.917   7.033  14.259
   55DOPE  C310 7069   0.745   7.175  14.360
   55DOPE  H10X 7070   0.810   7.165  14.455
   55DOPE  C311 7071   0.592   7.268  14.366
   55DOPE  H11X 7072   0.604   7.373  14.434
   55DOPE  H11Y 7073   0.557   7.316  14.267
   55DOPE  C312 7074   0.456   7.157  14.415
   55DOPE  H12X 7075   0.437   7.061  14.339
   55DOPE  H12Y 7076   0.342   7.228  14.420
   55DOPE  C313 7077   0.488   7.079  14.551
   55DOPE  H13X 7078   0.386   6.997  14.576
   55DOPE  H13Y 7079   0.598   7.003  14.546
   55DOPE  C314 7080   0.508   7.201  14.665
   55DOPE  H14X 7081   0.391   7.266  14.672
   55DOPE  H14Y 7082   0.599   7.292  14.641
   55DOPE  C315 7083   0.542   7.124  14.802
   55DOPE  H15X 7084   0.463   7.018  14.812
   55DOPE  H15Y 7085   0.510   7.214  14.880
   55DOPE  C316 7086   0.718   7.072  14.829
   55DOPE  H16X 7087   0.786   7.177  14.864
   55DOPE  H16Y 7088   0.764   7.031  14.731
   55DOPE  C317 7089   0.740   6.938  14.935
   55DOPE  H17X 7090   0.672   6.980  15.022
   55DOPE  H17Y 7091   0.688   6.824  14.896
   55DOPE  C318 7092   0.904   6.901  15.000
   55DOPE  H18X 7093   0.965   7.013  15.034
   55DOPE  H18Y 7094   0.887   6.822  15.089
   55DOPE  H18Z 7095   0.982   6.834  14.932
   56DOPE     N 7096   1.078   7.668  12.793
   56DOPE   HN1 7097   1.022   7.776  12.772
   56DOPE   HN2 7098   1.202   7.678  12.779
   56DOPE   HN3 7099   1.038   7.577  12.729
   56DOPE   C12 7100   1.061   7.624  12.936
   56DOPE  H12A 7101   1.150   7.529  12.959
   56DOPE  H12B 7102   0.937   7.577  12.950
   56DOPE   C11 7103   1.085   7.769  13.027
   56DOPE  H11A 7104   1.094   7.727  13.133
   56DOPE  H11B 7105   0.977   7.846  13.015
   56DOPE     P 7106   1.250   8.011  13.092
   56DOPE   O13 7107   1.379   8.112  13.035
   56DOPE   O14 7108   1.266   7.950  13.230
   56DOPE   O11 7109   1.081   8.100  13.074
   56DOPE   O12 7110   1.224   7.859  12.994
   56DOPE    C1 7111   1.051   8.162  12.941
   56DOPE    HA 7112   1.048   8.064  12.866
   56DOPE    HB 7113   1.151   8.246  12.913
   56DOPE    C2 7114   0.894   8.264  12.921
   56DOPE    HS 7115   0.923   8.348  12.839
   56DOPE   O21 7116   0.844   8.351  13.036
   56DOPE   C21 7117   0.952   8.436  13.094
   56DOPE   O22 7118   1.057   8.516  13.039
   56DOPE   C22 7119   0.920   8.419  13.243
   56DOPE   H2R 7120   0.970   8.300  13.271
   56DOPE   H2S 7121   0.791   8.420  13.264
   56DOPE    C3 7122   0.748   8.165  12.876
   56DOPE    HX 7123   0.766   8.126  12.771
   56DOPE    HY 7124   0.638   8.242  12.877
   56DOPE   O31 7125   0.728   8.026  12.959
   56DOPE   C31 7126   0.668   8.053  13.079
   56DOPE   O32 7127   0.594   8.171  13.116
   56DOPE   C32 7128   0.695   7.908  13.165
   56DOPE   H2X 7129   0.578   7.843  13.170
   56DOPE   H2Y 7130   0.785   7.825  13.123
   56DOPE   C23 7131   1.008   8.551  13.318
   56DOPE   H3R 7132   0.952   8.665  13.289
   56DOPE   H3S 7133   1.130   8.554  13.278
   56DOPE   C24 7134   1.008   8.536  13.471
   56DOPE   H4R 7135   0.877   8.531  13.497
   56DOPE   H4S 7136   1.058   8.645  13.520
   56DOPE   C25 7137   1.082   8.383  13.529
   56DOPE   H5R 7138   1.205   8.404  13.570
   56DOPE   H5S 7139   1.098   8.291  13.449
   56DOPE   C26 7140   0.970   8.315  13.636
   56DOPE   H6R 7141   1.018   8.198  13.674
   56DOPE   H6S 7142   0.851   8.292  13.589
   56DOPE   C27 7143   0.952   8.425  13.756
   56DOPE   H7R 7144   0.961   8.554  13.727
   56DOPE   H7S 7145   1.058   8.393  13.817
   56DOPE   C28 7146   0.797   8.404  13.837
   56DOPE   H8R 7147   0.691   8.434  13.774
   56DOPE   H8S 7148   0.799   8.488  13.924
   56DOPE   C29 7149   0.791   8.232  13.880
   56DOPE   H9R 7150   0.721   8.153  13.814
   56DOPE  C210 7151   0.856   8.172  13.992
   56DOPE  H10R 7152   0.854   8.042  14.007
   56DOPE  C211 7153   0.947   8.262  14.098
   56DOPE  H11R 7154   0.908   8.389  14.105
   56DOPE  H11S 7155   1.076   8.267  14.074
   56DOPE  C212 7156   0.923   8.173  14.231
   56DOPE  H12R 7157   0.971   8.050  14.221
   56DOPE  H12S 7158   0.793   8.156  14.252
   56DOPE  C213 7159   1.007   8.254  14.351
   56DOPE  H13R 7160   1.135   8.246  14.328
   56DOPE  H13S 7161   0.985   8.180  14.443
   56DOPE  C214 7162   0.964   8.429  14.384
   56DOPE  H14R 7163   0.847   8.428  14.437
   56DOPE  H14S 7164   0.953   8.503  14.293
   56DOPE  C215 7165   1.086   8.506  14.478
   56DOPE  H15R 7166   1.193   8.538  14.420
   56DOPE  H15S 7167   1.122   8.419  14.557
   56DOPE  C216 7168   1.039   8.665  14.540
   56DOPE  H16R 7169   1.031   8.759  14.460
   56DOPE  H16S 7170   1.138   8.700  14.610
   56DOPE  C217 7171   0.883   8.666  14.618
   56DOPE  H17R 7172   0.781   8.633  14.553
   56DOPE  H17S 7173   0.866   8.792  14.644
   56DOPE  C218 7174   0.883   8.568  14.745
   56DOPE  H18R 7175   0.876   8.438  14.722
   56DOPE  H18S 7176   0.778   8.602  14.808
   56DOPE  H18T 7177   0.992   8.592  14.806
   56DOPE   C33 7178   0.745   7.957  13.306
   56DOPE   H3X 7179   0.722   7.847  13.365
   56DOPE   H3Y 7180   0.673   8.057  13.350
   56DOPE   C34 7181   0.919   7.964  13.342
   56DOPE   H4X 7182   0.980   7.858  13.301
   56DOPE   H4Y 7183   0.984   8.069  13.300
   56DOPE   C35 7184   0.925   7.966  13.495
   56DOPE   H5X 7185   0.814   8.017  13.539
   56DOPE   H5Y 7186   1.025   8.048  13.519
   56DOPE   C36 7187   0.960   7.802  13.555
   56DOPE   H6X 7188   0.874   7.710  13.520
   56DOPE   H6Y 7189   0.949   7.808  13.666
   56DOPE   C37 7190   1.132   7.757  13.521
   56DOPE   H7X 7191   1.140   7.627  13.539
   56DOPE   H7Y 7192   1.159   7.772  13.413
   56DOPE   C38 7193   1.253   7.859  13.601
   56DOPE   H8X 7194   1.208   7.979  13.626
   56DOPE   H8Y 7195   1.362   7.874  13.537
   56DOPE   C39 7196   1.294   7.766  13.723
   56DOPE   H9X 7197   1.316   7.644  13.694
   56DOPE  C310 7198   1.278   7.801  13.854
   56DOPE  H10X 7199   1.319   7.709  13.924
   56DOPE  C311 7200   1.212   7.948  13.921
   56DOPE  H11X 7201   1.177   8.041  13.847
   56DOPE  H11Y 7202   1.100   7.913  13.975
   56DOPE  C312 7203   1.327   8.020  14.026
   56DOPE  H12X 7204   1.265   8.126  14.065
   56DOPE  H12Y 7205   1.441   8.057  13.978
   56DOPE  C313 7206   1.357   7.912  14.148
   56DOPE  H13X 7207   1.237   7.884  14.191
   56DOPE  H13Y 7208   1.414   7.800  14.113
   56DOPE  C314 7209   1.468   7.973  14.259
   56DOPE  H14X 7210   1.475   8.105  14.253
   56DOPE  H14Y 7211   1.591   7.928  14.239
   56DOPE  C315 7212   1.418   7.916  14.400
   56DOPE  H15X 7213   1.516   7.951  14.470
   56DOPE  H15Y 7214   1.412   7.784  14.400
   56DOPE  C316 7215   1.259   7.986  14.449
   56DOPE  H16X 7216   1.162   7.946  14.381
   56DOPE  H16Y 7217   1.270   8.119  14.442
   56DOPE  C317 7218   1.206   7.950  14.594
   56DOPE  H17X 7219   1.224   8.060  14.654
   56DOPE  H17Y 7220   1.074   7.928  14.594
   56DOPE  C318 7221   1.290   7.810  14.664
   56DOPE  H18X 7222   1.256   7.806  14.772
   56DOPE  H18Y 7223   1.258   7.693  14.619
   56DOPE  H18Z 7224   1.422   7.823  14.658
   57DOPE     N 7225  -0.032   2.479  12.967
   57DOPE   HN1 7226   0.050   2.430  12.901
   57DOPE   HN2 7227   0.032   2.546  13.038
   57DOPE   HN3 7228  -0.106   2.394  13.012
   57DOPE   C12 7229  -0.132   2.609  12.905
   57DOPE  H12A 7230  -0.260   2.573  12.903
   57DOPE  H12B 7231  -0.085   2.630  12.803
   57DOPE   C11 7232  -0.104   2.759  12.988
   57DOPE  H11A 7233  -0.155   2.741  13.090
   57DOPE  H11B 7234  -0.174   2.860  12.940
   57DOPE     P 7235   0.103   2.974  13.035
   57DOPE   O13 7236  -0.028   3.024  13.124
   57DOPE   O14 7237   0.120   3.064  12.908
   57DOPE   O11 7238   0.271   2.977  13.113
   57DOPE   O12 7239   0.066   2.791  12.998
   57DOPE    C1 7240   0.404   3.073  13.065
   57DOPE    HA 7241   0.362   3.193  13.034
   57DOPE    HB 7242   0.454   3.013  12.974
   57DOPE    C2 7243   0.552   3.092  13.165
   57DOPE    HS 7244   0.664   3.082  13.105
   57DOPE   O21 7245   0.553   2.969  13.264
   57DOPE   C21 7246   0.532   2.819  13.228
   57DOPE   O22 7247   0.546   2.762  13.115
   57DOPE   C22 7248   0.521   2.717  13.358
   57DOPE   H2R 7249   0.581   2.785  13.439
   57DOPE   H2S 7250   0.596   2.610  13.339
   57DOPE    C3 7251   0.572   3.259  13.246
   57DOPE    HX 7252   0.640   3.344  13.184
   57DOPE    HY 7253   0.656   3.227  13.328
   57DOPE   O31 7254   0.427   3.338  13.299
   57DOPE   C31 7255   0.449   3.424  13.417
   57DOPE   O32 7256   0.581   3.443  13.465
   57DOPE   C32 7257   0.288   3.481  13.488
   57DOPE   H2X 7258   0.316   3.606  13.520
   57DOPE   H2Y 7259   0.200   3.494  13.408
   57DOPE   C23 7260   0.355   2.654  13.411
   57DOPE   H3R 7261   0.307   2.567  13.337
   57DOPE   H3S 7262   0.259   2.740  13.432
   57DOPE   C24 7263   0.373   2.573  13.547
   57DOPE   H4R 7264   0.493   2.521  13.541
   57DOPE   H4S 7265   0.280   2.479  13.558
   57DOPE   C25 7266   0.382   2.675  13.675
   57DOPE   H5R 7267   0.278   2.758  13.681
   57DOPE   H5S 7268   0.492   2.748  13.676
   57DOPE   C26 7269   0.385   2.562  13.797
   57DOPE   H6R 7270   0.514   2.550  13.829
   57DOPE   H6S 7271   0.346   2.444  13.759
   57DOPE   C27 7272   0.276   2.598  13.919
   57DOPE   H7R 7273   0.329   2.705  13.969
   57DOPE   H7S 7274   0.281   2.498  13.992
   57DOPE   C28 7275   0.098   2.630  13.883
   57DOPE   H8R 7276   0.095   2.647  13.773
   57DOPE   H8S 7277   0.068   2.750  13.921
   57DOPE   C29 7278  -0.041   2.521  13.915
   57DOPE   H9R 7279  -0.076   2.448  13.828
   57DOPE  C210 7280  -0.119   2.489  14.029
   57DOPE  H10R 7281  -0.227   2.414  14.018
   57DOPE  C211 7282  -0.103   2.543  14.172
   57DOPE  H11R 7283   0.023   2.555  14.205
   57DOPE  H11S 7284  -0.143   2.430  14.222
   57DOPE  C212 7285  -0.220   2.663  14.242
   57DOPE  H12R 7286  -0.336   2.658  14.188
   57DOPE  H12S 7287  -0.185   2.790  14.247
   57DOPE  C213 7288  -0.247   2.611  14.388
   57DOPE  H13R 7289  -0.310   2.497  14.369
   57DOPE  H13S 7290  -0.332   2.690  14.441
   57DOPE  C214 7291  -0.097   2.573  14.474
   57DOPE  H14R 7292   0.010   2.548  14.411
   57DOPE  H14S 7293  -0.118   2.459  14.529
   57DOPE  C215 7294  -0.055   2.699  14.579
   57DOPE  H15R 7295  -0.146   2.796  14.576
   57DOPE  H15S 7296   0.061   2.758  14.558
   57DOPE  C216 7297  -0.030   2.634  14.720
   57DOPE  H16R 7298   0.102   2.627  14.741
   57DOPE  H16S 7299  -0.077   2.512  14.731
   57DOPE  C217 7300  -0.112   2.742  14.822
   57DOPE  H17R 7301  -0.064   2.866  14.813
   57DOPE  H17S 7302  -0.077   2.695  14.922
   57DOPE  C218 7303  -0.294   2.746  14.807
   57DOPE  H18R 7304  -0.350   2.809  14.892
   57DOPE  H18S 7305  -0.341   2.621  14.806
   57DOPE  H18T 7306  -0.334   2.804  14.713
   57DOPE   C33 7307   0.211   3.386  13.613
   57DOPE   H3X 7308   0.254   3.434  13.710
   57DOPE   H3Y 7309   0.266   3.274  13.608
   57DOPE   C34 7310   0.034   3.318  13.628
   57DOPE   H4X 7311  -0.047   3.353  13.547
   57DOPE   H4Y 7312   0.042   3.185  13.626
   57DOPE   C35 7313  -0.044   3.349  13.765
   57DOPE   H5X 7314  -0.071   3.478  13.767
   57DOPE   H5Y 7315   0.050   3.322  13.839
   57DOPE   C36 7316  -0.205   3.277  13.818
   57DOPE   H6X 7317  -0.202   3.145  13.826
   57DOPE   H6Y 7318  -0.306   3.311  13.751
   57DOPE   C37 7319  -0.223   3.361  13.956
   57DOPE   H7X 7320  -0.096   3.382  13.989
   57DOPE   H7Y 7321  -0.277   3.481  13.936
   57DOPE   C38 7322  -0.302   3.287  14.081
   57DOPE   H8X 7323  -0.247   3.170  14.110
   57DOPE   H8Y 7324  -0.432   3.265  14.062
   57DOPE   C39 7325  -0.271   3.418  14.184
   57DOPE   H9X 7326  -0.376   3.496  14.203
   57DOPE  C310 7327  -0.134   3.445  14.256
   57DOPE  H10X 7328  -0.136   3.547  14.326
   57DOPE  C311 7329   0.023   3.350  14.257
   57DOPE  H11X 7330   0.000   3.312  14.359
   57DOPE  H11Y 7331   0.012   3.245  14.195
   57DOPE  C312 7332   0.205   3.412  14.264
   57DOPE  H12X 7333   0.203   3.485  14.354
   57DOPE  H12Y 7334   0.215   3.493  14.177
   57DOPE  C313 7335   0.382   3.325  14.269
   57DOPE  H13X 7336   0.418   3.323  14.162
   57DOPE  H13Y 7337   0.458   3.420  14.315
   57DOPE  C314 7338   0.460   3.162  14.326
   57DOPE  H14X 7339   0.582   3.155  14.281
   57DOPE  H14Y 7340   0.394   3.059  14.291
   57DOPE  C315 7341   0.487   3.130  14.477
   57DOPE  H15X 7342   0.362   3.145  14.499
   57DOPE  H15Y 7343   0.557   3.226  14.527
   57DOPE  C316 7344   0.528   2.959  14.540
   57DOPE  H16X 7345   0.656   2.934  14.521
   57DOPE  H16Y 7346   0.460   2.864  14.487
   57DOPE  C317 7347   0.499   2.930  14.695
   57DOPE  H17X 7348   0.554   2.812  14.721
   57DOPE  H17Y 7349   0.569   3.020  14.752
   57DOPE  C318 7350   0.326   2.922  14.750
   57DOPE  H18X 7351   0.305   2.899  14.856
   57DOPE  H18Y 7352   0.268   3.040  14.743
   57DOPE  H18Z 7353   0.256   2.830  14.696
   58DOPE     N 7354   8.988   7.040  12.783
   58DOPE   HN1 7355   8.893   6.973  12.824
   58DOPE   HN2 7356   8.972   7.036  12.679
   58DOPE   HN3 7357   9.097   6.988  12.802
   58DOPE   C12 7358   8.988   7.206  12.845
   58DOPE  H12A 7359   8.894   7.277  12.794
   58DOPE  H12B 7360   9.107   7.261  12.827
   58DOPE   C11 7361   8.954   7.202  12.997
   58DOPE  H11A 7362   8.936   7.326  13.036
   58DOPE  H11B 7363   9.065   7.159  13.048
   58DOPE     P 7364   8.742   7.092  13.168
   58DOPE   O13 7365   8.581   7.019  13.160
   58DOPE   O14 7366   8.766   7.247  13.237
   58DOPE   O11 7367   8.858   6.965  13.233
   58DOPE   O12 7368   8.816   7.103  13.021
   58DOPE    C1 7369   8.969   6.866  13.160
   58DOPE    HA 7370   9.054   6.937  13.099
   58DOPE    HB 7371   8.904   6.790  13.088
   58DOPE    C2 7372   9.083   6.766  13.252
   58DOPE    HS 7373   9.104   6.647  13.203
   58DOPE   O21 7374   9.025   6.757  13.389
   58DOPE   C21 7375   8.964   6.614  13.415
   58DOPE   O22 7376   8.947   6.509  13.333
   58DOPE   C22 7377   8.944   6.581  13.567
   58DOPE   H2R 7378   9.058   6.610  13.617
   58DOPE   H2S 7379   8.922   6.449  13.572
   58DOPE    C3 7380   9.251   6.845  13.253
   58DOPE    HX 7381   9.307   6.828  13.154
   58DOPE    HY 7382   9.323   6.778  13.330
   58DOPE   O31 7383   9.234   7.014  13.280
   58DOPE   C31 7384   9.338   7.072  13.365
   58DOPE   O32 7385   9.470   7.010  13.386
   58DOPE   C32 7386   9.269   7.226  13.427
   58DOPE   H2X 7387   9.365   7.316  13.441
   58DOPE   H2Y 7388   9.178   7.277  13.357
   58DOPE   C23 7389   8.801   6.655  13.642
   58DOPE   H3R 7390   8.761   6.571  13.722
   58DOPE   H3S 7391   8.698   6.670  13.574
   58DOPE   C24 7392   8.839   6.815  13.708
   58DOPE   H4R 7393   8.908   6.894  13.638
   58DOPE   H4S 7394   8.914   6.797  13.798
   58DOPE   C25 7395   8.684   6.901  13.746
   58DOPE   H5R 7396   8.606   6.822  13.808
   58DOPE   H5S 7397   8.618   6.932  13.653
   58DOPE   C26 7398   8.719   7.054  13.824
   58DOPE   H6R 7399   8.810   7.124  13.769
   58DOPE   H6S 7400   8.771   7.018  13.923
   58DOPE   C27 7401   8.569   7.156  13.848
   58DOPE   H7R 7402   8.464   7.075  13.858
   58DOPE   H7S 7403   8.549   7.234  13.759
   58DOPE   C28 7404   8.586   7.256  13.976
   58DOPE   H8R 7405   8.603   7.172  14.061
   58DOPE   H8S 7406   8.472   7.324  13.993
   58DOPE   C29 7407   8.729   7.368  13.965
   58DOPE   H9R 7408   8.826   7.326  13.901
   58DOPE  C210 7409   8.750   7.507  14.030
   58DOPE  H10R 7410   8.862   7.574  14.012
   58DOPE  C211 7411   8.639   7.584  14.128
   58DOPE  H11R 7412   8.533   7.508  14.152
   58DOPE  H11S 7413   8.592   7.693  14.080
   58DOPE  C212 7414   8.730   7.636  14.255
   58DOPE  H12R 7415   8.641   7.688  14.326
   58DOPE  H12S 7416   8.818   7.730  14.229
   58DOPE  C213 7417   8.812   7.496  14.330
   58DOPE  H13R 7418   8.890   7.546  14.410
   58DOPE  H13S 7419   8.888   7.427  14.261
   58DOPE  C214 7420   8.681   7.391  14.391
   58DOPE  H14R 7421   8.588   7.370  14.313
   58DOPE  H14S 7422   8.622   7.459  14.473
   58DOPE  C215 7423   8.730   7.224  14.437
   58DOPE  H15R 7424   8.801   7.230  14.531
   58DOPE  H15S 7425   8.806   7.163  14.360
   58DOPE  C216 7426   8.575   7.127  14.456
   58DOPE  H16R 7427   8.599   6.998  14.465
   58DOPE  H16S 7428   8.495   7.142  14.367
   58DOPE  C217 7429   8.488   7.175  14.581
   58DOPE  H17R 7430   8.374   7.105  14.581
   58DOPE  H17S 7431   8.461   7.306  14.578
   58DOPE  C218 7432   8.568   7.135  14.711
   58DOPE  H18R 7433   8.538   7.010  14.742
   58DOPE  H18S 7434   8.527   7.220  14.789
   58DOPE  H18T 7435   8.700   7.147  14.704
   58DOPE   C33 7436   9.181   7.194  13.560
   58DOPE   H3X 7437   9.066   7.129  13.543
   58DOPE   H3Y 7438   9.149   7.312  13.606
   58DOPE   C34 7439   9.283   7.099  13.660
   58DOPE   H4X 7440   9.276   6.970  13.636
   58DOPE   H4Y 7441   9.412   7.136  13.654
   58DOPE   C35 7442   9.222   7.129  13.802
   58DOPE   H5X 7443   9.096   7.087  13.806
   58DOPE   H5Y 7444   9.224   7.260  13.823
   58DOPE   C36 7445   9.323   7.044  13.907
   58DOPE   H6X 7446   9.451   7.080  13.897
   58DOPE   H6Y 7447   9.318   6.912  13.888
   58DOPE   C37 7448   9.266   7.081  14.050
   58DOPE   H7X 7449   9.346   7.016  14.120
   58DOPE   H7Y 7450   9.282   7.212  14.069
   58DOPE   C38 7451   9.090   7.038  14.076
   58DOPE   H8X 7452   9.007   7.102  14.007
   58DOPE   H8Y 7453   9.056   7.078  14.178
   58DOPE   C39 7454   9.076   6.859  14.059
   58DOPE   H9X 7455   9.082   6.815  13.956
   58DOPE  C310 7456   9.066   6.754  14.160
   58DOPE  H10X 7457   9.072   6.625  14.136
   58DOPE  C311 7458   9.067   6.797  14.305
   58DOPE  H11X 7459   8.974   6.888  14.328
   58DOPE  H11Y 7460   9.037   6.688  14.362
   58DOPE  C312 7461   9.230   6.858  14.359
   58DOPE  H12X 7462   9.252   6.980  14.320
   58DOPE  H12Y 7463   9.328   6.780  14.319
   58DOPE  C313 7464   9.235   6.862  14.513
   58DOPE  H13X 7465   9.140   6.781  14.550
   58DOPE  H13Y 7466   9.352   6.814  14.548
   58DOPE  C314 7467   9.212   7.034  14.566
   58DOPE  H14X 7468   9.090   7.076  14.540
   58DOPE  H14Y 7469   9.299   7.112  14.512
   58DOPE  C315 7470   9.241   7.062  14.717
   58DOPE  H15X 7471   9.354   7.004  14.750
   58DOPE  H15Y 7472   9.144   7.010  14.779
   58DOPE  C316 7473   9.244   7.243  14.749
   58DOPE  H16X 7474   9.176   7.307  14.668
   58DOPE  H16Y 7475   9.370   7.286  14.747
   58DOPE  C317 7476   9.163   7.291  14.882
   58DOPE  H17X 7477   9.166   7.424  14.891
   58DOPE  H17Y 7478   9.035   7.255  14.877
   58DOPE  C318 7479   9.241   7.219  15.007
   58DOPE  H18X 7480   9.175   7.256  15.099
   58DOPE  H18Y 7481   9.239   7.086  15.001
   58DOPE  H18Z 7482   9.367   7.258  15.015
   59DOPE     N 7483  -0.217   1.166  12.825
   59DOPE   HN1 7484  -0.274   1.181  12.917
   59DOPE   HN2 7485  -0.253   1.259  12.762
   59DOPE   HN3 7486  -0.244   1.052  12.787
   59DOPE   C12 7487  -0.046   1.187  12.864
   59DOPE  H12A 7488   0.030   1.194  12.773
   59DOPE  H12B 7489  -0.013   1.080  12.923
   59DOPE   C11 7490  -0.030   1.340  12.947
   59DOPE  H11A 7491  -0.043   1.445  12.878
   59DOPE  H11B 7492   0.092   1.350  12.992
   59DOPE     P 7493  -0.128   1.267  13.188
   59DOPE   O13 7494  -0.071   1.103  13.161
   59DOPE   O14 7495  -0.278   1.291  13.263
   59DOPE   O11 7496   0.014   1.369  13.250
   59DOPE   O12 7497  -0.154   1.350  13.046
   59DOPE    C1 7498   0.030   1.538  13.237
   59DOPE    HA 7499  -0.072   1.592  13.180
   59DOPE    HB 7500   0.143   1.565  13.182
   59DOPE    C2 7501   0.042   1.632  13.373
   59DOPE    HS 7502   0.076   1.758  13.348
   59DOPE   O21 7503   0.156   1.559  13.464
   59DOPE   C21 7504   0.293   1.633  13.486
   59DOPE   O22 7505   0.340   1.754  13.431
   59DOPE   C22 7506   0.391   1.535  13.586
   59DOPE   H2R 7507   0.520   1.556  13.565
   59DOPE   H2S 7508   0.364   1.408  13.565
   59DOPE    C3 7509  -0.126   1.643  13.442
   59DOPE    HX 7510  -0.214   1.680  13.365
   59DOPE    HY 7511  -0.124   1.739  13.520
   59DOPE   O31 7512  -0.178   1.490  13.494
   59DOPE   C31 7513  -0.125   1.456  13.615
   59DOPE   O32 7514  -0.065   1.552  13.693
   59DOPE   C32 7515  -0.166   1.284  13.652
   59DOPE   H2X 7516  -0.176   1.278  13.762
   59DOPE   H2Y 7517  -0.286   1.259  13.607
   59DOPE   C23 7518   0.350   1.572  13.734
   59DOPE   H3R 7519   0.218   1.584  13.746
   59DOPE   H3S 7520   0.407   1.687  13.764
   59DOPE   C24 7521   0.408   1.438  13.826
   59DOPE   H4R 7522   0.536   1.421  13.803
   59DOPE   H4S 7523   0.342   1.326  13.801
   59DOPE   C25 7524   0.390   1.464  13.977
   59DOPE   H5R 7525   0.394   1.345  14.028
   59DOPE   H5S 7526   0.271   1.520  13.998
   59DOPE   C26 7527   0.527   1.564  14.037
   59DOPE   H6R 7528   0.548   1.670  13.973
   59DOPE   H6S 7529   0.641   1.494  14.033
   59DOPE   C27 7530   0.498   1.614  14.183
   59DOPE   H7R 7531   0.370   1.632  14.207
   59DOPE   H7S 7532   0.557   1.729  14.198
   59DOPE   C28 7533   0.600   1.530  14.288
   59DOPE   H8R 7534   0.666   1.621  14.348
   59DOPE   H8S 7535   0.694   1.464  14.234
   59DOPE   C29 7536   0.511   1.424  14.382
   59DOPE   H9R 7537   0.379   1.420  14.374
   59DOPE  C210 7538   0.589   1.340  14.476
   59DOPE  H10R 7539   0.516   1.260  14.538
   59DOPE  C211 7540   0.770   1.339  14.500
   59DOPE  H11R 7541   0.830   1.441  14.447
   59DOPE  H11S 7542   0.822   1.228  14.458
   59DOPE  C212 7543   0.823   1.349  14.648
   59DOPE  H12R 7544   0.787   1.468  14.688
   59DOPE  H12S 7545   0.955   1.340  14.655
   59DOPE  C213 7546   0.745   1.217  14.732
   59DOPE  H13R 7547   0.790   1.097  14.705
   59DOPE  H13S 7548   0.620   1.217  14.700
   59DOPE  C214 7549   0.733   1.238  14.884
   59DOPE  H14R 7550   0.725   1.369  14.908
   59DOPE  H14S 7551   0.844   1.192  14.934
   59DOPE  C215 7552   0.586   1.151  14.942
   59DOPE  H15R 7553   0.581   1.168  15.051
   59DOPE  H15S 7554   0.610   1.022  14.935
   59DOPE  C216 7555   0.421   1.195  14.881
   59DOPE  H16R 7556   0.415   1.187  14.770
   59DOPE  H16S 7557   0.396   1.321  14.906
   59DOPE  C217 7558   0.284   1.087  14.926
   59DOPE  H17R 7559   0.296   1.068  15.035
   59DOPE  H17S 7560   0.300   0.974  14.871
   59DOPE  C218 7561   0.114   1.142  14.894
   59DOPE  H18R 7562   0.025   1.057  14.938
   59DOPE  H18S 7563   0.094   1.150  14.785
   59DOPE  H18T 7564   0.090   1.261  14.940
   59DOPE   C33 7565  -0.046   1.158  13.596
   59DOPE   H3X 7566   0.000   1.195  13.496
   59DOPE   H3Y 7567  -0.115   1.045  13.580
   59DOPE   C34 7568   0.096   1.114  13.688
   59DOPE   H4X 7569   0.145   1.000  13.649
   59DOPE   H4Y 7570   0.191   1.207  13.676
   59DOPE   C35 7571   0.058   1.087  13.836
   59DOPE   H5X 7572   0.026   1.205  13.882
   59DOPE   H5Y 7573   0.167   1.043  13.889
   59DOPE   C36 7574  -0.082   0.968  13.858
   59DOPE   H6X 7575  -0.055   0.852  13.810
   59DOPE   H6Y 7576  -0.191   1.013  13.806
   59DOPE   C37 7577  -0.124   0.940  14.005
   59DOPE   H7X 7578  -0.199   0.829  14.011
   59DOPE   H7Y 7579  -0.012   0.917  14.064
   59DOPE   C38 7580  -0.215   1.084  14.060
   59DOPE   H8X 7581  -0.311   1.117  13.987
   59DOPE   H8Y 7582  -0.127   1.184  14.062
   59DOPE   C39 7583  -0.290   1.055  14.195
   59DOPE   H9X 7584  -0.332   0.931  14.215
   59DOPE  C310 7585  -0.313   1.170  14.286
   59DOPE  H10X 7586  -0.367   1.140  14.383
   59DOPE  C311 7587  -0.268   1.344  14.266
   59DOPE  H11X 7588  -0.208   1.368  14.169
   59DOPE  H11Y 7589  -0.377   1.420  14.266
   59DOPE  C312 7590  -0.158   1.404  14.377
   59DOPE  H12X 7591  -0.106   1.520  14.344
   59DOPE  H12Y 7592  -0.056   1.321  14.396
   59DOPE  C313 7593  -0.252   1.435  14.505
   59DOPE  H13X 7594  -0.373   1.482  14.480
   59DOPE  H13Y 7595  -0.271   1.320  14.560
   59DOPE  C314 7596  -0.168   1.558  14.593
   59DOPE  H14X 7597  -0.240   1.568  14.685
   59DOPE  H14Y 7598  -0.168   1.679  14.548
   59DOPE  C315 7599   0.006   1.519  14.617
   59DOPE  H15X 7600   0.077   1.530  14.523
   59DOPE  H15Y 7601   0.013   1.392  14.650
   59DOPE  C316 7602   0.082   1.628  14.722
   59DOPE  H16X 7603  -0.007   1.658  14.801
   59DOPE  H16Y 7604   0.122   1.744  14.678
   59DOPE  C317 7605   0.218   1.538  14.787
   59DOPE  H17X 7606   0.253   1.601  14.880
   59DOPE  H17Y 7607   0.174   1.418  14.814
   59DOPE  C318 7608   0.359   1.523  14.693
   59DOPE  H18X 7609   0.390   1.644  14.662
   59DOPE  H18Y 7610   0.466   1.468  14.741
   59DOPE  H18Z 7611   0.324   1.453  14.603
   60DOPE     N 7612   9.224   9.121  13.218
   60DOPE   HN1 7613   9.247   9.041  13.140
   60DOPE   HN2 7614   9.233   9.238  13.182
   60DOPE   HN3 7615   9.306   9.098  13.295
   60DOPE   C12 7616   9.054   9.082  13.251
   60DOPE  H12A 7617   8.975   9.152  13.184
   60DOPE  H12B 7618   9.028   9.112  13.357
   60DOPE   C11 7619   9.032   8.905  13.220
   60DOPE  H11A 7620   8.900   8.886  13.219
   60DOPE  H11B 7621   9.085   8.832  13.303
   60DOPE     P 7622   9.104   8.676  13.058
   60DOPE   O13 7623   9.242   8.598  13.119
   60DOPE   O14 7624   9.078   8.645  12.915
   60DOPE   O11 7625   8.951   8.629  13.132
   60DOPE   O12 7626   9.104   8.864  13.093
   60DOPE    C1 7627   8.802   8.652  13.065
   60DOPE    HA 7628   8.804   8.616  12.957
   60DOPE    HB 7629   8.765   8.779  13.071
   60DOPE    C2 7630   8.689   8.540  13.138
   60DOPE    HS 7631   8.564   8.561  13.102
   60DOPE   O21 7632   8.698   8.566  13.279
   60DOPE   C21 7633   8.656   8.712  13.315
   60DOPE   O22 7634   8.588   8.810  13.244
   60DOPE   C22 7635   8.683   8.731  13.463
   60DOPE   H2R 7636   8.747   8.624  13.504
   60DOPE   H2S 7637   8.562   8.737  13.510
   60DOPE    C3 7638   8.743   8.368  13.103
   60DOPE    HX 7639   8.742   8.364  12.992
   60DOPE    HY 7640   8.646   8.292  13.142
   60DOPE   O31 7641   8.903   8.321  13.147
   60DOPE   C31 7642   8.900   8.255  13.269
   60DOPE   O32 7643   8.785   8.182  13.313
   60DOPE   C32 7644   9.054   8.280  13.348
   60DOPE   H2X 7645   9.152   8.212  13.299
   60DOPE   H2Y 7646   9.088   8.408  13.345
   60DOPE   C23 7647   8.777   8.882  13.496
   60DOPE   H3R 7648   8.719   8.993  13.456
   60DOPE   H3S 7649   8.902   8.876  13.456
   60DOPE   C24 7650   8.782   8.894  13.647
   60DOPE   H4R 7651   8.696   8.808  13.693
   60DOPE   H4S 7652   8.735   9.014  13.675
   60DOPE   C25 7653   8.948   8.858  13.701
   60DOPE   H5R 7654   9.040   8.927  13.643
   60DOPE   H5S 7655   8.974   8.729  13.687
   60DOPE   C26 7656   8.960   8.905  13.848
   60DOPE   H6R 7657   9.074   8.862  13.893
   60DOPE   H6S 7658   8.861   8.838  13.897
   60DOPE   C27 7659   8.947   9.088  13.865
   60DOPE   H7R 7660   8.863   9.142  13.792
   60DOPE   H7S 7661   9.066   9.142  13.843
   60DOPE   C28 7662   8.887   9.143  14.003
   60DOPE   H8R 7663   8.866   9.275  13.997
   60DOPE   H8S 7664   8.983   9.127  14.078
   60DOPE   C29 7665   8.734   9.056  14.040
   60DOPE   H9R 7666   8.628   9.079  13.976
   60DOPE  C210 7667   8.718   8.940  14.130
   60DOPE  H10R 7668   8.599   8.886  14.145
   60DOPE  C211 7669   8.854   8.873  14.211
   60DOPE  H11R 7670   8.970   8.903  14.164
   60DOPE  H11S 7671   8.844   8.741  14.210
   60DOPE  C212 7672   8.863   8.926  14.358
   60DOPE  H12R 7673   8.914   9.049  14.363
   60DOPE  H12S 7674   8.948   8.844  14.408
   60DOPE  C213 7675   8.702   8.917  14.433
   60DOPE  H13R 7676   8.648   8.798  14.421
   60DOPE  H13S 7677   8.618   9.007  14.390
   60DOPE  C214 7678   8.722   8.935  14.584
   60DOPE  H14R 7679   8.825   8.860  14.616
   60DOPE  H14S 7680   8.612   8.886  14.633
   60DOPE  C215 7681   8.748   9.109  14.624
   60DOPE  H15R 7682   8.844   9.160  14.559
   60DOPE  H15S 7683   8.791   9.114  14.729
   60DOPE  C216 7684   8.597   9.212  14.610
   60DOPE  H16R 7685   8.526   9.200  14.704
   60DOPE  H16S 7686   8.520   9.168  14.527
   60DOPE  C217 7687   8.634   9.389  14.584
   60DOPE  H17R 7688   8.519   9.457  14.577
   60DOPE  H17S 7689   8.695   9.400  14.485
   60DOPE  C218 7690   8.741   9.463  14.692
   60DOPE  H18R 7691   8.749   9.595  14.681
   60DOPE  H18S 7692   8.863   9.413  14.690
   60DOPE  H18T 7693   8.688   9.437  14.790
   60DOPE   C33 7694   9.041   8.219  13.495
   60DOPE   H3X 7695   9.164   8.230  13.532
   60DOPE   H3Y 7696   9.007   8.089  13.502
   60DOPE   C34 7697   8.956   8.315  13.606
   60DOPE   H4X 7698   8.975   8.446  13.589
   60DOPE   H4Y 7699   8.825   8.291  13.606
   60DOPE   C35 7700   9.029   8.266  13.742
   60DOPE   H5X 7701   9.160   8.288  13.734
   60DOPE   H5Y 7702   9.014   8.134  13.756
   60DOPE   C36 7703   8.975   8.352  13.870
   60DOPE   H6X 7704   8.868   8.290  13.911
   60DOPE   H6Y 7705   8.942   8.479  13.847
   60DOPE   C37 7706   9.114   8.345  13.970
   60DOPE   H7X 7707   9.155   8.219  13.971
   60DOPE   H7Y 7708   9.214   8.418  13.929
   60DOPE   C38 7709   9.085   8.396  14.115
   60DOPE   H8X 7710   9.179   8.339  14.178
   60DOPE   H8Y 7711   8.966   8.351  14.150
   60DOPE   C39 7712   9.096   8.576  14.123
   60DOPE   H9X 7713   9.008   8.638  14.058
   60DOPE  C310 7714   9.191   8.670  14.200
   60DOPE  H10X 7715   9.182   8.801  14.187
   60DOPE  C311 7716   9.317   8.626  14.301
   60DOPE  H11X 7717   9.364   8.502  14.286
   60DOPE  H11Y 7718   9.419   8.711  14.290
   60DOPE  C312 7719   9.253   8.633  14.444
   60DOPE  H12X 7720   9.168   8.734  14.457
   60DOPE  H12Y 7721   9.355   8.658  14.512
   60DOPE  C313 7722   9.184   8.472  14.492
   60DOPE  H13X 7723   9.053   8.468  14.473
   60DOPE  H13Y 7724   9.239   8.375  14.432
   60DOPE  C314 7725   9.222   8.436  14.639
   60DOPE  H14X 7726   9.354   8.455  14.655
   60DOPE  H14Y 7727   9.197   8.308  14.658
   60DOPE  C315 7728   9.128   8.536  14.742
   60DOPE  H15X 7729   9.170   8.497  14.843
   60DOPE  H15Y 7730   8.999   8.506  14.735
   60DOPE  C316 7731   9.150   8.718  14.732
   60DOPE  H16X 7732   9.076   8.767  14.649
   60DOPE  H16Y 7733   9.278   8.746  14.710
   60DOPE  C317 7734   9.107   8.803  14.862
   60DOPE  H17X 7735   8.982   8.770  14.890
   60DOPE  H17Y 7736   9.192   8.755  14.938
   60DOPE  C318 7737   9.125   8.986  14.863
   60DOPE  H18X 7738   9.252   9.020  14.847
   60DOPE  H18Y 7739   9.050   9.042  14.784
   60DOPE  H18Z 7740   9.086   9.035  14.962
   6123SM     N 7741   3.876   5.183  17.705
   6123SM   C15 7742   3.740   5.152  17.610
   6123SM  H15A 7743   3.624   5.156  17.657
   6123SM  H15B 7744   3.758   5.034  17.563
   6123SM  H15C 7745   3.744   5.238  17.529
   6123SM   C14 7746   3.835   5.321  17.794
   6123SM  H14A 7747   3.823   5.431  17.737
   6123SM  H14B 7748   3.925   5.336  17.872
   6123SM  H14C 7749   3.720   5.299  17.841
   6123SM   C13 7750   3.904   5.035  17.788
   6123SM  H13A 7751   3.802   4.999  17.847
   6123SM  H13B 7752   4.007   5.047  17.854
   6123SM  H13C 7753   3.930   4.936  17.722
   6123SM   C12 7754   4.026   5.222  17.625
   6123SM  H12A 7755   4.127   5.219  17.694
   6123SM  H12B 7756   4.018   5.344  17.586
   6123SM   C11 7757   4.070   5.108  17.509
   6123SM  H11A 7758   4.177   5.155  17.455
   6123SM  H11B 7759   3.971   5.102  17.434
   6123SM     P 7760   4.055   4.792  17.503
   6123SM   O13 7761   4.165   4.661  17.542
   6123SM   O14 7762   3.883   4.772  17.538
   6123SM   O11 7763   4.078   4.834  17.351
   6123SM   O12 7764   4.111   4.956  17.564
   6123SM   C1S 7765   3.959   4.825  17.251
   6123SM   H1S 7766   3.894   4.942  17.242
   6123SM   H1T 7767   3.868   4.732  17.274
   6123SM    NF 7768   4.166   4.902  17.085
   6123SM   HNF 7769   4.133   5.015  17.069
   6123SM   C2S 7770   4.040   4.787  17.115
   6123SM   H2S 7771   4.094   4.664  17.122
   6123SM   C3S 7772   3.910   4.787  17.007
   6123SM   H3S 7773   3.835   4.897  17.012
   6123SM    O3 7774   3.808   4.650  17.028
   6123SM   HO3 7775   3.842   4.609  17.113
   6123SM   C4S 7776   3.990   4.771  16.872
   6123SM   H4S 7777   4.034   4.650  16.855
   6123SM   C5S 7778   4.016   4.888  16.781
   6123SM   H5S 7779   3.972   5.009  16.803
   6123SM   C6S 7780   4.098   4.866  16.646
   6123SM   H6S 7781   4.028   4.934  16.572
   6123SM   H6T 7782   4.094   4.740  16.614
   6123SM   C7S 7783   4.277   4.912  16.628
   6123SM   H7S 7784   4.352   4.822  16.679
   6123SM   H7T 7785   4.300   5.029  16.678
   6123SM   C8S 7786   4.326   4.936  16.480
   6123SM   H8S 7787   4.456   4.966  16.474
   6123SM   H8T 7788   4.261   5.046  16.447
   6123SM   C9S 7789   4.286   4.805  16.374
   6123SM   H9S 7790   4.160   4.762  16.390
   6123SM   H9T 7791   4.367   4.700  16.387
   6123SM  C10S 7792   4.300   4.871  16.229
   6123SM  H10S 7793   4.424   4.914  16.213
   6123SM  H10T 7794   4.220   4.978  16.222
   6123SM  C11S 7795   4.254   4.756  16.112
   6123SM  H11S 7796   4.126   4.721  16.123
   6123SM  H11T 7797   4.324   4.644  16.121
   6123SM  C12S 7798   4.284   4.826  15.970
   6123SM  H12S 7799   4.400   4.889  15.969
   6123SM  H12T 7800   4.192   4.916  15.943
   6123SM  C13S 7801   4.284   4.700  15.857
   6123SM  H13S 7802   4.181   4.621  15.872
   6123SM  H13T 7803   4.394   4.625  15.867
   6123SM  C14S 7804   4.279   4.770  15.713
   6123SM  H14S 7805   4.357   4.696  15.648
   6123SM  H14T 7806   4.333   4.892  15.715
   6123SM  C15S 7807   4.110   4.782  15.648
   6123SM  H15S 7808   4.082   4.912  15.634
   6123SM  H15T 7809   4.018   4.734  15.717
   6123SM  C16S 7810   4.105   4.699  15.510
   6123SM  H16S 7811   4.168   4.583  15.526
   6123SM  H16T 7812   4.176   4.775  15.440
   6123SM  C17S 7813   3.944   4.657  15.440
   6123SM  H17S 7814   3.854   4.752  15.455
   6123SM  H17T 7815   3.895   4.546  15.485
   6123SM  C18S 7816   3.964   4.634  15.288
   6123SM  H18S 7817   3.997   4.750  15.240
   6123SM  H18T 7818   3.850   4.592  15.242
   6123SM  H18U 7819   4.060   4.547  15.264
   6123SM   C1F 7820   4.321   4.874  17.100
   6123SM    OF 7821   4.375   4.740  17.121
   6123SM   C2F 7822   4.428   5.016  17.077
   6123SM   H2F 7823   4.454   5.022  16.969
   6123SM   H2G 7824   4.544   4.991  17.128
   6123SM   C3F 7825   4.361   5.180  17.126
   6123SM   H3F 7826   4.463   5.267  17.121
   6123SM   H3G 7827   4.327   5.171  17.234
   6123SM   C4F 7828   4.222   5.258  17.048
   6123SM   H4F 7829   4.212   5.386  17.081
   6123SM   H4G 7830   4.105   5.202  17.074
   6123SM   C5F 7831   4.238   5.255  16.895
   6123SM   H5F 7832   4.247   5.129  16.862
   6123SM   H5G 7833   4.350   5.318  16.865
   6123SM   C6F 7834   4.094   5.332  16.821
   6123SM   H6F 7835   4.085   5.461  16.848
   6123SM   H6G 7836   3.980   5.273  16.853
   6123SM   C7F 7837   4.109   5.316  16.668
   6123SM   H7F 7838   4.103   5.189  16.639
   6123SM   H7G 7839   4.228   5.362  16.637
   6123SM   C8F 7840   3.978   5.405  16.588
   6123SM   H8F 7841   3.988   5.534  16.611
   6123SM   H8G 7842   3.858   5.363  16.620
   6123SM   C9F 7843   3.995   5.380  16.436
   6123SM   H9F 7844   4.123   5.383  16.407
   6123SM   H9G 7845   3.934   5.480  16.383
   6123SM  C10F 7846   3.918   5.224  16.389
   6123SM  H10F 7847   3.788   5.224  16.417
   6123SM  H10G 7848   3.977   5.122  16.442
   6123SM  C11F 7849   3.932   5.195  16.239
   6123SM  H11F 7850   4.062   5.191  16.212
   6123SM  H11G 7851   3.876   5.294  16.182
   6123SM  C12F 7852   3.853   5.035  16.201
   6123SM  H12F 7853   3.722   5.039  16.221
   6123SM  H12G 7854   3.907   4.939  16.265
   6123SM  C13F 7855   3.886   4.992  16.055
   6123SM  H13F 7856   3.868   4.860  16.042
   6123SM  H13G 7857   4.013   5.021  16.034
   6123SM  C14F 7858   3.782   5.082  15.953
   6123SM  H14F 7859   3.814   5.212  15.953
   6123SM  H14G 7860   3.654   5.070  15.981
   6123SM  C15F 7861   3.808   5.011  15.813
   6123SM  H15F 7862   3.798   4.878  15.822
   6123SM  H15G 7863   3.931   5.039  15.779
   6123SM  C16F 7864   3.685   5.066  15.709
   6123SM  H16F 7865   3.707   5.195  15.683
   6123SM  H16G 7866   3.563   5.058  15.753
   6123SM  C17F 7867   3.691   4.962  15.583
   6123SM  H17F 7868   3.680   4.834  15.616
   6123SM  H17G 7869   3.809   4.978  15.533
   6123SM  C18F 7870   3.556   4.998  15.484
   6123SM  H18F 7871   3.583   5.110  15.428
   6123SM  H18G 7872   3.445   5.023  15.544
   6123SM  C19F 7873   3.512   4.858  15.389
   6123SM  H19F 7874   3.380   4.862  15.371
   6123SM  H19G 7875   3.538   4.741  15.440
   6123SM  C20F 7876   3.593   4.860  15.250
   6123SM  H20F 7877   3.541   4.762  15.188
   6123SM  H20G 7878   3.724   4.838  15.261
   6123SM  C21F 7879   3.571   5.020  15.177
   6123SM  H21F 7880   3.659   5.105  15.224
   6123SM  H21G 7881   3.448   5.064  15.192
   6123SM  C22F 7882   3.610   5.017  15.027
   6123SM  H22F 7883   3.535   4.925  14.977
   6123SM  H22G 7884   3.736   4.980  15.018
   6123SM  C23F 7885   3.593   5.180  14.957
   6123SM  H23F 7886   3.654   5.178  14.857
   6123SM  H23G 7887   3.652   5.275  15.017
   6123SM  H23H 7888   3.466   5.213  14.942
   6223SM     N 7889   4.099   3.874  17.745
   6223SM   C15 7890   3.970   3.752  17.725
   6223SM  H15A 7891   3.854   3.800  17.756
   6223SM  H15B 7892   3.991   3.638  17.773
   6223SM  H15C 7893   3.959   3.733  17.617
   6223SM   C14 7894   4.124   3.900  17.892
   6223SM  H14A 7895   4.182   3.793  17.934
   6223SM  H14B 7896   4.013   3.920  17.945
   6223SM  H14C 7897   4.201   4.001  17.915
   6223SM   C13 7898   4.254   3.811  17.690
   6223SM  H13A 7899   4.351   3.895  17.705
   6223SM  H13B 7900   4.243   3.793  17.583
   6223SM  H13C 7901   4.285   3.697  17.735
   6223SM   C12 7902   4.055   4.028  17.671
   6223SM  H12A 7903   4.145   4.118  17.694
   6223SM  H12B 7904   3.938   4.075  17.703
   6223SM   C11 7905   4.043   4.020  17.515
   6223SM  H11A 7906   4.163   3.991  17.473
   6223SM  H11B 7907   4.013   4.142  17.477
   6223SM     P 7908   3.745   3.941  17.454
   6223SM   O13 7909   3.661   3.784  17.456
   6223SM   O14 7910   3.707   4.060  17.559
   6223SM   O11 7911   3.734   4.019  17.308
   6223SM   O12 7912   3.931   3.902  17.470
   6223SM   C1S 7913   3.822   3.946  17.202
   6223SM   H1S 7914   3.804   3.812  17.204
   6223SM   H1T 7915   3.954   3.967  17.212
   6223SM    NF 7916   3.840   4.142  17.005
   6223SM   HNF 7917   3.768   4.226  16.970
   6223SM   C2S 7918   3.763   3.997  17.059
   6223SM   H2S 7919   3.791   3.896  16.990
   6223SM   C3S 7920   3.577   4.020  17.062
   6223SM   H3S 7921   3.544   4.111  17.138
   6223SM    O3 7922   3.486   3.880  17.093
   6223SM   HO3 7923   3.553   3.812  17.147
   6223SM   C4S 7924   3.529   4.082  16.926
   6223SM   H4S 7925   3.542   4.212  16.916
   6223SM   C5S 7926   3.469   4.000  16.821
   6223SM   H5S 7927   3.442   3.871  16.834
   6223SM   C6S 7928   3.430   4.072  16.688
   6223SM   H6S 7929   3.452   4.204  16.684
   6223SM   H6T 7930   3.301   4.054  16.660
   6223SM   C7S 7931   3.542   3.986  16.586
   6223SM   H7S 7932   3.500   3.862  16.572
   6223SM   H7T 7933   3.668   3.984  16.624
   6223SM   C8S 7934   3.545   4.076  16.452
   6223SM   H8S 7935   3.618   4.184  16.472
   6223SM   H8T 7936   3.422   4.120  16.435
   6223SM   C9S 7937   3.613   3.988  16.329
   6223SM   H9S 7938   3.564   3.863  16.325
   6223SM   H9T 7939   3.745   3.979  16.341
   6223SM  C10S 7940   3.575   4.068  16.193
   6223SM  H10S 7941   3.593   4.200  16.200
   6223SM  H10T 7942   3.446   4.049  16.170
   6223SM  C11S 7943   3.672   4.007  16.072
   6223SM  H11S 7944   3.685   3.875  16.079
   6223SM  H11T 7945   3.794   4.061  16.077
   6223SM  C12S 7946   3.594   4.050  15.936
   6223SM  H12S 7947   3.534   4.169  15.947
   6223SM  H12T 7948   3.499   3.961  15.912
   6223SM  C13S 7949   3.715   4.063  15.819
   6223SM  H13S 7950   3.763   3.943  15.793
   6223SM  H13T 7951   3.817   4.134  15.861
   6223SM  C14S 7952   3.658   4.152  15.691
   6223SM  H14S 7953   3.764   4.207  15.642
   6223SM  H14T 7954   3.576   4.252  15.720
   6223SM  C15S 7955   3.581   4.046  15.583
   6223SM  H15S 7956   3.485   3.973  15.631
   6223SM  H15T 7957   3.673   3.962  15.544
   6223SM  C16S 7958   3.504   4.138  15.463
   6223SM  H16S 7959   3.400   4.204  15.503
   6223SM  H16T 7960   3.460   4.046  15.391
   6223SM  C17S 7961   3.604   4.262  15.385
   6223SM  H17S 7962   3.721   4.211  15.360
   6223SM  H17T 7963   3.626   4.369  15.449
   6223SM  C18S 7964   3.523   4.318  15.254
   6223SM  H18S 7965   3.492   4.213  15.190
   6223SM  H18T 7966   3.605   4.396  15.194
   6223SM  H18U 7967   3.412   4.386  15.274
   6223SM   C1F 7968   3.994   4.147  16.968
   6223SM    OF 7969   4.091   4.045  17.004
   6223SM   C2F 7970   4.037   4.285  16.877
   6223SM   H2F 7971   4.139   4.247  16.813
   6223SM   H2G 7972   4.078   4.387  16.940
   6223SM   C3F 7973   3.896   4.343  16.786
   6223SM   H3F 7974   3.811   4.416  16.847
   6223SM   H3G 7975   3.828   4.238  16.745
   6223SM   C4F 7976   3.952   4.444  16.665
   6223SM   H4F 7977   3.991   4.362  16.583
   6223SM   H4G 7978   4.061   4.510  16.696
   6223SM   C5F 7979   3.828   4.567  16.612
   6223SM   H5F 7980   3.888   4.660  16.550
   6223SM   H5G 7981   3.769   4.628  16.697
   6223SM   C6F 7982   3.697   4.502  16.517
   6223SM   H6F 7983   3.610   4.600  16.494
   6223SM   H6G 7984   3.629   4.411  16.575
   6223SM   C7F 7985   3.758   4.426  16.386
   6223SM   H7F 7986   3.653   4.366  16.341
   6223SM   H7G 7987   3.847   4.331  16.413
   6223SM   C8F 7988   3.829   4.528  16.271
   6223SM   H8F 7989   3.906   4.626  16.311
   6223SM   H8G 7990   3.727   4.584  16.216
   6223SM   C9F 7991   3.929   4.418  16.176
   6223SM   H9F 7992   3.877   4.295  16.184
   6223SM   H9G 7993   4.054   4.411  16.215
   6223SM  C10F 7994   3.930   4.458  16.025
   6223SM  H10F 7995   3.961   4.585  16.008
   6223SM  H10G 7996   3.806   4.440  15.985
   6223SM  C11F 7997   4.045   4.351  15.942
   6223SM  H11F 7998   4.025   4.223  15.967
   6223SM  H11G 7999   4.172   4.379  15.966
   6223SM  C12F 8000   4.018   4.370  15.791
   6223SM  H12F 8001   4.043   4.493  15.755
   6223SM  H12G 8002   3.888   4.354  15.770
   6223SM  C13F 8003   4.116   4.256  15.703
   6223SM  H13F 8004   4.080   4.286  15.600
   6223SM  H13G 8005   4.082   4.129  15.724
   6223SM  C14F 8006   4.298   4.273  15.720
   6223SM  H14F 8007   4.325   4.200  15.811
   6223SM  H14G 8008   4.332   4.398  15.742
   6223SM  C15F 8009   4.400   4.201  15.605
   6223SM  H15F 8010   4.348   4.085  15.573
   6223SM  H15G 8011   4.519   4.170  15.651
   6223SM  C16F 8012   4.442   4.304  15.482
   6223SM  H16F 8013   4.544   4.242  15.431
   6223SM  H16G 8014   4.489   4.424  15.513
   6223SM  C17F 8015   4.314   4.326  15.371
   6223SM  H17F 8016   4.376   4.343  15.274
   6223SM  H17G 8017   4.247   4.438  15.389
   6223SM  C18F 8018   4.195   4.186  15.355
   6223SM  H18F 8019   4.136   4.154  15.450
   6223SM  H18G 8020   4.265   4.076  15.327
   6223SM  C19F 8021   4.057   4.213  15.255
   6223SM  H19F 8022   4.108   4.249  15.157
   6223SM  H19G 8023   3.976   4.309  15.291
   6223SM  C20F 8024   3.956   4.058  15.241
   6223SM  H20F 8025   3.888   4.036  15.334
   6223SM  H20G 8026   4.045   3.960  15.233
   6223SM  C21F 8027   3.845   4.057  15.119
   6223SM  H21F 8028   3.918   4.080  15.029
   6223SM  H21G 8029   3.758   4.159  15.124
   6223SM  C22F 8030   3.752   3.899  15.098
   6223SM  H22F 8031   3.733   3.883  14.989
   6223SM  H22G 8032   3.631   3.907  15.145
   6223SM  C23F 8033   3.840   3.751  15.153
   6223SM  H23F 8034   3.971   3.760  15.132
   6223SM  H23G 8035   3.797   3.640  15.106
   6223SM  H23H 8036   3.824   3.743  15.263
   6323SM     N 8037   5.686   5.942  17.765
   6323SM   C15 8038   5.579   5.842  17.677
   6323SM  H15A 8039   5.534   5.734  17.721
   6323SM  H15B 8040   5.644   5.813  17.586
   6323SM  H15C 8041   5.477   5.915  17.641
   6323SM   C14 8042   5.587   5.989  17.883
   6323SM  H14A 8043   5.560   5.881  17.940
   6323SM  H14B 8044   5.476   6.043  17.849
   6323SM  H14C 8045   5.652   6.068  17.950
   6323SM   C13 8046   5.828   5.855  17.820
   6323SM  H13A 8047   5.794   5.741  17.863
   6323SM  H13B 8048   5.886   5.924  17.899
   6323SM  H13C 8049   5.920   5.836  17.744
   6323SM   C12 8050   5.735   6.088  17.682
   6323SM  H12A 8051   5.810   6.164  17.741
   6323SM  H12B 8052   5.624   6.152  17.657
   6323SM   C11 8053   5.816   6.058  17.545
   6323SM  H11A 8054   5.912   5.966  17.557
   6323SM  H11B 8055   5.876   6.170  17.511
   6323SM     P 8056   5.563   6.116  17.397
   6323SM   O13 8057   5.436   6.101  17.499
   6323SM   O14 8058   5.632   6.278  17.370
   6323SM   O11 8059   5.507   6.031  17.265
   6323SM   O12 8060   5.707   6.002  17.445
   6323SM   C1S 8061   5.600   6.044  17.148
   6323SM   H1S 8062   5.701   5.957  17.153
   6323SM   H1T 8063   5.652   6.167  17.134
   6323SM    NF 8064   5.594   6.029  16.911
   6323SM   HNF 8065   5.562   6.113  16.845
   6323SM   C2S 8066   5.495   6.007  17.027
   6323SM   H2S 8067   5.456   5.879  17.034
   6323SM   C3S 8068   5.340   6.112  17.022
   6323SM   H3S 8069   5.369   6.240  17.040
   6323SM    O3 8070   5.222   6.064  17.119
   6323SM   HO3 8071   5.288   6.024  17.191
   6323SM   C4S 8072   5.273   6.089  16.883
   6323SM   H4S 8073   5.208   5.976  16.868
   6323SM   C5S 8074   5.287   6.193  16.781
   6323SM   H5S 8075   5.340   6.313  16.799
   6323SM   C6S 8076   5.221   6.166  16.642
   6323SM   H6S 8077   5.144   6.269  16.612
   6323SM   H6T 8078   5.142   6.058  16.640
   6323SM   C7S 8079   5.353   6.144  16.535
   6323SM   H7S 8080   5.430   6.040  16.560
   6323SM   H7T 8081   5.430   6.253  16.532
   6323SM   C8S 8082   5.280   6.119  16.395
   6323SM   H8S 8083   5.214   6.230  16.367
   6323SM   H8T 8084   5.191   6.019  16.399
   6323SM   C9S 8085   5.402   6.082  16.285
   6323SM   H9S 8086   5.484   5.982  16.314
   6323SM   H9T 8087   5.478   6.191  16.273
   6323SM  C10S 8088   5.320   6.041  16.152
   6323SM  H10S 8089   5.221   6.127  16.135
   6323SM  H10T 8090   5.266   5.920  16.160
   6323SM  C11S 8091   5.430   6.049  16.030
   6323SM  H11S 8092   5.539   5.975  16.046
   6323SM  H11T 8093   5.468   6.175  16.019
   6323SM  C12S 8094   5.347   5.999  15.900
   6323SM  H12S 8095   5.233   6.067  15.887
   6323SM  H12T 8096   5.316   5.869  15.906
   6323SM  C13S 8097   5.454   6.029  15.778
   6323SM  H13S 8098   5.575   5.980  15.799
   6323SM  H13T 8099   5.467   6.161  15.762
   6323SM  C14S 8100   5.389   5.951  15.651
   6323SM  H14S 8101   5.273   6.007  15.622
   6323SM  H14T 8102   5.366   5.821  15.671
   6323SM  C15S 8103   5.509   5.966  15.537
   6323SM  H15S 8104   5.629   5.924  15.574
   6323SM  H15T 8105   5.524   6.096  15.513
   6323SM  C16S 8106   5.467   5.869  15.412
   6323SM  H16S 8107   5.465   5.740  15.436
   6323SM  H16T 8108   5.567   5.887  15.340
   6323SM  C17S 8109   5.311   5.915  15.340
   6323SM  H17S 8110   5.285   6.046  15.354
   6323SM  H17T 8111   5.212   5.846  15.385
   6323SM  C18S 8112   5.321   5.881  15.190
   6323SM  H18S 8113   5.371   5.986  15.134
   6323SM  H18T 8114   5.201   5.852  15.148
   6323SM  H18U 8115   5.402   5.778  15.171
   6323SM   C1F 8116   5.717   5.934  16.884
   6323SM    OF 8117   5.736   5.807  16.942
   6323SM   C2F 8118   5.827   5.988  16.776
   6323SM   H2F 8119   5.814   5.906  16.689
   6323SM   H2G 8120   5.950   5.977  16.815
   6323SM   C3F 8121   5.810   6.164  16.729
   6323SM   H3F 8122   5.830   6.248  16.814
   6323SM   H3G 8123   5.690   6.187  16.685
   6323SM   C4F 8124   5.939   6.194  16.621
   6323SM   H4F 8125   5.915   6.102  16.543
   6323SM   H4G 8126   6.060   6.172  16.663
   6323SM   C5F 8127   5.938   6.358  16.552
   6323SM   H5F 8128   6.031   6.436  16.599
   6323SM   H5G 8129   5.820   6.420  16.564
   6323SM   C6F 8130   5.974   6.338  16.401
   6323SM   H6F 8131   6.077   6.257  16.386
   6323SM   H6G 8132   6.010   6.457  16.362
   6323SM   C7F 8133   5.828   6.284  16.319
   6323SM   H7F 8134   5.723   6.356  16.354
   6323SM   H7G 8135   5.800   6.156  16.336
   6323SM   C8F 8136   5.846   6.317  16.168
   6323SM   H8F 8137   5.878   6.204  16.115
   6323SM   H8G 8138   5.947   6.403  16.153
   6323SM   C9F 8139   5.694   6.395  16.110
   6323SM   H9F 8140   5.689   6.521  16.147
   6323SM   H9G 8141   5.586   6.336  16.148
   6323SM  C10F 8142   5.686   6.396  15.958
   6323SM  H10F 8143   5.657   6.276  15.917
   6323SM  H10G 8144   5.808   6.421  15.919
   6323SM  C11F 8145   5.566   6.522  15.905
   6323SM  H11F 8146   5.575   6.634  15.966
   6323SM  H11G 8147   5.441   6.478  15.915
   6323SM  C12F 8148   5.609   6.563  15.761
   6323SM  H12F 8149   5.615   6.451  15.701
   6323SM  H12G 8150   5.728   6.616  15.767
   6323SM  C13F 8151   5.518   6.694  15.685
   6323SM  H13F 8152   5.519   6.809  15.741
   6323SM  H13G 8153   5.393   6.652  15.676
   6323SM  C14F 8154   5.604   6.720  15.549
   6323SM  H14F 8155   5.668   6.607  15.523
   6323SM  H14G 8156   5.700   6.812  15.560
   6323SM  C15F 8157   5.495   6.758  15.430
   6323SM  H15F 8158   5.564   6.742  15.336
   6323SM  H15G 8159   5.456   6.887  15.435
   6323SM  C16F 8160   5.345   6.650  15.426
   6323SM  H16F 8161   5.273   6.674  15.336
   6323SM  H16G 8162   5.267   6.689  15.509
   6323SM  C17F 8163   5.382   6.469  15.427
   6323SM  H17F 8164   5.280   6.396  15.461
   6323SM  H17G 8165   5.480   6.440  15.497
   6323SM  C18F 8166   5.419   6.409  15.286
   6323SM  H18F 8167   5.458   6.514  15.225
   6323SM  H18G 8168   5.309   6.359  15.240
   6323SM  C19F 8169   5.552   6.287  15.281
   6323SM  H19F 8170   5.510   6.170  15.319
   6323SM  H19G 8171   5.653   6.328  15.345
   6323SM  C20F 8172   5.615   6.263  15.139
   6323SM  H20F 8173   5.639   6.382  15.093
   6323SM  H20G 8174   5.527   6.199  15.074
   6323SM  C21F 8175   5.773   6.175  15.143
   6323SM  H21F 8176   5.854   6.229  15.220
   6323SM  H21G 8177   5.827   6.199  15.044
   6323SM  C22F 8178   5.767   5.993  15.160
   6323SM  H22F 8179   5.653   5.941  15.123
   6323SM  H22G 8180   5.780   5.958  15.267
   6323SM  C23F 8181   5.906   5.927  15.081
   6323SM  H23F 8182   5.864   5.887  14.982
   6323SM  H23G 8183   5.974   5.830  15.125
   6323SM  H23H 8184   5.999   6.020  15.072
   6423SM     N 8185   6.539   4.602  17.747
   6423SM   C15 8186   6.419   4.474  17.778
   6423SM  H15A 8187   6.331   4.471  17.695
   6423SM  H15B 8188   6.353   4.493  17.869
   6423SM  H15C 8189   6.475   4.357  17.779
   6423SM   C14 8190   6.455   4.759  17.728
   6423SM  H14A 8191   6.366   4.746  17.648
   6423SM  H14B 8192   6.542   4.848  17.699
   6423SM  H14C 8193   6.398   4.794  17.820
   6423SM   C13 8194   6.653   4.619  17.860
   6423SM  H13A 8195   6.590   4.668  17.948
   6423SM  H13B 8196   6.744   4.709  17.838
   6423SM  H13C 8197   6.707   4.507  17.892
   6423SM   C12 8198   6.628   4.552  17.621
   6423SM  H12A 8199   6.648   4.422  17.625
   6423SM  H12B 8200   6.744   4.610  17.616
   6423SM   C11 8201   6.539   4.584  17.488
   6423SM  H11A 8202   6.612   4.536  17.403
   6423SM  H11B 8203   6.529   4.716  17.471
   6423SM     P 8204   6.358   4.333  17.453
   6423SM   O13 8205   6.496   4.246  17.512
   6423SM   O14 8206   6.194   4.286  17.491
   6423SM   O11 8207   6.382   4.338  17.296
   6423SM   O12 8208   6.380   4.517  17.492
   6423SM   C1S 8209   6.316   4.472  17.225
   6423SM   H1S 8210   6.360   4.589  17.267
   6423SM   H1T 8211   6.182   4.472  17.233
   6423SM    NF 8212   6.332   4.631  17.020
   6423SM   HNF 8213   6.228   4.649  16.972
   6423SM   C2S 8214   6.365   4.472  17.075
   6423SM   H2S 8215   6.497   4.451  17.068
   6423SM   C3S 8216   6.276   4.336  17.000
   6423SM   H3S 8217   6.148   4.333  17.030
   6423SM    O3 8218   6.341   4.180  17.028
   6423SM   HO3 8219   6.370   4.177  17.122
   6423SM   C4S 8220   6.292   4.360  16.852
   6423SM   H4S 8221   6.390   4.289  16.806
   6423SM   C5S 8222   6.196   4.448  16.773
   6423SM   H5S 8223   6.095   4.517  16.816
   6423SM   C6S 8224   6.217   4.468  16.624
   6423SM   H6S 8225   6.160   4.582  16.590
   6423SM   H6T 8226   6.156   4.369  16.571
   6423SM   C7S 8227   6.388   4.458  16.569
   6423SM   H7S 8228   6.445   4.344  16.601
   6423SM   H7T 8229   6.463   4.558  16.608
   6423SM   C8S 8230   6.380   4.456  16.416
   6423SM   H8S 8231   6.317   4.344  16.386
   6423SM   H8T 8232   6.504   4.444  16.376
   6423SM   C9S 8233   6.290   4.597  16.350
   6423SM   H9S 8234   6.317   4.712  16.401
   6423SM   H9T 8235   6.160   4.574  16.363
   6423SM  C10S 8236   6.329   4.610  16.201
   6423SM  H10S 8237   6.337   4.487  16.159
   6423SM  H10T 8238   6.448   4.668  16.188
   6423SM  C11S 8239   6.204   4.702  16.117
   6423SM  H11S 8240   6.202   4.830  16.146
   6423SM  H11T 8241   6.084   4.654  16.139
   6423SM  C12S 8242   6.236   4.684  15.967
   6423SM  H12S 8243   6.232   4.555  15.938
   6423SM  H12T 8244   6.361   4.726  15.949
   6423SM  C13S 8245   6.120   4.780  15.878
   6423SM  H13S 8246   6.091   4.896  15.927
   6423SM  H13T 8247   6.006   4.710  15.870
   6423SM  C14S 8248   6.184   4.808  15.735
   6423SM  H14S 8249   6.230   4.693  15.697
   6423SM  H14T 8250   6.283   4.898  15.738
   6423SM  C15S 8251   6.052   4.852  15.635
   6423SM  H15S 8252   6.011   4.975  15.660
   6423SM  H15T 8253   5.952   4.765  15.649
   6423SM  C16S 8254   6.095   4.843  15.484
   6423SM  H16S 8255   6.227   4.854  15.469
   6423SM  H16T 8256   6.038   4.950  15.438
   6423SM  C17S 8257   6.031   4.694  15.409
   6423SM  H17S 8258   5.900   4.704  15.386
   6423SM  H17T 8259   6.043   4.588  15.475
   6423SM  C18S 8260   6.119   4.666  15.277
   6423SM  H18S 8261   6.082   4.756  15.202
   6423SM  H18T 8262   6.089   4.547  15.234
   6423SM  H18U 8263   6.251   4.675  15.291
   6423SM   C1F 8264   6.427   4.757  17.041
   6423SM    OF 8265   6.538   4.748  17.123
   6423SM   C2F 8266   6.391   4.906  16.963
   6423SM   H2F 8267   6.354   4.998  17.036
   6423SM   H2G 8268   6.288   4.884  16.895
   6423SM   C3F 8269   6.535   4.966  16.878
   6423SM   H3F 8270   6.647   4.968  16.939
   6423SM   H3G 8271   6.509   5.092  16.847
   6423SM   C4F 8272   6.568   4.868  16.750
   6423SM   H4F 8273   6.454   4.850  16.695
   6423SM   H4G 8274   6.614   4.748  16.777
   6423SM   C5F 8275   6.686   4.955  16.656
   6423SM   H5F 8276   6.778   5.016  16.719
   6423SM   H5G 8277   6.623   5.050  16.598
   6423SM   C6F 8278   6.776   4.844  16.557
   6423SM   H6F 8279   6.828   4.740  16.612
   6423SM   H6G 8280   6.877   4.913  16.512
   6423SM   C7F 8281   6.672   4.783  16.441
   6423SM   H7F 8282   6.630   4.886  16.380
   6423SM   H7G 8283   6.564   4.727  16.484
   6423SM   C8F 8284   6.757   4.660  16.351
   6423SM   H8F 8285   6.666   4.583  16.301
   6423SM   H8G 8286   6.833   4.579  16.413
   6423SM   C9F 8287   6.854   4.730  16.235
   6423SM   H9F 8288   6.928   4.633  16.189
   6423SM   H9G 8289   6.936   4.824  16.274
   6423SM  C10F 8290   6.745   4.804  16.126
   6423SM  H10F 8291   6.665   4.895  16.172
   6423SM  H10G 8292   6.667   4.708  16.083
   6423SM  C11F 8293   6.840   4.884  16.013
   6423SM  H11F 8294   6.938   4.955  16.058
   6423SM  H11G 8295   6.760   4.970  15.960
   6423SM  C12F 8296   6.907   4.764  15.912
   6423SM  H12F 8297   6.906   4.642  15.957
   6423SM  H12G 8298   7.034   4.794  15.889
   6423SM  C13F 8299   6.812   4.758  15.780
   6423SM  H13F 8300   6.875   4.675  15.710
   6423SM  H13G 8301   6.810   4.879  15.733
   6423SM  C14F 8302   6.641   4.699  15.804
   6423SM  H14F 8303   6.576   4.792  15.864
   6423SM  H14G 8304   6.644   4.586  15.863
   6423SM  C15F 8305   6.542   4.666  15.678
   6423SM  H15F 8306   6.508   4.780  15.627
   6423SM  H15G 8307   6.434   4.602  15.714
   6423SM  C16F 8308   6.619   4.552  15.577
   6423SM  H16F 8309   6.661   4.442  15.632
   6423SM  H16G 8310   6.724   4.612  15.531
   6423SM  C17F 8311   6.498   4.499  15.471
   6423SM  H17F 8312   6.442   4.607  15.426
   6423SM  H17G 8313   6.398   4.430  15.518
   6423SM  C18F 8314   6.577   4.394  15.363
   6423SM  H18F 8315   6.485   4.343  15.296
   6423SM  H18G 8316   6.641   4.294  15.413
   6423SM  C19F 8317   6.695   4.489  15.276
   6423SM  H19F 8318   6.754   4.405  15.204
   6423SM  H19G 8319   6.791   4.543  15.338
   6423SM  C20F 8320   6.610   4.621  15.197
   6423SM  H20F 8321   6.553   4.710  15.265
   6423SM  H20G 8322   6.514   4.567  15.135
   6423SM  C21F 8323   6.725   4.711  15.106
   6423SM  H21F 8324   6.764   4.627  15.026
   6423SM  H21G 8325   6.834   4.750  15.162
   6423SM  C22F 8326   6.643   4.856  15.044
   6423SM  H22F 8327   6.643   4.960  15.115
   6423SM  H22G 8328   6.516   4.825  15.023
   6423SM  C23F 8329   6.724   4.902  14.913
   6423SM  H23F 8330   6.832   4.976  14.932
   6423SM  H23G 8331   6.638   4.967  14.849
   6423SM  H23H 8332   6.763   4.793  14.859
   6523SM     N 8333   6.406   5.366  17.776
   6523SM   C15 8334   6.265   5.402  17.688
   6523SM  H15A 8335   6.150   5.374  17.730
   6523SM  H15B 8336   6.280   5.345  17.591
   6523SM  H15C 8337   6.269   5.530  17.662
   6523SM   C14 8338   6.379   5.454  17.905
   6523SM  H14A 8339   6.274   5.408  17.956
   6523SM  H14B 8340   6.364   5.581  17.887
   6523SM  H14C 8341   6.479   5.434  17.972
   6523SM   C13 8342   6.422   5.192  17.808
   6523SM  H13A 8343   6.528   5.172  17.872
   6523SM  H13B 8344   6.445   5.124  17.717
   6523SM  H13C 8345   6.318   5.147  17.860
   6523SM   C12 8346   6.557   5.431  17.708
   6523SM  H12A 8347   6.658   5.420  17.775
   6523SM  H12B 8348   6.542   5.560  17.690
   6523SM   C11 8349   6.601   5.362  17.569
   6523SM  H11A 8350   6.613   5.230  17.576
   6523SM  H11B 8351   6.724   5.408  17.541
   6523SM     P 8352   6.472   5.584  17.415
   6523SM   O13 8353   6.320   5.590  17.338
   6523SM   O14 8354   6.493   5.693  17.530
   6523SM   O11 8355   6.625   5.579  17.319
   6523SM   O12 8356   6.485   5.404  17.469
   6523SM   C1S 8357   6.689   5.719  17.254
   6523SM   H1S 8358   6.820   5.729  17.274
   6523SM   H1T 8359   6.636   5.833  17.294
   6523SM    NF 8360   6.493   5.708  17.075
   6523SM   HNF 8361   6.445   5.599  17.066
   6523SM   C2S 8362   6.661   5.716  17.099
   6523SM   H2S 8363   6.709   5.830  17.057
   6523SM   C3S 8364   6.750   5.575  17.029
   6523SM   H3S 8365   6.703   5.459  17.066
   6523SM    O3 8366   6.918   5.574  17.053
   6523SM   HO3 8367   6.935   5.652  17.123
   6523SM   C4S 8368   6.715   5.580  16.879
   6523SM   H4S 8369   6.617   5.501  16.847
   6523SM   C5S 8370   6.791   5.668  16.785
   6523SM   H5S 8371   6.890   5.746  16.816
   6523SM   C6S 8372   6.754   5.672  16.636
   6523SM   H6S 8373   6.868   5.658  16.578
   6523SM   H6T 8374   6.704   5.792  16.612
   6523SM   C7S 8375   6.631   5.558  16.570
   6523SM   H7S 8376   6.516   5.568  16.626
   6523SM   H7T 8377   6.673   5.432  16.576
   6523SM   C8S 8378   6.598   5.604  16.423
   6523SM   H8S 8379   6.576   5.735  16.413
   6523SM   H8T 8380   6.487   5.539  16.392
   6523SM   C9S 8381   6.726   5.551  16.323
   6523SM   H9S 8382   6.750   5.420  16.340
   6523SM   H9T 8383   6.839   5.617  16.343
   6523SM  C10S 8384   6.674   5.570  16.176
   6523SM  H10S 8385   6.674   5.701  16.149
   6523SM  H10T 8386   6.552   5.522  16.158
   6523SM  C11S 8387   6.791   5.478  16.086
   6523SM  H11S 8388   6.784   5.348  16.106
   6523SM  H11T 8389   6.907   5.518  16.126
   6523SM  C12S 8390   6.773   5.512  15.935
   6523SM  H12S 8391   6.814   5.635  15.915
   6523SM  H12T 8392   6.643   5.504  15.910
   6523SM  C13S 8393   6.868   5.395  15.846
   6523SM  H13S 8394   6.823   5.272  15.865
   6523SM  H13T 8395   6.996   5.399  15.877
   6523SM  C14S 8396   6.859   5.429  15.694
   6523SM  H14S 8397   6.947   5.348  15.644
   6523SM  H14T 8398   6.898   5.555  15.673
   6523SM  C15S 8399   6.692   5.400  15.631
   6523SM  H15S 8400   6.630   5.516  15.630
   6523SM  H15T 8401   6.623   5.316  15.695
   6523SM  C16S 8402   6.698   5.330  15.487
   6523SM  H16S 8403   6.587   5.262  15.464
   6523SM  H16T 8404   6.800   5.245  15.479
   6523SM  C17S 8405   6.720   5.464  15.383
   6523SM  H17S 8406   6.832   5.524  15.415
   6523SM  H17T 8407   6.623   5.554  15.392
   6523SM  C18S 8408   6.738   5.410  15.236
   6523SM  H18S 8409   6.860   5.363  15.219
   6523SM  H18T 8410   6.722   5.518  15.171
   6523SM  H18U 8411   6.652   5.317  15.205
   6523SM   C1F 8412   6.395   5.827  17.101
   6523SM    OF 8413   6.443   5.960  17.136
   6523SM   C2F 8414   6.222   5.785  17.090
   6523SM   H2F 8415   6.154   5.855  17.166
   6523SM   H2G 8416   6.208   5.654  17.113
   6523SM   C3F 8417   6.160   5.821  16.949
   6523SM   H3F 8418   6.163   5.953  16.930
   6523SM   H3G 8419   6.031   5.783  16.953
   6523SM   C4F 8420   6.236   5.732  16.829
   6523SM   H4F 8421   6.251   5.603  16.852
   6523SM   H4G 8422   6.358   5.783  16.808
   6523SM   C5F 8423   6.126   5.752  16.706
   6523SM   H5F 8424   6.122   5.880  16.678
   6523SM   H5G 8425   6.004   5.717  16.741
   6523SM   C6F 8426   6.162   5.650  16.583
   6523SM   H6F 8427   6.049   5.594  16.546
   6523SM   H6G 8428   6.244   5.550  16.613
   6523SM   C7F 8429   6.236   5.744  16.467
   6523SM   H7F 8430   6.281   5.657  16.392
   6523SM   H7G 8431   6.341   5.810  16.508
   6523SM   C8F 8432   6.126   5.862  16.391
   6523SM   H8F 8433   6.198   5.917  16.308
   6523SM   H8G 8434   6.088   5.960  16.458
   6523SM   C9F 8435   5.986   5.786  16.316
   6523SM   H9F 8436   5.923   5.884  16.259
   6523SM   H9G 8437   5.897   5.735  16.387
   6523SM  C10F 8438   6.041   5.657  16.216
   6523SM  H10F 8439   6.085   5.550  16.272
   6523SM  H10G 8440   6.143   5.705  16.157
   6523SM  C11F 8441   5.908   5.604  16.121
   6523SM  H11F 8442   5.872   5.707  16.057
   6523SM  H11G 8443   5.801   5.570  16.181
   6523SM  C12F 8444   5.954   5.460  16.033
   6523SM  H12F 8445   5.852   5.430  15.966
   6523SM  H12G 8446   5.977   5.354  16.099
   6523SM  C13F 8447   6.103   5.488  15.946
   6523SM  H13F 8448   6.125   5.376  15.886
   6523SM  H13G 8449   6.211   5.506  16.009
   6523SM  C14F 8450   6.084   5.630  15.851
   6523SM  H14F 8451   6.055   5.741  15.910
   6523SM  H14G 8452   5.983   5.608  15.782
   6523SM  C15F 8453   6.236   5.666  15.772
   6523SM  H15F 8454   6.337   5.690  15.843
   6523SM  H15G 8455   6.217   5.777  15.711
   6523SM  C16F 8456   6.287   5.532  15.678
   6523SM  H16F 8457   6.312   5.419  15.733
   6523SM  H16G 8458   6.401   5.572  15.629
   6523SM  C17F 8459   6.167   5.502  15.565
   6523SM  H17F 8460   6.150   5.618  15.512
   6523SM  H17G 8461   6.048   5.461  15.603
   6523SM  C18F 8462   6.235   5.378  15.468
   6523SM  H18F 8463   6.204   5.255  15.498
   6523SM  H18G 8464   6.368   5.389  15.475
   6523SM  C19F 8465   6.192   5.412  15.323
   6523SM  H19F 8466   6.198   5.544  15.306
   6523SM  H19G 8467   6.068   5.370  15.304
   6523SM  C20F 8468   6.313   5.335  15.229
   6523SM  H20F 8469   6.431   5.377  15.266
   6523SM  H20G 8470   6.299   5.381  15.126
   6523SM  C21F 8471   6.306   5.150  15.229
   6523SM  H21F 8472   6.320   5.102  15.331
   6523SM  H21G 8473   6.409   5.106  15.170
   6523SM  C22F 8474   6.151   5.086  15.166
   6523SM  H22F 8475   6.071   5.185  15.137
   6523SM  H22G 8476   6.085   5.014  15.241
   6523SM  C23F 8477   6.182   4.981  15.043
   6523SM  H23F 8478   6.248   5.051  14.965
   6523SM  H23G 8479   6.068   4.937  15.000
   6523SM  H23H 8480   6.258   4.877  15.071
   6623SM     N 8481   4.950   2.354  17.749
   6623SM   C15 8482   5.052   2.464  17.667
   6623SM  H15A 8483   5.147   2.399  17.614
   6623SM  H15B 8484   5.113   2.545  17.732
   6623SM  H15C 8485   4.976   2.525  17.595
   6623SM   C14 8486   5.051   2.281  17.857
   6623SM  H14A 8487   5.152   2.218  17.814
   6623SM  H14B 8488   4.978   2.195  17.912
   6623SM  H14C 8489   5.093   2.370  17.928
   6623SM   C13 8490   4.819   2.449  17.810
   6623SM  H13A 8491   4.734   2.486  17.733
   6623SM  H13B 8492   4.866   2.554  17.862
   6623SM  H13C 8493   4.754   2.378  17.883
   6623SM   C12 8494   4.884   2.222  17.660
   6623SM  H12A 8495   4.788   2.159  17.712
   6623SM  H12B 8496   4.976   2.132  17.644
   6623SM   C11 8497   4.817   2.270  17.523
   6623SM  H11A 8498   4.811   2.160  17.462
   6623SM  H11B 8499   4.906   2.350  17.471
   6623SM     P 8500   4.603   2.489  17.449
   6623SM   O13 8501   4.458   2.441  17.372
   6623SM   O14 8502   4.588   2.626  17.543
   6623SM   O11 8503   4.751   2.522  17.351
   6623SM   O12 8504   4.661   2.339  17.536
   6623SM   C1S 8505   4.778   2.429  17.233
   6623SM   H1S 8506   4.674   2.354  17.205
   6623SM   H1T 8507   4.880   2.346  17.251
   6623SM    NF 8508   4.682   2.543  17.024
   6623SM   HNF 8509   4.685   2.483  16.938
   6623SM   C2S 8510   4.818   2.539  17.112
   6623SM   H2S 8511   4.841   2.663  17.150
   6623SM   C3S 8512   4.970   2.483  17.037
   6623SM   H3S 8513   4.958   2.354  17.009
   6623SM    O3 8514   5.110   2.492  17.118
   6623SM   HO3 8515   5.070   2.496  17.209
   6623SM   C4S 8516   4.982   2.581  16.909
   6623SM   H4S 8517   4.975   2.711  16.927
   6623SM   C5S 8518   4.986   2.525  16.783
   6623SM   H5S 8519   4.990   2.395  16.762
   6623SM   C6S 8520   4.996   2.630  16.660
   6623SM   H6S 8521   5.114   2.689  16.654
   6623SM   H6T 8522   4.901   2.724  16.665
   6623SM   C7S 8523   4.975   2.533  16.530
   6623SM   H7S 8524   4.856   2.476  16.530
   6623SM   H7T 8525   5.058   2.430  16.525
   6623SM   C8S 8526   4.994   2.634  16.401
   6623SM   H8S 8527   5.116   2.687  16.394
   6623SM   H8T 8528   4.902   2.730  16.406
   6623SM   C9S 8529   4.955   2.538  16.275
   6623SM   H9S 8530   4.867   2.447  16.305
   6623SM   H9T 8531   5.059   2.471  16.236
   6623SM  C10S 8532   4.888   2.639  16.159
   6623SM  H10S 8533   4.988   2.702  16.109
   6623SM  H10T 8534   4.806   2.734  16.198
   6623SM  C11S 8535   4.795   2.536  16.057
   6623SM  H11S 8536   4.674   2.507  16.097
   6623SM  H11T 8537   4.860   2.422  16.041
   6623SM  C12S 8538   4.776   2.622  15.924
   6623SM  H12S 8539   4.900   2.646  15.885
   6623SM  H12T 8540   4.715   2.738  15.939
   6623SM  C13S 8541   4.686   2.526  15.816
   6623SM  H13S 8542   4.560   2.502  15.845
   6623SM  H13T 8543   4.748   2.411  15.800
   6623SM  C14S 8544   4.691   2.622  15.686
   6623SM  H14S 8545   4.813   2.677  15.685
   6623SM  H14T 8546   4.603   2.723  15.689
   6623SM  C15S 8547   4.679   2.528  15.555
   6623SM  H15S 8548   4.552   2.526  15.519
   6623SM  H15T 8549   4.717   2.401  15.570
   6623SM  C16S 8550   4.788   2.605  15.450
   6623SM  H16S 8551   4.777   2.545  15.351
   6623SM  H16T 8552   4.915   2.590  15.484
   6623SM  C17S 8553   4.757   2.784  15.435
   6623SM  H17S 8554   4.715   2.842  15.529
   6623SM  H17T 8555   4.660   2.802  15.361
   6623SM  C18S 8556   4.904   2.876  15.391
   6623SM  H18S 8557   4.871   3.005  15.381
   6623SM  H18T 8558   4.944   2.832  15.292
   6623SM  H18U 8559   5.005   2.867  15.464
   6623SM   C1F 8560   4.547   2.618  17.056
   6623SM    OF 8561   4.541   2.725  17.141
   6623SM   C2F 8562   4.406   2.567  16.977
   6623SM   H2F 8563   4.309   2.528  17.047
   6623SM   H2G 8564   4.436   2.462  16.913
   6623SM   C3F 8565   4.348   2.707  16.891
   6623SM   H3F 8566   4.284   2.788  16.962
   6623SM   H3G 8567   4.260   2.657  16.819
   6623SM   C4F 8568   4.471   2.809  16.815
   6623SM   H4F 8569   4.553   2.870  16.887
   6623SM   H4G 8570   4.405   2.906  16.761
   6623SM   C5F 8571   4.570   2.714  16.713
   6623SM   H5F 8572   4.640   2.622  16.767
   6623SM   H5G 8573   4.658   2.796  16.666
   6623SM   C6F 8574   4.470   2.628  16.604
   6623SM   H6F 8575   4.375   2.705  16.562
   6623SM   H6G 8576   4.409   2.526  16.655
   6623SM   C7F 8577   4.582   2.561  16.496
   6623SM   H7F 8578   4.624   2.443  16.534
   6623SM   H7G 8579   4.685   2.646  16.493
   6623SM   C8F 8580   4.535   2.536  16.348
   6623SM   H8F 8581   4.628   2.602  16.291
   6623SM   H8G 8582   4.423   2.593  16.315
   6623SM   C9F 8583   4.553   2.357  16.305
   6623SM   H9F 8584   4.538   2.278  16.393
   6623SM   H9G 8585   4.675   2.334  16.267
   6623SM  C10F 8586   4.438   2.305  16.195
   6623SM  H10F 8587   4.418   2.410  16.128
   6623SM  H10G 8588   4.322   2.272  16.241
   6623SM  C11F 8589   4.488   2.161  16.112
   6623SM  H11F 8590   4.381   2.082  16.102
   6623SM  H11G 8591   4.585   2.089  16.159
   6623SM  C12F 8592   4.530   2.210  15.970
   6623SM  H12F 8593   4.656   2.254  15.964
   6623SM  H12G 8594   4.450   2.310  15.938
   6623SM  C13F 8595   4.500   2.071  15.875
   6623SM  H13F 8596   4.500   2.119  15.772
   6623SM  H13G 8597   4.379   2.021  15.892
   6623SM  C14F 8598   4.624   1.937  15.891
   6623SM  H14F 8599   4.574   1.837  15.952
   6623SM  H14G 8600   4.730   1.980  15.947
   6623SM  C15F 8601   4.672   1.878  15.753
   6623SM  H15F 8602   4.560   1.844  15.699
   6623SM  H15G 8603   4.748   1.769  15.763
   6623SM  C16F 8604   4.762   2.003  15.668
   6623SM  H16F 8605   4.678   2.094  15.627
   6623SM  H16G 8606   4.812   1.939  15.581
   6623SM  C17F 8607   4.891   2.088  15.751
   6623SM  H17F 8608   4.956   1.997  15.812
   6623SM  H17G 8609   4.831   2.172  15.822
   6623SM  C18F 8610   5.012   2.182  15.669
   6623SM  H18F 8611   5.093   2.251  15.737
   6623SM  H18G 8612   4.944   2.272  15.610
   6623SM  C19F 8613   5.112   2.070  15.580
   6623SM  H19F 8614   5.033   1.990  15.521
   6623SM  H19G 8615   5.186   1.990  15.646
   6623SM  C20F 8616   5.219   2.156  15.479
   6623SM  H20F 8617   5.266   2.066  15.406
   6623SM  H20G 8618   5.324   2.207  15.532
   6623SM  C21F 8619   5.134   2.293  15.404
   6623SM  H21F 8620   5.212   2.326  15.319
   6623SM  H21G 8621   5.125   2.399  15.472
   6623SM  C22F 8622   4.969   2.263  15.339
   6623SM  H22F 8623   4.943   2.372  15.278
   6623SM  H22G 8624   4.872   2.255  15.415
   6623SM  C23F 8625   4.962   2.117  15.249
   6623SM  H23F 8626   4.872   2.134  15.168
   6623SM  H23G 8627   4.932   2.009  15.308
   6623SM  H23H 8628   5.081   2.095  15.204
   6723SM     N 8629   4.003   7.162  17.739
   6723SM   C15 8630   4.022   7.338  17.731
   6723SM  H15A 8631   4.140   7.370  17.768
   6723SM  H15B 8632   3.934   7.396  17.795
   6723SM  H15C 8633   4.008   7.378  17.628
   6723SM   C14 8634   4.134   7.087  17.656
   6723SM  H14A 8635   4.114   7.116  17.550
   6723SM  H14B 8636   4.124   6.958  17.662
   6723SM  H14C 8637   4.252   7.128  17.684
   6723SM   C13 8638   4.014   7.114  17.883
   6723SM  H13A 8639   4.124   7.152  17.931
   6723SM  H13B 8640   4.007   6.984  17.890
   6723SM  H13C 8641   3.914   7.163  17.939
   6723SM   C12 8642   3.842   7.106  17.684
   6723SM  H12A 8643   3.745   7.152  17.745
   6723SM  H12B 8644   3.836   6.976  17.691
   6723SM   C11 8645   3.802   7.142  17.536
   6723SM  H11A 8646   3.814   7.272  17.517
   6723SM  H11B 8647   3.672   7.114  17.519
   6723SM     P 8648   3.856   6.865  17.430
   6723SM   O13 8649   4.001   6.780  17.382
   6723SM   O14 8650   3.787   6.808  17.558
   6723SM   O11 8651   3.727   6.868  17.313
   6723SM   O12 8652   3.901   7.052  17.447
   6723SM   C1S 8653   3.691   7.006  17.234
   6723SM   H1S 8654   3.738   7.118  17.277
   6723SM   H1T 8655   3.559   7.020  17.231
   6723SM    NF 8656   3.766   7.163  17.036
   6723SM   HNF 8657   3.697   7.199  16.961
   6723SM   C2S 8658   3.751   6.997  17.086
   6723SM   H2S 8659   3.871   6.938  17.081
   6723SM   C3S 8660   3.634   6.893  17.005
   6723SM   H3S 8661   3.506   6.926  17.027
   6723SM    O3 8662   3.656   6.728  17.039
   6723SM   HO3 8663   3.716   6.734  17.121
   6723SM   C4S 8664   3.661   6.902  16.858
   6723SM   H4S 8665   3.768   6.836  16.826
   6723SM   C5S 8666   3.569   6.977  16.766
   6723SM   H5S 8667   3.458   7.038  16.797
   6723SM   C6S 8668   3.604   6.982  16.618
   6723SM   H6S 8669   3.638   7.106  16.589
   6723SM   H6T 8670   3.494   6.953  16.559
   6723SM   C7S 8671   3.734   6.863  16.571
   6723SM   H7S 8672   3.691   6.738  16.583
   6723SM   H7T 8673   3.844   6.880  16.633
   6723SM   C8S 8674   3.787   6.893  16.427
   6723SM   H8S 8675   3.901   6.827  16.406
   6723SM   H8T 8676   3.815   7.022  16.421
   6723SM   C9S 8677   3.665   6.853  16.317
   6723SM   H9S 8678   3.554   6.923  16.338
   6723SM   H9T 8679   3.632   6.724  16.320
   6723SM  C10S 8680   3.727   6.901  16.178
   6723SM  H10S 8681   3.830   6.985  16.189
   6723SM  H10T 8682   3.628   6.968  16.129
   6723SM  C11S 8683   3.776   6.764  16.084
   6723SM  H11S 8684   3.689   6.665  16.095
   6723SM  H11T 8685   3.896   6.716  16.112
   6723SM  C12S 8686   3.779   6.817  15.936
   6723SM  H12S 8687   3.890   6.887  15.916
   6723SM  H12T 8688   3.677   6.900  15.918
   6723SM  C13S 8689   3.763   6.676  15.838
   6723SM  H13S 8690   3.646   6.678  15.788
   6723SM  H13T 8691   3.764   6.562  15.895
   6723SM  C14S 8692   3.892   6.667  15.729
   6723SM  H14S 8693   3.936   6.541  15.724
   6723SM  H14T 8694   3.996   6.744  15.756
   6723SM  C15S 8695   3.834   6.707  15.588
   6723SM  H15S 8696   3.798   6.835  15.580
   6723SM  H15T 8697   3.726   6.632  15.564
   6723SM  C16S 8698   3.967   6.666  15.489
   6723SM  H16S 8699   4.007   6.540  15.504
   6723SM  H16T 8700   4.072   6.745  15.509
   6723SM  C17S 8701   3.914   6.684  15.344
   6723SM  H17S 8702   3.871   6.809  15.330
   6723SM  H17T 8703   3.816   6.595  15.325
   6723SM  C18S 8704   4.043   6.653  15.241
   6723SM  H18S 8705   4.140   6.742  15.254
   6723SM  H18T 8706   3.996   6.664  15.137
   6723SM  H18U 8707   4.092   6.529  15.255
   6723SM   C1F 8708   3.892   7.247  17.082
   6723SM    OF 8709   4.004   7.178  17.136
   6723SM   C2F 8710   3.893   7.426  17.067
   6723SM   H2F 8711   3.979   7.476  17.141
   6723SM   H2G 8712   3.773   7.477  17.087
   6723SM   C3F 8713   3.956   7.469  16.929
   6723SM   H3F 8714   4.072   7.404  16.911
   6723SM   H3G 8715   3.989   7.598  16.923
   6723SM   C4F 8716   3.840   7.423  16.819
   6723SM   H4F 8717   3.718   7.474  16.834
   6723SM   H4G 8718   3.827   7.290  16.816
   6723SM   C5F 8719   3.911   7.471  16.687
   6723SM   H5F 8720   4.044   7.458  16.693
   6723SM   H5G 8721   3.884   7.598  16.662
   6723SM   C6F 8722   3.857   7.360  16.576
   6723SM   H6F 8723   3.725   7.375  16.561
   6723SM   H6G 8724   3.878   7.231  16.603
   6723SM   C7F 8725   3.952   7.402  16.453
   6723SM   H7F 8726   4.081   7.376  16.469
   6723SM   H7G 8727   3.937   7.534  16.440
   6723SM   C8F 8728   3.895   7.316  16.328
   6723SM   H8F 8729   3.935   7.189  16.330
   6723SM   H8G 8730   3.959   7.370  16.241
   6723SM   C9F 8731   3.713   7.327  16.304
   6723SM   H9F 8732   3.666   7.445  16.340
   6723SM   H9G 8733   3.649   7.231  16.361
   6723SM  C10F 8734   3.686   7.314  16.153
   6723SM  H10F 8735   3.750   7.205  16.119
   6723SM  H10G 8736   3.748   7.417  16.106
   6723SM  C11F 8737   3.516   7.307  16.098
   6723SM  H11F 8738   3.456   7.423  16.115
   6723SM  H11G 8739   3.445   7.213  16.151
   6723SM  C12F 8740   3.523   7.267  15.947
   6723SM  H12F 8741   3.402   7.240  15.909
   6723SM  H12G 8742   3.596   7.156  15.934
   6723SM  C13F 8743   3.599   7.402  15.862
   6723SM  H13F 8744   3.726   7.414  15.889
   6723SM  H13G 8745   3.535   7.514  15.890
   6723SM  C14F 8746   3.581   7.380  15.708
   6723SM  H14F 8747   3.586   7.500  15.660
   6723SM  H14G 8748   3.457   7.333  15.693
   6723SM  C15F 8749   3.697   7.265  15.637
   6723SM  H15F 8750   3.623   7.174  15.585
   6723SM  H15G 8751   3.774   7.201  15.711
   6723SM  C16F 8752   3.805   7.333  15.524
   6723SM  H16F 8753   3.905   7.403  15.566
   6723SM  H16G 8754   3.737   7.417  15.459
   6723SM  C17F 8755   3.881   7.201  15.436
   6723SM  H17F 8756   3.788   7.114  15.401
   6723SM  H17G 8757   3.965   7.133  15.502
   6723SM  C18F 8758   3.978   7.268  15.317
   6723SM  H18F 8759   4.045   7.166  15.271
   6723SM  H18G 8760   4.068   7.355  15.357
   6723SM  C19F 8761   3.882   7.348  15.202
   6723SM  H19F 8762   3.959   7.440  15.152
   6723SM  H19G 8763   3.780   7.417  15.242
   6723SM  C20F 8764   3.840   7.216  15.100
   6723SM  H20F 8765   3.821   7.105  15.161
   6723SM  H20G 8766   3.949   7.194  15.039
   6723SM  C21F 8767   3.691   7.216  15.007
   6723SM  H21F 8768   3.593   7.159  15.066
   6723SM  H21G 8769   3.720   7.133  14.923
   6723SM  C22F 8770   3.612   7.367  14.948
   6723SM  H22F 8771   3.636   7.368  14.838
   6723SM  H22G 8772   3.660   7.480  14.991
   6723SM  C23F 8773   3.428   7.354  14.965
   6723SM  H23F 8774   3.361   7.446  14.910
   6723SM  H23G 8775   3.392   7.366  15.071
   6723SM  H23H 8776   3.386   7.234  14.932
   6823SM     N 8777   4.070   1.692  17.678
   6823SM   C15 8778   3.988   1.726  17.809
   6823SM  H15A 8779   3.942   1.616  17.855
   6823SM  H15B 8780   3.887   1.807  17.797
   6823SM  H15C 8781   4.068   1.780  17.882
   6823SM   C14 8782   4.195   1.566  17.699
   6823SM  H14A 8783   4.262   1.544  17.607
   6823SM  H14B 8784   4.140   1.453  17.729
   6823SM  H14C 8785   4.277   1.600  17.778
   6823SM   C13 8786   3.947   1.628  17.581
   6823SM  H13A 8787   3.870   1.728  17.550
   6823SM  H13B 8788   3.876   1.534  17.624
   6823SM  H13C 8789   4.000   1.582  17.489
   6823SM   C12 8790   4.151   1.838  17.617
   6823SM  H12A 8791   4.196   1.810  17.517
   6823SM  H12B 8792   4.256   1.872  17.673
   6823SM   C11 8793   4.046   1.990  17.600
   6823SM  H11A 8794   4.126   2.090  17.569
   6823SM  H11B 8795   3.992   2.018  17.699
   6823SM     P 8796   3.794   2.096  17.487
   6823SM   O13 8797   3.698   2.105  17.610
   6823SM   O14 8798   3.865   2.248  17.441
   6823SM   O11 8799   3.682   2.030  17.374
   6823SM   O12 8800   3.928   1.960  17.500
   6823SM   C1S 8801   3.725   1.906  17.284
   6823SM   H1S 8802   3.673   1.790  17.321
   6823SM   H1T 8803   3.857   1.889  17.274
   6823SM    NF 8804   3.670   1.810  17.055
   6823SM   HNF 8805   3.726   1.834  16.969
   6823SM   C2S 8806   3.654   1.944  17.145
   6823SM   H2S 8807   3.523   1.970  17.157
   6823SM   C3S 8808   3.734   2.096  17.085
   6823SM   H3S 8809   3.866   2.080  17.085
   6823SM    O3 8810   3.704   2.240  17.156
   6823SM   HO3 8811   3.684   2.208  17.247
   6823SM   C4S 8812   3.678   2.107  16.941
   6823SM   H4S 8813   3.767   2.059  16.871
   6823SM   C5S 8814   3.540   2.167  16.894
   6823SM   H5S 8815   3.458   2.227  16.966
   6823SM   C6S 8816   3.488   2.171  16.749
   6823SM   H6S 8817   3.473   2.298  16.717
   6823SM   H6T 8818   3.367   2.114  16.746
   6823SM   C7S 8819   3.589   2.084  16.640
   6823SM   H7S 8820   3.588   1.952  16.659
   6823SM   H7T 8821   3.716   2.124  16.645
   6823SM   C8S 8822   3.524   2.117  16.498
   6823SM   H8S 8823   3.530   2.249  16.480
   6823SM   H8T 8824   3.395   2.081  16.496
   6823SM   C9S 8825   3.610   2.033  16.380
   6823SM   H9S 8826   3.595   1.902  16.393
   6823SM   H9T 8827   3.740   2.058  16.384
   6823SM  C10S 8828   3.545   2.087  16.240
   6823SM  H10S 8829   3.604   2.200  16.209
   6823SM  H10T 8830   3.415   2.107  16.256
   6823SM  C11S 8831   3.545   1.960  16.128
   6823SM  H11S 8832   3.437   1.889  16.148
   6823SM  H11T 8833   3.648   1.877  16.139
   6823SM  C12S 8834   3.521   2.004  15.979
   6823SM  H12S 8835   3.595   2.108  15.951
   6823SM  H12T 8836   3.394   2.036  15.964
   6823SM  C13S 8837   3.556   1.855  15.891
   6823SM  H13S 8838   3.499   1.748  15.937
   6823SM  H13T 8839   3.686   1.836  15.890
   6823SM  C14S 8840   3.503   1.866  15.744
   6823SM  H14S 8841   3.548   1.982  15.704
   6823SM  H14T 8842   3.371   1.868  15.736
   6823SM  C15S 8843   3.571   1.729  15.654
   6823SM  H15S 8844   3.497   1.620  15.667
   6823SM  H15T 8845   3.696   1.699  15.685
   6823SM  C16S 8846   3.572   1.783  15.507
   6823SM  H16S 8847   3.664   1.879  15.495
   6823SM  H16T 8848   3.452   1.835  15.486
   6823SM  C17S 8849   3.607   1.660  15.396
   6823SM  H17S 8850   3.523   1.556  15.405
   6823SM  H17T 8851   3.732   1.614  15.408
   6823SM  C18S 8852   3.589   1.735  15.257
   6823SM  H18S 8853   3.630   1.654  15.176
   6823SM  H18T 8854   3.660   1.848  15.250
   6823SM  H18U 8855   3.462   1.768  15.237
   6823SM   C1F 8856   3.594   1.672  17.069
   6823SM    OF 8857   3.509   1.645  17.166
   6823SM   C2F 8858   3.607   1.560  16.953
   6823SM   H2F 8859   3.608   1.631  16.858
   6823SM   H2G 8860   3.497   1.484  16.952
   6823SM   C3F 8861   3.754   1.446  16.957
   6823SM   H3F 8862   3.763   1.391  16.856
   6823SM   H3G 8863   3.724   1.346  17.028
   6823SM   C4F 8864   3.918   1.516  16.996
   6823SM   H4F 8865   4.004   1.414  16.987
   6823SM   H4G 8866   3.917   1.553  17.103
   6823SM   C5F 8867   3.980   1.652  16.908
   6823SM   H5F 8868   3.929   1.769  16.939
   6823SM   H5G 8869   3.942   1.630  16.802
   6823SM   C6F 8870   4.164   1.670  16.913
   6823SM   H6F 8871   4.219   1.554  16.887
   6823SM   H6G 8872   4.200   1.700  17.018
   6823SM   C7F 8873   4.228   1.800  16.818
   6823SM   H7F 8874   4.355   1.820  16.844
   6823SM   H7G 8875   4.164   1.915  16.834
   6823SM   C8F 8876   4.216   1.752  16.669
   6823SM   H8F 8877   4.088   1.770  16.638
   6823SM   H8G 8878   4.244   1.622  16.657
   6823SM   C9F 8879   4.326   1.848  16.576
   6823SM   H9F 8880   4.452   1.810  16.592
   6823SM   H9G 8881   4.319   1.978  16.601
   6823SM  C10F 8882   4.297   1.822  16.427
   6823SM  H10F 8883   4.324   1.694  16.401
   6823SM  H10G 8884   4.382   1.900  16.370
   6823SM  C11F 8885   4.128   1.853  16.378
   6823SM  H11F 8886   4.085   1.970  16.415
   6823SM  H11G 8887   4.044   1.759  16.415
   6823SM  C12F 8888   4.126   1.854  16.225
   6823SM  H12F 8889   4.162   1.734  16.184
   6823SM  H12G 8890   4.214   1.943  16.189
   6823SM  C13F 8891   3.960   1.901  16.178
   6823SM  H13F 8892   3.930   2.020  16.222
   6823SM  H13G 8893   3.871   1.816  16.222
   6823SM  C14F 8894   3.934   1.913  16.027
   6823SM  H14F 8895   3.822   1.984  16.021
   6823SM  H14G 8896   3.912   1.793  15.983
   6823SM  C15F 8897   4.051   2.008  15.942
   6823SM  H15F 8898   4.147   1.928  15.903
   6823SM  H15G 8899   4.109   2.105  16.003
   6823SM  C16F 8900   3.962   2.090  15.826
   6823SM  H16F 8901   4.033   2.198  15.798
   6823SM  H16G 8902   3.842   2.132  15.857
   6823SM  C17F 8903   3.948   1.991  15.698
   6823SM  H17F 8904   3.844   1.909  15.704
   6823SM  H17G 8905   4.057   1.916  15.685
   6823SM  C18F 8906   3.930   2.100  15.576
   6823SM  H18F 8907   3.995   2.215  15.590
   6823SM  H18G 8908   3.800   2.130  15.565
   6823SM  C19F 8909   3.989   2.022  15.447
   6823SM  H19F 8910   3.947   1.895  15.447
   6823SM  H19G 8911   4.122   2.021  15.446
   6823SM  C20F 8912   3.925   2.104  15.321
   6823SM  H20F 8913   3.792   2.108  15.323
   6823SM  H20G 8914   3.960   2.023  15.238
   6823SM  C21F 8915   3.990   2.274  15.298
   6823SM  H21F 8916   4.122   2.276  15.312
   6823SM  H21G 8917   3.936   2.358  15.372
   6823SM  C22F 8918   3.952   2.333  15.156
   6823SM  H22F 8919   3.996   2.459  15.145
   6823SM  H22G 8920   3.820   2.334  15.143
   6823SM  C23F 8921   4.028   2.231  15.046
   6823SM  H23F 8922   3.985   2.267  14.947
   6823SM  H23G 8923   3.996   2.102  15.055
   6823SM  H23H 8924   4.160   2.243  15.048
   6923SM     N 8925   6.509   2.489  17.791
   6923SM   C15 8926   6.334   2.448  17.792
   6923SM  H15A 8927   6.271   2.502  17.875
   6923SM  H15B 8928   6.319   2.320  17.798
   6923SM  H15C 8929   6.281   2.485  17.697
   6923SM   C14 8930   6.534   2.666  17.802
   6923SM  H14A 8931   6.476   2.729  17.719
   6923SM  H14B 8932   6.661   2.698  17.808
   6923SM  H14C 8933   6.484   2.714  17.894
   6923SM   C13 8934   6.583   2.411  17.910
   6923SM  H13A 8935   6.522   2.453  18.000
   6923SM  H13B 8936   6.707   2.450  17.924
   6923SM  H13C 8937   6.583   2.281  17.907
   6923SM   C12 8938   6.581   2.420  17.663
   6923SM  H12A 8939   6.539   2.297  17.652
   6923SM  H12B 8940   6.710   2.417  17.671
   6923SM   C11 8941   6.535   2.504  17.531
   6923SM  H11A 8942   6.604   2.440  17.451
   6923SM  H11B 8943   6.582   2.629  17.534
   6923SM     P 8944   6.284   2.371  17.416
   6923SM   O13 8945   6.299   2.219  17.491
   6923SM   O14 8946   6.121   2.420  17.378
   6923SM   O11 8947   6.394   2.369  17.285
   6923SM   O12 8948   6.367   2.508  17.506
   6923SM   C1S 8949   6.445   2.518  17.226
   6923SM   H1S 8950   6.576   2.536  17.247
   6923SM   H1T 8951   6.379   2.624  17.265
   6923SM    NF 8952   6.253   2.514  17.043
   6923SM   HNF 8953   6.196   2.411  17.048
   6923SM   C2S 8954   6.425   2.518  17.072
   6923SM   H2S 8955   6.475   2.632  17.032
   6923SM   C3S 8956   6.517   2.376  17.007
   6923SM   H3S 8957   6.479   2.260  17.048
   6923SM    O3 8958   6.689   2.382  17.023
   6923SM   HO3 8959   6.712   2.474  17.077
   6923SM   C4S 8960   6.486   2.387  16.859
   6923SM   H4S 8961   6.547   2.486  16.809
   6923SM   C5S 8962   6.401   2.282  16.785
   6923SM   H5S 8963   6.346   2.177  16.832
   6923SM   C6S 8964   6.373   2.304  16.637
   6923SM   H6S 8965   6.378   2.435  16.611
   6923SM   H6T 8966   6.250   2.261  16.615
   6923SM   C7S 8967   6.485   2.220  16.538
   6923SM   H7S 8968   6.487   2.090  16.563
   6923SM   H7T 8969   6.607   2.270  16.553
   6923SM   C8S 8970   6.443   2.238  16.388
   6923SM   H8S 8971   6.473   2.360  16.353
   6923SM   H8T 8972   6.313   2.218  16.368
   6923SM   C9S 8973   6.546   2.114  16.314
   6923SM   H9S 8974   6.522   1.992  16.352
   6923SM   H9T 8975   6.668   2.146  16.340
   6923SM  C10S 8976   6.550   2.117  16.162
   6923SM  H10S 8977   6.679   2.113  16.130
   6923SM  H10T 8978   6.498   2.232  16.125
   6923SM  C11S 8979   6.468   1.970  16.101
   6923SM  H11S 8980   6.380   1.921  16.172
   6923SM  H11T 8981   6.562   1.877  16.084
   6923SM  C12S 8982   6.384   2.012  15.971
   6923SM  H12S 8983   6.294   2.108  15.992
   6923SM  H12T 8984   6.319   1.907  15.929
   6923SM  C13S 8985   6.505   2.078  15.872
   6923SM  H13S 8986   6.599   1.987  15.854
   6923SM  H13T 8987   6.565   2.186  15.915
   6923SM  C14S 8988   6.433   2.130  15.740
   6923SM  H14S 8989   6.346   2.231  15.756
   6923SM  H14T 8990   6.366   2.029  15.693
   6923SM  C15S 8991   6.570   2.185  15.649
   6923SM  H15S 8992   6.660   2.088  15.639
   6923SM  H15T 8993   6.630   2.290  15.696
   6923SM  C16S 8994   6.505   2.230  15.513
   6923SM  H16S 8995   6.428   2.338  15.528
   6923SM  H16T 8996   6.427   2.130  15.477
   6923SM  C17S 8997   6.631   2.264  15.407
   6923SM  H17S 8998   6.701   2.155  15.382
   6923SM  H17T 8999   6.715   2.359  15.443
   6923SM  C18S 9000   6.547   2.322  15.282
   6923SM  H18S 9001   6.496   2.222  15.222
   6923SM  H18T 9002   6.628   2.393  15.216
   6923SM  H18U 9003   6.449   2.400  15.315
   6923SM   C1F 9004   6.172   2.652  17.047
   6923SM    OF 9005   6.234   2.776  17.089
   6923SM   C2F 9006   6.006   2.650  16.992
   6923SM   H2F 9007   5.916   2.693  17.066
   6923SM   H2G 9008   5.969   2.528  16.957
   6923SM   C3F 9009   6.000   2.762  16.871
   6923SM   H3F 9010   6.019   2.891  16.896
   6923SM   H3G 9011   5.870   2.753  16.850
   6923SM   C4F 9012   6.103   2.708  16.753
   6923SM   H4F 9013   6.232   2.698  16.784
   6923SM   H4G 9014   6.100   2.801  16.672
   6923SM   C5F 9015   6.048   2.548  16.695
   6923SM   H5F 9016   5.916   2.537  16.704
   6923SM   H5G 9017   6.102   2.448  16.754
   6923SM   C6F 9018   6.092   2.536  16.547
   6923SM   H6F 9019   6.107   2.411  16.511
   6923SM   H6G 9020   6.210   2.599  16.533
   6923SM   C7F 9021   5.969   2.617  16.458
   6923SM   H7F 9022   5.905   2.707  16.519
   6923SM   H7G 9023   5.878   2.528  16.425
   6923SM   C8F 9024   6.047   2.708  16.344
   6923SM   H8F 9025   6.124   2.804  16.386
   6923SM   H8G 9026   5.952   2.768  16.285
   6923SM   C9F 9027   6.146   2.598  16.256
   6923SM   H9F 9028   6.228   2.525  16.320
   6923SM   H9G 9029   6.223   2.669  16.187
   6923SM  C10F 9030   6.038   2.485  16.177
   6923SM  H10F 9031   5.954   2.422  16.245
   6923SM  H10G 9032   6.113   2.393  16.125
   6923SM  C11F 9033   5.940   2.573  16.072
   6923SM  H11F 9034   5.857   2.664  16.114
   6923SM  H11G 9035   5.862   2.477  16.031
   6923SM  C12F 9036   6.047   2.652  15.967
   6923SM  H12F 9037   6.156   2.576  15.952
   6923SM  H12G 9038   6.090   2.771  16.004
   6923SM  C13F 9039   5.963   2.674  15.833
   6923SM  H13F 9040   6.049   2.719  15.757
   6923SM  H13G 9041   5.867   2.766  15.844
   6923SM  C14F 9042   5.885   2.518  15.783
   6923SM  H14F 9043   5.824   2.543  15.688
   6923SM  H14G 9044   5.786   2.479  15.850
   6923SM  C15F 9045   5.994   2.372  15.769
   6923SM  H15F 9046   5.921   2.268  15.802
   6923SM  H15G 9047   6.102   2.378  15.833
   6923SM  C16F 9048   6.037   2.344  15.624
   6923SM  H16F 9049   5.923   2.334  15.568
   6923SM  H16G 9050   6.103   2.228  15.609
   6923SM  C17F 9051   6.131   2.482  15.560
   6923SM  H17F 9052   6.248   2.495  15.609
   6923SM  H17G 9053   6.062   2.594  15.570
   6923SM  C18F 9054   6.142   2.437  15.414
   6923SM  H18F 9055   6.019   2.401  15.382
   6923SM  H18G 9056   6.218   2.328  15.405
   6923SM  C19F 9057   6.196   2.562  15.313
   6923SM  H19F 9058   6.317   2.605  15.344
   6923SM  H19G 9059   6.115   2.668  15.310
   6923SM  C20F 9060   6.199   2.471  15.180
   6923SM  H20F 9061   6.256   2.352  15.196
   6923SM  H20G 9062   6.272   2.528  15.102
   6923SM  C21F 9063   6.036   2.437  15.119
   6923SM  H21F 9064   5.969   2.554  15.118
   6923SM  H21G 9065   5.968   2.351  15.180
   6923SM  C22F 9066   6.059   2.383  14.974
   6923SM  H22F 9067   6.108   2.495  14.931
   6923SM  H22G 9068   5.946   2.368  14.921
   6923SM  C23F 9069   6.176   2.245  14.939
   6923SM  H23F 9070   6.265   2.288  14.865
   6923SM  H23G 9071   6.114   2.141  14.893
   6923SM  H23H 9072   6.241   2.202  15.029
   7023SM     N 9073   5.711   1.913  17.786
   7023SM   C15 9074   5.783   1.760  17.734
   7023SM  H15A 9075   5.746   1.740  17.630
   7023SM  H15B 9076   5.744   1.655  17.791
   7023SM  H15C 9077   5.912   1.766  17.738
   7023SM   C14 9078   5.537   1.880  17.810
   7023SM  H14A 9079   5.484   1.830  17.719
   7023SM  H14B 9080   5.471   1.987  17.832
   7023SM  H14C 9081   5.520   1.794  17.889
   7023SM   C13 9082   5.796   1.949  17.912
   7023SM  H13A 9083   5.920   1.981  17.892
   7023SM  H13B 9084   5.802   1.843  17.976
   7023SM  H13C 9085   5.737   2.044  17.968
   7023SM   C12 9086   5.737   2.046  17.685
   7023SM  H12A 9087   5.860   2.034  17.648
   7023SM  H12B 9088   5.725   2.164  17.731
   7023SM   C11 9089   5.630   2.045  17.559
   7023SM  H11A 9090   5.669   2.144  17.491
   7023SM  H11B 9091   5.504   2.070  17.588
   7023SM     P 9092   5.506   1.814  17.418
   7023SM   O13 9093   5.544   1.643  17.397
   7023SM   O14 9094   5.358   1.855  17.491
   7023SM   O11 9095   5.508   1.907  17.279
   7023SM   O12 9096   5.653   1.895  17.492
   7023SM   C1S 9097   5.659   1.963  17.229
   7023SM   H1S 9098   5.762   1.884  17.258
   7023SM   H1T 9099   5.683   2.086  17.269
   7023SM    NF 9100   5.797   1.885  17.019
   7023SM   HNF 9101   5.897   1.950  17.005
   7023SM   C2S 9102   5.660   1.974  17.074
   7023SM   H2S 9103   5.546   1.920  17.035
   7023SM   C3S 9104   5.664   2.153  17.031
   7023SM   H3S 9105   5.772   2.213  17.073
   7023SM    O3 9106   5.530   2.248  17.073
   7023SM   HO3 9107   5.488   2.196  17.152
   7023SM   C4S 9108   5.668   2.155  16.882
   7023SM   H4S 9109   5.550   2.130  16.836
   7023SM   C5S 9110   5.794   2.190  16.804
   7023SM   H5S 9111   5.910   2.221  16.849
   7023SM   C6S 9112   5.785   2.188  16.654
   7023SM   H6S 9113   5.804   2.310  16.613
   7023SM   H6T 9114   5.665   2.148  16.617
   7023SM   C7S 9115   5.911   2.074  16.596
   7023SM   H7S 9116   5.896   1.950  16.633
   7023SM   H7T 9117   6.032   2.114  16.626
   7023SM   C8S 9118   5.899   2.075  16.443
   7023SM   H8S 9119   5.903   2.204  16.413
   7023SM   H8T 9120   5.783   2.026  16.409
   7023SM   C9S 9121   6.037   1.992  16.371
   7023SM   H9S 9122   6.020   1.859  16.367
   7023SM   H9T 9123   6.151   2.017  16.424
   7023SM  C10S 9124   6.052   2.062  16.230
   7023SM  H10S 9125   6.163   2.018  16.183
   7023SM  H10T 9126   6.062   2.194  16.240
   7023SM  C11S 9127   5.914   2.022  16.135
   7023SM  H11S 9128   5.803   2.092  16.158
   7023SM  H11T 9129   5.885   1.892  16.145
   7023SM  C12S 9130   5.971   2.052  15.991
   7023SM  H12S 9131   6.082   1.981  15.978
   7023SM  H12T 9132   6.000   2.182  15.979
   7023SM  C13S 9133   5.850   1.988  15.891
   7023SM  H13S 9134   5.736   2.058  15.901
   7023SM  H13T 9135   5.831   1.865  15.929
   7023SM  C14S 9136   5.894   1.967  15.742
   7023SM  H14S 9137   5.932   1.840  15.724
   7023SM  H14T 9138   6.000   2.041  15.715
   7023SM  C15S 9139   5.747   2.006  15.656
   7023SM  H15S 9140   5.696   2.122  15.695
   7023SM  H15T 9141   5.652   1.915  15.669
   7023SM  C16S 9142   5.764   2.034  15.506
   7023SM  H16S 9143   5.790   2.164  15.493
   7023SM  H16T 9144   5.646   2.014  15.456
   7023SM  C17S 9145   5.892   1.952  15.422
   7023SM  H17S 9146   5.857   1.828  15.396
   7023SM  H17T 9147   6.011   1.950  15.473
   7023SM  C18S 9148   5.899   2.054  15.297
   7023SM  H18S 9149   5.960   1.994  15.213
   7023SM  H18T 9150   5.968   2.166  15.321
   7023SM  H18U 9151   5.777   2.089  15.263
   7023SM   C1F 9152   5.786   1.728  16.997
   7023SM    OF 9153   5.688   1.644  17.054
   7023SM   C2F 9154   5.893   1.657  16.892
   7023SM   H2F 9155   5.972   1.566  16.939
   7023SM   H2G 9156   5.968   1.753  16.846
   7023SM   C3F 9157   5.786   1.577  16.784
   7023SM   H3F 9158   5.724   1.471  16.828
   7023SM   H3G 9159   5.867   1.530  16.704
   7023SM   C4F 9160   5.658   1.691  16.726
   7023SM   H4F 9161   5.716   1.800  16.685
   7023SM   H4G 9162   5.576   1.732  16.807
   7023SM   C5F 9163   5.551   1.618  16.618
   7023SM   H5F 9164   5.450   1.700  16.596
   7023SM   H5G 9165   5.500   1.504  16.658
   7023SM   C6F 9166   5.640   1.584  16.488
   7023SM   H6F 9167   5.752   1.519  16.516
   7023SM   H6G 9168   5.677   1.696  16.436
   7023SM   C7F 9169   5.542   1.475  16.397
   7023SM   H7F 9170   5.488   1.385  16.465
   7023SM   H7G 9171   5.622   1.412  16.324
   7023SM   C8F 9172   5.400   1.552  16.323
   7023SM   H8F 9173   5.320   1.612  16.397
   7023SM   H8G 9174   5.329   1.456  16.273
   7023SM   C9F 9175   5.452   1.673  16.218
   7023SM   H9F 9176   5.551   1.748  16.257
   7023SM   H9G 9177   5.351   1.753  16.194
   7023SM  C10F 9178   5.507   1.590  16.089
   7023SM  H10F 9179   5.407   1.524  16.044
   7023SM  H10G 9180   5.604   1.502  16.110
   7023SM  C11F 9181   5.568   1.717  15.993
   7023SM  H11F 9182   5.662   1.784  16.050
   7023SM  H11G 9183   5.471   1.805  15.968
   7023SM  C12F 9184   5.641   1.646  15.866
   7023SM  H12F 9185   5.748   1.573  15.892
   7023SM  H12G 9186   5.684   1.747  15.805
   7023SM  C13F 9187   5.530   1.553  15.775
   7023SM  H13F 9188   5.413   1.620  15.767
   7023SM  H13G 9189   5.504   1.433  15.817
   7023SM  C14F 9190   5.599   1.541  15.633
   7023SM  H14F 9191   5.605   1.664  15.590
   7023SM  H14G 9192   5.513   1.469  15.573
   7023SM  C15F 9193   5.770   1.466  15.621
   7023SM  H15F 9194   5.762   1.337  15.647
   7023SM  H15G 9195   5.854   1.524  15.692
   7023SM  C16F 9196   5.843   1.483  15.480
   7023SM  H16F 9197   5.951   1.406  15.470
   7023SM  H16G 9198   5.884   1.609  15.470
   7023SM  C17F 9199   5.724   1.445  15.368
   7023SM  H17F 9200   5.606   1.502  15.388
   7023SM  H17G 9201   5.705   1.313  15.366
   7023SM  C18F 9202   5.766   1.506  15.230
   7023SM  H18F 9203   5.880   1.453  15.192
   7023SM  H18G 9204   5.780   1.639  15.234
   7023SM  C19F 9205   5.628   1.469  15.135
   7023SM  H19F 9206   5.512   1.512  15.177
   7023SM  H19G 9207   5.617   1.339  15.125
   7023SM  C20F 9208   5.650   1.536  14.996
   7023SM  H20F 9209   5.764   1.490  14.952
   7023SM  H20G 9210   5.664   1.667  15.003
   7023SM  C21F 9211   5.506   1.493  14.908
   7023SM  H21F 9212   5.392   1.513  14.963
   7023SM  H21G 9213   5.512   1.363  14.881
   7023SM  C22F 9214   5.508   1.595  14.782
   7023SM  H22F 9215   5.428   1.541  14.705
   7023SM  H22G 9216   5.633   1.592  14.746
   7023SM  C23F 9217   5.467   1.772  14.799
   7023SM  H23F 9218   5.496   1.843  14.709
   7023SM  H23G 9219   5.532   1.826  14.885
   7023SM  H23H 9220   5.338   1.780  14.821
   7123SM     N 9221   5.515   7.859  17.693
   7123SM   C15 9222   5.683   7.880  17.744
   7123SM  H15A 9223   5.725   8.002  17.719
   7123SM  H15B 9224   5.765   7.800  17.694
   7123SM  H15C 9225   5.693   7.862  17.851
   7123SM   C14 9226   5.452   7.699  17.736
   7123SM  H14A 9227   5.519   7.602  17.690
   7123SM  H14B 9228   5.326   7.682  17.714
   7123SM  H14C 9229   5.472   7.679  17.842
   7123SM   C13 9230   5.413   7.991  17.748
   7123SM  H13A 9231   5.453   8.104  17.703
   7123SM  H13B 9232   5.422   8.003  17.856
   7123SM  H13C 9233   5.290   7.974  17.720
   7123SM   C12 9234   5.518   7.873  17.541
   7123SM  H12A 9235   5.402   7.838  17.501
   7123SM  H12B 9236   5.609   7.794  17.501
   7123SM   C11 9237   5.560   8.039  17.480
   7123SM  H11A 9238   5.482   8.135  17.522
   7123SM  H11B 9239   5.534   8.033  17.370
   7123SM     P 9240   5.796   8.243  17.471
   7123SM   O13 9241   5.677   8.362  17.519
   7123SM   O14 9242   5.960   8.256  17.527
   7123SM   O11 9243   5.810   8.251  17.311
   7123SM   O12 9244   5.725   8.070  17.502
   7123SM   C1S 9245   5.868   8.112  17.243
   7123SM   H1S 9246   5.824   7.999  17.290
   7123SM   H1T 9247   6.001   8.108  17.245
   7123SM    NF 9248   5.798   7.945  17.040
   7123SM   HNF 9249   5.846   7.933  16.950
   7123SM   C2S 9250   5.807   8.108  17.096
   7123SM   H2S 9251   5.683   8.159  17.095
   7123SM   C3S 9252   5.915   8.215  17.005
   7123SM   H3S 9253   6.040   8.168  17.009
   7123SM    O3 9254   5.923   8.382  17.040
   7123SM   HO3 9255   5.890   8.387  17.133
   7123SM   C4S 9256   5.849   8.195  16.865
   7123SM   H4S 9257   5.729   8.246  16.852
   7123SM   C5S 9258   5.918   8.122  16.760
   7123SM   H5S 9259   6.042   8.075  16.767
   7123SM   C6S 9260   5.837   8.107  16.626
   7123SM   H6S 9261   5.705   8.126  16.635
   7123SM   H6T 9262   5.852   7.984  16.586
   7123SM   C7S 9263   5.898   8.226  16.522
   7123SM   H7S 9264   6.028   8.202  16.505
   7123SM   H7T 9265   5.882   8.351  16.559
   7123SM   C8S 9266   5.809   8.209  16.388
   7123SM   H8S 9267   5.678   8.224  16.405
   7123SM   H8T 9268   5.830   8.087  16.347
   7123SM   C9S 9269   5.866   8.334  16.287
   7123SM   H9S 9270   5.996   8.320  16.267
   7123SM   H9T 9271   5.846   8.456  16.329
   7123SM  C10S 9272   5.777   8.320  16.154
   7123SM  H10S 9273   5.656   8.267  16.172
   7123SM  H10T 9274   5.848   8.233  16.093
   7123SM  C11S 9275   5.755   8.480  16.084
   7123SM  H11S 9276   5.864   8.554  16.106
   7123SM  H11T 9277   5.653   8.545  16.131
   7123SM  C12S 9278   5.732   8.480  15.931
   7123SM  H12S 9279   5.783   8.596  15.896
   7123SM  H12T 9280   5.603   8.480  15.904
   7123SM  C13S 9281   5.819   8.348  15.854
   7123SM  H13S 9282   5.747   8.239  15.842
   7123SM  H13T 9283   5.930   8.312  15.906
   7123SM  C14S 9284   5.862   8.408  15.714
   7123SM  H14S 9285   5.897   8.537  15.717
   7123SM  H14T 9286   5.756   8.396  15.648
   7123SM  C15S 9287   6.005   8.318  15.656
   7123SM  H15S 9288   5.992   8.188  15.669
   7123SM  H15T 9289   6.112   8.346  15.714
   7123SM  C16S 9290   6.019   8.360  15.508
   7123SM  H16S 9291   6.148   8.366  15.479
   7123SM  H16T 9292   5.959   8.476  15.486
   7123SM  C17S 9293   5.939   8.225  15.434
   7123SM  H17S 9294   5.826   8.197  15.490
   7123SM  H17T 9295   6.029   8.130  15.448
   7123SM  C18S 9296   5.896   8.234  15.288
   7123SM  H18S 9297   5.902   8.358  15.249
   7123SM  H18T 9298   5.774   8.184  15.270
   7123SM  H18U 9299   5.980   8.153  15.234
   7123SM   C1F 9300   5.706   7.825  17.083
   7123SM    OF 9301   5.622   7.834  17.182
   7123SM   C2F 9302   5.708   7.682  16.995
   7123SM   H2F 9303   5.742   7.574  17.054
   7123SM   H2G 9304   5.800   7.702  16.915
   7123SM   C3F 9305   5.542   7.661  16.932
   7123SM   H3F 9306   5.500   7.771  16.881
   7123SM   H3G 9307   5.453   7.632  17.012
   7123SM   C4F 9308   5.544   7.523  16.832
   7123SM   H4F 9309   5.420   7.498  16.795
   7123SM   H4G 9310   5.582   7.415  16.889
   7123SM   C5F 9311   5.659   7.542  16.712
   7123SM   H5F 9312   5.639   7.439  16.643
   7123SM   H5G 9313   5.785   7.531  16.748
   7123SM   C6F 9314   5.641   7.702  16.637
   7123SM   H6F 9315   5.737   7.709  16.560
   7123SM   H6G 9316   5.659   7.802  16.708
   7123SM   C7F 9317   5.479   7.728  16.566
   7123SM   H7F 9318   5.378   7.706  16.637
   7123SM   H7G 9319   5.468   7.639  16.484
   7123SM   C8F 9320   5.471   7.900  16.510
   7123SM   H8F 9321   5.582   7.924  16.453
   7123SM   H8G 9322   5.470   7.985  16.596
   7123SM   C9F 9323   5.324   7.933  16.420
   7123SM   H9F 9324   5.308   8.064  16.408
   7123SM   H9G 9325   5.216   7.884  16.472
   7123SM  C10F 9326   5.338   7.854  16.282
   7123SM  H10F 9327   5.222   7.868  16.227
   7123SM  H10G 9328   5.354   7.723  16.301
   7123SM  C11F 9329   5.474   7.909  16.188
   7123SM  H11F 9330   5.512   7.801  16.132
   7123SM  H11G 9331   5.580   7.950  16.246
   7123SM  C12F 9332   5.431   8.036  16.083
   7123SM  H12F 9333   5.414   8.155  16.134
   7123SM  H12G 9334   5.316   8.009  16.032
   7123SM  C13F 9335   5.563   8.060  15.977
   7123SM  H13F 9336   5.677   8.080  16.031
   7123SM  H13G 9337   5.534   8.168  15.917
   7123SM  C14F 9338   5.604   7.921  15.884
   7123SM  H14F 9339   5.639   7.818  15.947
   7123SM  H14G 9340   5.713   7.954  15.824
   7123SM  C15F 9341   5.468   7.873  15.789
   7123SM  H15F 9342   5.359   7.849  15.847
   7123SM  H15G 9343   5.497   7.757  15.745
   7123SM  C16F 9344   5.431   7.991  15.675
   7123SM  H16F 9345   5.376   8.098  15.723
   7123SM  H16G 9346   5.341   7.937  15.607
   7123SM  C17F 9347   5.574   8.052  15.590
   7123SM  H17F 9348   5.660   8.116  15.656
   7123SM  H17G 9349   5.526   8.144  15.520
   7123SM  C18F 9350   5.666   7.928  15.504
   7123SM  H18F 9351   5.690   7.990  15.407
   7123SM  H18G 9352   5.593   7.823  15.475
   7123SM  C19F 9353   5.834   7.889  15.562
   7123SM  H19F 9354   5.837   7.804  15.646
   7123SM  H19G 9355   5.874   8.000  15.610
   7123SM  C20F 9356   5.963   7.856  15.457
   7123SM  H20F 9357   6.080   7.906  15.491
   7123SM  H20G 9358   5.926   7.920  15.364
   7123SM  C21F 9359   5.999   7.686  15.420
   7123SM  H21F 9360   5.885   7.621  15.410
   7123SM  H21G 9361   6.078   7.625  15.494
   7123SM  C22F 9362   6.065   7.682  15.281
   7123SM  H22F 9363   6.188   7.734  15.273
   7123SM  H22G 9364   5.983   7.754  15.215
   7123SM  C23F 9365   6.058   7.512  15.235
   7123SM  H23F 9366   6.172   7.450  15.256
   7123SM  H23G 9367   6.029   7.510  15.127
   7123SM  H23H 9368   5.959   7.447  15.285
   7223SM     N 9369   8.072   3.196  17.673
   7223SM   C15 9370   8.104   3.319  17.779
   7223SM  H15A 9371   7.998   3.332  17.842
   7223SM  H15B 9372   8.120   3.434  17.730
   7223SM  H15C 9373   8.208   3.288  17.836
   7223SM   C14 9374   8.212   3.185  17.582
   7223SM  H14A 9375   8.322   3.163  17.636
   7223SM  H14B 9376   8.222   3.296  17.526
   7223SM  H14C 9377   8.194   3.091  17.508
   7223SM   C13 9378   8.046   3.037  17.735
   7223SM  H13A 9379   8.038   2.948  17.655
   7223SM  H13B 9380   7.936   3.034  17.791
   7223SM  H13C 9381   8.147   3.004  17.797
   7223SM   C12 9382   7.932   3.247  17.584
   7223SM  H12A 9383   7.820   3.198  17.622
   7223SM  H12B 9384   7.950   3.197  17.485
   7223SM   C11 9385   7.907   3.428  17.565
   7223SM  H11A 9386   7.850   3.478  17.658
   7223SM  H11B 9387   7.820   3.445  17.480
   7223SM     P 9388   8.053   3.692  17.514
   7223SM   O13 9389   7.918   3.742  17.429
   7223SM   O14 9390   8.076   3.772  17.646
   7223SM   O11 9391   8.210   3.722  17.429
   7223SM   O12 9392   8.054   3.506  17.536
   7223SM   C1S 9393   8.275   3.610  17.336
   7223SM   H1S 9394   8.280   3.487  17.380
   7223SM   H1T 9395   8.401   3.644  17.313
   7223SM    NF 9396   8.254   3.457  17.125
   7223SM   HNF 9397   8.317   3.486  17.044
   7223SM   C2S 9398   8.184   3.593  17.199
   7223SM   H2S 9399   8.056   3.570  17.221
   7223SM   C3S 9400   8.189   3.749  17.112
   7223SM   H3S 9401   8.316   3.781  17.092
   7223SM    O3 9402   8.116   3.890  17.163
   7223SM   HO3 9403   8.093   3.866  17.255
   7223SM   C4S 9404   8.118   3.697  16.979
   7223SM   H4S 9405   8.213   3.659  16.910
   7223SM   C5S 9406   7.964   3.683  16.938
   7223SM   H5S 9407   7.866   3.719  17.007
   7223SM   C6S 9408   7.915   3.626  16.800
   7223SM   H6S 9409   7.795   3.676  16.774
   7223SM   H6T 9410   7.904   3.493  16.798
   7223SM   C7S 9411   8.033   3.682  16.691
   7223SM   H7S 9412   8.162   3.662  16.715
   7223SM   H7T 9413   8.012   3.811  16.684
   7223SM   C8S 9414   8.009   3.616  16.550
   7223SM   H8S 9415   7.882   3.629  16.517
   7223SM   H8T 9416   8.042   3.487  16.545
   7223SM   C9S 9417   8.120   3.704  16.454
   7223SM   H9S 9418   8.246   3.676  16.480
   7223SM   H9T 9419   8.108   3.836  16.468
   7223SM  C10S 9420   8.095   3.654  16.308
   7223SM  H10S 9421   7.968   3.620  16.289
   7223SM  H10T 9422   8.170   3.546  16.292
   7223SM  C11S 9423   8.146   3.792  16.215
   7223SM  H11S 9424   8.272   3.823  16.242
   7223SM  H11T 9425   8.068   3.895  16.239
   7223SM  C12S 9426   8.138   3.761  16.064
   7223SM  H12S 9427   8.014   3.736  16.031
   7223SM  H12T 9428   8.209   3.652  16.041
   7223SM  C13S 9429   8.208   3.904  15.985
   7223SM  H13S 9430   8.311   3.954  16.042
   7223SM  H13T 9431   8.117   4.001  15.977
   7223SM  C14S 9432   8.266   3.847  15.847
   7223SM  H14S 9433   8.160   3.798  15.794
   7223SM  H14T 9434   8.351   3.746  15.864
   7223SM  C15S 9435   8.351   3.966  15.752
   7223SM  H15S 9436   8.460   4.018  15.799
   7223SM  H15T 9437   8.269   4.068  15.728
   7223SM  C16S 9438   8.392   3.870  15.625
   7223SM  H16S 9439   8.291   3.786  15.608
   7223SM  H16T 9440   8.501   3.796  15.643
   7223SM  C17S 9441   8.412   3.964  15.494
   7223SM  H17S 9442   8.540   3.995  15.487
   7223SM  H17T 9443   8.347   4.079  15.495
   7223SM  C18S 9444   8.354   3.865  15.373
   7223SM  H18S 9445   8.444   3.773  15.344
   7223SM  H18T 9446   8.330   3.942  15.284
   7223SM  H18U 9447   8.240   3.802  15.396
   7223SM   C1F 9448   8.186   3.313  17.134
   7223SM    OF 9449   8.071   3.288  17.206
   7223SM   C2F 9450   8.246   3.182  17.042
   7223SM   H2F 9451   8.179   3.071  17.067
   7223SM   H2G 9452   8.375   3.158  17.060
   7223SM   C3F 9453   8.214   3.226  16.894
   7223SM   H3F 9454   8.279   3.337  16.865
   7223SM   H3G 9455   8.083   3.250  16.880
   7223SM   C4F 9456   8.262   3.089  16.799
   7223SM   H4F 9457   8.185   2.983  16.824
   7223SM   H4G 9458   8.387   3.049  16.817
   7223SM   C5F 9459   8.239   3.127  16.650
   7223SM   H5F 9460   8.111   3.161  16.633
   7223SM   H5G 9461   8.262   3.014  16.592
   7223SM   C6F 9462   8.347   3.258  16.590
   7223SM   H6F 9463   8.476   3.232  16.612
   7223SM   H6G 9464   8.318   3.377  16.635
   7223SM   C7F 9465   8.326   3.270  16.437
   7223SM   H7F 9466   8.203   3.316  16.415
   7223SM   H7G 9467   8.334   3.148  16.394
   7223SM   C8F 9468   8.449   3.377  16.365
   7223SM   H8F 9469   8.573   3.346  16.396
   7223SM   H8G 9470   8.428   3.504  16.394
   7223SM   C9F 9471   8.435   3.361  16.212
   7223SM   H9F 9472   8.305   3.359  16.186
   7223SM   H9G 9473   8.486   3.244  16.180
   7223SM  C10F 9474   8.514   3.499  16.134
   7223SM  H10F 9475   8.519   3.607  16.200
   7223SM  H10G 9476   8.437   3.532  16.047
   7223SM  C11F 9477   8.682   3.460  16.082
   7223SM  H11F 9478   8.749   3.400  16.165
   7223SM  H11G 9479   8.746   3.574  16.057
   7223SM  C12F 9480   8.686   3.349  15.959
   7223SM  H12F 9481   8.621   3.236  15.981
   7223SM  H12G 9482   8.814   3.317  15.939
   7223SM  C13F 9483   8.616   3.426  15.832
   7223SM  H13F 9484   8.671   3.546  15.816
   7223SM  H13G 9485   8.484   3.443  15.845
   7223SM  C14F 9486   8.648   3.322  15.709
   7223SM  H14F 9487   8.600   3.198  15.726
   7223SM  H14G 9488   8.780   3.311  15.695
   7223SM  C15F 9489   8.574   3.389  15.580
   7223SM  H15F 9490   8.623   3.320  15.494
   7223SM  H15G 9491   8.610   3.516  15.567
   7223SM  C16F 9492   8.390   3.378  15.577
   7223SM  H16F 9493   8.342   3.455  15.659
   7223SM  H16G 9494   8.352   3.253  15.599
   7223SM  C17F 9495   8.317   3.437  15.445
   7223SM  H17F 9496   8.371   3.557  15.424
   7223SM  H17G 9497   8.186   3.455  15.457
   7223SM  C18F 9498   8.348   3.329  15.323
   7223SM  H18F 9499   8.480   3.325  15.306
   7223SM  H18G 9500   8.296   3.384  15.232
   7223SM  C19F 9501   8.285   3.157  15.340
   7223SM  H19F 9502   8.339   3.106  15.432
   7223SM  H19G 9503   8.323   3.082  15.255
   7223SM  C20F 9504   8.102   3.142  15.351
   7223SM  H20F 9505   8.047   3.241  15.408
   7223SM  H20G 9506   8.081   3.030  15.410
   7223SM  C21F 9507   8.022   3.118  15.215
   7223SM  H21F 9508   7.916   3.038  15.228
   7223SM  H21G 9509   8.107   3.053  15.148
   7223SM  C22F 9510   7.964   3.269  15.144
   7223SM  H22F 9511   8.060   3.362  15.144
   7223SM  H22G 9512   7.860   3.319  15.198
   7223SM  C23F 9513   7.919   3.230  14.999
   7223SM  H23F 9514   7.836   3.126  14.997
   7223SM  H23G 9515   8.028   3.198  14.941
   7223SM  H23H 9516   7.860   3.334  14.950
   7323SM     N 9517   6.406   1.283  17.772
   7323SM   C15 9518   6.503   1.432  17.756
   7323SM  H15A 9519   6.577   1.454  17.843
   7323SM  H15B 9520   6.431   1.537  17.738
   7323SM  H15C 9521   6.577   1.418  17.667
   7323SM   C14 9522   6.523   1.153  17.804
   7323SM  H14A 9523   6.590   1.183  17.894
   7323SM  H14B 9524   6.608   1.142  17.723
   7323SM  H14C 9525   6.466   1.037  17.818
   7323SM   C13 9526   6.286   1.298  17.883
   7323SM  H13A 9527   6.341   1.268  17.978
   7323SM  H13B 9528   6.185   1.217  17.867
   7323SM  H13C 9529   6.238   1.420  17.887
   7323SM   C12 9530   6.318   1.243  17.642
   7323SM  H12A 9531   6.238   1.343  17.617
   7323SM  H12B 9532   6.238   1.141  17.661
   7323SM   C11 9533   6.425   1.210  17.518
   7323SM  H11A 9534   6.350   1.154  17.438
   7323SM  H11B 9535   6.517   1.118  17.544
   7323SM     P 9536   6.403   1.495  17.414
   7323SM   O13 9537   6.240   1.439  17.377
   7323SM   O14 9538   6.413   1.630  17.509
   7323SM   O11 9539   6.500   1.535  17.283
   7323SM   O12 9540   6.505   1.349  17.468
   7323SM   C1S 9541   6.533   1.409  17.190
   7323SM   H1S 9542   6.490   1.289  17.223
   7323SM   H1T 9543   6.665   1.397  17.175
   7323SM    NF 9544   6.479   1.310  16.960
   7323SM   HNF 9545   6.551   1.332  16.882
   7323SM   C2S 9546   6.456   1.444  17.052
   7323SM   H2S 9547   6.324   1.462  17.065
   7323SM   C3S 9548   6.529   1.602  16.998
   7323SM   H3S 9549   6.662   1.594  17.004
   7323SM    O3 9550   6.486   1.739  17.074
   7323SM   HO3 9551   6.494   1.702  17.166
   7323SM   C4S 9552   6.484   1.625  16.855
   7323SM   H4S 9553   6.584   1.608  16.785
   7323SM   C5S 9554   6.338   1.666  16.807
   7323SM   H5S 9555   6.240   1.687  16.879
   7323SM   C6S 9556   6.298   1.688  16.663
   7323SM   H6S 9557   6.275   1.818  16.645
   7323SM   H6T 9558   6.184   1.624  16.640
   7323SM   C7S 9559   6.425   1.633  16.560
   7323SM   H7S 9560   6.438   1.501  16.563
   7323SM   H7T 9561   6.542   1.690  16.582
   7323SM   C8S 9562   6.373   1.690  16.421
   7323SM   H8S 9563   6.349   1.820  16.425
   7323SM   H8T 9564   6.259   1.632  16.394
   7323SM   C9S 9565   6.493   1.657  16.308
   7323SM   H9S 9566   6.598   1.739  16.319
   7323SM   H9T 9567   6.430   1.687  16.213
   7323SM  C10S 9568   6.551   1.486  16.293
   7323SM  H10S 9569   6.448   1.403  16.281
   7323SM  H10T 9570   6.618   1.446  16.383
   7323SM  C11S 9571   6.658   1.470  16.170
   7323SM  H11S 9572   6.702   1.344  16.165
   7323SM  H11T 9573   6.764   1.550  16.180
   7323SM  C12S 9574   6.575   1.516  16.039
   7323SM  H12S 9575   6.599   1.644  16.014
   7323SM  H12T 9576   6.443   1.499  16.045
   7323SM  C13S 9577   6.638   1.421  15.922
   7323SM  H13S 9578   6.588   1.475  15.830
   7323SM  H13T 9579   6.602   1.292  15.925
   7323SM  C14S 9580   6.821   1.430  15.918
   7323SM  H14S 9581   6.878   1.388  16.012
   7323SM  H14T 9582   6.858   1.556  15.903
   7323SM  C15S 9583   6.884   1.327  15.806
   7323SM  H15S 9584   6.859   1.199  15.823
   7323SM  H15T 9585   7.013   1.350  15.821
   7323SM  C16S 9586   6.829   1.385  15.669
   7323SM  H16S 9587   6.888   1.501  15.651
   7323SM  H16T 9588   6.698   1.403  15.667
   7323SM  C17S 9589   6.866   1.280  15.549
   7323SM  H17S 9590   6.874   1.151  15.574
   7323SM  H17T 9591   6.980   1.321  15.507
   7323SM  C18S 9592   6.757   1.314  15.433
   7323SM  H18S 9593   6.797   1.426  15.384
   7323SM  H18T 9594   6.630   1.327  15.462
   7323SM  H18U 9595   6.772   1.214  15.360
   7323SM   C1F 9596   6.419   1.165  16.976
   7323SM    OF 9597   6.330   1.129  17.070
   7323SM   C2F 9598   6.479   1.045  16.877
   7323SM   H2F 9599   6.553   0.958  16.931
   7323SM   H2G 9600   6.558   1.108  16.804
   7323SM   C3F 9601   6.343   0.964  16.798
   7323SM   H3F 9602   6.260   0.898  16.866
   7323SM   H3G 9603   6.397   0.875  16.727
   7323SM   C4F 9604   6.244   1.082  16.715
   7323SM   H4F 9605   6.325   1.164  16.660
   7323SM   H4G 9606   6.169   1.158  16.783
   7323SM   C5F 9607   6.133   0.995  16.617
   7323SM   H5F 9608   6.012   1.050  16.623
   7323SM   H5G 9609   6.118   0.868  16.649
   7323SM   C6F 9610   6.193   1.001  16.473
   7323SM   H6F 9611   6.116   0.922  16.409
   7323SM   H6G 9612   6.318   0.952  16.469
   7323SM   C7F 9613   6.191   1.170  16.411
   7323SM   H7F 9614   6.244   1.162  16.309
   7323SM   H7G 9615   6.269   1.252  16.470
   7323SM   C8F 9616   6.022   1.243  16.402
   7323SM   H8F 9617   5.962   1.238  16.502
   7323SM   H8G 9618   5.948   1.174  16.331
   7323SM   C9F 9619   6.023   1.421  16.363
   7323SM   H9F 9620   6.089   1.486  16.443
   7323SM   H9G 9621   5.899   1.470  16.362
   7323SM  C10F 9622   6.095   1.456  16.225
   7323SM  H10F 9623   6.208   1.387  16.211
   7323SM  H10G 9624   6.126   1.585  16.216
   7323SM  C11F 9625   5.976   1.415  16.113
   7323SM  H11F 9626   5.869   1.495  16.123
   7323SM  H11G 9627   5.935   1.289  16.125
   7323SM  C12F 9628   6.049   1.438  15.975
   7323SM  H12F 9629   6.103   1.559  15.965
   7323SM  H12G 9630   5.952   1.427  15.899
   7323SM  C13F 9631   6.173   1.308  15.943
   7323SM  H13F 9632   6.119   1.188  15.962
   7323SM  H13G 9633   6.281   1.318  16.008
   7323SM  C14F 9634   6.224   1.315  15.796
   7323SM  H14F 9635   6.301   1.423  15.780
   7323SM  H14G 9636   6.115   1.328  15.732
   7323SM  C15F 9637   6.312   1.163  15.756
   7323SM  H15F 9638   6.224   1.062  15.757
   7323SM  H15G 9639   6.408   1.134  15.830
   7323SM  C16F 9640   6.388   1.176  15.618
   7323SM  H16F 9641   6.503   1.242  15.627
   7323SM  H16G 9642   6.307   1.247  15.551
   7323SM  C17F 9643   6.414   1.009  15.560
   7323SM  H17F 9644   6.294   0.952  15.545
   7323SM  H17G 9645   6.481   0.937  15.634
   7323SM  C18F 9646   6.504   1.004  15.427
   7323SM  H18F 9647   6.503   0.877  15.398
   7323SM  H18G 9648   6.631   1.036  15.445
   7323SM  C19F 9649   6.433   1.112  15.316
   7323SM  H19F 9650   6.430   1.237  15.354
   7323SM  H19G 9651   6.307   1.079  15.296
   7323SM  C20F 9652   6.527   1.121  15.183
   7323SM  H20F 9653   6.655   1.140  15.202
   7323SM  H20G 9654   6.481   1.226  15.126
   7323SM  C21F 9655   6.514   0.976  15.089
   7323SM  H21F 9656   6.583   1.010  14.999
   7323SM  H21G 9657   6.388   0.955  15.059
   7323SM  C22F 9658   6.587   0.821  15.146
   7323SM  H22F 9659   6.506   0.778  15.227
   7323SM  H22G 9660   6.707   0.847  15.188
   7323SM  C23F 9661   6.598   0.680  15.047
   7323SM  H23F 9662   6.686   0.707  14.967
   7323SM  H23G 9663   6.479   0.658  15.001
   7323SM  H23H 9664   6.636   0.571  15.101
   7423SM     N 9665   0.592   5.354  17.697
   7423SM   C15 9666   0.672   5.369  17.830
   7423SM  H15A 9667   0.782   5.435  17.827
   7423SM  H15B 9668   0.700   5.251  17.871
   7423SM  H15C 9669   0.594   5.428  17.903
   7423SM   C14 9670   0.450   5.246  17.707
   7423SM  H14A 9671   0.485   5.122  17.717
   7423SM  H14B 9672   0.385   5.248  17.611
   7423SM  H14C 9673   0.367   5.276  17.785
   7423SM   C13 9674   0.533   5.514  17.646
   7423SM  H13A 9675   0.484   5.500  17.546
   7423SM  H13B 9676   0.626   5.605  17.644
   7423SM  H13C 9677   0.434   5.561  17.705
   7423SM   C12 9678   0.703   5.286  17.592
   7423SM  H12A 9679   0.776   5.189  17.634
   7423SM  H12B 9680   0.785   5.381  17.563
   7423SM   C11 9681   0.618   5.212  17.469
   7423SM  H11A 9682   0.704   5.203  17.384
   7423SM  H11B 9683   0.522   5.293  17.433
   7423SM     P 9684   0.664   4.913  17.512
   7423SM   O13 9685   0.784   4.957  17.612
   7423SM   O14 9686   0.577   4.758  17.531
   7423SM   O11 9687   0.749   4.908  17.369
   7423SM   O12 9688   0.545   5.059  17.501
   7423SM   C1S 9689   0.638   4.873  17.262
   7423SM   H1S 9690   0.530   4.949  17.273
   7423SM   H1T 9691   0.598   4.745  17.264
   7423SM    NF 9692   0.592   4.910  17.020
   7423SM   HNF 9693   0.628   4.860  16.934
   7423SM   C2S 9694   0.715   4.910  17.125
   7423SM   H2S 9695   0.768   5.033  17.129
   7423SM   C3S 9696   0.852   4.787  17.093
   7423SM   H3S 9697   0.800   4.663  17.102
   7423SM    O3 9698   0.988   4.786  17.183
   7423SM   HO3 9699   0.953   4.848  17.258
   7423SM   C4S 9700   0.902   4.817  16.951
   7423SM   H4S 9701   0.964   4.932  16.933
   7423SM   C5S 9702   0.877   4.712  16.850
   7423SM   H5S 9703   0.830   4.592  16.873
   7423SM   C6S 9704   0.920   4.732  16.705
   7423SM   H6S 9705   0.822   4.681  16.642
   7423SM   H6T 9706   1.027   4.657  16.680
   7423SM   C7S 9707   0.956   4.902  16.657
   7423SM   H7S 9708   1.060   4.948  16.717
   7423SM   H7T 9709   0.853   4.984  16.675
   7423SM   C8S 9710   1.003   4.904  16.509
   7423SM   H8S 9711   1.086   4.804  16.488
   7423SM   H8T 9712   1.070   5.015  16.483
   7423SM   C9S 9713   0.859   4.895  16.414
   7423SM   H9S 9714   0.780   5.002  16.426
   7423SM   H9T 9715   0.788   4.787  16.440
   7423SM  C10S 9716   0.914   4.882  16.269
   7423SM  H10S 9717   1.002   4.781  16.261
   7423SM  H10T 9718   0.978   4.993  16.238
   7423SM  C11S 9719   0.774   4.849  16.175
   7423SM  H11S 9720   0.689   4.951  16.179
   7423SM  H11T 9721   0.710   4.739  16.209
   7423SM  C12S 9722   0.834   4.825  16.032
   7423SM  H12S 9723   0.918   4.721  16.030
   7423SM  H12T 9724   0.902   4.933  16.000
   7423SM  C13S 9725   0.697   4.795  15.934
   7423SM  H13S 9726   0.608   4.896  15.940
   7423SM  H13T 9727   0.634   4.684  15.962
   7423SM  C14S 9728   0.758   4.784  15.790
   7423SM  H14S 9729   0.857   4.696  15.783
   7423SM  H14T 9730   0.810   4.901  15.759
   7423SM  C15S 9731   0.628   4.730  15.693
   7423SM  H15S 9732   0.524   4.814  15.699
   7423SM  H15T 9733   0.581   4.612  15.725
   7423SM  C16S 9734   0.691   4.724  15.550
   7423SM  H16S 9735   0.788   4.633  15.542
   7423SM  H16T 9736   0.748   4.841  15.526
   7423SM  C17S 9737   0.563   4.685  15.445
   7423SM  H17S 9738   0.461   4.771  15.454
   7423SM  H17T 9739   0.511   4.565  15.464
   7423SM  C18S 9740   0.631   4.691  15.304
   7423SM  H18S 9741   0.737   4.610  15.294
   7423SM  H18T 9742   0.672   4.814  15.280
   7423SM  H18U 9743   0.540   4.654  15.229
   7423SM   C1F 9744   0.454   4.996  17.017
   7423SM    OF 9745   0.406   5.082  17.108
   7423SM   C2F 9746   0.358   4.975  16.891
   7423SM   H2F 9747   0.269   4.877  16.911
   7423SM   H2G 9748   0.437   4.936  16.808
   7423SM   C3F 9749   0.266   5.129  16.849
   7423SM   H3F 9750   0.350   5.215  16.802
   7423SM   H3G 9751   0.217   5.190  16.939
   7423SM   C4F 9752   0.125   5.092  16.756
   7423SM   H4F 9753   0.044   5.198  16.752
   7423SM   H4G 9754   0.055   4.991  16.801
   7423SM   C5F 9755   0.164   5.036  16.614
   7423SM   H5F 9756   0.049   5.018  16.560
   7423SM   H5G 9757   0.227   4.919  16.619
   7423SM   C6F 9758   0.269   5.154  16.534
   7423SM   H6F 9759   0.287   5.101  16.432
   7423SM   H6G 9760   0.389   5.165  16.582
   7423SM   C7F 9761   0.197   5.322  16.519
   7423SM   H7F 9762   0.164   5.370  16.619
   7423SM   H7G 9763   0.084   5.315  16.460
   7423SM   C8F 9764   0.317   5.440  16.455
   7423SM   H8F 9765   0.425   5.449  16.520
   7423SM   H8G 9766   0.264   5.560  16.448
   7423SM   C9F 9767   0.367   5.399  16.312
   7423SM   H9F 9768   0.416   5.275  16.306
   7423SM   H9G 9769   0.463   5.484  16.281
   7423SM  C10F 9770   0.224   5.418  16.217
   7423SM  H10F 9771   0.175   5.543  16.224
   7423SM  H10G 9772   0.127   5.334  16.248
   7423SM  C11F 9773   0.268   5.384  16.072
   7423SM  H11F 9774   0.156   5.372  16.012
   7423SM  H11G 9775   0.332   5.268  16.068
   7423SM  C12F 9776   0.372   5.514  16.008
   7423SM  H12F 9777   0.493   5.514  16.055
   7423SM  H12G 9778   0.317   5.634  16.025
   7423SM  C13F 9779   0.391   5.485  15.858
   7423SM  H13F 9780   0.470   5.578  15.813
   7423SM  H13G 9781   0.271   5.495  15.809
   7423SM  C14F 9782   0.457   5.318  15.829
   7423SM  H14F 9783   0.368   5.225  15.860
   7423SM  H14G 9784   0.570   5.296  15.885
   7423SM  C15F 9785   0.486   5.297  15.681
   7423SM  H15F 9786   0.588   5.372  15.647
   7423SM  H15G 9787   0.377   5.340  15.627
   7423SM  C16F 9788   0.515   5.123  15.645
   7423SM  H16F 9789   0.418   5.045  15.685
   7423SM  H16G 9790   0.630   5.083  15.692
   7423SM  C17F 9791   0.523   5.111  15.495
   7423SM  H17F 9792   0.586   5.000  15.464
   7423SM  H17G 9793   0.596   5.214  15.459
   7423SM  C18F 9794   0.359   5.112  15.428
   7423SM  H18F 9795   0.295   5.226  15.449
   7423SM  H18G 9796   0.283   5.012  15.469
   7423SM  C19F 9797   0.370   5.089  15.277
   7423SM  H19F 9798   0.271   5.158  15.229
   7423SM  H19G 9799   0.348   4.960  15.256
   7423SM  C20F 9800   0.534   5.140  15.219
   7423SM  H20F 9801   0.632   5.064  15.261
   7423SM  H20G 9802   0.559   5.267  15.248
   7423SM  C21F 9803   0.536   5.124  15.068
   7423SM  H21F 9804   0.557   5.243  15.020
   7423SM  H21G 9805   0.410   5.093  15.046
   7423SM  C22F 9806   0.650   4.994  15.010
   7423SM  H22F 9807   0.576   4.906  14.958
   7423SM  H22G 9808   0.716   4.928  15.088
   7423SM  C23F 9809   0.757   5.039  14.893
   7423SM  H23F 9810   0.868   5.095  14.930
   7423SM  H23G 9811   0.692   5.124  14.827
   7423SM  H23H 9812   0.791   4.932  14.833
   7523SM     N 9813   8.118   6.520  17.690
   7523SM   C15 9814   8.041   6.470  17.817
   7523SM  H15A 9815   7.921   6.426  17.801
   7523SM  H15B 9816   8.032   6.571  17.886
   7523SM  H15C 9817   8.110   6.378  17.868
   7523SM   C14 9818   8.144   6.382  17.597
   7523SM  H14A 9819   8.177   6.426  17.498
   7523SM  H14B 9820   8.035   6.314  17.582
   7523SM  H14C 9821   8.244   6.306  17.627
   7523SM   C13 9822   8.005   6.626  17.615
   7523SM  H13A 9823   7.986   6.742  17.664
   7523SM  H13B 9824   7.890   6.568  17.603
   7523SM  H13C 9825   8.053   6.650  17.516
   7523SM   C12 9826   8.276   6.600  17.721
   7523SM  H12A 9827   8.351   6.511  17.773
   7523SM  H12B 9828   8.256   6.701  17.787
   7523SM   C11 9829   8.381   6.652  17.604
   7523SM  H11A 9830   8.466   6.745  17.643
   7523SM  H11B 9831   8.308   6.708  17.523
   7523SM     P 9832   8.605   6.552  17.457
   7523SM   O13 9833   8.713   6.670  17.521
   7523SM   O14 9834   8.678   6.401  17.407
   7523SM   O11 9835   8.506   6.638  17.347
   7523SM   O12 9836   8.465   6.512  17.558
   7523SM   C1S 9837   8.389   6.559  17.266
   7523SM   H1S 9838   8.274   6.619  17.284
   7523SM   H1T 9839   8.370   6.432  17.295
   7523SM    NF 9840   8.537   6.438  17.081
   7523SM   HNF 9841   8.653   6.440  17.099
   7523SM   C2S 9842   8.442   6.577  17.117
   7523SM   H2S 9843   8.333   6.582  17.052
   7523SM   C3S 9844   8.533   6.739  17.104
   7523SM   H3S 9845   8.650   6.732  17.157
   7523SM    O3 9846   8.446   6.868  17.164
   7523SM   HO3 9847   8.396   6.815  17.239
   7523SM   C4S 9848   8.561   6.790  16.962
   7523SM   H4S 9849   8.500   6.898  16.926
   7523SM   C5S 9850   8.675   6.721  16.887
   7523SM   H5S 9851   8.748   6.628  16.934
   7523SM   C6S 9852   8.728   6.760  16.748
   7523SM   H6S 9853   8.832   6.680  16.730
   7523SM   H6T 9854   8.790   6.877  16.743
   7523SM   C7S 9855   8.596   6.764  16.643
   7523SM   H7S 9856   8.525   6.864  16.681
   7523SM   H7T 9857   8.516   6.658  16.639
   7523SM   C8S 9858   8.644   6.820  16.503
   7523SM   H8S 9859   8.771   6.805  16.481
   7523SM   H8T 9860   8.634   6.953  16.509
   7523SM   C9S 9861   8.527   6.782  16.386
   7523SM   H9S 9862   8.580   6.882  16.330
   7523SM   H9T 9863   8.405   6.823  16.407
   7523SM  C10S 9864   8.525   6.650  16.274
   7523SM  H10S 9865   8.414   6.575  16.284
   7523SM  H10T 9866   8.622   6.562  16.259
   7523SM  C11S 9867   8.519   6.742  16.141
   7523SM  H11S 9868   8.558   6.869  16.150
   7523SM  H11T 9869   8.389   6.746  16.114
   7523SM  C12S 9870   8.629   6.696  16.025
   7523SM  H12S 9871   8.627   6.565  16.009
   7523SM  H12T 9872   8.756   6.732  16.044
   7523SM  C13S 9873   8.560   6.799  15.912
   7523SM  H13S 9874   8.568   6.928  15.945
   7523SM  H13T 9875   8.431   6.764  15.901
   7523SM  C14S 9876   8.641   6.797  15.779
   7523SM  H14S 9877   8.648   6.673  15.742
   7523SM  H14T 9878   8.762   6.848  15.799
   7523SM  C15S 9879   8.560   6.894  15.667
   7523SM  H15S 9880   8.491   6.996  15.710
   7523SM  H15T 9881   8.476   6.812  15.613
   7523SM  C16S 9882   8.683   6.958  15.568
   7523SM  H16S 9883   8.718   6.854  15.507
   7523SM  H16T 9884   8.791   7.000  15.624
   7523SM  C17S 9885   8.632   7.093  15.474
   7523SM  H17S 9886   8.564   7.186  15.531
   7523SM  H17T 9887   8.550   7.044  15.396
   7523SM  C18S 9888   8.777   7.177  15.413
   7523SM  H18S 9889   8.856   7.222  15.494
   7523SM  H18T 9890   8.737   7.282  15.353
   7523SM  H18U 9891   8.849   7.098  15.347
   7523SM   C1F 9892   8.458   6.300  17.073
   7523SM    OF 9893   8.312   6.295  17.093
   7523SM   C2F 9894   8.548   6.152  17.034
   7523SM   H2F 9895   8.579   6.084  17.125
   7523SM   H2G 9896   8.658   6.186  16.979
   7523SM   C3F 9897   8.429   6.058  16.946
   7523SM   H3F 9898   8.380   6.145  16.872
   7523SM   H3G 9899   8.330   6.014  17.012
   7523SM   C4F 9900   8.483   5.917  16.859
   7523SM   H4F 9901   8.369   5.860  16.825
   7523SM   H4G 9902   8.546   5.824  16.914
   7523SM   C5F 9903   8.560   5.971  16.728
   7523SM   H5F 9904   8.483   6.066  16.683
   7523SM   H5G 9905   8.557   5.867  16.658
   7523SM   C6F 9906   8.729   6.042  16.732
   7523SM   H6F 9907   8.791   6.019  16.828
   7523SM   H6G 9908   8.718   6.175  16.727
   7523SM   C7F 9909   8.824   5.986  16.609
   7523SM   H7F 9910   8.825   5.852  16.606
   7523SM   H7G 9911   8.950   6.030  16.613
   7523SM   C8F 9912   8.740   6.054  16.484
   7523SM   H8F 9913   8.722   6.178  16.506
   7523SM   H8G 9914   8.616   6.007  16.476
   7523SM   C9F 9915   8.815   6.055  16.343
   7523SM   H9F 9916   8.725   6.118  16.279
   7523SM   H9G 9917   8.831   5.930  16.310
   7523SM  C10F 9918   8.976   6.137  16.317
   7523SM  H10F 9919   9.066   6.038  16.318
   7523SM  H10G 9920   9.005   6.212  16.404
   7523SM  C11F 9921   9.000   6.248  16.195
   7523SM  H11F 9922   9.124   6.227  16.160
   7523SM  H11G 9923   8.986   6.377  16.220
   7523SM  C12F 9924   8.912   6.236  16.063
   7523SM  H12F 9925   8.780   6.250  16.067
   7523SM  H12G 9926   8.942   6.119  16.022
   7523SM  C13F 9927   8.978   6.360  15.966
   7523SM  H13F 9928   9.114   6.350  15.974
   7523SM  H13G 9929   8.930   6.480  16.001
   7523SM  C14F 9930   8.920   6.317  15.824
   7523SM  H14F 9931   8.936   6.186  15.821
   7523SM  H14G 9932   8.998   6.376  15.747
   7523SM  C15F 9933   8.738   6.361  15.805
   7523SM  H15F 9934   8.754   6.493  15.805
   7523SM  H15G 9935   8.663   6.335  15.893
   7523SM  C16F 9936   8.641   6.312  15.677
   7523SM  H16F 9937   8.724   6.262  15.601
   7523SM  H16G 9938   8.590   6.424  15.634
   7523SM  C17F 9939   8.500   6.193  15.703
   7523SM  H17F 9940   8.458   6.210  15.807
   7523SM  H17G 9941   8.549   6.071  15.692
   7523SM  C18F 9942   8.346   6.170  15.616
   7523SM  H18F 9943   8.258   6.102  15.678
   7523SM  H18G 9944   8.372   6.088  15.532
   7523SM  C19F 9945   8.266   6.320  15.561
   7523SM  H19F 9946   8.348   6.424  15.570
   7523SM  H19G 9947   8.155   6.349  15.620
   7523SM  C20F 9948   8.222   6.295  15.414
   7523SM  H20F 9949   8.147   6.397  15.380
   7523SM  H20G 9950   8.147   6.186  15.402
   7523SM  C21F 9951   8.372   6.280  15.325
   7523SM  H21F 9952   8.449   6.178  15.357
   7523SM  H21G 9953   8.447   6.390  15.335
   7523SM  C22F 9954   8.323   6.253  15.180
   7523SM  H22F 9955   8.281   6.372  15.146
   7523SM  H22G 9956   8.216   6.173  15.174
   7523SM  C23F 9957   8.453   6.186  15.087
   7523SM  H23F 9958   8.404   6.162  14.985
   7523SM  H23G 9959   8.497   6.070  15.127
   7523SM  H23H 9960   8.554   6.271  15.077
   7623SM     N 9961   0.704   7.142  17.740
   7623SM   C15 9962   0.619   6.989  17.778
   7623SM  H15A 9963   0.529   6.961  17.702
   7623SM  H15B 9964   0.566   6.992  17.876
   7623SM  H15C 9965   0.703   6.889  17.771
   7623SM   C14 9966   0.580   7.271  17.732
   7623SM  H14A 9967   0.499   7.271  17.818
   7623SM  H14B 9968   0.503   7.247  17.646
   7623SM  H14C 9969   0.629   7.390  17.718
   7623SM   C13 9970   0.829   7.175  17.843
   7623SM  H13A 9971   0.902   7.067  17.858
   7623SM  H13B 9972   0.773   7.204  17.938
   7623SM  H13C 9973   0.907   7.273  17.814
   7623SM   C12 9974   0.784   7.112  17.606
   7623SM  H12A 9975   0.851   6.998  17.610
   7623SM  H12B 9976   0.871   7.204  17.581
   7623SM   C11 9977   0.670   7.094  17.487
   7623SM  H11A 9978   0.752   7.099  17.399
   7623SM  H11B 9979   0.589   7.199  17.476
   7623SM     P 9980   0.670   6.788  17.456
   7623SM   O13 9981   0.811   6.772  17.544
   7623SM   O14 9982   0.560   6.648  17.452
   7623SM   O11 9983   0.730   6.829  17.311
   7623SM   O12 9984   0.576   6.949  17.496
   7623SM   C1S 9985   0.630   6.926  17.225
   7623SM   H1S 9986   0.685   7.046  17.211
   7623SM   H1T 9987   0.506   6.947  17.264
   7623SM    NF 9988   0.574   6.680  17.111
   7623SM   HNF 9989   0.656   6.598  17.089
   7623SM   C2S 9990   0.614   6.846  17.089
   7623SM   H2S 9991   0.515   6.904  17.032
   7623SM   C3S 9992   0.774   6.871  17.012
   7623SM   H3S 9993   0.877   6.842  17.077
   7623SM    O3 9994   0.800   7.033  16.973
   7623SM   HO3 9995   0.756   7.096  17.045
   7623SM   C4S 9996   0.780   6.772  16.888
   7623SM   H4S 9997   0.684   6.791  16.814
   7623SM   C5S 9998   0.896   6.665  16.864
   7623SM   H5S 9999   0.995   6.654  16.938
   7623SM   C6S10000   0.918   6.558  16.745
   7623SM   H6S10001   0.877   6.433  16.767
   7623SM   H6T10002   1.050   6.548  16.730
   7623SM   C7S10003   0.846   6.614  16.612
   7623SM   H7S10004   0.833   6.748  16.610
   7623SM   H7T10005   0.725   6.562  16.599
   7623SM   C8S10006   0.959   6.570  16.496
   7623SM   H8S10007   0.996   6.444  16.500
   7623SM   H8T10008   1.066   6.638  16.526
   7623SM   C9S10009   0.901   6.630  16.358
   7623SM   H9S10010   0.960   6.748  16.342
   7623SM   H9T10011   0.773   6.660  16.370
   7623SM  C10S10012   0.925   6.526  16.228
   7623SM  H10S10013   0.845   6.425  16.232
   7623SM  H10T10014   1.044   6.469  16.228
   7623SM  C11S10015   0.883   6.624  16.100
   7623SM  H11S10016   0.922   6.748  16.128
   7623SM  H11T10017   0.752   6.614  16.084
   7623SM  C12S10018   0.954   6.607  15.957
   7623SM  H12S10019   1.063   6.533  15.957
   7623SM  H12T10020   0.986   6.732  15.927
   7623SM  C13S10021   0.846   6.554  15.840
   7623SM  H13S10022   0.740   6.635  15.828
   7623SM  H13T10023   0.797   6.433  15.855
   7623SM  C14S10024   0.943   6.556  15.708
   7623SM  H14S10025   1.033   6.458  15.709
   7623SM  H14T10026   1.010   6.672  15.701
   7623SM  C15S10027   0.836   6.541  15.584
   7623SM  H15S10028   0.763   6.652  15.580
   7623SM  H15T10029   0.752   6.438  15.596
   7623SM  C16S10030   0.932   6.524  15.454
   7623SM  H16S10031   0.991   6.404  15.451
   7623SM  H16T10032   1.030   6.617  15.455
   7623SM  C17S10033   0.832   6.551  15.328
   7623SM  H17S10034   0.872   6.662  15.278
   7623SM  H17T10035   0.706   6.570  15.359
   7623SM  C18S10036   0.832   6.412  15.228
   7623SM  H18S10037   0.782   6.451  15.130
   7623SM  H18T10038   0.752   6.314  15.266
   7623SM  H18U10039   0.954   6.364  15.213
   7623SM   C1F10040   0.433   6.635  17.159
   7623SM    OF10041   0.334   6.728  17.205
   7623SM   C2F10042   0.397   6.462  17.138
   7623SM   H2F10043   0.360   6.400  17.231
   7623SM   H2G10044   0.502   6.396  17.104
   7623SM   C3F10045   0.269   6.458  17.029
   7623SM   H3F10046   0.163   6.526  17.069
   7623SM   H3G10047   0.228   6.335  17.011
   7623SM   C4F10048   0.326   6.538  16.897
   7623SM   H4F10049   0.434   6.612  16.908
   7623SM   H4G10050   0.235   6.626  16.864
   7623SM   C5F10051   0.356   6.421  16.784
   7623SM   H5F10052   0.322   6.296  16.811
   7623SM   H5G10053   0.487   6.422  16.763
   7623SM   C6F10054   0.263   6.472  16.660
   7623SM   H6F10055   0.277   6.604  16.647
   7623SM   H6G10056   0.133   6.445  16.674
   7623SM   C7F10057   0.322   6.383  16.536
   7623SM   H7F10058   0.259   6.265  16.534
   7623SM   H7G10059   0.451   6.362  16.549
   7623SM   C8F10060   0.311   6.472  16.403
   7623SM   H8F10061   0.187   6.521  16.391
   7623SM   H8G10062   0.332   6.388  16.320
   7623SM   C9F10063   0.442   6.601  16.399
   7623SM   H9F10064   0.551   6.562  16.453
   7623SM   H9G10065   0.396   6.704  16.456
   7623SM  C10F10066   0.497   6.656  16.260
   7623SM  H10F10067   0.412   6.614  16.182
   7623SM  H10G10068   0.606   6.588  16.236
   7623SM  C11F10069   0.521   6.841  16.255
   7623SM  H11F10070   0.520   6.890  16.359
   7623SM  H11G10071   0.420   6.895  16.201
   7623SM  C12F10072   0.668   6.900  16.181
   7623SM  H12F10073   0.668   6.827  16.091
   7623SM  H12G10074   0.774   6.878  16.245
   7623SM  C13F10075   0.676   7.074  16.131
   7623SM  H13F10076   0.796   7.122  16.159
   7623SM  H13G10077   0.584   7.147  16.184
   7623SM  C14F10078   0.659   7.094  15.977
   7623SM  H14F10079   0.686   7.220  15.952
   7623SM  H14G10080   0.532   7.070  15.949
   7623SM  C15F10081   0.769   6.986  15.891
   7623SM  H15F10082   0.738   6.859  15.909
   7623SM  H15G10083   0.894   7.002  15.926
   7623SM  C16F10084   0.760   7.008  15.738
   7623SM  H16F10085   0.866   6.947  15.694
   7623SM  H16G10086   0.766   7.136  15.710
   7623SM  C17F10087   0.610   6.926  15.680
   7623SM  H17F10088   0.500   6.986  15.720
   7623SM  H17G10089   0.607   6.800  15.716
   7623SM  C18F10090   0.599   6.920  15.526
   7623SM  H18F10091   0.718   6.896  15.481
   7623SM  H18G10092   0.557   7.039  15.489
   7623SM  C19F10093   0.481   6.790  15.480
   7623SM  H19F10094   0.378   6.785  15.552
   7623SM  H19G10095   0.538   6.670  15.484
   7623SM  C20F10096   0.410   6.818  15.342
   7623SM  H20F10097   0.347   6.936  15.344
   7623SM  H20G10098   0.322   6.721  15.322
   7623SM  C21F10099   0.523   6.823  15.223
   7623SM  H21F10100   0.587   6.707  15.213
   7623SM  H21G10101   0.613   6.920  15.235
   7623SM  C22F10102   0.420   6.851  15.098
   7623SM  H22F10103   0.308   6.780  15.107
   7623SM  H22G10104   0.481   6.802  15.009
   7623SM  C23F10105   0.378   7.028  15.079
   7623SM  H23F10106   0.304   7.043  14.988
   7623SM  H23G10107   0.486   7.105  15.068
   7623SM  H23H10108   0.314   7.078  15.166
   7723SM     N10109   0.348   2.340  17.785
   7723SM   C1510110   0.395   2.177  17.735
   7723SM  H15A10111   0.289   2.100  17.721
   7723SM  H15B10112   0.470   2.114  17.806
   7723SM  H15C10113   0.458   2.185  17.642
   7723SM   C1410114   0.244   2.317  17.906
   7723SM  H14A10115   0.314   2.272  17.989
   7723SM  H14B10116   0.150   2.230  17.884
   7723SM  H14C10117   0.187   2.428  17.936
   7723SM   C1310118   0.498   2.424  17.824
   7723SM  H13A10119   0.570   2.353  17.893
   7723SM  H13B10120   0.474   2.540  17.870
   7723SM  H13C10121   0.571   2.447  17.735
   7723SM   C1210122   0.259   2.431  17.677
   7723SM  H12A10123   0.268   2.557  17.703
   7723SM  H12B10124   0.134   2.395  17.677
   7723SM   C1110125   0.318   2.420  17.532
   7723SM  H11A10126   0.235   2.497  17.471
   7723SM  H11B10127   0.310   2.294  17.496
   7723SM     P10128   0.560   2.497  17.378
   7723SM   O1310129   0.522   2.656  17.321
   7723SM   O1410130   0.731   2.454  17.389
   7723SM   O1110131   0.472   2.366  17.286
   7723SM   O1210132   0.478   2.479  17.521
   7723SM   C1S10133   0.341   2.410  17.201
   7723SM   H1S10134   0.269   2.509  17.243
   7723SM   H1T10135   0.258   2.305  17.192
   7723SM    NF10136   0.262   2.497  16.967
   7723SM   HNF10137   0.254   2.441  16.879
   7723SM   C2S10138   0.395   2.452  17.055
   7723SM   H2S10139   0.479   2.556  17.060
   7723SM   C3S10140   0.490   2.303  17.000
   7723SM   H3S10141   0.413   2.195  17.012
   7723SM    O310142   0.632   2.273  17.073
   7723SM   HO310143   0.606   2.321  17.159
   7723SM   C4S10144   0.534   2.326  16.855
   7723SM   H4S10145   0.623   2.420  16.835
   7723SM   C5S10146   0.480   2.236  16.752
   7723SM   H5S10147   0.401   2.131  16.772
   7723SM   C6S10148   0.521   2.254  16.606
   7723SM   H6S10149   0.407   2.254  16.548
   7723SM   H6T10150   0.587   2.144  16.572
   7723SM   C7S10151   0.617   2.404  16.564
   7723SM   H7S10152   0.733   2.410  16.617
   7723SM   H7T10153   0.545   2.512  16.593
   7723SM   C8S10154   0.647   2.413  16.411
   7723SM   H8S10155   0.672   2.539  16.382
   7723SM   H8T10156   0.533   2.377  16.360
   7723SM   C9S10157   0.785   2.305  16.362
   7723SM   H9S10158   0.788   2.204  16.435
   7723SM   H9T10159   0.902   2.366  16.371
   7723SM  C10S10160   0.760   2.226  16.224
   7723SM  H10S10161   0.629   2.212  16.210
   7723SM  H10T10162   0.818   2.105  16.229
   7723SM  C11S10163   0.818   2.306  16.096
   7723SM  H11S10164   0.950   2.327  16.099
   7723SM  H11T10165   0.761   2.426  16.089
   7723SM  C12S10166   0.775   2.204  15.971
   7723SM  H12S10167   0.648   2.167  15.977
   7723SM  H12T10168   0.852   2.096  15.966
   7723SM  C13S10169   0.794   2.309  15.847
   7723SM  H13S10170   0.920   2.347  15.846
   7723SM  H13T10171   0.718   2.413  15.874
   7723SM  C14S10172   0.740   2.261  15.705
   7723SM  H14S10173   0.664   2.363  15.673
   7723SM  H14T10174   0.662   2.156  15.707
   7723SM  C15S10175   0.865   2.264  15.589
   7723SM  H15S10176   0.961   2.173  15.600
   7723SM  H15T10177   0.923   2.384  15.589
   7723SM  C16S10178   0.779   2.245  15.454
   7723SM  H16S10179   0.650   2.267  15.477
   7723SM  H16T10180   0.790   2.120  15.415
   7723SM  C17S10181   0.809   2.365  15.341
   7723SM  H17S10182   0.938   2.393  15.330
   7723SM  H17T10183   0.745   2.478  15.370
   7723SM  C18S10184   0.739   2.306  15.208
   7723SM  H18S10185   0.834   2.256  15.142
   7723SM  H18T10186   0.677   2.405  15.155
   7723SM  H18U10187   0.648   2.210  15.226
   7723SM   C1F10188   0.174   2.629  16.984
   7723SM    OF10189   0.156   2.696  17.091
   7723SM   C2F10190   0.098   2.693  16.860
   7723SM   H2F10191  -0.026   2.724  16.883
   7723SM   H2G10192   0.097   2.597  16.783
   7723SM   C3F10193   0.187   2.845  16.813
   7723SM   H3F10194   0.316   2.813  16.799
   7723SM   H3G10195   0.181   2.939  16.892
   7723SM   C4F10196   0.122   2.911  16.681
   7723SM   H4F10197   0.191   3.019  16.650
   7723SM   H4G10198  -0.007   2.944  16.690
   7723SM   C5F10199   0.139   2.783  16.572
   7723SM   H5F10200   0.047   2.690  16.590
   7723SM   H5G10201   0.260   2.728  16.583
   7723SM   C6F10202   0.120   2.843  16.429
   7723SM   H6F10203   0.208   2.938  16.405
   7723SM   H6G10204   0.004   2.905  16.418
   7723SM   C7F10205   0.130   2.704  16.327
   7723SM   H7F10206   0.202   2.741  16.239
   7723SM   H7G10207   0.006   2.682  16.289
   7723SM   C8F10208   0.193   2.543  16.382
   7723SM   H8F10209   0.120   2.507  16.469
   7723SM   H8G10210   0.320   2.554  16.415
   7723SM   C9F10211   0.176   2.408  16.280
   7723SM   H9F10212   0.278   2.411  16.209
   7723SM   H9G10213   0.064   2.431  16.222
   7723SM  C10F10214   0.160   2.242  16.344
   7723SM  H10F10215   0.086   2.249  16.437
   7723SM  H10G10216   0.280   2.194  16.371
   7723SM  C11F10217   0.076   2.128  16.248
   7723SM  H11F10218  -0.040   2.183  16.216
   7723SM  H11G10219   0.048   2.011  16.297
   7723SM  C12F10220   0.179   2.095  16.124
   7723SM  H12F10221   0.276   2.012  16.150
   7723SM  H12G10222   0.235   2.208  16.087
   7723SM  C13F10223   0.077   2.029  16.013
   7723SM  H13F10224  -0.049   2.022  16.050
   7723SM  H13G10225   0.113   1.903  15.988
   7723SM  C14F10226   0.079   2.143  15.892
   7723SM  H14F10227   0.198   2.202  15.881
   7723SM  H14G10228  -0.012   2.237  15.912
   7723SM  C15F10229   0.049   2.046  15.766
   7723SM  H15F10230  -0.072   1.991  15.772
   7723SM  H15G10231   0.134   1.945  15.776
   7723SM  C16F10232   0.078   2.107  15.623
   7723SM  H16F10233  -0.036   2.134  15.572
   7723SM  H16G10234   0.126   1.999  15.572
   7723SM  C17F10235   0.200   2.239  15.587
   7723SM  H17F10236   0.308   2.238  15.651
   7723SM  H17G10237   0.143   2.357  15.603
   7723SM  C18F10238   0.247   2.215  15.438
   7723SM  H18F10239   0.134   2.197  15.382
   7723SM  H18G10240   0.313   2.100  15.427
   7723SM  C19F10241   0.343   2.351  15.373
   7723SM  H19F10242   0.469   2.314  15.358
   7723SM  H19G10243   0.340   2.449  15.446
   7723SM  C20F10244   0.284   2.430  15.242
   7723SM  H20F10245   0.377   2.514  15.204
   7723SM  H20G10246   0.181   2.507  15.273
   7723SM  C21F10247   0.226   2.322  15.128
   7723SM  H21F10248   0.106   2.371  15.102
   7723SM  H21G10249   0.210   2.196  15.160
   7723SM  C22F10250   0.317   2.330  14.995
   7723SM  H22F10251   0.422   2.250  14.998
   7723SM  H22G10252   0.360   2.455  14.980
   7723SM  C23F10253   0.208   2.286  14.876
   7723SM  H23F10254   0.164   2.161  14.886
   7723SM  H23G10255   0.272   2.298  14.780
   7723SM  H23H10256   0.101   2.366  14.873
   7823SM     N10257   1.487   8.513  17.774
   7823SM   C1510258   1.619   8.393  17.754
   7823SM  H15A10259   1.636   8.371  17.647
   7823SM  H15B10260   1.589   8.279  17.799
   7823SM  H15C10261   1.730   8.435  17.798
   7823SM   C1410262   1.332   8.448  17.720
   7823SM  H14A10263   1.343   8.435  17.612
   7823SM  H14B10264   1.232   8.527  17.739
   7823SM  H14C10265   1.304   8.329  17.759
   7823SM   C1310266   1.470   8.540  17.921
   7823SM  H13A10267   1.423   8.432  17.969
   7823SM  H13B10268   1.390   8.638  17.946
   7823SM  H13C10269   1.588   8.563  17.964
   7823SM   C1210270   1.528   8.668  17.700
   7823SM  H12A10271   1.628   8.726  17.747
   7823SM  H12B10272   1.427   8.749  17.705
   7823SM   C1110273   1.570   8.652  17.549
   7823SM  H11A10274   1.684   8.581  17.540
   7823SM  H11B10275   1.598   8.776  17.512
   7823SM     P10276   1.469   8.453  17.366
   7823SM   O1310277   1.529   8.312  17.441
   7823SM   O1410278   1.326   8.426  17.281
   7823SM   O1110279   1.604   8.525  17.272
   7823SM   O1210280   1.440   8.592  17.472
   7823SM   C1S10281   1.601   8.690  17.234
   7823SM   H1S10282   1.712   8.747  17.274
   7823SM   H1T10283   1.498   8.759  17.278
   7823SM    NF10284   1.440   8.696  17.025
   7823SM   HNF10285   1.423   8.597  16.972
   7823SM   C2S10286   1.601   8.714  17.080
   7823SM   H2S10287   1.640   8.840  17.060
   7823SM   C3S10288   1.722   8.597  17.013
   7823SM   H3S10289   1.686   8.470  17.029
   7823SM    O310290   1.886   8.614  17.056
   7823SM   HO310291   1.892   8.720  17.091
   7823SM   C4S10292   1.722   8.633  16.865
   7823SM   H4S10293   1.756   8.758  16.843
   7823SM   C5S10294   1.690   8.532  16.763
   7823SM   H5S10295   1.661   8.405  16.785
   7823SM   C6S10296   1.691   8.576  16.616
   7823SM   H6S10297   1.579   8.530  16.568
   7823SM   H6T10298   1.793   8.520  16.564
   7823SM   C7S10299   1.692   8.758  16.582
   7823SM   H7S10300   1.805   8.815  16.617
   7823SM   H7T10301   1.592   8.819  16.636
   7823SM   C8S10302   1.670   8.788  16.431
   7823SM   H8S10303   1.553   8.741  16.399
   7823SM   H8T10304   1.764   8.728  16.370
   7823SM   C9S10305   1.676   8.968  16.403
   7823SM   H9S10306   1.801   9.010  16.414
   7823SM   H9T10307   1.608   9.030  16.483
   7823SM  C10S10308   1.607   9.020  16.269
   7823SM  H10S10309   1.630   9.149  16.264
   7823SM  H10T10310   1.476   9.005  16.262
   7823SM  C11S10311   1.669   8.954  16.138
   7823SM  H11S10312   1.622   8.832  16.117
   7823SM  H11T10313   1.801   8.948  16.137
   7823SM  C12S10314   1.618   9.073  16.031
   7823SM  H12S10315   1.664   9.194  16.057
   7823SM  H12T10316   1.484   9.082  16.025
   7823SM  C13S10317   1.690   9.029  15.898
   7823SM  H13S10318   1.640   8.911  15.866
   7823SM  H13T10319   1.822   9.018  15.909
   7823SM  C14S10320   1.655   9.154  15.791
   7823SM  H14S10321   1.697   9.275  15.822
   7823SM  H14T10322   1.522   9.161  15.779
   7823SM  C15S10323   1.739   9.102  15.663
   7823SM  H15S10324   1.781   8.976  15.678
   7823SM  H15T10325   1.847   9.176  15.644
   7823SM  C16S10326   1.622   9.101  15.545
   7823SM  H16S10327   1.652   9.203  15.478
   7823SM  H16T10328   1.499   9.121  15.582
   7823SM  C17S10329   1.615   8.941  15.467
   7823SM  H17S10330   1.519   8.864  15.510
   7823SM  H17T10331   1.730   8.874  15.472
   7823SM  C18S10332   1.582   8.976  15.322
   7823SM  H18S10333   1.585   8.872  15.254
   7823SM  H18T10334   1.685   9.049  15.293
   7823SM  H18U10335   1.469   9.046  15.309
   7823SM   C1F10336   1.314   8.788  17.051
   7823SM    OF10337   1.318   8.904  17.127
   7823SM   C2F10338   1.159   8.730  16.987
   7823SM   H2F10339   1.076   8.700  17.070
   7823SM   H2G10340   1.183   8.617  16.932
   7823SM   C3F10341   1.079   8.849  16.889
   7823SM   H3F10342   1.060   8.966  16.937
   7823SM   H3G10343   0.960   8.798  16.858
   7823SM   C4F10344   1.171   8.875  16.758
   7823SM   H4F10345   1.194   8.758  16.707
   7823SM   H4G10346   1.291   8.929  16.781
   7823SM   C5F10347   1.080   8.987  16.663
   7823SM   H5F10348   1.020   9.083  16.722
   7823SM   H5G10349   0.985   8.917  16.609
   7823SM   C6F10350   1.192   9.071  16.564
   7823SM   H6F10351   1.294   9.124  16.620
   7823SM   H6G10352   1.128   9.170  16.512
   7823SM   C7F10353   1.258   8.957  16.458
   7823SM   H7F10354   1.304   8.844  16.503
   7823SM   H7G10355   1.361   9.025  16.419
   7823SM   C8F10356   1.139   8.923  16.345
   7823SM   H8F10357   1.093   9.040  16.306
   7823SM   H8G10358   1.036   8.856  16.389
   7823SM   C9F10359   1.202   8.825  16.225
   7823SM   H9F10360   1.306   8.884  16.177
   7823SM   H9G10361   1.110   8.818  16.145
   7823SM  C10F10362   1.243   8.653  16.265
   7823SM  H10F10363   1.130   8.590  16.294
   7823SM  H10G10364   1.322   8.654  16.355
   7823SM  C11F10365   1.327   8.558  16.156
   7823SM  H11F10366   1.440   8.622  16.128
   7823SM  H11G10367   1.252   8.555  16.064
   7823SM  C12F10368   1.364   8.389  16.206
   7823SM  H12F10369   1.253   8.321  16.226
   7823SM  H12G10370   1.430   8.402  16.302
   7823SM  C13F10371   1.472   8.296  16.111
   7823SM  H13F10372   1.552   8.213  16.169
   7823SM  H13G10373   1.550   8.384  16.063
   7823SM  C14F10374   1.385   8.197  16.004
   7823SM  H14F10375   1.312   8.105  16.056
   7823SM  H14G10376   1.478   8.134  15.944
   7823SM  C15F10377   1.278   8.288  15.905
   7823SM  H15F10378   1.348   8.384  15.856
   7823SM  H15G10379   1.174   8.344  15.957
   7823SM  C16F10380   1.216   8.172  15.798
   7823SM  H16F10381   1.134   8.083  15.846
   7823SM  H16G10382   1.320   8.101  15.762
   7823SM  C17F10383   1.127   8.254  15.682
   7823SM  H17F10384   1.066   8.364  15.718
   7823SM  H17G10385   1.032   8.170  15.647
   7823SM  C18F10386   1.234   8.291  15.560
   7823SM  H18F10387   1.328   8.378  15.586
   7823SM  H18G10388   1.158   8.344  15.480
   7823SM  C19F10389   1.308   8.134  15.510
   7823SM  H19F10390   1.211   8.041  15.511
   7823SM  H19G10391   1.406   8.094  15.577
   7823SM  C20F10392   1.376   8.134  15.369
   7823SM  H20F10393   1.478   8.218  15.359
   7823SM  H20G10394   1.282   8.172  15.297
   7823SM  C21F10395   1.428   7.961  15.338
   7823SM  H21F10396   1.338   7.873  15.375
   7823SM  H21G10397   1.544   7.936  15.387
   7823SM  C22F10398   1.441   7.942  15.188
   7823SM  H22F10399   1.523   8.041  15.163
   7823SM  H22G10400   1.326   7.970  15.138
   7823SM  C23F10401   1.505   7.782  15.136
   7823SM  H23F10402   1.415   7.686  15.151
   7823SM  H23G10403   1.618   7.746  15.188
   7823SM  H23H10404   1.530   7.792  15.028
   7923SM     N10405   8.218   0.595  17.781
   7923SM   C1510406   8.152   0.754  17.827
   7923SM  H15A10407   8.050   0.742  17.892
   7923SM  H15B10408   8.122   0.826  17.740
   7923SM  H15C10409   8.238   0.826  17.882
   7923SM   C1410410   8.345   0.622  17.678
   7923SM  H14A10411   8.363   0.510  17.622
   7923SM  H14B10412   8.461   0.658  17.715
   7923SM  H14C10413   8.303   0.704  17.601
   7923SM   C1310414   8.285   0.505  17.897
   7923SM  H13A10415   8.350   0.400  17.860
   7923SM  H13B10416   8.192   0.460  17.964
   7923SM  H13C10417   8.369   0.576  17.954
   7923SM   C1210418   8.084   0.496  17.716
   7923SM  H12A10419   8.002   0.455  17.791
   7923SM  H12B10420   8.138   0.386  17.674
   7923SM   C1110421   7.991   0.574  17.600
   7923SM  H11A10422   7.956   0.698  17.627
   7923SM  H11B10423   7.876   0.509  17.582
   7923SM     P10424   8.106   0.416  17.399
   7923SM   O1310425   8.143   0.283  17.493
   7923SM   O1410426   7.963   0.398  17.312
   7923SM   O1110427   8.263   0.439  17.314
   7923SM   O1210428   8.087   0.577  17.482
   7923SM   C1S10429   8.320   0.590  17.264
   7923SM   H1S10430   8.453   0.590  17.268
   7923SM   H1T10431   8.281   0.694  17.328
   7923SM    NF10432   8.101   0.666  17.116
   7923SM   HNF10433   8.022   0.580  17.136
   7923SM   C2S10434   8.268   0.618  17.116
   7923SM   H2S10435   8.342   0.715  17.073
   7923SM   C3S10436   8.305   0.463  17.034
   7923SM   H3S10437   8.248   0.358  17.081
   7923SM    O310438   8.473   0.430  17.026
   7923SM   HO310439   8.521   0.484  17.100
   7923SM   C4S10440   8.246   0.473  16.891
   7923SM   H4S10441   8.136   0.404  16.873
   7923SM   C5S10442   8.315   0.550  16.787
   7923SM   H5S10443   8.428   0.617  16.802
   7923SM   C6S10444   8.249   0.547  16.647
   7923SM   H6S10445   8.174   0.655  16.628
   7923SM   H6T10446   8.172   0.439  16.630
   7923SM   C7S10447   8.389   0.540  16.547
   7923SM   H7S10448   8.456   0.425  16.559
   7923SM   H7T10449   8.473   0.640  16.570
   7923SM   C8S10450   8.340   0.556  16.399
   7923SM   H8S10451   8.222   0.618  16.395
   7923SM   H8T10452   8.324   0.436  16.351
   7923SM   C9S10453   8.462   0.659  16.322
   7923SM   H9S10454   8.582   0.600  16.317
   7923SM   H9T10455   8.477   0.768  16.387
   7923SM  C10S10456   8.408   0.718  16.183
   7923SM  H10S10457   8.434   0.848  16.178
   7923SM  H10T10458   8.276   0.704  16.173
   7923SM  C11S10459   8.485   0.641  16.058
   7923SM  H11S10460   8.442   0.515  16.053
   7923SM  H11T10461   8.618   0.638  16.062
   7923SM  C12S10462   8.432   0.737  15.933
   7923SM  H12S10463   8.527   0.816  15.894
   7923SM  H12T10464   8.340   0.822  15.968
   7923SM  C13S10465   8.363   0.630  15.822
   7923SM  H13S10466   8.288   0.546  15.879
   7923SM  H13T10467   8.460   0.564  15.770
   7923SM  C14S10468   8.252   0.713  15.720
   7923SM  H14S10469   8.335   0.763  15.646
   7923SM  H14T10470   8.189   0.812  15.768
   7923SM  C15S10471   8.135   0.616  15.633
   7923SM  H15S10472   8.044   0.551  15.694
   7923SM  H15T10473   8.198   0.526  15.571
   7923SM  C16S10474   8.053   0.731  15.535
   7923SM  H16S10475   8.146   0.810  15.490
   7923SM  H16T10476   7.974   0.811  15.594
   7923SM  C17S10477   7.963   0.644  15.421
   7923SM  H17S10478   7.872   0.563  15.465
   7923SM  H17T10479   8.051   0.569  15.366
   7923SM  C18S10480   7.883   0.756  15.321
   7923SM  H18S10481   7.973   0.839  15.276
   7923SM  H18T10482   7.789   0.834  15.365
   7923SM  H18U10483   7.824   0.686  15.240
   7923SM   C1F10484   8.072   0.816  17.156
   7923SM    OF10485   8.183   0.906  17.183
   7923SM   C2F10486   7.903   0.870  17.166
   7923SM   H2F10487   7.884   0.930  17.264
   7923SM   H2G10488   7.819   0.768  17.156
   7923SM   C3F10489   7.882   0.992  17.053
   7923SM   H3F10490   7.960   1.098  17.072
   7923SM   H3G10491   7.758   1.038  17.055
   7923SM   C4F10492   7.925   0.925  16.914
   7923SM   H4F10493   8.057   0.914  16.901
   7923SM   H4G10494   7.880   1.012  16.838
   7923SM   C5F10495   7.844   0.767  16.878
   7923SM   H5F10496   7.729   0.760  16.933
   7923SM   H5G10497   7.918   0.662  16.909
   7923SM   C6F10498   7.813   0.758  16.728
   7923SM   H6F10499   7.928   0.774  16.674
   7923SM   H6G10500   7.733   0.860  16.699
   7923SM   C7F10501   7.738   0.601  16.681
   7923SM   H7F10502   7.614   0.589  16.721
   7923SM   H7G10503   7.807   0.498  16.721
   7923SM   C8F10504   7.734   0.598  16.528
   7923SM   H8F10505   7.736   0.721  16.488
   7923SM   H8G10506   7.620   0.544  16.492
   7923SM   C9F10507   7.876   0.504  16.470
   7923SM   H9F10508   7.932   0.430  16.550
   7923SM   H9G10509   7.969   0.592  16.438
   7923SM  C10F10510   7.829   0.392  16.354
   7923SM  H10F10511   7.714   0.331  16.374
   7923SM  H10G10512   7.924   0.299  16.343
   7923SM  C11F10513   7.825   0.494  16.227
   7923SM  H11F10514   7.951   0.533  16.218
   7923SM  H11G10515   7.744   0.598  16.248
   7923SM  C12F10516   7.777   0.421  16.093
   7923SM  H12F10517   7.741   0.522  16.025
   7923SM  H12G10518   7.668   0.347  16.109
   7923SM  C13F10519   7.903   0.320  16.017
   7923SM  H13F10520   7.865   0.323  15.911
   7923SM  H13G10521   7.896   0.196  16.056
   7923SM  C14F10522   8.080   0.370  16.008
   7923SM  H14F10523   8.128   0.401  16.108
   7923SM  H14G10524   8.087   0.479  15.945
   7923SM  C15F10525   8.182   0.235  15.942
   7923SM  H15F10526   8.106   0.125  15.943
   7923SM  H15G10527   8.287   0.212  16.007
   7923SM  C16F10528   8.238   0.262  15.796
   7923SM  H16F10529   8.335   0.350  15.792
   7923SM  H16G10530   8.136   0.302  15.733
   7923SM  C17F10531   8.326   0.122  15.727
   7923SM  H17F10532   8.245   0.018  15.736
   7923SM  H17G10533   8.440   0.098  15.782
   7923SM  C18F10534   8.363   0.140  15.575
   7923SM  H18F10535   8.245   0.143  15.522
   7923SM  H18G10536   8.428   0.030  15.545
   7923SM  C19F10537   8.458   0.288  15.524
   7923SM  H19F10538   8.550   0.326  15.598
   7923SM  H19G10539   8.372   0.389  15.511
   7923SM  C20F10540   8.537   0.268  15.384
   7923SM  H20F10541   8.636   0.179  15.390
   7923SM  H20G10542   8.591   0.384  15.354
   7923SM  C21F10543   8.418   0.216  15.275
   7923SM  H21F10544   8.326   0.311  15.259
   7923SM  H21G10545   8.356   0.109  15.315
   7923SM  C22F10546   8.494   0.167  15.140
   7923SM  H22F10547   8.406   0.089  15.087
   7923SM  H22G10548   8.602   0.092  15.158
   7923SM  C23F10549   8.534   0.306  15.046
   7923SM  H23F10550   8.586   0.258  14.953
   7923SM  H23G10551   8.624   0.389  15.090
   7923SM  H23H10552   8.425   0.374  15.018
   8023SM     N10553   0.708   0.608  17.713
   8023SM   C1510554   0.835   0.664  17.808
   8023SM  H15A10555   0.902   0.560  17.844
   8023SM  H15B10556   0.784   0.722  17.896
   8023SM  H15C10557   0.918   0.746  17.761
   8023SM   C1410558   0.778   0.515  17.597
   8023SM  H14A10559   0.853   0.584  17.532
   8023SM  H14B10560   0.679   0.473  17.532
   8023SM  H14C10561   0.841   0.407  17.629
   8023SM   C1310562   0.600   0.491  17.780
   8023SM  H13A10563   0.665   0.378  17.795
   8023SM  H13B10564   0.499   0.458  17.714
   8023SM  H13C10565   0.553   0.530  17.874
   8023SM   C1210566   0.622   0.751  17.656
   8023SM  H12A10567   0.698   0.808  17.582
   8023SM  H12B10568   0.601   0.840  17.734
   8023SM   C1110569   0.460   0.718  17.588
   8023SM  H11A10570   0.427   0.833  17.540
   8023SM  H11B10571   0.367   0.689  17.664
   8023SM     P10572   0.365   0.448  17.473
   8023SM   O1310573   0.469   0.310  17.458
   8023SM   O1410574   0.252   0.443  17.587
   8023SM   O1110575   0.265   0.484  17.340
   8023SM   O1210576   0.473   0.600  17.488
   8023SM   C1S10577   0.346   0.563  17.232
   8023SM   H1S10578   0.446   0.641  17.263
   8023SM   H1T10579   0.260   0.646  17.182
   8023SM    NF10580   0.557   0.480  17.068
   8023SM   HNF10581   0.563   0.469  16.969
   8023SM   C2S10582   0.404   0.436  17.130
   8023SM   H2S10583   0.425   0.319  17.181
   8023SM   C3S10584   0.264   0.418  17.027
   8023SM   H3S10585   0.227   0.536  16.989
   8023SM    O310586   0.125   0.354  17.093
   8023SM   HO310587   0.122   0.413  17.177
   8023SM   C4S10588   0.312   0.312  16.910
   8023SM   H4S10589   0.346   0.188  16.936
   8023SM   C5S10590   0.317   0.356  16.779
   8023SM   H5S10591   0.283   0.481  16.750
   8023SM   C6S10592   0.366   0.250  16.663
   8023SM   H6S10593   0.258   0.194  16.617
   8023SM   H6T10594   0.444   0.150  16.698
   8023SM   C7S10595   0.456   0.336  16.548
   8023SM   H7S10596   0.568   0.391  16.588
   8023SM   H7T10597   0.377   0.431  16.507
   8023SM   C8S10598   0.504   0.230  16.428
   8023SM   H8S10599   0.402   0.149  16.406
   8023SM   H8T10600   0.612   0.161  16.458
   8023SM   C9S10601   0.545   0.319  16.297
   8023SM   H9S10602   0.637   0.413  16.316
   8023SM   H9T10603   0.436   0.380  16.260
   8023SM  C10S10604   0.610   0.206  16.188
   8023SM  H10S10605   0.535   0.096  16.184
   8023SM  H10T10606   0.734   0.172  16.216
   8023SM  C11S10607   0.617   0.281  16.047
   8023SM  H11S10608   0.682   0.396  16.057
   8023SM  H11T10609   0.492   0.302  16.009
   8023SM  C12S10610   0.713   0.186  15.943
   8023SM  H12S10611   0.760   0.077  15.993
   8023SM  H12T10612   0.818   0.258  15.909
   8023SM  C13S10613   0.617   0.134  15.821
   8023SM  H13S10614   0.492   0.102  15.849
   8023SM  H13T10615   0.677   0.023  15.785
   8023SM  C14S10616   0.614   0.246  15.700
   8023SM  H14S10617   0.728   0.314  15.693
   8023SM  H14T10618   0.514   0.334  15.709
   8023SM  C15S10619   0.595   0.140  15.574
   8023SM  H15S10620   0.485   0.067  15.588
   8023SM  H15T10621   0.700   0.059  15.567
   8023SM  C16S10622   0.574   0.229  15.442
   8023SM  H16S10623   0.665   0.325  15.429
   8023SM  H16T10624   0.452   0.281  15.450
   8023SM  C17S10625   0.568   0.116  15.321
   8023SM  H17S10626   0.478   0.022  15.342
   8023SM  H17T10627   0.686   0.059  15.310
   8023SM  C18S10628   0.521   0.200  15.191
   8023SM  H18S10629   0.566   0.131  15.104
   8023SM  H18T10630   0.569   0.324  15.187
   8023SM  H18U10631   0.389   0.208  15.180
   8023SM   C1F10632   0.694   0.512  17.132
   8023SM    OF10633   0.707   0.526  17.253
   8023SM   C2F10634   0.839   0.536  17.047
   8023SM   H2F10635   0.810   0.509  16.941
   8023SM   H2G10636   0.934   0.454  17.081
   8023SM   C3F10637   0.896   0.712  17.061
   8023SM   H3F10638   0.995   0.731  16.988
   8023SM   H3G10639   0.948   0.730  17.163
   8023SM   C4F10640   0.763   0.838  17.039
   8023SM   H4F10641   0.820   0.959  17.040
   8023SM   H4G10642   0.678   0.833  17.125
   8023SM   C5F10643   0.668   0.817  16.907
   8023SM   H5F10644   0.572   0.908  16.901
   8023SM   H5G10645   0.602   0.702  16.905
   8023SM   C6F10646   0.779   0.829  16.784
   8023SM   H6F10647   0.853   0.720  16.776
   8023SM   H6G10648   0.862   0.934  16.799
   8023SM   C7F10649   0.685   0.853  16.654
   8023SM   H7F10650   0.768   0.894  16.574
   8023SM   H7G10651   0.596   0.952  16.673
   8023SM   C8F10652   0.598   0.702  16.606
   8023SM   H8F10653   0.539   0.643  16.694
   8023SM   H8G10654   0.683   0.614  16.562
   8023SM   C9F10655   0.462   0.742  16.506
   8023SM   H9F10656   0.427   0.862  16.537
   8023SM   H9G10657   0.355   0.665  16.522
   8023SM  C10F10658   0.505   0.751  16.357
   8023SM  H10F10659   0.593   0.655  16.333
   8023SM  H10G10660   0.565   0.869  16.341
   8023SM  C11F10661   0.359   0.739  16.262
   8023SM  H11F10662   0.268   0.829  16.293
   8023SM  H11G10663   0.301   0.619  16.271
   8023SM  C12F10664   0.397   0.770  16.112
   8023SM  H12F10665   0.481   0.872  16.112
   8023SM  H12G10666   0.286   0.806  16.059
   8023SM  C13F10667   0.472   0.625  16.042
   8023SM  H13F10668   0.382   0.527  16.042
   8023SM  H13G10669   0.570   0.592  16.111
   8023SM  C14F10670   0.546   0.637  15.900
   8023SM  H14F10671   0.618   0.527  15.881
   8023SM  H14G10672   0.631   0.737  15.893
   8023SM  C15F10673   0.433   0.654  15.780
   8023SM  H15F10674   0.367   0.768  15.792
   8023SM  H15G10675   0.348   0.552  15.778
   8023SM  C16F10676   0.521   0.667  15.644
   8023SM  H16F10677   0.601   0.564  15.627
   8023SM  H16G10678   0.595   0.778  15.648
   8023SM  C17F10679   0.401   0.689  15.528
   8023SM  H17F10680   0.467   0.726  15.436
   8023SM  H17G10681   0.325   0.790  15.559
   8023SM  C18F10682   0.299   0.540  15.494
   8023SM  H18F10683   0.292   0.458  15.582
   8023SM  H18G10684   0.368   0.481  15.413
   8023SM  C19F10685   0.128   0.557  15.432
   8023SM  H19F10686   0.133   0.606  15.332
   8023SM  H19G10687   0.047   0.637  15.485
   8023SM  C20F10688   0.035   0.398  15.422
   8023SM  H20F10689  -0.094   0.430  15.409
   8023SM  H20G10690   0.050   0.334  15.517
   8023SM  C21F10691   0.090   0.298  15.302
   8023SM  H21F10692   0.055   0.170  15.317
   8023SM  H21G10693   0.223   0.304  15.300
   8023SM  C22F10694   0.020   0.356  15.168
   8023SM  H22F10695   0.010   0.490  15.173
   8023SM  H22G10696  -0.104   0.311  15.157
   8023SM  C23F10697   0.119   0.312  15.044
   8023SM  H23F10698   0.242   0.360  15.050
   8023SM  H23G10699   0.062   0.364  14.953
   8023SM  H23H10700   0.127   0.180  15.031
   8123SM     N10701   4.088   4.488  12.185
   8123SM   C1510702   3.983   4.343  12.191
   8123SM  H15A10703   4.042   4.242  12.141
   8123SM  H15B10704   3.868   4.366  12.147
   8123SM  H15C10705   3.965   4.307  12.295
   8123SM   C1410706   4.124   4.528  12.042
   8123SM  H14A10707   4.222   4.613  12.032
   8123SM  H14B10708   4.021   4.574  11.989
   8123SM  H14C10709   4.153   4.418  11.987
   8123SM   C1310710   4.008   4.626  12.253
   8123SM  H13A10711   3.892   4.651  12.210
   8123SM  H13B10712   4.082   4.732  12.248
   8123SM  H13C10713   3.994   4.601  12.359
   8123SM   C1210714   4.244   4.451  12.259
   8123SM  H12A10715   4.315   4.560  12.267
   8123SM  H12B10716   4.313   4.364  12.201
   8123SM   C1110717   4.231   4.385  12.404
   8123SM  H11A10718   4.356   4.358  12.441
   8123SM  H11B10719   4.168   4.268  12.403
   8123SM     P10720   4.246   4.640  12.551
   8123SM   O1310721   4.396   4.660  12.473
   8123SM   O1410722   4.142   4.786  12.553
   8123SM   O1110723   4.282   4.579  12.699
   8123SM   O1210724   4.148   4.495  12.489
   8123SM   C1S10725   4.168   4.476  12.766
   8123SM   H1S10726   4.160   4.357  12.715
   8123SM   H1T10727   4.045   4.530  12.764
   8123SM    NF10728   4.066   4.375  12.988
   8123SM   HNF10729   4.025   4.444  13.062
   8123SM   C2S10730   4.206   4.440  12.917
   8123SM   H2S10731   4.303   4.349  12.921
   8123SM   C3S10732   4.268   4.596  12.988
   8123SM   H3S10733   4.170   4.687  12.987
   8123SM    O310734   4.406   4.669  12.931
   8123SM   HO310735   4.414   4.620  12.844
   8123SM   C4S10736   4.306   4.561  13.133
   8123SM   H4S10737   4.224   4.625  13.201
   8123SM   C5S10738   4.423   4.470  13.186
   8123SM   H5S10739   4.506   4.405  13.119
   8123SM   C6S10740   4.448   4.446  13.335
   8123SM   H6S10741   4.580   4.444  13.355
   8123SM   H6T10742   4.402   4.327  13.367
   8123SM   C7S10743   4.375   4.579  13.424
   8123SM   H7S10744   4.243   4.585  13.410
   8123SM   H7T10745   4.428   4.697  13.393
   8123SM   C8S10746   4.406   4.558  13.574
   8123SM   H8S10747   4.536   4.534  13.591
   8123SM   H8T10748   4.337   4.453  13.611
   8123SM   C9S10749   4.358   4.709  13.653
   8123SM   H9S10750   4.234   4.744  13.626
   8123SM   H9T10751   4.440   4.808  13.622
   8123SM  C10S10752   4.369   4.691  13.806
   8123SM  H10S10753   4.386   4.812  13.851
   8123SM  H10T10754   4.475   4.616  13.834
   8123SM  C11S10755   4.216   4.619  13.866
   8123SM  H11S10756   4.218   4.487  13.848
   8123SM  H11T10757   4.109   4.668  13.814
   8123SM  C12S10758   4.193   4.648  14.016
   8123SM  H12S10759   4.078   4.590  14.047
   8123SM  H12T10760   4.180   4.778  14.036
   8123SM  C13S10761   4.330   4.580  14.102
   8123SM  H13S10762   4.439   4.654  14.087
   8123SM  H13T10763   4.357   4.456  14.068
   8123SM  C14S10764   4.283   4.576  14.250
   8123SM  H14S10765   4.182   4.489  14.262
   8123SM  H14T10766   4.241   4.696  14.283
   8123SM  C15S10767   4.422   4.520  14.338
   8123SM  H15S10768   4.516   4.615  14.346
   8123SM  H15T10769   4.478   4.414  14.288
   8123SM  C16S10770   4.367   4.464  14.476
   8123SM  H16S10771   4.465   4.390  14.519
   8123SM  H16T10772   4.259   4.387  14.462
   8123SM  C17S10773   4.325   4.594  14.578
   8123SM  H17S10774   4.219   4.664  14.541
   8123SM  H17T10775   4.428   4.678  14.589
   8123SM  C18S10776   4.285   4.518  14.713
   8123SM  H18S10777   4.392   4.452  14.752
   8123SM  H18T10778   4.187   4.429  14.702
   8123SM  H18U10779   4.248   4.609  14.788
   8123SM   C1F10780   3.985   4.237  12.968
   8123SM    OF10781   4.010   4.153  12.870
   8123SM   C2F10782   3.854   4.200  13.068
   8123SM   H2F10783   3.754   4.142  13.013
   8123SM   H2G10784   3.806   4.313  13.111
   8123SM   C3F10785   3.907   4.087  13.183
   8123SM   H3F10786   3.965   3.978  13.143
   8123SM   H3G10787   3.799   4.048  13.240
   8123SM   C4F10788   4.026   4.157  13.285
   8123SM   H4F10789   4.133   4.210  13.234
   8123SM   H4G10790   4.072   4.055  13.346
   8123SM   C5F10791   3.949   4.277  13.380
   8123SM   H5F10792   3.824   4.237  13.405
   8123SM   H5G10793   3.941   4.397  13.331
   8123SM   C6F10794   4.043   4.290  13.511
   8123SM   H6F10795   4.172   4.306  13.485
   8123SM   H6G10796   4.034   4.175  13.568
   8123SM   C7F10797   3.988   4.430  13.597
   8123SM   H7F10798   3.984   4.541  13.535
   8123SM   H7G10799   4.079   4.451  13.675
   8123SM   C8F10800   3.823   4.405  13.665
   8123SM   H8F10801   3.732   4.382  13.587
   8123SM   H8G10802   3.790   4.519  13.717
   8123SM   C9F10803   3.821   4.270  13.769
   8123SM   H9F10804   3.845   4.152  13.720
   8123SM   H9G10805   3.700   4.265  13.815
   8123SM  C10F10806   3.943   4.292  13.882
   8123SM  H10F10807   3.920   4.414  13.924
   8123SM  H10G10808   4.067   4.289  13.842
   8123SM  C11F10809   3.931   4.169  13.995
   8123SM  H11F10810   4.020   4.072  13.979
   8123SM  H11G10811   3.810   4.112  13.996
   8123SM  C12F10812   3.956   4.250  14.130
   8123SM  H12F10813   4.037   4.355  14.117
   8123SM  H12G10814   4.016   4.170  14.203
   8123SM  C13F10815   3.793   4.306  14.184
   8123SM  H13F10816   3.718   4.199  14.203
   8123SM  H13G10817   3.733   4.376  14.104
   8123SM  C14F10818   3.804   4.410  14.310
   8123SM  H14F10819   3.686   4.469  14.328
   8123SM  H14G10820   3.894   4.506  14.291
   8123SM  C15F10821   3.852   4.316  14.434
   8123SM  H15F10822   3.972   4.261  14.414
   8123SM  H15G10823   3.767   4.217  14.455
   8123SM  C16F10824   3.871   4.424  14.557
   8123SM  H16F10825   3.936   4.534  14.524
   8123SM  H16G10826   3.948   4.362  14.631
   8123SM  C17F10827   3.715   4.470  14.631
   8123SM  H17F10828   3.641   4.361  14.646
   8123SM  H17G10829   3.646   4.554  14.567
   8123SM  C18F10830   3.751   4.549  14.767
   8123SM  H18F10831   3.804   4.458  14.836
   8123SM  H18G10832   3.637   4.590  14.813
   8123SM  C19F10833   3.864   4.693  14.753
   8123SM  H19F10834   3.800   4.784  14.692
   8123SM  H19G10835   3.974   4.658  14.697
   8123SM  C20F10836   3.925   4.772  14.882
   8123SM  H20F10837   4.025   4.700  14.925
   8123SM  H20G10838   3.829   4.775  14.958
   8123SM  C21F10839   3.986   4.942  14.846
   8123SM  H21F10840   3.882   5.021  14.824
   8123SM  H21G10841   4.055   4.930  14.750
   8123SM  C22F10842   4.099   5.026  14.946
   8123SM  H22F10843   4.142   5.138  14.898
   8123SM  H22G10844   4.206   4.948  14.962
   8123SM  C23F10845   4.024   5.069  15.080
   8123SM  H23F10846   4.114   5.118  15.150
   8123SM  H23G10847   3.970   4.961  15.127
   8123SM  H23H10848   3.928   5.159  15.067
   8223SM     N10849   4.729   5.189  12.275
   8223SM   C1510850   4.585   5.291  12.244
   8223SM  H15A10851   4.564   5.302  12.138
   8223SM  H15B10852   4.608   5.412  12.281
   8223SM  H15C10853   4.480   5.250  12.297
   8223SM   C1410854   4.692   5.017  12.248
   8223SM  H14A10855   4.795   4.942  12.271
   8223SM  H14B10856   4.657   4.999  12.145
   8223SM  H14C10857   4.591   4.979  12.309
   8223SM   C1310858   4.868   5.244  12.195
   8223SM  H13A10859   4.848   5.237  12.089
   8223SM  H13B10860   4.978   5.179  12.220
   8223SM  H13C10861   4.895   5.370  12.219
   8223SM   C1210862   4.766   5.202  12.424
   8223SM  H12A10863   4.853   5.108  12.450
   8223SM  H12B10864   4.657   5.174  12.479
   8223SM   C1110865   4.823   5.363  12.480
   8223SM  H11A10866   4.939   5.392  12.429
   8223SM  H11B10867   4.848   5.351  12.589
   8223SM     P10868   4.757   5.659  12.451
   8223SM   O1310869   4.897   5.669  12.358
   8223SM   O1410870   4.615   5.762  12.421
   8223SM   O1110871   4.816   5.686  12.603
   8223SM   O1210872   4.700   5.480  12.458
   8223SM   C1S10873   4.685   5.670  12.697
   8223SM   H1S10874   4.601   5.569  12.669
   8223SM   H1T10875   4.614   5.783  12.699
   8223SM    NF10876   4.580   5.598  12.911
   8223SM   HNF10877   4.519   5.693  12.945
   8223SM   C2S10878   4.730   5.627  12.844
   8223SM   H2S10879   4.805   5.516  12.843
   8223SM   C3S10880   4.830   5.759  12.912
   8223SM   H3S10881   4.768   5.876  12.901
   8223SM    O310882   4.985   5.774  12.852
   8223SM   HO310883   4.961   5.767  12.757
   8223SM   C4S10884   4.844   5.726  13.061
   8223SM   H4S10885   4.780   5.814  13.122
   8223SM   C5S10886   4.926   5.609  13.126
   8223SM   H5S10887   4.993   5.519  13.066
   8223SM   C6S10888   4.932   5.586  13.276
   8223SM   H6S10889   4.885   5.464  13.300
   8223SM   H6T10890   4.853   5.672  13.329
   8223SM   C7S10891   5.102   5.599  13.336
   8223SM   H7S10892   5.149   5.723  13.323
   8223SM   H7T10893   5.183   5.518  13.279
   8223SM   C8S10894   5.117   5.550  13.485
   8223SM   H8S10895   5.248   5.537  13.506
   8223SM   H8T10896   5.062   5.431  13.503
   8223SM   C9S10897   5.051   5.674  13.586
   8223SM   H9S10898   4.920   5.657  13.599
   8223SM   H9T10899   5.071   5.795  13.544
   8223SM  C10S10900   5.136   5.670  13.724
   8223SM  H10S10901   5.096   5.779  13.780
   8223SM  H10T10902   5.268   5.682  13.709
   8223SM  C11S10903   5.102   5.522  13.812
   8223SM  H11S10904   5.156   5.414  13.766
   8223SM  H11T10905   4.970   5.503  13.818
   8223SM  C12S10906   5.168   5.545  13.954
   8223SM  H12S10907   5.116   5.658  13.996
   8223SM  H12T10908   5.300   5.563  13.950
   8223SM  C13S10909   5.131   5.407  14.051
   8223SM  H13S10910   5.198   5.298  14.020
   8223SM  H13T10911   5.000   5.378  14.045
   8223SM  C14S10912   5.172   5.449  14.197
   8223SM  H14S10913   5.104   5.558  14.225
   8223SM  H14T10914   5.302   5.477  14.205
   8223SM  C15S10915   5.130   5.315  14.297
   8223SM  H15S10916   5.206   5.208  14.277
   8223SM  H15T10917   5.003   5.280  14.282
   8223SM  C16S10918   5.152   5.368  14.443
   8223SM  H16S10919   5.084   5.482  14.460
   8223SM  H16T10920   5.281   5.393  14.462
   8223SM  C17S10921   5.093   5.242  14.544
   8223SM  H17S10922   5.154   5.126  14.523
   8223SM  H17T10923   4.962   5.222  14.529
   8223SM  C18S10924   5.124   5.290  14.690
   8223SM  H18S10925   5.254   5.311  14.705
   8223SM  H18T10926   5.086   5.191  14.759
   8223SM  H18U10927   5.057   5.400  14.716
   8223SM   C1F10928   4.511   5.455  12.902
   8223SM    OF10929   4.574   5.345  12.842
   8223SM   C2F10930   4.344   5.441  12.955
   8223SM   H2F10931   4.277   5.381  12.873
   8223SM   H2G10932   4.294   5.562  12.968
   8223SM   C3F10933   4.322   5.340  13.085
   8223SM   H3F10934   4.338   5.210  13.060
   8223SM   H3G10935   4.196   5.356  13.118
   8223SM   C4F10936   4.430   5.375  13.207
   8223SM   H4F10937   4.542   5.302  13.200
   8223SM   H4G10938   4.366   5.332  13.298
   8223SM   C5F10939   4.477   5.550  13.232
   8223SM   H5F10940   4.559   5.591  13.152
   8223SM   H5G10941   4.550   5.556  13.325
   8223SM   C6F10942   4.336   5.666  13.245
   8223SM   H6F10943   4.256   5.663  13.156
   8223SM   H6G10944   4.385   5.790  13.251
   8223SM   C7F10945   4.234   5.635  13.370
   8223SM   H7F10946   4.166   5.520  13.361
   8223SM   H7G10947   4.145   5.734  13.374
   8223SM   C8F10948   4.332   5.635  13.500
   8223SM   H8F10949   4.412   5.742  13.497
   8223SM   H8G10950   4.409   5.527  13.503
   8223SM   C9F10951   4.231   5.644  13.628
   8223SM   H9F10952   4.102   5.647  13.600
   8223SM   H9G10953   4.253   5.758  13.681
   8223SM  C10F10954   4.260   5.512  13.732
   8223SM  H10F10955   4.214   5.398  13.690
   8223SM  H10G10956   4.188   5.542  13.822
   8223SM  C11F10957   4.433   5.489  13.785
   8223SM  H11F10958   4.522   5.502  13.703
   8223SM  H11G10959   4.440   5.363  13.822
   8223SM  C12F10960   4.475   5.599  13.904
   8223SM  H12F10961   4.364   5.658  13.942
   8223SM  H12G10962   4.554   5.696  13.866
   8223SM  C13F10963   4.556   5.514  14.025
   8223SM  H13F10964   4.655   5.436  13.988
   8223SM  H13G10965   4.464   5.436  14.073
   8223SM  C14F10966   4.624   5.633  14.129
   8223SM  H14F10967   4.535   5.731  14.134
   8223SM  H14G10968   4.738   5.684  14.088
   8223SM  C15F10969   4.655   5.574  14.274
   8223SM  H15F10970   4.714   5.674  14.329
   8223SM  H15G10971   4.741   5.472  14.273
   8223SM  C16F10972   4.502   5.528  14.354
   8223SM  H16F10973   4.453   5.418  14.307
   8223SM  H16G10974   4.410   5.623  14.341
   8223SM  C17F10975   4.528   5.492  14.505
   8223SM  H17F10976   4.621   5.396  14.510
   8223SM  H17G10977   4.415   5.441  14.546
   8223SM  C18F10978   4.583   5.628  14.601
   8223SM  H18F10979   4.686   5.694  14.557
   8223SM  H18G10980   4.631   5.567  14.692
   8223SM  C19F10981   4.450   5.742  14.653
   8223SM  H19F10982   4.358   5.668  14.705
   8223SM  H19G10983   4.390   5.798  14.565
   8223SM  C20F10984   4.500   5.878  14.751
   8223SM  H20F10985   4.386   5.930  14.791
   8223SM  H20G10986   4.561   5.976  14.697
   8223SM  C21F10987   4.602   5.825  14.872
   8223SM  H21F10988   4.712   5.762  14.840
   8223SM  H21G10989   4.530   5.735  14.928
   8223SM  C22F10990   4.650   5.963  14.968
   8223SM  H22F10991   4.541   6.035  14.986
   8223SM  H22G10992   4.735   6.049  14.925
   8223SM  C23F10993   4.722   5.910  15.102
   8223SM  H23F10994   4.655   5.806  15.138
   8223SM  H23G10995   4.711   6.006  15.179
   8223SM  H23H10996   4.849   5.873  15.091
   8323SM     N10997   5.779   5.472  12.181
   8323SM   C1510998   5.899   5.604  12.161
   8323SM  H15A10999   5.845   5.711  12.117
   8323SM  H15B11000   5.994   5.567  12.093
   8323SM  H15C11001   5.958   5.635  12.255
   8323SM   C1411002   5.712   5.422  12.050
   8323SM  H14A11003   5.654   5.519  11.997
   8323SM  H14B11004   5.624   5.324  12.057
   8323SM  H14C11005   5.808   5.378  11.987
   8323SM   C1311006   5.861   5.329  12.240
   8323SM  H13A11007   5.952   5.279  12.176
   8323SM  H13B11008   5.772   5.237  12.259
   8323SM  H13C11009   5.912   5.360  12.337
   8323SM   C1211010   5.648   5.522  12.279
   8323SM  H12A11011   5.566   5.423  12.292
   8323SM  H12B11012   5.579   5.620  12.238
   8323SM   C1111013   5.705   5.569  12.421
   8323SM  H11A11014   5.606   5.635  12.473
   8323SM  H11B11015   5.807   5.654  12.415
   8323SM     P11016   5.627   5.327  12.569
   8323SM   O1311017   5.479   5.314  12.489
   8323SM   O1411018   5.692   5.168  12.609
   8323SM   O1111019   5.587   5.428  12.698
   8323SM   O1211020   5.756   5.430  12.491
   8323SM   C1S11021   5.712   5.504  12.772
   8323SM   H1S11022   5.663   5.617  12.815
   8323SM   H1T11023   5.810   5.546  12.705
   8323SM    NF11024   5.879   5.272  12.844
   8323SM   HNF11025   5.827   5.167  12.821
   8323SM   C2S11026   5.778   5.402  12.892
   8323SM   H2S11027   5.852   5.482  12.957
   8323SM   C3S11028   5.634   5.344  12.977
   8323SM   H3S11029   5.555   5.264  12.916
   8323SM    O311030   5.542   5.478  13.020
   8323SM   HO311031   5.564   5.564  12.959
   8323SM   C4S11032   5.678   5.260  13.105
   8323SM   H4S11033   5.768   5.324  13.165
   8323SM   C5S11034   5.614   5.122  13.151
   8323SM   H5S11035   5.519   5.063  13.091
   8323SM   C6S11036   5.653   5.038  13.280
   8323SM   H6S11037   5.765   4.964  13.271
   8323SM   H6T11038   5.555   4.950  13.300
   8323SM   C7S11039   5.660   5.148  13.405
   8323SM   H7S11040   5.550   5.224  13.409
   8323SM   H7T11041   5.765   5.230  13.400
   8323SM   C8S11042   5.668   5.046  13.533
   8323SM   H8S11043   5.770   4.961  13.523
   8323SM   H8T11044   5.555   4.974  13.537
   8323SM   C9S11045   5.681   5.131  13.669
   8323SM   H9S11046   5.576   5.212  13.686
   8323SM   H9T11047   5.790   5.208  13.670
   8323SM  C10S11048   5.686   5.002  13.779
   8323SM  H10S11049   5.744   4.892  13.737
   8323SM  H10T11050   5.558   4.976  13.800
   8323SM  C11S11051   5.771   5.036  13.912
   8323SM  H11S11052   5.717   5.146  13.957
   8323SM  H11T11053   5.899   5.056  13.892
   8323SM  C12S11054   5.761   4.904  14.019
   8323SM  H12S11055   5.813   4.789  13.983
   8323SM  H12T11056   5.630   4.897  14.036
   8323SM  C13S11057   5.820   4.946  14.159
   8323SM  H13S11058   5.749   5.057  14.180
   8323SM  H13T11059   5.951   4.972  14.161
   8323SM  C14S11060   5.772   4.828  14.270
   8323SM  H14S11061   5.827   4.709  14.252
   8323SM  H14T11062   5.640   4.813  14.265
   8323SM  C15S11063   5.807   4.883  14.415
   8323SM  H15S11064   5.746   4.796  14.483
   8323SM  H15T11065   5.752   5.003  14.433
   8323SM  C16S11066   5.984   4.889  14.455
   8323SM  H16S11067   6.042   4.993  14.404
   8323SM  H16T11068   6.047   4.777  14.421
   8323SM  C17S11069   6.007   4.906  14.607
   8323SM  H17S11070   5.970   4.792  14.656
   8323SM  H17T11071   5.924   5.002  14.643
   8323SM  C18S11072   6.178   4.948  14.652
   8323SM  H18S11073   6.227   5.048  14.594
   8323SM  H18T11074   6.258   4.843  14.640
   8323SM  H18U11075   6.178   4.982  14.759
   8323SM   C1F11076   6.026   5.318  12.805
   8323SM    OF11077   6.059   5.460  12.789
   8323SM   C2F11078   6.158   5.200  12.792
   8323SM   H2F11079   6.251   5.254  12.726
   8323SM   H2G11080   6.119   5.084  12.748
   8323SM   C3F11081   6.235   5.177  12.930
   8323SM   H3F11082   6.258   5.297  12.977
   8323SM   H3G11083   6.355   5.122  12.918
   8323SM   C4F11084   6.137   5.074  13.026
   8323SM   H4F11085   6.130   4.951  12.982
   8323SM   H4G11086   6.012   5.119  13.039
   8323SM   C5F11087   6.216   5.065  13.163
   8323SM   H5F11088   6.349   5.072  13.152
   8323SM   H5G11089   6.191   4.946  13.207
   8323SM   C6F11090   6.160   5.192  13.264
   8323SM   H6F11091   6.074   5.279  13.219
   8323SM   H6G11092   6.268   5.261  13.295
   8323SM   C7F11093   6.085   5.113  13.389
   8323SM   H7F11094   6.149   5.000  13.411
   8323SM   H7G11095   5.960   5.077  13.367
   8323SM   C8F11096   6.098   5.209  13.518
   8323SM   H8F11097   6.011   5.309  13.516
   8323SM   H8G11098   6.223   5.256  13.524
   8323SM   C9F11099   6.086   5.108  13.645
   8323SM   H9F11100   6.181   5.015  13.639
   8323SM   H9G11101   5.972   5.041  13.650
   8323SM  C10F11102   6.119   5.204  13.774
   8323SM  H10F11103   6.250   5.228  13.766
   8323SM  H10G11104   6.112   5.130  13.864
   8323SM  C11F11105   6.035   5.370  13.792
   8323SM  H11F11106   5.995   5.423  13.696
   8323SM  H11G11107   6.130   5.450  13.829
   8323SM  C12F11108   5.905   5.398  13.900
   8323SM  H12F11109   5.788   5.348  13.868
   8323SM  H12G11110   5.885   5.530  13.904
   8323SM  C13F11111   5.951   5.342  14.042
   8323SM  H13F11112   6.065   5.401  14.072
   8323SM  H13G11113   5.975   5.213  14.043
   8323SM  C14F11114   5.820   5.378  14.147
   8323SM  H14F11115   5.705   5.326  14.113
   8323SM  H14G11116   5.802   5.510  14.154
   8323SM  C15F11117   5.857   5.314  14.288
   8323SM  H15F11118   5.885   5.184  14.287
   8323SM  H15G11119   5.753   5.330  14.355
   8323SM  C16F11120   6.008   5.382  14.350
   8323SM  H16F11121   6.062   5.471  14.281
   8323SM  H16G11122   6.097   5.282  14.361
   8323SM  C17F11123   5.977   5.456  14.486
   8323SM  H17F11124   5.875   5.542  14.481
   8323SM  H17G11125   6.088   5.526  14.511
   8323SM  C18F11126   5.953   5.333  14.597
   8323SM  H18F11127   6.055   5.248  14.588
   8323SM  H18G11128   5.840   5.264  14.584
   8323SM  C19F11129   5.965   5.406  14.738
   8323SM  H19F11130   6.077   5.476  14.740
   8323SM  H19G11131   5.980   5.308  14.813
   8323SM  C20F11132   5.832   5.522  14.781
   8323SM  H20F11133   5.712   5.466  14.775
   8323SM  H20G11134   5.825   5.622  14.708
   8323SM  C21F11135   5.864   5.593  14.921
   8323SM  H21F11136   5.759   5.668  14.947
   8323SM  H21G11137   5.970   5.675  14.910
   8323SM  C22F11138   5.910   5.485  15.043
   8323SM  H22F11139   6.038   5.453  15.032
   8323SM  H22G11140   5.845   5.371  15.051
   8323SM  C23F11141   5.881   5.564  15.179
   8323SM  H23F11142   5.990   5.630  15.210
   8323SM  H23G11143   5.856   5.476  15.258
   8323SM  H23H11144   5.778   5.650  15.176
   8423SM     N11145   5.052   2.734  12.183
   8423SM   C1511146   4.902   2.636  12.175
   8423SM  H15A11147   4.813   2.687  12.108
   8423SM  H15B11148   4.849   2.633  12.276
   8423SM  H15C11149   4.928   2.514  12.147
   8423SM   C1411150   5.165   2.657  12.282
   8423SM  H14A11151   5.114   2.665  12.383
   8423SM  H14B11152   5.279   2.717  12.289
   8423SM  H14C11153   5.189   2.532  12.261
   8423SM   C1311154   5.132   2.744  12.050
   8423SM  H13A11155   5.179   2.629  12.021
   8423SM  H13B11156   5.233   2.828  12.055
   8423SM  H13C11157   5.047   2.788  11.976
   8423SM   C1211158   5.014   2.903  12.230
   8423SM  H12A11159   4.957   2.965  12.147
   8423SM  H12B11160   5.125   2.965  12.251
   8423SM   C1111161   4.907   2.927  12.355
   8423SM  H11A11162   4.781   2.896  12.328
   8423SM  H11B11163   4.906   3.058  12.382
   8423SM     P11164   5.077   2.879  12.578
   8423SM   O1311165   5.219   2.772  12.575
   8423SM   O1411166   5.110   3.053  12.574
   8423SM   O1111167   4.973   2.839  12.705
   8423SM   O1211168   4.954   2.830  12.464
   8423SM   C1S11169   4.882   2.959  12.771
   8423SM   H1S11170   4.754   2.956  12.735
   8423SM   H1T11171   4.927   3.083  12.752
   8423SM    NF11172   5.060   2.920  12.963
   8423SM   HNF11173   5.108   2.810  12.960
   8423SM   C2S11174   4.892   2.932  12.924
   8423SM   H2S11175   4.836   3.040  12.972
   8423SM   C3S11176   4.796   2.782  12.968
   8423SM   H3S11177   4.859   2.672  12.934
   8423SM    O311178   4.637   2.778  12.915
   8423SM   HO311179   4.640   2.849  12.840
   8423SM   C4S11180   4.790   2.788  13.118
   8423SM   H4S11181   4.722   2.890  13.158
   8423SM   C5S11182   4.861   2.686  13.204
   8423SM   H5S11183   4.931   2.584  13.163
   8423SM   C6S11184   4.856   2.694  13.355
   8423SM   H6S11185   4.982   2.695  13.392
   8423SM   H6T11186   4.801   2.584  13.395
   8423SM   C7S11187   4.772   2.840  13.419
   8423SM   H7S11188   4.640   2.831  13.406
   8423SM   H7T11189   4.813   2.952  13.367
   8423SM   C8S11190   4.813   2.863  13.568
   8423SM   H8S11191   4.763   2.980  13.603
   8423SM   H8T11192   4.946   2.873  13.577
   8423SM   C9S11193   4.756   2.731  13.663
   8423SM   H9S11194   4.787   2.611  13.623
   8423SM   H9T11195   4.622   2.737  13.672
   8423SM  C10S11196   4.832   2.752  13.801
   8423SM  H10S11197   4.810   2.876  13.838
   8423SM  H10T11198   4.964   2.737  13.792
   8423SM  C11S11199   4.772   2.632  13.905
   8423SM  H11S11200   4.792   2.507  13.867
   8423SM  H11T11201   4.640   2.648  13.917
   8423SM  C12S11202   4.855   2.650  14.041
   8423SM  H12S11203   4.848   2.776  14.075
   8423SM  H12T11204   4.984   2.616  14.034
   8423SM  C13S11205   4.770   2.542  14.142
   8423SM  H13S11206   4.777   2.414  14.106
   8423SM  H13T11207   4.642   2.578  14.138
   8423SM  C14S11208   4.824   2.549  14.288
   8423SM  H14S11209   4.810   2.674  14.326
   8423SM  H14T11210   4.952   2.516  14.296
   8423SM  C15S11211   4.716   2.435  14.368
   8423SM  H15S11212   4.706   2.317  14.316
   8423SM  H15T11213   4.597   2.492  14.368
   8423SM  C16S11214   4.751   2.407  14.516
   8423SM  H16S11215   4.842   2.315  14.526
   8423SM  H16T11216   4.642   2.354  14.564
   8423SM  C17S11217   4.798   2.558  14.592
   8423SM  H17S11218   4.714   2.658  14.566
   8423SM  H17T11219   4.920   2.596  14.559
   8423SM  C18S11220   4.796   2.530  14.742
   8423SM  H18S11221   4.883   2.434  14.768
   8423SM  H18T11222   4.675   2.490  14.775
   8423SM  H18U11223   4.830   2.641  14.797
   8423SM   C1F11224   5.147   3.053  12.962
   8423SM    OF11225   5.080   3.184  12.956
   8423SM   C2F11226   5.324   3.037  12.976
   8423SM   H2F11227   5.387   3.108  12.899
   8423SM   H2G11228   5.362   2.910  12.966
   8423SM   C3F11229   5.371   3.101  13.115
   8423SM   H3F11230   5.329   3.227  13.125
   8423SM   H3G11231   5.503   3.102  13.125
   8423SM   C4F11232   5.294   2.999  13.225
   8423SM   H4F11233   5.305   2.870  13.195
   8423SM   H4G11234   5.164   3.025  13.233
   8423SM   C5F11235   5.375   3.017  13.361
   8423SM   H5F11236   5.345   3.134  13.406
   8423SM   H5G11237   5.507   3.007  13.351
   8423SM   C6F11238   5.316   2.882  13.453
   8423SM   H6F11239   5.351   2.764  13.411
   8423SM   H6G11240   5.182   2.885  13.456
   8423SM   C7F11241   5.380   2.897  13.595
   8423SM   H7F11242   5.350   3.016  13.638
   8423SM   H7G11243   5.513   2.884  13.593
   8423SM   C8F11244   5.311   2.764  13.683
   8423SM   H8F11245   5.330   2.646  13.631
   8423SM   H8G11246   5.179   2.780  13.694
   8423SM   C9F11247   5.392   2.755  13.820
   8423SM   H9F11248   5.359   2.863  13.880
   8423SM   H9G11249   5.524   2.759  13.804
   8423SM  C10F11250   5.350   2.602  13.896
   8423SM  H10F11251   5.368   2.497  13.828
   8423SM  H10G11252   5.221   2.603  13.925
   8423SM  C11F11253   5.455   2.578  14.020
   8423SM  H11F11254   5.584   2.581  13.990
   8423SM  H11G11255   5.431   2.456  14.062
   8423SM  C12F11256   5.425   2.702  14.129
   8423SM  H12F11257   5.293   2.714  14.146
   8423SM  H12G11258   5.472   2.820  14.095
   8423SM  C13F11259   5.508   2.657  14.260
   8423SM  H13F11260   5.635   2.626  14.237
   8423SM  H13G11261   5.452   2.548  14.304
   8423SM  C14F11262   5.507   2.791  14.363
   8423SM  H14F11263   5.567   2.898  14.319
   8423SM  H14G11264   5.579   2.750  14.450
   8423SM  C15F11265   5.341   2.842  14.415
   8423SM  H15F11266   5.281   2.736  14.461
   8423SM  H15G11267   5.264   2.885  14.330
   8423SM  C16F11268   5.360   2.977  14.518
   8423SM  H16F11269   5.423   3.079  14.468
   8423SM  H16G11270   5.440   2.936  14.600
   8423SM  C17F11271   5.203   3.042  14.579
   8423SM  H17F11272   5.130   3.095  14.496
   8423SM  H17G11273   5.234   3.142  14.649
   8423SM  C18F11274   5.101   2.917  14.652
   8423SM  H18F11275   5.078   2.813  14.585
   8423SM  H18G11276   4.982   2.971  14.675
   8423SM  C19F11277   5.174   2.856  14.784
   8423SM  H19F11278   5.297   2.809  14.769
   8423SM  H19G11279   5.099   2.753  14.816
   8423SM  C20F11280   5.172   2.983  14.895
   8423SM  H20F11281   5.064   3.059  14.879
   8423SM  H20G11282   5.279   3.062  14.890
   8423SM  C21F11283   5.155   2.910  15.036
   8423SM  H21F11284   5.098   2.790  15.028
   8423SM  H21G11285   5.070   2.984  15.095
   8423SM  C22F11286   5.311   2.894  15.116
   8423SM  H22F11287   5.378   3.007  15.126
   8423SM  H22G11288   5.396   2.815  15.062
   8423SM  C23F11289   5.272   2.831  15.255
   8423SM  H23F11290   5.366   2.752  15.297
   8423SM  H23G11291   5.160   2.759  15.249
   8423SM  H23H11292   5.246   2.932  15.324
   8523SM     N11293   7.123   4.328  12.342
   8523SM   C1511294   6.961   4.367  12.283
   8523SM  H15A11295   6.930   4.492  12.304
   8523SM  H15B11296   6.866   4.291  12.323
   8523SM  H15C11297   6.960   4.352  12.175
   8523SM   C1411298   7.109   4.325  12.491
   8523SM  H14A11299   7.003   4.258  12.523
   8523SM  H14B11300   7.092   4.446  12.528
   8523SM  H14C11301   7.214   4.274  12.539
   8523SM   C1311302   7.172   4.165  12.293
   8523SM  H13A11303   7.166   4.154  12.186
   8523SM  H13B11304   7.091   4.075  12.333
   8523SM  H13C11305   7.292   4.136  12.328
   8523SM   C1211306   7.237   4.460  12.299
   8523SM  H12A11307   7.218   4.487  12.194
   8523SM  H12B11308   7.360   4.417  12.308
   8523SM   C1111309   7.225   4.625  12.372
   8523SM  H11A11310   7.312   4.709  12.322
   8523SM  H11B11311   7.264   4.612  12.479
   8523SM     P11312   7.027   4.866  12.401
   8523SM   O1311313   7.121   4.975  12.314
   8523SM   O1411314   6.851   4.886  12.404
   8523SM   O1111315   7.098   4.880  12.550
   8523SM   O1211316   7.066   4.685  12.363
   8523SM   C1S11317   6.973   4.855  12.647
   8523SM   H1S11318   6.911   4.740  12.625
   8523SM   H1T11319   6.883   4.955  12.646
   8523SM    NF11320   6.888   4.811  12.872
   8523SM   HNF11321   6.845   4.903  12.925
   8523SM   C2S11322   7.031   4.837  12.793
   8523SM   H2S11323   7.110   4.730  12.800
   8523SM   C3S11324   7.127   4.985  12.839
   8523SM   H3S11325   7.045   5.088  12.831
   8523SM    O311326   7.268   5.011  12.762
   8523SM   HO311327   7.237   4.975  12.673
   8523SM   C4S11328   7.174   4.966  12.985
   8523SM   H4S11329   7.228   4.850  13.011
   8523SM   C5S11330   7.147   5.078  13.079
   8523SM   H5S11331   7.094   5.192  13.045
   8523SM   C6S11332   7.189   5.070  13.226
   8523SM   H6S11333   7.078   5.068  13.286
   8523SM   H6T11334   7.258   5.180  13.254
   8523SM   C7S11335   7.294   4.928  13.275
   8523SM   H7S11336   7.397   4.909  13.207
   8523SM   H7T11337   7.218   4.819  13.270
   8523SM   C8S11338   7.361   4.948  13.419
   8523SM   H8S11339   7.454   5.042  13.416
   8523SM   H8T11340   7.422   4.835  13.449
   8523SM   C9S11341   7.235   4.992  13.526
   8523SM   H9S11342   7.148   4.891  13.537
   8523SM   H9T11343   7.166   5.099  13.492
   8523SM  C10S11344   7.304   5.036  13.664
   8523SM  H10S11345   7.388   5.140  13.654
   8523SM  H10T11346   7.375   4.933  13.704
   8523SM  C11S11347   7.170   5.081  13.763
   8523SM  H11S11348   7.081   4.981  13.759
   8523SM  H11T11349   7.108   5.190  13.725
   8523SM  C12S11350   7.223   5.110  13.909
   8523SM  H12S11351   7.327   5.192  13.909
   8523SM  H12T11352   7.266   4.994  13.951
   8523SM  C13S11353   7.088   5.179  14.002
   8523SM  H13S11354   6.973   5.124  13.972
   8523SM  H13T11355   7.076   5.310  13.984
   8523SM  C14S11356   7.114   5.147  14.153
   8523SM  H14S11357   7.184   5.240  14.201
   8523SM  H14T11358   7.187   5.038  14.161
   8523SM  C15S11359   6.961   5.138  14.242
   8523SM  H15S11360   6.895   5.028  14.226
   8523SM  H15T11361   6.874   5.232  14.214
   8523SM  C16S11362   6.989   5.122  14.394
   8523SM  H16S11363   7.007   5.242  14.437
   8523SM  H16T11364   7.102   5.057  14.413
   8523SM  C17S11365   6.848   5.033  14.465
   8523SM  H17S11366   6.838   4.908  14.434
   8523SM  H17T11367   6.733   5.084  14.430
   8523SM  C18S11368   6.853   5.024  14.618
   8523SM  H18S11369   6.902   5.135  14.661
   8523SM  H18T11370   6.929   4.924  14.655
   8523SM  H18U11371   6.730   5.005  14.655
   8523SM   C1F11372   6.815   4.670  12.866
   8523SM    OF11373   6.864   4.562  12.795
   8523SM   C2F11374   6.678   4.644  12.954
   8523SM   H2F11375   6.576   4.592  12.898
   8523SM   H2G11376   6.637   4.754  13.005
   8523SM   C3F11377   6.739   4.518  13.053
   8523SM   H3F11378   6.816   4.423  13.007
   8523SM   H3G11379   6.631   4.453  13.087
   8523SM   C4F11380   6.827   4.597  13.169
   8523SM   H4F11381   6.769   4.561  13.263
   8523SM   H4G11382   6.816   4.730  13.165
   8523SM   C5F11383   7.002   4.550  13.185
   8523SM   H5F11384   7.078   4.626  13.118
   8523SM   H5G11385   7.024   4.423  13.157
   8523SM   C6F11386   7.050   4.573  13.331
   8523SM   H6F11387   6.985   4.679  13.374
   8523SM   H6G11388   7.181   4.600  13.335
   8523SM   C7F11389   7.021   4.429  13.422
   8523SM   H7F11390   7.098   4.327  13.390
   8523SM   H7G11391   6.895   4.388  13.418
   8523SM   C8F11392   7.062   4.471  13.567
   8523SM   H8F11393   7.036   4.363  13.629
   8523SM   H8G11394   6.980   4.568  13.601
   8523SM   C9F11395   7.236   4.526  13.582
   8523SM   H9F11396   7.237   4.660  13.580
   8523SM   H9G11397   7.306   4.486  13.493
   8523SM  C10F11398   7.327   4.466  13.705
   8523SM  H10F11399   7.421   4.556  13.730
   8523SM  H10G11400   7.390   4.352  13.679
   8523SM  C11F11401   7.220   4.435  13.827
   8523SM  H11F11402   7.174   4.312  13.819
   8523SM  H11G11403   7.115   4.516  13.822
   8523SM  C12F11404   7.310   4.460  13.959
   8523SM  H12F11405   7.362   4.584  13.958
   8523SM  H12G11406   7.411   4.374  13.965
   8523SM  C13F11407   7.207   4.444  14.085
   8523SM  H13F11408   7.112   4.535  14.082
   8523SM  H13G11409   7.280   4.465  14.177
   8523SM  C14F11410   7.117   4.285  14.098
   8523SM  H14F11411   7.196   4.202  14.152
   8523SM  H14G11412   7.098   4.237  13.997
   8523SM  C15F11413   6.952   4.297  14.169
   8523SM  H15F11414   6.882   4.187  14.152
   8523SM  H15G11415   6.883   4.396  14.121
   8523SM  C16F11416   6.976   4.327  14.319
   8523SM  H16F11417   7.050   4.435  14.322
   8523SM  H16G11418   7.055   4.230  14.355
   8523SM  C17F11419   6.828   4.343  14.414
   8523SM  H17F11420   6.764   4.225  14.415
   8523SM  H17G11421   6.744   4.435  14.374
   8523SM  C18F11422   6.866   4.391  14.561
   8523SM  H18F11423   6.872   4.523  14.569
   8523SM  H18G11424   6.986   4.346  14.589
   8523SM  C19F11425   6.742   4.345  14.667
   8523SM  H19F11426   6.802   4.296  14.758
   8523SM  H19G11427   6.661   4.252  14.626
   8523SM  C20F11428   6.644   4.496  14.705
   8523SM  H20F11429   6.586   4.540  14.612
   8523SM  H20G11430   6.731   4.591  14.738
   8523SM  C21F11431   6.515   4.481  14.813
   8523SM  H21F11432   6.570   4.484  14.915
   8523SM  H21G11433   6.456   4.362  14.802
   8523SM  C22F11434   6.386   4.613  14.799
   8523SM  H22F11435   6.332   4.598  14.698
   8523SM  H22G11436   6.446   4.733  14.801
   8523SM  C23F11437   6.252   4.608  14.903
   8523SM  H23F11438   6.167   4.511  14.883
   8523SM  H23G11439   6.178   4.718  14.897
   8523SM  H23H11440   6.299   4.592  15.005
   8623SM     N11441   4.488   1.986  12.187
   8623SM   C1511442   4.314   1.984  12.223
   8623SM  H15A11443   4.277   1.866  12.258
   8623SM  H15B11444   4.238   2.023  12.142
   8623SM  H15C11445   4.295   2.062  12.310
   8623SM   C1411446   4.518   1.872  12.073
   8623SM  H14A11447   4.510   1.747  12.102
   8623SM  H14B11448   4.636   1.889  12.029
   8623SM  H14C11449   4.433   1.890  11.994
   8623SM   C1311450   4.525   2.152  12.137
   8623SM  H13A11451   4.483   2.240  12.208
   8623SM  H13B11452   4.465   2.174  12.041
   8623SM  H13C11453   4.650   2.171  12.120
   8623SM   C1211454   4.583   1.937  12.310
   8623SM  H12A11455   4.706   1.915  12.284
   8623SM  H12B11456   4.536   1.823  12.348
   8623SM   C1111457   4.579   2.051  12.433
   8623SM  H11A11458   4.619   2.172  12.402
   8623SM  H11B11459   4.667   2.008  12.509
   8623SM     P11460   4.346   1.915  12.573
   8623SM   O1311461   4.174   1.912  12.540
   8623SM   O1411462   4.445   1.771  12.544
   8623SM   O1111463   4.368   1.970  12.724
   8623SM   O1211464   4.421   2.060  12.489
   8623SM   C1S11465   4.370   2.138  12.751
   8623SM   H1S11466   4.250   2.190  12.728
   8623SM   H1T11467   4.462   2.202  12.689
   8623SM    NF11468   4.573   2.111  12.926
   8623SM   HNF11469   4.577   1.993  12.935
   8623SM   C2S11470   4.416   2.179  12.898
   8623SM   H2S11471   4.422   2.312  12.908
   8623SM   C3S11472   4.288   2.119  12.997
   8623SM   H3S11473   4.270   1.988  12.995
   8623SM    O311474   4.136   2.189  12.964
   8623SM   HO311475   4.141   2.204  12.869
   8623SM   C4S11476   4.336   2.176  13.134
   8623SM   H4S11477   4.291   2.294  13.163
   8623SM   C5S11478   4.428   2.093  13.220
   8623SM   H5S11479   4.474   1.973  13.192
   8623SM   C6S11480   4.477   2.150  13.356
   8623SM   H6S11481   4.406   2.256  13.390
   8623SM   H6T11482   4.606   2.188  13.353
   8623SM   C7S11483   4.462   2.014  13.457
   8623SM   H7S11484   4.526   1.904  13.420
   8623SM   H7T11485   4.333   1.982  13.469
   8623SM   C8S11486   4.532   2.056  13.594
   8623SM   H8S11487   4.656   2.101  13.580
   8623SM   H8T11488   4.538   1.945  13.656
   8623SM   C9S11489   4.427   2.179  13.665
   8623SM   H9S11490   4.304   2.126  13.676
   8623SM   H9T11491   4.416   2.290  13.604
   8623SM  C10S11492   4.489   2.225  13.803
   8623SM  H10S11493   4.606   2.288  13.795
   8623SM  H10T11494   4.512   2.112  13.860
   8623SM  C11S11495   4.363   2.328  13.875
   8623SM  H11S11496   4.243   2.272  13.861
   8623SM  H11T11497   4.361   2.449  13.829
   8623SM  C12S11498   4.394   2.340  14.024
   8623SM  H12S11499   4.517   2.388  14.039
   8623SM  H12T11500   4.397   2.218  14.065
   8623SM  C13S11501   4.272   2.441  14.104
   8623SM  H13S11502   4.154   2.380  14.106
   8623SM  H13T11503   4.256   2.560  14.056
   8623SM  C14S11504   4.340   2.460  14.245
   8623SM  H14S11505   4.439   2.549  14.236
   8623SM  H14T11506   4.392   2.341  14.275
   8623SM  C15S11507   4.235   2.518  14.360
   8623SM  H15S11508   4.110   2.477  14.341
   8623SM  H15T11509   4.236   2.652  14.363
   8623SM  C16S11510   4.291   2.446  14.495
   8623SM  H16S11511   4.415   2.399  14.485
   8623SM  H16T11512   4.214   2.340  14.516
   8623SM  C17S11513   4.290   2.557  14.617
   8623SM  H17S11514   4.198   2.653  14.603
   8623SM  H17T11515   4.406   2.620  14.623
   8623SM  C18S11516   4.253   2.468  14.749
   8623SM  H18S11517   4.357   2.402  14.788
   8623SM  H18T11518   4.156   2.378  14.732
   8623SM  H18U11519   4.210   2.552  14.827
   8623SM   C1F11520   4.700   2.185  12.879
   8623SM    OF11521   4.688   2.326  12.842
   8623SM   C2F11522   4.856   2.094  12.873
   8623SM   H2F11523   4.897   2.069  12.976
   8623SM   H2G11524   4.946   2.176  12.825
   8623SM   C3F11525   4.849   1.937  12.791
   8623SM   H3F11526   4.973   1.885  12.789
   8623SM   H3G11527   4.818   1.967  12.686
   8623SM   C4F11528   4.733   1.804  12.837
   8623SM   H4F11529   4.757   1.693  12.778
   8623SM   H4G11530   4.609   1.840  12.810
   8623SM   C5F11531   4.739   1.760  12.986
   8623SM   H5F11532   4.727   1.867  13.051
   8623SM   H5G11533   4.856   1.705  13.007
   8623SM   C6F11534   4.612   1.637  13.026
   8623SM   H6F11535   4.625   1.608  13.134
   8623SM   H6G11536   4.638   1.525  12.969
   8623SM   C7F11537   4.439   1.687  12.995
   8623SM   H7F11538   4.421   1.675  12.885
   8623SM   H7G11539   4.426   1.814  13.021
   8623SM   C8F11540   4.309   1.588  13.066
   8623SM   H8F11541   4.355   1.466  13.091
   8623SM   H8G11542   4.210   1.571  12.993
   8623SM   C9F11543   4.243   1.667  13.194
   8623SM   H9F11544   4.120   1.621  13.208
   8623SM   H9G11545   4.238   1.799  13.182
   8623SM  C10F11546   4.334   1.620  13.322
   8623SM  H10F11547   4.452   1.684  13.325
   8623SM  H10G11548   4.362   1.490  13.318
   8623SM  C11F11549   4.235   1.655  13.448
   8623SM  H11F11550   4.130   1.571  13.452
   8623SM  H11G11551   4.186   1.778  13.439
   8623SM  C12F11552   4.327   1.645  13.581
   8623SM  H12F11553   4.447   1.699  13.569
   8623SM  H12G11554   4.345   1.517  13.610
   8623SM  C13F11555   4.236   1.733  13.694
   8623SM  H13F11556   4.111   1.684  13.695
   8623SM  H13G11557   4.228   1.862  13.669
   8623SM  C14F11558   4.304   1.712  13.835
   8623SM  H14F11559   4.424   1.770  13.844
   8623SM  H14G11560   4.321   1.582  13.853
   8623SM  C15F11561   4.192   1.780  13.944
   8623SM  H15F11562   4.204   1.703  14.034
   8623SM  H15G11563   4.064   1.769  13.912
   8623SM  C16F11564   4.228   1.952  13.989
   8623SM  H16F11565   4.165   2.033  13.917
   8623SM  H16G11566   4.358   1.974  13.979
   8623SM  C17F11567   4.177   1.993  14.133
   8623SM  H17F11568   4.072   1.921  14.162
   8623SM  H17G11569   4.140   2.122  14.137
   8623SM  C18F11570   4.314   1.973  14.236
   8623SM  H18F11571   4.412   2.060  14.217
   8623SM  H18G11572   4.370   1.854  14.222
   8623SM  C19F11573   4.262   1.992  14.382
   8623SM  H19F11574   4.160   1.913  14.405
   8623SM  H19G11575   4.222   2.118  14.398
   8623SM  C20F11576   4.403   1.954  14.478
   8623SM  H20F11577   4.513   2.012  14.438
   8623SM  H20G11578   4.424   1.822  14.478
   8623SM  C21F11579   4.379   2.012  14.622
   8623SM  H21F11580   4.357   2.144  14.621
   8623SM  H21G11581   4.492   1.992  14.679
   8623SM  C22F11582   4.241   1.930  14.695
   8623SM  H22F11583   4.261   1.798  14.696
   8623SM  H22G11584   4.127   1.952  14.640
   8623SM  C23F11585   4.222   1.991  14.838
   8623SM  H23F11586   4.325   1.952  14.901
   8623SM  H23G11587   4.110   1.944  14.885
   8623SM  H23H11588   4.218   2.124  14.839
   8723SM     N11589   5.390   1.993  12.180
   8723SM   C1511590   5.404   2.173  12.177
   8723SM  H15A11591   5.513   2.213  12.126
   8723SM  H15B11592   5.412   2.221  12.279
   8723SM  H15C11593   5.304   2.228  12.127
   8723SM   C1411594   5.249   1.948  12.263
   8723SM  H14A11595   5.249   1.820  12.286
   8723SM  H14B11596   5.135   1.986  12.224
   8723SM  H14C11597   5.263   2.005  12.362
   8723SM   C1311598   5.371   1.933  12.040
   8723SM  H13A11599   5.479   1.949  11.980
   8723SM  H13B11600   5.278   1.999  11.989
   8723SM  H13C11601   5.340   1.807  12.037
   8723SM   C1211602   5.539   1.927  12.250
   8723SM  H12A11603   5.644   1.946  12.187
   8723SM  H12B11604   5.522   1.799  12.264
   8723SM   C1111605   5.581   1.997  12.390
   8723SM  H11A11606   5.612   2.125  12.378
   8723SM  H11B11607   5.693   1.937  12.428
   8723SM     P11608   5.414   1.819  12.558
   8723SM   O1311609   5.242   1.831  12.591
   8723SM   O1411610   5.466   1.687  12.467
   8723SM   O1111611   5.525   1.842  12.687
   8723SM   O1211612   5.453   1.984  12.485
   8723SM   C1S11613   5.496   1.986  12.764
   8723SM   H1S11614   5.366   2.020  12.766
   8723SM   H1T11615   5.564   2.086  12.718
   8723SM    NF11616   5.400   1.933  12.993
   8723SM   HNF11617   5.347   2.021  13.044
   8723SM   C2S11618   5.543   1.974  12.916
   8723SM   H2S11619   5.635   1.878  12.929
   8723SM   C3S11620   5.617   2.137  12.965
   8723SM   H3S11621   5.530   2.234  12.942
   8723SM    O311622   5.764   2.188  12.904
   8723SM   HO311623   5.792   2.101  12.845
   8723SM   C4S11624   5.638   2.125  13.115
   8723SM   H4S11625   5.688   2.009  13.146
   8723SM   C5S11626   5.600   2.233  13.211
   8723SM   H5S11627   5.557   2.353  13.183
   8723SM   C6S11628   5.624   2.202  13.359
   8723SM   H6S11629   5.572   2.302  13.418
   8723SM   H6T11630   5.755   2.198  13.383
   8723SM   C7S11631   5.544   2.045  13.407
   8723SM   H7S11632   5.573   1.945  13.337
   8723SM   H7T11633   5.411   2.060  13.407
   8723SM   C8S11634   5.599   1.988  13.546
   8723SM   H8S11635   5.720   2.039  13.561
   8723SM   H8T11636   5.610   1.855  13.542
   8723SM   C9S11637   5.490   2.027  13.665
   8723SM   H9S11638   5.386   1.946  13.651
   8723SM   H9T11639   5.448   2.153  13.662
   8723SM  C10S11640   5.563   1.987  13.802
   8723SM  H10S11641   5.639   2.090  13.834
   8723SM  H10T11642   5.641   1.879  13.791
   8723SM  C11S11643   5.440   1.945  13.910
   8723SM  H11S11644   5.376   1.834  13.881
   8723SM  H11T11645   5.351   2.044  13.917
   8723SM  C12S11646   5.513   1.919  14.050
   8723SM  H12S11647   5.606   1.824  14.048
   8723SM  H12T11648   5.417   1.878  14.120
   8723SM  C13S11649   5.585   2.072  14.106
   8723SM  H13S11650   5.501   2.174  14.091
   8723SM  H13T11651   5.696   2.104  14.051
   8723SM  C14S11652   5.624   2.057  14.254
   8723SM  H14S11653   5.706   1.952  14.272
   8723SM  H14T11654   5.515   2.040  14.316
   8723SM  C15S11655   5.706   2.210  14.295
   8723SM  H15S11656   5.627   2.316  14.279
   8723SM  H15T11657   5.815   2.225  14.230
   8723SM  C16S11658   5.762   2.212  14.437
   8723SM  H16S11659   5.840   2.107  14.454
   8723SM  H16T11660   5.663   2.206  14.511
   8723SM  C17S11661   5.861   2.364  14.450
   8723SM  H17S11662   5.778   2.468  14.444
   8723SM  H17T11663   5.945   2.371  14.363
   8723SM  C18S11664   5.957   2.359  14.578
   8723SM  H18S11665   5.881   2.401  14.662
   8723SM  H18T11666   6.066   2.435  14.568
   8723SM  H18U11667   5.993   2.234  14.600
   8723SM   C1F11668   5.338   1.786  12.998
   8723SM    OF11669   5.417   1.668  12.968
   8723SM   C2F11670   5.167   1.774  13.045
   8723SM   H2F11671   5.092   1.758  12.954
   8723SM   H2G11672   5.130   1.886  13.095
   8723SM   C3F11673   5.137   1.630  13.140
   8723SM   H3F11674   5.161   1.517  13.083
   8723SM   H3G11675   5.009   1.626  13.169
   8723SM   C4F11676   5.239   1.630  13.269
   8723SM   H4F11677   5.366   1.604  13.242
   8723SM   H4G11678   5.198   1.530  13.335
   8723SM   C5F11679   5.232   1.787  13.351
   8723SM   H5F11680   5.280   1.886  13.288
   8723SM   H5G11681   5.312   1.775  13.439
   8723SM   C6F11682   5.062   1.831  13.398
   8723SM   H6F11683   5.006   1.728  13.450
   8723SM   H6G11684   4.988   1.854  13.307
   8723SM   C7F11685   5.053   1.981  13.487
   8723SM   H7F11686   4.933   2.039  13.477
   8723SM   H7G11687   5.144   2.069  13.448
   8723SM   C8F11688   5.087   1.952  13.636
   8723SM   H8F11689   5.153   2.059  13.674
   8723SM   H8G11690   5.165   1.846  13.649
   8723SM   C9F11691   4.940   1.931  13.728
   8723SM   H9F11692   4.882   1.814  13.703
   8723SM   H9G11693   4.850   2.028  13.710
   8723SM  C10F11694   4.988   1.932  13.877
   8723SM  H10F11695   5.099   1.859  13.889
   8723SM  H10G11696   4.891   1.876  13.937
   8723SM  C11F11697   5.022   2.101  13.931
   8723SM  H11F11698   4.913   2.177  13.921
   8723SM  H11G11699   5.118   2.158  13.870
   8723SM  C12F11700   5.078   2.104  14.078
   8723SM  H12F11701   5.179   2.018  14.090
   8723SM  H12G11702   4.979   2.062  14.144
   8723SM  C13F11703   5.135   2.272  14.121
   8723SM  H13F11704   5.029   2.352  14.127
   8723SM  H13G11705   5.214   2.320  14.041
   8723SM  C14F11706   5.226   2.275  14.254
   8723SM  H14F11707   5.261   2.402  14.274
   8723SM  H14G11708   5.336   2.203  14.246
   8723SM  C15F11709   5.126   2.215  14.372
   8723SM  H15F11710   5.057   2.107  14.345
   8723SM  H15G11711   5.040   2.314  14.393
   8723SM  C16F11712   5.218   2.179  14.502
   8723SM  H16F11713   5.316   2.268  14.518
   8723SM  H16G11714   5.270   2.058  14.499
   8723SM  C17F11715   5.089   2.194  14.611
   8723SM  H17F11716   4.984   2.119  14.583
   8723SM  H17G11717   5.054   2.324  14.610
   8723SM  C18F11718   5.132   2.164  14.756
   8723SM  H18F11719   5.054   2.239  14.819
   8723SM  H18G11720   5.254   2.210  14.770
   8723SM  C19F11721   5.111   1.991  14.807
   8723SM  H19F11722   5.176   1.909  14.739
   8723SM  H19G11723   4.982   1.961  14.799
   8723SM  C20F11724   5.166   1.980  14.954
   8723SM  H20F11725   5.100   2.078  15.004
   8723SM  H20G11726   5.296   2.008  14.958
   8723SM  C21F11727   5.130   1.825  15.033
   8723SM  H21F11728   5.147   1.718  14.969
   8723SM  H21G11729   5.002   1.831  15.060
   8723SM  C22F11730   5.224   1.796  15.166
   8723SM  H22F11731   5.206   1.669  15.196
   8723SM  H22G11732   5.171   1.870  15.248
   8723SM  C23F11733   5.402   1.832  15.158
   8723SM  H23F11734   5.454   1.764  15.074
   8723SM  H23G11735   5.467   1.795  15.251
   8723SM  H23H11736   5.426   1.962  15.141
   8823SM     N11737   2.147   2.779  12.197
   8823SM   C1511738   2.170   2.706  12.063
   8823SM  H15A11739   2.077   2.747  11.996
   8823SM  H15B11740   2.166   2.576  12.068
   8823SM  H15C11741   2.285   2.744  12.021
   8823SM   C1411742   2.274   2.718  12.290
   8823SM  H14A11743   2.269   2.590  12.302
   8823SM  H14B11744   2.254   2.768  12.390
   8823SM  H14C11745   2.393   2.759  12.261
   8823SM   C1311746   2.172   2.957  12.187
   8823SM  H13A11747   2.160   3.011  12.286
   8823SM  H13B11748   2.081   3.013  12.126
   8823SM  H13C11749   2.290   2.989  12.150
   8823SM   C1211750   1.981   2.743  12.256
   8823SM  H12A11751   1.962   2.615  12.262
   8823SM  H12B11752   1.889   2.795  12.192
   8823SM   C1111753   1.946   2.813  12.395
   8823SM  H11A11754   2.042   2.767  12.465
   8823SM  H11B11755   1.831   2.762  12.432
   8823SM     P11756   1.966   3.072  12.527
   8823SM   O1311757   2.118   3.014  12.586
   8823SM   O1411758   1.952   3.247  12.504
   8823SM   O1111759   1.813   3.010  12.611
   8823SM   O1211760   1.938   2.984  12.389
   8823SM   C1S11761   1.835   2.897  12.720
   8823SM   H1S11762   1.950   2.830  12.714
   8823SM   H1T11763   1.739   2.803  12.717
   8823SM    NF11764   1.856   2.852  12.964
   8823SM   HNF11765   1.762   2.808  13.014
   8823SM   C2S11766   1.822   2.974  12.862
   8823SM   H2S11767   1.915   3.070  12.869
   8823SM   C3S11768   1.654   3.052  12.888
   8823SM   H3S11769   1.558   2.959  12.883
   8823SM    O311770   1.606   3.168  12.791
   8823SM   HO311771   1.682   3.156  12.719
   8823SM   C4S11772   1.663   3.118  13.029
   8823SM   H4S11773   1.729   3.232  13.040
   8823SM   C5S11774   1.602   3.047  13.139
   8823SM   H5S11775   1.535   2.933  13.129
   8823SM   C6S11776   1.613   3.107  13.282
   8823SM   H6S11777   1.495   3.104  13.332
   8823SM   H6T11778   1.661   3.232  13.289
   8823SM   C7S11779   1.730   2.990  13.353
   8823SM   H7S11780   1.854   3.012  13.315
   8823SM   H7T11781   1.702   2.863  13.329
   8823SM   C8S11782   1.732   3.000  13.506
   8823SM   H8S11783   1.734   3.127  13.538
   8823SM   H8T11784   1.842   2.940  13.544
   8823SM   C9S11785   1.586   2.912  13.565
   8823SM   H9S11786   1.589   2.784  13.535
   8823SM   H9T11787   1.478   2.969  13.520
   8823SM  C10S11788   1.565   2.926  13.716
   8823SM  H10S11789   1.463   2.846  13.746
   8823SM  H10T11790   1.528   3.052  13.739
   8823SM  C11S11791   1.710   2.885  13.802
   8823SM  H11S11792   1.822   2.942  13.763
   8823SM  H11T11793   1.729   2.753  13.802
   8823SM  C12S11794   1.679   2.946  13.944
   8823SM  H12S11795   1.548   2.938  13.963
   8823SM  H12T11796   1.712   3.074  13.951
   8823SM  C13S11797   1.762   2.850  14.054
   8823SM  H13S11798   1.894   2.870  14.050
   8823SM  H13T11799   1.740   2.719  14.038
   8823SM  C14S11800   1.693   2.900  14.189
   8823SM  H14S11801   1.561   2.881  14.188
   8823SM  H14T11802   1.716   3.031  14.203
   8823SM  C15S11803   1.765   2.809  14.306
   8823SM  H15S11804   1.897   2.825  14.303
   8823SM  H15T11805   1.738   2.678  14.296
   8823SM  C16S11806   1.700   2.870  14.440
   8823SM  H16S11807   1.578   2.824  14.458
   8823SM  H16T11808   1.694   3.004  14.435
   8823SM  C17S11809   1.812   2.825  14.555
   8823SM  H17S11810   1.939   2.836  14.522
   8823SM  H17T11811   1.790   2.698  14.584
   8823SM  C18S11812   1.790   2.934  14.676
   8823SM  H18S11813   1.667   2.920  14.718
   8823SM  H18T11814   1.808   3.061  14.648
   8823SM  H18U11815   1.879   2.900  14.754
   8823SM   C1F11816   1.999   2.786  12.981
   8823SM    OF11817   2.114   2.828  12.916
   8823SM   C2F11818   2.008   2.654  13.080
   8823SM   H2F11819   2.035   2.540  13.026
   8823SM   H2G11820   1.890   2.640  13.131
   8823SM   C3F11821   2.137   2.688  13.185
   8823SM   H3F11822   2.118   2.807  13.233
   8823SM   H3G11823   2.260   2.689  13.139
   8823SM   C4F11824   2.128   2.557  13.293
   8823SM   H4F11825   2.154   2.440  13.243
   8823SM   H4G11826   2.004   2.552  13.333
   8823SM   C5F11827   2.245   2.582  13.407
   8823SM   H5F11828   2.366   2.608  13.364
   8823SM   H5G11829   2.250   2.468  13.465
   8823SM   C6F11830   2.203   2.717  13.505
   8823SM   H6F11831   2.083   2.693  13.548
   8823SM   H6G11832   2.195   2.833  13.452
   8823SM   C7F11833   2.333   2.728  13.613
   8823SM   H7F11834   2.400   2.840  13.604
   8823SM   H7G11835   2.424   2.634  13.593
   8823SM   C8F11836   2.278   2.714  13.758
   8823SM   H8F11837   2.225   2.831  13.790
   8823SM   H8G11838   2.386   2.692  13.821
   8823SM   C9F11839   2.158   2.581  13.787
   8823SM   H9F11840   2.212   2.465  13.756
   8823SM   H9G11841   2.045   2.597  13.730
   8823SM  C10F11842   2.120   2.578  13.935
   8823SM  H10F11843   2.050   2.686  13.962
   8823SM  H10G11844   2.236   2.582  13.991
   8823SM  C11F11845   2.029   2.426  13.973
   8823SM  H11F11846   2.076   2.323  13.913
   8823SM  H11G11847   1.901   2.441  13.947
   8823SM  C12F11848   2.050   2.383  14.120
   8823SM  H12F11849   2.160   2.309  14.131
   8823SM  H12G11850   1.945   2.308  14.147
   8823SM  C13F11851   2.059   2.524  14.221
   8823SM  H13F11852   1.950   2.596  14.211
   8823SM  H13G11853   2.166   2.600  14.202
   8823SM  C14F11854   2.075   2.447  14.360
   8823SM  H14F11855   2.179   2.364  14.347
   8823SM  H14G11856   1.962   2.377  14.378
   8823SM  C15F11857   2.111   2.542  14.487
   8823SM  H15F11858   1.997   2.561  14.542
   8823SM  H15G11859   2.165   2.660  14.464
   8823SM  C16F11860   2.226   2.442  14.576
   8823SM  H16F11861   2.348   2.455  14.532
   8823SM  H16G11862   2.194   2.312  14.567
   8823SM  C17F11863   2.232   2.485  14.725
   8823SM  H17F11864   2.222   2.617  14.738
   8823SM  H17G11865   2.352   2.449  14.763
   8823SM  C18F11866   2.110   2.396  14.815
   8823SM  H18F11867   2.111   2.267  14.790
   8823SM  H18G11868   1.988   2.443  14.792
   8823SM  C19F11869   2.142   2.412  14.968
   8823SM  H19F11870   2.242   2.330  14.996
   8823SM  H19G11871   2.034   2.372  15.024
   8823SM  C20F11872   2.190   2.585  15.007
   8823SM  H20F11873   2.105   2.670  14.959
   8823SM  H20G11874   2.310   2.603  14.960
   8823SM  C21F11875   2.212   2.628  15.156
   8823SM  H21F11876   2.302   2.549  15.205
   8823SM  H21G11877   2.098   2.626  15.215
   8823SM  C22F11878   2.280   2.798  15.165
   8823SM  H22F11879   2.191   2.890  15.135
   8823SM  H22G11880   2.359   2.807  15.080
   8823SM  C23F11881   2.374   2.844  15.290
   8823SM  H23F11882   2.380   2.976  15.302
   8823SM  H23G11883   2.498   2.800  15.283
   8823SM  H23H11884   2.316   2.790  15.379
   8923SM     N11885   7.319   3.140  12.219
   8923SM   C1511886   7.246   3.263  12.127
   8923SM  H15A11887   7.115   3.263  12.132
   8923SM  H15B11888   7.279   3.236  12.024
   8923SM  H15C11889   7.286   3.383  12.149
   8923SM   C1411890   7.246   2.980  12.189
   8923SM  H14A11891   7.123   2.972  12.225
   8923SM  H14B11892   7.310   2.886  12.243
   8923SM  H14C11893   7.246   2.952  12.084
   8923SM   C1311894   7.494   3.128  12.190
   8923SM  H13A11895   7.547   3.037  12.256
   8923SM  H13B11896   7.558   3.240  12.207
   8923SM  H13C11897   7.517   3.094  12.087
   8923SM   C1211898   7.282   3.184  12.364
   8923SM  H12A11899   7.157   3.149  12.384
   8923SM  H12B11900   7.285   3.312  12.376
   8923SM   C1111901   7.379   3.102  12.476
   8923SM  H11A11902   7.348   3.157  12.575
   8923SM  H11B11903   7.510   3.124  12.460
   8923SM     P11904   7.183   2.861  12.524
   8923SM   O1311905   7.060   2.952  12.451
   8923SM   O1411906   7.194   2.684  12.509
   8923SM   O1111907   7.165   2.905  12.676
   8923SM   O1211908   7.352   2.933  12.479
   8923SM   C1S11909   7.296   2.890  12.766
   8923SM   H1S11910   7.408   2.946  12.726
   8923SM   H1T11911   7.321   2.760  12.788
   8923SM    NF11912   7.386   2.978  12.988
   8923SM   HNF11913   7.394   2.896  13.060
   8923SM   C2S11914   7.250   2.976  12.897
   8923SM   H2S11915   7.217   3.102  12.874
   8923SM   C3S11916   7.100   2.890  12.957
   8923SM   H3S11917   7.126   2.759  12.966
   8923SM    O311918   6.959   2.902  12.878
   8923SM   HO311919   7.002   2.911  12.788
   8923SM   C4S11920   7.057   2.958  13.089
   8923SM   H4S11921   7.014   3.082  13.082
   8923SM   C5S11922   7.061   2.885  13.208
   8923SM   H5S11923   7.104   2.760  13.215
   8923SM   C6S11924   7.013   2.966  13.336
   8923SM   H6S11925   7.030   3.098  13.328
   8923SM   H6T11926   7.088   2.921  13.419
   8923SM   C7S11927   6.838   2.938  13.374
   8923SM   H7S11928   6.817   2.807  13.390
   8923SM   H7T11929   6.758   2.976  13.290
   8923SM   C8S11930   6.785   3.028  13.501
   8923SM   H8S11931   6.665   3.083  13.483
   8923SM   H8T11932   6.870   3.126  13.526
   8923SM   C9S11933   6.767   2.914  13.620
   8923SM   H9S11934   6.883   2.854  13.641
   8923SM   H9T11935   6.678   2.819  13.592
   8923SM  C10S11936   6.706   2.994  13.749
   8923SM  H10S11937   6.667   2.898  13.819
   8923SM  H10T11938   6.600   3.072  13.728
   8923SM  C11S11939   6.838   3.091  13.817
   8923SM  H11S11940   6.874   3.193  13.751
   8923SM  H11T11941   6.946   3.014  13.831
   8923SM  C12S11942   6.786   3.158  13.952
   8923SM  H12S11943   6.683   3.241  13.943
   8923SM  H12T11944   6.888   3.230  13.985
   8923SM  C13S11945   6.760   3.034  14.062
   8923SM  H13S11946   6.868   2.954  14.065
   8923SM  H13T11947   6.654   2.958  14.038
   8923SM  C14S11948   6.738   3.113  14.200
   8923SM  H14S11949   6.611   3.151  14.213
   8923SM  H14T11950   6.812   3.223  14.206
   8923SM  C15S11951   6.791   3.001  14.312
   8923SM  H15S11952   6.911   2.950  14.289
   8923SM  H15T11953   6.704   2.902  14.319
   8923SM  C16S11954   6.796   3.080  14.450
   8923SM  H16S11955   6.671   3.116  14.478
   8923SM  H16T11956   6.871   3.190  14.447
   8923SM  C17S11957   6.862   2.964  14.555
   8923SM  H17S11958   6.989   2.934  14.531
   8923SM  H17T11959   6.791   2.850  14.550
   8923SM  C18S11960   6.848   3.032  14.695
   8923SM  H18S11961   6.883   2.942  14.772
   8923SM  H18T11962   6.722   3.068  14.713
   8923SM  H18U11963   6.926   3.140  14.706
   8923SM   C1F11964   7.512   3.073  12.962
   8923SM    OF11965   7.505   3.169  12.870
   8923SM   C2F11966   7.657   3.048  13.048
   8923SM   H2F11967   7.727   2.945  13.008
   8923SM   H2G11968   7.618   3.013  13.150
   8923SM   C3F11969   7.766   3.198  13.056
   8923SM   H3F11970   7.823   3.221  12.957
   8923SM   H3G11971   7.865   3.172  13.128
   8923SM   C4F11972   7.680   3.350  13.104
   8923SM   H4F11973   7.582   3.383  13.034
   8923SM   H4G11974   7.763   3.455  13.104
   8923SM   C5F11975   7.615   3.329  13.247
   8923SM   H5F11976   7.686   3.413  13.311
   8923SM   H5G11977   7.640   3.206  13.284
   8923SM   C6F11978   7.436   3.366  13.265
   8923SM   H6F11979   7.357   3.269  13.229
   8923SM   H6G11980   7.410   3.478  13.206
   8923SM   C7F11981   7.405   3.412  13.410
   8923SM   H7F11982   7.290   3.474  13.418
   8923SM   H7G11983   7.502   3.496  13.442
   8923SM   C8F11984   7.399   3.278  13.513
   8923SM   H8F11985   7.423   3.337  13.611
   8923SM   H8G11986   7.493   3.186  13.496
   8923SM   C9F11987   7.232   3.206  13.525
   8923SM   H9F11988   7.231   3.113  13.448
   8923SM   H9G11989   7.136   3.296  13.505
   8923SM  C10F11990   7.201   3.133  13.662
   8923SM  H10F11991   7.109   3.037  13.652
   8923SM  H10G11992   7.154   3.224  13.733
   8923SM  C11F11993   7.356   3.061  13.716
   8923SM  H11F11994   7.438   3.156  13.754
   8923SM  H11G11995   7.417   2.995  13.633
   8923SM  C12F11996   7.324   2.940  13.825
   8923SM  H12F11997   7.246   2.844  13.782
   8923SM  H12G11998   7.255   3.001  13.907
   8923SM  C13F11999   7.480   2.868  13.876
   8923SM  H13F12000   7.558   2.963  13.920
   8923SM  H13G12001   7.546   2.815  13.790
   8923SM  C14F12002   7.446   2.737  13.979
   8923SM  H14F12003   7.559   2.670  14.000
   8923SM  H14G12004   7.357   2.652  13.935
   8923SM  C15F12005   7.379   2.803  14.111
   8923SM  H15F12006   7.267   2.874  14.090
   8923SM  H15G12007   7.466   2.887  14.156
   8923SM  C16F12008   7.336   2.670  14.210
   8923SM  H16F12009   7.314   2.557  14.153
   8923SM  H16G12010   7.220   2.701  14.261
   8923SM  C17F12011   7.464   2.642  14.317
   8923SM  H17F12012   7.584   2.632  14.270
   8923SM  H17G12013   7.442   2.527  14.369
   8923SM  C18F12014   7.462   2.772  14.425
   8923SM  H18F12015   7.336   2.809  14.445
   8923SM  H18G12016   7.526   2.876  14.384
   8923SM  C19F12017   7.536   2.714  14.557
   8923SM  H19F12018   7.663   2.680  14.542
   8923SM  H19G12019   7.470   2.604  14.586
   8923SM  C20F12020   7.519   2.833  14.673
   8923SM  H20F12021   7.400   2.894  14.666
   8923SM  H20G12022   7.613   2.927  14.666
   8923SM  C21F12023   7.532   2.755  14.811
   8923SM  H21F12024   7.421   2.686  14.831
   8923SM  H21G12025   7.541   2.849  14.889
   8923SM  C22F12026   7.675   2.641  14.826
   8923SM  H22F12027   7.789   2.706  14.805
   8923SM  H22G12028   7.668   2.545  14.750
   8923SM  C23F12029   7.679   2.568  14.965
   8923SM  H23F12030   7.685   2.665  15.040
   8923SM  H23G12031   7.784   2.488  14.976
   8923SM  H23H12032   7.570   2.497  14.989
   9023SM     N12033   6.881   2.250  12.189
   9023SM   C1512034   6.976   2.106  12.151
   9023SM  H15A12035   7.103   2.130  12.155
   9023SM  H15B12036   6.946   2.075  12.048
   9023SM  H15C12037   6.942   2.008  12.216
   9023SM   C1412038   6.913   2.377  12.090
   9023SM  H14A12039   7.039   2.412  12.089
   9023SM  H14B12040   6.847   2.488  12.109
   9023SM  H14C12041   6.883   2.341  11.989
   9023SM   C1312042   6.707   2.204  12.185
   9023SM  H13A12043   6.685   2.113  12.262
   9023SM  H13B12044   6.667   2.164  12.088
   9023SM  H13C12045   6.634   2.305  12.214
   9023SM   C1212046   6.916   2.309  12.331
   9023SM  H12A12047   6.830   2.404  12.356
   9023SM  H12B12048   7.033   2.364  12.337
   9023SM   C1112049   6.894   2.184  12.445
   9023SM  H11A12050   6.946   2.233  12.539
   9023SM  H11B12051   6.962   2.074  12.421
   9023SM     P12052   6.617   2.262  12.540
   9023SM   O1312053   6.664   2.426  12.502
   9023SM   O1412054   6.448   2.218  12.517
   9023SM   O1112055   6.659   2.227  12.692
   9023SM   O1212056   6.728   2.141  12.460
   9023SM   C1S12057   6.668   2.062  12.729
   9023SM   H1S12058   6.752   1.994  12.663
   9023SM   H1T12059   6.550   2.000  12.719
   9023SM    NF12060   6.870   1.942  12.873
   9023SM   HNF12061   6.847   1.830  12.900
   9023SM   C2S12062   6.731   2.048  12.874
   9023SM   H2S12063   6.769   2.170  12.908
   9023SM   C3S12064   6.592   1.990  12.965
   9023SM   H3S12065   6.566   1.861  12.941
   9023SM    O312066   6.446   2.076  12.944
   9023SM   HO312067   6.470   2.155  12.877
   9023SM   C4S12068   6.642   1.999  13.111
   9023SM   H4S12069   6.709   1.896  13.150
   9023SM   C5S12070   6.608   2.124  13.193
   9023SM   H5S12071   6.536   2.225  13.152
   9023SM   C6S12072   6.654   2.144  13.337
   9023SM   H6S12073   6.583   2.245  13.380
   9023SM   H6T12074   6.781   2.183  13.343
   9023SM   C7S12075   6.632   2.002  13.432
   9023SM   H7S12076   6.731   2.008  13.508
   9023SM   H7T12077   6.646   1.883  13.381
   9023SM   C8S12078   6.474   2.006  13.509
   9023SM   H8S12079   6.376   1.958  13.445
   9023SM   H8T12080   6.440   2.131  13.536
   9023SM   C9S12081   6.490   1.907  13.636
   9023SM   H9S12082   6.572   1.805  13.619
   9023SM   H9T12083   6.370   1.855  13.658
   9023SM  C10S12084   6.544   2.000  13.760
   9023SM  H10S12085   6.468   2.110  13.774
   9023SM  H10T12086   6.672   2.040  13.752
   9023SM  C11S12087   6.520   1.885  13.877
   9023SM  H11S12088   6.595   1.777  13.864
   9023SM  H11T12089   6.396   1.842  13.866
   9023SM  C12S12090   6.532   1.954  14.017
   9023SM  H12S12091   6.449   1.886  14.084
   9023SM  H12T12092   6.497   2.083  14.020
   9023SM  C13S12093   6.701   1.930  14.068
   9023SM  H13S12094   6.776   2.022  14.017
   9023SM  H13T12095   6.746   1.810  14.035
   9023SM  C14S12096   6.718   1.940  14.220
   9023SM  H14S12097   6.660   2.048  14.263
   9023SM  H14T12098   6.847   1.956  14.237
   9023SM  C15S12099   6.686   1.786  14.300
   9023SM  H15S12100   6.656   1.688  14.229
   9023SM  H15T12101   6.583   1.806  14.368
   9023SM  C16S12102   6.836   1.739  14.382
   9023SM  H16S12103   6.863   1.847  14.443
   9023SM  H16T12104   6.941   1.723  14.314
   9023SM  C17S12105   6.827   1.596  14.479
   9023SM  H17S12106   6.907   1.499  14.442
   9023SM  H17T12107   6.703   1.548  14.481
   9023SM  C18S12108   6.871   1.637  14.624
   9023SM  H18S12109   6.839   1.535  14.691
   9023SM  H18T12110   6.804   1.745  14.658
   9023SM  H18U12111   7.000   1.663  14.636
   9023SM   C1F12112   7.010   1.984  12.816
   9023SM    OF12113   7.027   2.112  12.761
   9023SM   C2F12114   7.145   1.862  12.811
   9023SM   H2F12115   7.220   1.894  12.724
   9023SM   H2G12116   7.098   1.741  12.794
   9023SM   C3F12117   7.255   1.874  12.935
   9023SM   H3F12118   7.308   1.998  12.938
   9023SM   H3G12119   7.358   1.789  12.925
   9023SM   C4F12120   7.169   1.848  13.067
   9023SM   H4F12121   7.172   1.722  13.101
   9023SM   H4G12122   7.040   1.883  13.062
   9023SM   C5F12123   7.234   1.949  13.180
   9023SM   H5F12124   7.210   2.078  13.159
   9023SM   H5G12125   7.366   1.933  13.188
   9023SM   C6F12126   7.148   1.891  13.306
   9023SM   H6F12127   7.183   1.763  13.322
   9023SM   H6G12128   7.016   1.897  13.292
   9023SM   C7F12129   7.192   1.986  13.430
   9023SM   H7F12130   7.134   2.106  13.426
   9023SM   H7G12131   7.324   2.005  13.434
   9023SM   C8F12132   7.136   1.896  13.556
   9023SM   H8F12133   7.177   1.769  13.552
   9023SM   H8G12134   7.003   1.896  13.560
   9023SM   C9F12135   7.208   1.982  13.676
   9023SM   H9F12136   7.165   2.108  13.671
   9023SM   H9G12137   7.342   1.982  13.667
   9023SM  C10F12138   7.160   1.915  13.813
   9023SM  H10F12139   7.261   1.843  13.855
   9023SM  H10G12140   7.055   1.835  13.805
   9023SM  C11F12141   7.120   2.054  13.908
   9023SM  H11F12142   7.009   2.116  13.873
   9023SM  H11G12143   7.219   2.143  13.908
   9023SM  C12F12144   7.097   1.991  14.049
   9023SM  H12F12145   7.199   1.914  14.078
   9023SM  H12G12146   6.996   1.904  14.047
   9023SM  C13F12147   7.064   2.117  14.159
   9023SM  H13F12148   7.056   2.036  14.247
   9023SM  H13G12149   6.947   2.177  14.146
   9023SM  C14F12150   7.192   2.240  14.198
   9023SM  H14F12151   7.200   2.338  14.123
   9023SM  H14G12152   7.308   2.179  14.201
   9023SM  C15F12153   7.181   2.302  14.343
   9023SM  H15F12154   7.093   2.401  14.351
   9023SM  H15G12155   7.301   2.348  14.368
   9023SM  C16F12156   7.147   2.170  14.447
   9023SM  H16F12157   7.225   2.186  14.534
   9023SM  H16G12158   7.184   2.050  14.411
   9023SM  C17F12159   6.972   2.172  14.491
   9023SM  H17F12160   6.894   2.144  14.404
   9023SM  H17G12161   6.938   2.294  14.525
   9023SM  C18F12162   6.937   2.052  14.603
   9023SM  H18F12163   7.008   1.940  14.587
   9023SM  H18G12164   6.806   2.022  14.601
   9023SM  C19F12165   6.978   2.117  14.740
   9023SM  H19F12166   6.960   2.250  14.736
   9023SM  H19G12167   7.105   2.092  14.765
   9023SM  C20F12168   6.870   2.062  14.853
   9023SM  H20F12169   6.894   1.932  14.875
   9023SM  H20G12170   6.742   2.075  14.823
   9023SM  C21F12171   6.905   2.170  14.973
   9023SM  H21F12172   6.890   2.297  14.943
   9023SM  H21G12173   7.032   2.152  15.004
   9023SM  C22F12174   6.796   2.140  15.091
   9023SM  H22F12175   6.673   2.184  15.065
   9023SM  H22G12176   6.840   2.207  15.180
   9023SM  C23F12177   6.781   1.963  15.126
   9023SM  H23F12178   6.901   1.904  15.126
   9023SM  H23G12179   6.701   1.898  15.056
   9023SM  H23H12180   6.732   1.954  15.227
   9123SM     N12181   7.865   5.261  12.327
   9123SM   C1512182   7.954   5.107  12.306
   9123SM  H15A12183   8.082   5.128  12.305
   9123SM  H15B12184   7.920   5.053  12.214
   9123SM  H15C12185   7.930   5.026  12.389
   9123SM   C1412186   7.916   5.318  12.463
   9123SM  H14A12187   7.855   5.431  12.483
   9123SM  H14B12188   8.045   5.334  12.472
   9123SM  H14C12189   7.879   5.237  12.542
   9123SM   C1312190   7.908   5.387  12.227
   9123SM  H13A12191   7.858   5.502  12.259
   9123SM  H13B12192   7.854   5.360  12.130
   9123SM  H13C12193   8.036   5.400  12.216
   9123SM   C1212194   7.684   5.234  12.326
   9123SM  H12A12195   7.654   5.162  12.413
   9123SM  H12B12196   7.648   5.171  12.237
   9123SM   C1112197   7.573   5.383  12.329
   9123SM  H11A12198   7.446   5.342  12.339
   9123SM  H11B12199   7.582   5.448  12.232
   9123SM     P12200   7.603   5.669  12.434
   9123SM   O1312201   7.722   5.723  12.333
   9123SM   O1412202   7.435   5.722  12.413
   9123SM   O1112203   7.654   5.720  12.582
   9123SM   O1212204   7.612   5.480  12.440
   9123SM   C1S12205   7.726   5.603  12.669
   9123SM   H1S12206   7.855   5.597  12.645
   9123SM   H1T12207   7.676   5.479  12.657
   9123SM    NF12208   7.853   5.617  12.891
   9123SM   HNF12209   7.849   5.549  12.973
   9123SM   C2S12210   7.704   5.645  12.820
   9123SM   H2S12211   7.676   5.774  12.829
   9123SM   C3S12212   7.567   5.546  12.885
   9123SM   H3S12213   7.591   5.416  12.870
   9123SM    O312214   7.412   5.579  12.833
   9123SM   HO312215   7.428   5.623  12.745
   9123SM   C4S12216   7.560   5.581  13.033
   9123SM   H4S12217   7.506   5.696  13.059
   9123SM   C5S12218   7.614   5.482  13.130
   9123SM   H5S12219   7.667   5.365  13.102
   9123SM   C6S12220   7.608   5.514  13.278
   9123SM   H6S12221   7.732   5.515  13.321
   9123SM   H6T12222   7.544   5.412  13.325
   9123SM   C7S12223   7.525   5.671  13.319
   9123SM   H7S12224   7.403   5.677  13.276
   9123SM   H7T12225   7.595   5.777  13.281
   9123SM   C8S12226   7.507   5.688  13.471
   9123SM   H8S12227   7.439   5.800  13.493
   9123SM   H8T12228   7.628   5.701  13.516
   9123SM   C9S12229   7.424   5.543  13.536
   9123SM   H9S12230   7.511   5.441  13.540
   9123SM   H9T12231   7.320   5.507  13.475
   9123SM  C10S12232   7.370   5.579  13.679
   9123SM  H10S12233   7.308   5.472  13.720
   9123SM  H10T12234   7.283   5.681  13.678
   9123SM  C11S12235   7.513   5.623  13.767
   9123SM  H11S12236   7.566   5.738  13.731
   9123SM  H11T12237   7.606   5.528  13.758
   9123SM  C12S12238   7.470   5.641  13.914
   9123SM  H12S12239   7.357   5.711  13.917
   9123SM  H12T12240   7.566   5.706  13.969
   9123SM  C13S12241   7.429   5.485  13.983
   9123SM  H13S12242   7.530   5.398  13.975
   9123SM  H13T12243   7.322   5.435  13.932
   9123SM  C14S12244   7.384   5.513  14.129
   9123SM  H14S12245   7.328   5.401  14.163
   9123SM  H14T12246   7.294   5.610  14.138
   9123SM  C15S12247   7.523   5.542  14.224
   9123SM  H15S12248   7.578   5.660  14.204
   9123SM  H15T12249   7.615   5.447  14.207
   9123SM  C16S12250   7.469   5.528  14.370
   9123SM  H16S12251   7.411   5.408  14.381
   9123SM  H16T12252   7.385   5.627  14.395
   9123SM  C17S12253   7.607   5.537  14.467
   9123SM  H17S12254   7.660   5.660  14.465
   9123SM  H17T12255   7.690   5.452  14.419
   9123SM  C18S12256   7.578   5.482  14.611
   9123SM  H18S12257   7.531   5.357  14.612
   9123SM  H18T12258   7.496   5.562  14.665
   9123SM  H18U12259   7.692   5.484  14.668
   9123SM   C1F12260   7.985   5.698  12.863
   9123SM    OF12261   7.980   5.825  12.801
   9123SM   C2F12262   8.136   5.632  12.917
   9123SM   H2F12263   8.228   5.632  12.837
   9123SM   H2G12264   8.122   5.507  12.956
   9123SM   C3F12265   8.180   5.747  13.030
   9123SM   H3F12266   8.180   5.867  12.985
   9123SM   H3G12267   8.304   5.728  13.060
   9123SM   C4F12268   8.080   5.734  13.157
   9123SM   H4F12269   8.074   5.605  13.188
   9123SM   H4G12270   7.956   5.776  13.140
   9123SM   C5F12271   8.158   5.828  13.272
   9123SM   H5F12272   8.166   5.958  13.253
   9123SM   H5G12273   8.284   5.785  13.286
   9123SM   C6F12274   8.066   5.820  13.403
   9123SM   H6F12275   7.956   5.748  13.391
   9123SM   H6G12276   8.030   5.944  13.434
   9123SM   C7F12277   8.173   5.749  13.513
   9123SM   H7F12278   8.292   5.808  13.511
   9123SM   H7G12279   8.195   5.621  13.491
   9123SM   C8F12280   8.098   5.772  13.652
   9123SM   H8F12281   8.087   5.903  13.672
   9123SM   H8G12282   8.180   5.720  13.728
   9123SM   C9F12283   7.931   5.698  13.666
   9123SM   H9F12284   7.842   5.776  13.615
   9123SM   H9G12285   7.897   5.698  13.774
   9123SM  C10F12286   7.915   5.526  13.609
   9123SM  H10F12287   7.924   5.531  13.499
   9123SM  H10G12288   7.794   5.479  13.632
   9123SM  C11F12289   8.041   5.405  13.660
   9123SM  H11F12290   8.161   5.436  13.618
   9123SM  H11G12291   8.011   5.284  13.621
   9123SM  C12F12292   8.059   5.399  13.812
   9123SM  H12F12293   8.108   5.516  13.847
   9123SM  H12G12294   8.150   5.306  13.836
   9123SM  C13F12295   7.902   5.362  13.885
   9123SM  H13F12296   7.861   5.239  13.857
   9123SM  H13G12297   7.810   5.448  13.850
   9123SM  C14F12298   7.910   5.381  14.038
   9123SM  H14F12299   7.991   5.286  14.079
   9123SM  H14G12300   7.788   5.357  14.077
   9123SM  C15F12301   7.967   5.549  14.084
   9123SM  H15F12302   7.906   5.642  14.023
   9123SM  H15G12303   8.098   5.556  14.062
   9123SM  C16F12304   7.943   5.585  14.234
   9123SM  H16F12305   7.819   5.630  14.251
   9123SM  H16G12306   8.026   5.683  14.265
   9123SM  C17F12307   7.972   5.434  14.318
   9123SM  H17F12308   8.092   5.392  14.286
   9123SM  H17G12309   7.883   5.341  14.289
   9123SM  C18F12310   7.972   5.443  14.473
   9123SM  H18F12311   7.888   5.534  14.512
   9123SM  H18G12312   8.089   5.489  14.507
   9123SM  C19F12313   7.926   5.276  14.534
   9123SM  H19F12314   7.993   5.178  14.485
   9123SM  H19G12315   7.800   5.249  14.510
   9123SM  C20F12316   7.950   5.263  14.686
   9123SM  H20F12317   7.897   5.371  14.733
   9123SM  H20G12318   8.078   5.264  14.713
   9123SM  C21F12319   7.871   5.112  14.747
   9123SM  H21F12320   7.943   5.005  14.719
   9123SM  H21G12321   7.748   5.096  14.704
   9123SM  C22F12322   7.854   5.120  14.900
   9123SM  H22F12323   7.973   5.154  14.944
   9123SM  H22G12324   7.823   4.999  14.939
   9123SM  C23F12325   7.727   5.240  14.944
   9123SM  H23F12326   7.758   5.362  14.906
   9123SM  H23G12327   7.718   5.249  15.054
   9123SM  H23H12328   7.607   5.207  14.904
   9223SM     N12329   6.368   1.416  12.182
   9223SM   C1512330   6.270   1.267  12.186
   9223SM  H15A12331   6.182   1.270  12.106
   9223SM  H15B12332   6.205   1.261  12.281
   9223SM  H15C12333   6.344   1.162  12.177
   9223SM   C1412334   6.496   1.402  12.288
   9223SM  H14A12335   6.596   1.482  12.272
   9223SM  H14B12336   6.551   1.283  12.293
   9223SM  H14C12337   6.446   1.432  12.387
   9223SM   C1312338   6.445   1.424  12.047
   9223SM  H13A12339   6.502   1.541  12.031
   9223SM  H13B12340   6.361   1.411  11.965
   9223SM  H13C12341   6.538   1.334  12.039
   9223SM   C1212342   6.259   1.562  12.197
   9223SM  H12A12343   6.186   1.568  12.107
   9223SM  H12B12344   6.328   1.673  12.203
   9223SM   C1112345   6.137   1.565  12.312
   9223SM  H11A12346   6.066   1.452  12.311
   9223SM  H11B12347   6.049   1.664  12.288
   9223SM     P12348   6.095   1.582  12.559
   9223SM   O1312349   5.966   1.700  12.530
   9223SM   O1412350   6.053   1.410  12.572
   9223SM   O1112351   6.192   1.643  12.686
   9223SM   O1212352   6.217   1.590  12.438
   9223SM   C1S12353   6.109   1.698  12.803
   9223SM   H1S12354   5.978   1.722  12.786
   9223SM   H1T12355   6.162   1.813  12.838
   9223SM    NF12356   6.023   1.618  13.030
   9223SM   HNF12357   6.079   1.655  13.112
   9223SM   C2S12358   6.121   1.571  12.917
   9223SM   H2S12359   6.076   1.456  12.877
   9223SM   C3S12360   6.299   1.547  12.961
   9223SM   H3S12361   6.352   1.664  12.990
   9223SM    O312362   6.404   1.474  12.867
   9223SM   HO312363   6.343   1.464  12.786
   9223SM   C4S12364   6.295   1.439  13.083
   9223SM   H4S12365   6.247   1.318  13.064
   9223SM   C5S12366   6.340   1.481  13.208
   9223SM   H5S12367   6.385   1.603  13.225
   9223SM   C6S12368   6.335   1.375  13.330
   9223SM   H6S12369   6.455   1.320  13.347
   9223SM   H6T12370   6.248   1.276  13.318
   9223SM   C7S12371   6.287   1.469  13.457
   9223SM   H7S12372   6.154   1.476  13.462
   9223SM   H7T12373   6.332   1.595  13.453
   9223SM   C8S12374   6.348   1.396  13.590
   9223SM   H8S12375   6.481   1.403  13.591
   9223SM   H8T12376   6.314   1.267  13.596
   9223SM   C9S12377   6.281   1.484  13.712
   9223SM   H9S12378   6.156   1.446  13.735
   9223SM   H9T12379   6.270   1.613  13.682
   9223SM  C10S12380   6.388   1.486  13.837
   9223SM  H10S12381   6.367   1.604  13.883
   9223SM  H10T12382   6.517   1.483  13.811
   9223SM  C11S12383   6.353   1.368  13.953
   9223SM  H11S12384   6.390   1.244  13.927
   9223SM  H11T12385   6.223   1.368  13.977
   9223SM  C12S12386   6.446   1.429  14.075
   9223SM  H12S12387   6.433   1.562  14.080
   9223SM  H12T12388   6.576   1.405  14.064
   9223SM  C13S12389   6.385   1.366  14.209
   9223SM  H13S12390   6.418   1.237  14.221
   9223SM  H13T12391   6.252   1.378  14.214
   9223SM  C14S12392   6.457   1.462  14.324
   9223SM  H14S12393   6.422   1.591  14.316
   9223SM  H14T12394   6.589   1.457  14.316
   9223SM  C15S12395   6.401   1.400  14.460
   9223SM  H15S12396   6.482   1.300  14.490
   9223SM  H15T12397   6.277   1.351  14.451
   9223SM  C16S12398   6.400   1.531  14.567
   9223SM  H16S12399   6.277   1.583  14.566
   9223SM  H16T12400   6.481   1.632  14.540
   9223SM  C17S12401   6.437   1.463  14.706
   9223SM  H17S12402   6.533   1.372  14.695
   9223SM  H17T12403   6.326   1.399  14.740
   9223SM  C18S12404   6.488   1.583  14.813
   9223SM  H18S12405   6.610   1.631  14.793
   9223SM  H18T12406   6.490   1.522  14.911
   9223SM  H18U12407   6.406   1.687  14.818
   9223SM   C1F12408   5.863   1.606  13.026
   9223SM    OF12409   5.795   1.561  12.926
   9223SM   C2F12410   5.778   1.645  13.153
   9223SM   H2F12411   5.646   1.645  13.134
   9223SM   H2G12412   5.813   1.769  13.181
   9223SM   C3F12413   5.818   1.523  13.264
   9223SM   H3F12414   5.944   1.480  13.259
   9223SM   H3G12415   5.738   1.416  13.252
   9223SM   C4F12416   5.796   1.596  13.404
   9223SM   H4F12417   5.819   1.504  13.481
   9223SM   H4G12418   5.670   1.638  13.417
   9223SM   C5F12419   5.914   1.736  13.425
   9223SM   H5F12420   5.864   1.844  13.373
   9223SM   H5G12421   6.031   1.708  13.380
   9223SM   C6F12422   5.939   1.777  13.572
   9223SM   H6F12423   6.011   1.681  13.620
   9223SM   H6G12424   5.820   1.776  13.620
   9223SM   C7F12425   6.019   1.943  13.592
   9223SM   H7F12426   5.989   2.023  13.507
   9223SM   H7G12427   6.151   1.924  13.589
   9223SM   C8F12428   5.971   2.029  13.723
   9223SM   H8F12429   5.860   2.098  13.708
   9223SM   H8G12430   6.064   2.119  13.752
   9223SM   C9F12431   5.946   1.918  13.841
   9223SM   H9F12432   5.885   1.804  13.814
   9223SM   H9G12433   5.874   1.973  13.922
   9223SM  C10F12434   6.110   1.878  13.891
   9223SM  H10F12435   6.172   1.991  13.926
   9223SM  H10G12436   6.176   1.831  13.802
   9223SM  C11F12437   6.112   1.751  13.997
   9223SM  H11F12438   6.240   1.722  14.019
   9223SM  H11G12439   6.054   1.640  13.958
   9223SM  C12F12440   6.038   1.802  14.129
   9223SM  H12F12441   5.905   1.800  14.123
   9223SM  H12G12442   6.078   1.927  14.153
   9223SM  C13F12443   6.103   1.685  14.232
   9223SM  H13F12444   6.236   1.700  14.234
   9223SM  H13G12445   6.077   1.561  14.195
   9223SM  C14F12446   6.037   1.700  14.373
   9223SM  H14F12447   6.097   1.608  14.436
   9223SM  H14G12448   5.908   1.669  14.369
   9223SM  C15F12449   6.059   1.865  14.438
   9223SM  H15F12450   6.006   1.956  14.370
   9223SM  H15G12451   6.187   1.894  14.452
   9223SM  C16F12452   5.971   1.872  14.573
   9223SM  H16F12453   5.855   1.808  14.566
   9223SM  H16G12454   5.946   1.997  14.605
   9223SM  C17F12455   6.071   1.807  14.687
   9223SM  H17F12456   6.176   1.886  14.704
   9223SM  H17G12457   6.113   1.684  14.668
   9223SM  C18F12458   5.964   1.799  14.809
   9223SM  H18F12459   5.848   1.741  14.782
   9223SM  H18G12460   5.936   1.922  14.844
   9223SM  C19F12461   6.047   1.700  14.916
   9223SM  H19F12462   6.179   1.704  14.897
   9223SM  H19G12463   6.010   1.573  14.905
   9223SM  C20F12464   6.017   1.771  15.054
   9223SM  H20F12465   5.887   1.763  15.077
   9223SM  H20G12466   6.048   1.901  15.046
   9223SM  C21F12467   6.116   1.700  15.167
   9223SM  H21F12468   6.140   1.572  15.144
   9223SM  H21G12469   6.052   1.704  15.264
   9223SM  C22F12470   6.277   1.789  15.182
   9223SM  H22F12471   6.318   1.837  15.085
   9223SM  H22G12472   6.355   1.686  15.203
   9223SM  C23F12473   6.295   1.919  15.291
   9223SM  H23F12474   6.296   1.868  15.394
   9223SM  H23G12475   6.202   2.012  15.285
   9223SM  H23H12476   6.412   1.984  15.279
   9323SM     N12477   8.183   4.501  12.214
   9323SM   C1512478   8.083   4.421  12.319
   9323SM  H15A12479   8.135   4.306  12.344
   9323SM  H15B12480   7.961   4.402  12.286
   9323SM  H15C12481   8.080   4.496  12.408
   9323SM   C1412482   8.180   4.406  12.090
   9323SM  H14A12483   8.240   4.294  12.102
   9323SM  H14B12484   8.234   4.469  12.006
   9323SM  H14C12485   8.058   4.379  12.059
   9323SM   C1312486   8.118   4.664  12.189
   9323SM  H13A12487   8.106   4.727  12.284
   9323SM  H13B12488   8.004   4.666  12.138
   9323SM  H13C12489   8.202   4.738  12.131
   9323SM   C1212490   8.353   4.517  12.268
   9323SM  H12A12491   8.423   4.584  12.196
   9323SM  H12B12492   8.406   4.399  12.279
   9323SM   C1112493   8.376   4.600  12.405
   9323SM  H11A12494   8.507   4.609  12.427
   9323SM  H11B12495   8.324   4.518  12.484
   9323SM     P12496   8.240   4.824  12.544
   9323SM   O1312497   8.255   5.002  12.547
   9323SM   O1412498   8.080   4.756  12.571
   9323SM   O1112499   8.368   4.746  12.645
   9323SM   O1212500   8.306   4.757  12.406
   9323SM   C1S12501   8.406   4.832  12.764
   9323SM   H1S12502   8.298   4.894  12.805
   9323SM   H1T12503   8.498   4.925  12.742
   9323SM    NF12504   8.368   4.589  12.904
   9323SM   HNF12505   8.304   4.597  12.987
   9323SM   C2S12506   8.471   4.726  12.881
   9323SM   H2S12507   8.593   4.684  12.856
   9323SM   C3S12508   8.472   4.830  13.010
   9323SM   H3S12509   8.347   4.872  13.029
   9323SM    O312510   8.568   4.972  13.008
   9323SM   HO312511   8.651   4.960  12.941
   9323SM   C4S12512   8.522   4.724  13.126
   9323SM   H4S12513   8.629   4.651  13.107
   9323SM   C5S12514   8.446   4.709  13.246
   9323SM   H5S12515   8.338   4.780  13.267
   9323SM   C6S12516   8.501   4.598  13.357
   9323SM   H6S12517   8.627   4.559  13.343
   9323SM   H6T12518   8.426   4.488  13.353
   9323SM   C7S12519   8.484   4.661  13.502
   9323SM   H7S12520   8.360   4.708  13.518
   9323SM   H7T12521   8.567   4.763  13.521
   9323SM   C8S12522   8.512   4.525  13.603
   9323SM   H8S12523   8.642   4.500  13.610
   9323SM   H8T12524   8.449   4.417  13.566
   9323SM   C9S12525   8.449   4.561  13.744
   9323SM   H9S12526   8.468   4.453  13.808
   9323SM   H9T12527   8.317   4.583  13.741
   9323SM  C10S12528   8.538   4.706  13.800
   9323SM  H10S12529   8.483   4.817  13.758
   9323SM  H10T12530   8.664   4.699  13.761
   9323SM  C11S12531   8.549   4.718  13.952
   9323SM  H11S12532   8.542   4.598  13.998
   9323SM  H11T12533   8.446   4.792  13.988
   9323SM  C12S12534   8.711   4.790  13.996
   9323SM  H12S12535   8.755   4.882  13.924
   9323SM  H12T12536   8.801   4.693  14.001
   9323SM  C13S12537   8.706   4.867  14.133
   9323SM  H13S12538   8.717   4.766  14.207
   9323SM  H13T12539   8.588   4.926  14.145
   9323SM  C14S12540   8.842   4.991  14.154
   9323SM  H14S12541   8.834   5.082  14.074
   9323SM  H14T12542   8.954   4.921  14.138
   9323SM  C15S12543   8.845   5.075  14.291
   9323SM  H15S12544   8.970   5.120  14.307
   9323SM  H15T12545   8.764   5.182  14.296
   9323SM  C16S12546   8.797   4.956  14.401
   9323SM  H16S12547   8.849   4.994  14.498
   9323SM  H16T12548   8.854   4.840  14.377
   9323SM  C17S12549   8.615   4.942  14.422
   9323SM  H17S12550   8.546   4.927  14.328
   9323SM  H17T12551   8.570   5.059  14.458
   9323SM  C18S12552   8.561   4.804  14.511
   9323SM  H18S12553   8.429   4.792  14.505
   9323SM  H18T12554   8.596   4.824  14.616
   9323SM  H18U12555   8.611   4.688  14.475
   9323SM   C1F12556   8.347   4.456  12.834
   9323SM    OF12557   8.440   4.409  12.747
   9323SM   C2F12558   8.209   4.355  12.879
   9323SM   H2F12559   8.248   4.228  12.880
   9323SM   H2G12560   8.111   4.369  12.805
   9323SM   C3F12561   8.147   4.403  13.020
   9323SM   H3F12562   8.108   4.531  13.022
   9323SM   H3G12563   8.240   4.385  13.098
   9323SM   C4F12564   7.997   4.306  13.056
   9323SM   H4F12565   8.032   4.178  13.073
   9323SM   H4G12566   7.918   4.316  12.967
   9323SM   C5F12567   7.898   4.367  13.175
   9323SM   H5F12568   7.770   4.342  13.156
   9323SM   H5G12569   7.910   4.499  13.182
   9323SM   C6F12570   7.940   4.285  13.309
   9323SM   H6F12571   8.009   4.172  13.290
   9323SM   H6G12572   7.828   4.249  13.361
   9323SM   C7F12573   8.035   4.397  13.400
   9323SM   H7F12574   8.138   4.447  13.342
   9323SM   H7G12575   8.087   4.330  13.486
   9323SM   C8F12576   7.931   4.534  13.453
   9323SM   H8F12577   7.850   4.484  13.532
   9323SM   H8G12578   7.852   4.583  13.373
   9323SM   C9F12579   8.030   4.673  13.506
   9323SM   H9F12580   8.104   4.724  13.423
   9323SM   H9G12581   8.117   4.627  13.582
   9323SM  C10F12582   7.927   4.807  13.566
   9323SM  H10F12583   7.838   4.849  13.490
   9323SM  H10G12584   8.006   4.909  13.593
   9323SM  C11F12585   7.836   4.754  13.691
   9323SM  H11F12586   7.747   4.660  13.668
   9323SM  H11G12587   7.768   4.859  13.731
   9323SM  C12F12588   7.949   4.692  13.800
   9323SM  H12F12589   8.054   4.774  13.807
   9323SM  H12G12590   7.997   4.572  13.772
   9323SM  C13F12591   7.861   4.681  13.933
   9323SM  H13F12592   7.910   4.578  13.989
   9323SM  H13G12593   7.733   4.651  13.915
   9323SM  C14F12594   7.874   4.838  14.012
   9323SM  H14F12595   7.789   4.835  14.098
   9323SM  H14G12596   7.838   4.942  13.947
   9323SM  C15F12597   8.044   4.865  14.067
   9323SM  H15F12598   8.053   4.987  14.112
   9323SM  H15G12599   8.137   4.856  13.988
   9323SM  C16F12600   8.074   4.739  14.175
   9323SM  H16F12601   8.056   4.615  14.135
   9323SM  H16G12602   7.980   4.758  14.253
   9323SM  C17F12603   8.239   4.733  14.236
   9323SM  H17F12604   8.274   4.853  14.274
   9323SM  H17G12605   8.330   4.694  14.162
   9323SM  C18F12606   8.232   4.616  14.354
   9323SM  H18F12607   8.356   4.583  14.383
   9323SM  H18G12608   8.168   4.505  14.323
   9323SM  C19F12609   8.142   4.698  14.468
   9323SM  H19F12610   8.010   4.684  14.451
   9323SM  H19G12611   8.166   4.829  14.465
   9323SM  C20F12612   8.183   4.638  14.609
   9323SM  H20F12613   8.303   4.676  14.642
   9323SM  H20G12614   8.186   4.506  14.605
   9323SM  C21F12615   8.058   4.703  14.708
   9323SM  H21F12616   7.948   4.736  14.650
   9323SM  H21G12617   8.105   4.814  14.754
   9323SM  C22F12618   8.005   4.584  14.815
   9323SM  H22F12619   7.909   4.640  14.878
   9323SM  H22G12620   8.108   4.561  14.882
   9323SM  C23F12621   7.939   4.424  14.759
   9323SM  H23F12622   7.907   4.339  14.840
   9323SM  H23G12623   8.029   4.363  14.696
   9323SM  H23H12624   7.830   4.447  14.698
   9423SM     N12625   6.229   8.032  12.197
   9423SM   C1512626   6.062   8.050  12.249
   9423SM  H15A12627   6.061   8.044  12.358
   9423SM  H15B12628   5.981   7.961  12.209
   9423SM  H15C12629   6.013   8.167  12.226
   9423SM   C1412630   6.281   7.865  12.229
   9423SM  H14A12631   6.179   7.784  12.227
   9423SM  H14B12632   6.323   7.858  12.333
   9423SM  H14C12633   6.376   7.820  12.166
   9423SM   C1312634   6.223   8.054  12.048
   9423SM  H13A12635   6.174   8.172  12.024
   9423SM  H13B12636   6.140   7.968  12.004
   9423SM  H13C12637   6.338   8.041  11.999
   9423SM   C1212638   6.337   8.150  12.270
   9423SM  H12A12639   6.293   8.270  12.252
   9423SM  H12B12640   6.456   8.142  12.229
   9423SM   C1112641   6.356   8.130  12.425
   9423SM  H11A12642   6.235   8.144  12.472
   9423SM  H11B12643   6.431   8.230  12.464
   9423SM     P12644   6.581   7.943  12.539
   9423SM   O1312645   6.659   7.800  12.479
   9423SM   O1412646   6.678   8.090  12.538
   9423SM   O1112647   6.518   7.903  12.685
   9423SM   O1212648   6.420   7.976  12.460
   9423SM   C1S12649   6.350   7.897  12.715
   9423SM   H1S12650   6.292   7.793  12.664
   9423SM   H1T12651   6.287   8.005  12.678
   9423SM    NF12652   6.367   8.028  12.937
   9423SM   HNF12653   6.472   8.022  12.983
   9423SM   C2S12654   6.314   7.884  12.868
   9423SM   H2S12655   6.182   7.873  12.882
   9423SM   C3S12656   6.395   7.730  12.928
   9423SM   H3S12657   6.527   7.740  12.918
   9423SM    O312658   6.346   7.584  12.863
   9423SM   HO312659   6.282   7.618  12.788
   9423SM   C4S12660   6.350   7.716  13.073
   9423SM   H4S12661   6.224   7.686  13.093
   9423SM   C5S12662   6.454   7.732  13.177
   9423SM   H5S12663   6.581   7.752  13.156
   9423SM   C6S12664   6.407   7.717  13.322
   9423SM   H6S12665   6.296   7.789  13.343
   9423SM   H6T12666   6.503   7.769  13.387
   9423SM   C7S12667   6.376   7.543  13.368
   9423SM   H7S12668   6.486   7.469  13.363
   9423SM   H7T12669   6.286   7.488  13.299
   9423SM   C8S12670   6.304   7.534  13.509
   9423SM   H8S12671   6.227   7.424  13.518
   9423SM   H8T12672   6.226   7.640  13.524
   9423SM   C9S12673   6.422   7.534  13.624
   9423SM   H9S12674   6.509   7.634  13.613
   9423SM   H9T12675   6.492   7.420  13.625
   9423SM  C10S12676   6.329   7.554  13.755
   9423SM  H10S12677   6.245   7.450  13.766
   9423SM  H10T12678   6.254   7.664  13.749
   9423SM  C11S12679   6.433   7.565  13.878
   9423SM  H11S12680   6.509   7.675  13.874
   9423SM  H11T12681   6.515   7.459  13.881
   9423SM  C12S12682   6.332   7.566  14.006
   9423SM  H12S12683   6.260   7.454  14.011
   9423SM  H12T12684   6.250   7.670  14.008
   9423SM  C13S12685   6.449   7.576  14.122
   9423SM  H13S12686   6.503   7.698  14.121
   9423SM  H13T12687   6.546   7.486  14.107
   9423SM  C14S12688   6.382   7.550  14.261
   9423SM  H14S12689   6.329   7.429  14.273
   9423SM  H14T12690   6.289   7.643  14.284
   9423SM  C15S12691   6.524   7.562  14.356
   9423SM  H15S12692   6.590   7.678  14.339
   9423SM  H15T12693   6.607   7.462  14.333
   9423SM  C16S12694   6.474   7.552  14.500
   9423SM  H16S12695   6.383   7.454  14.511
   9423SM  H16T12696   6.418   7.667  14.530
   9423SM  C17S12697   6.613   7.517  14.591
   9423SM  H17S12698   6.716   7.598  14.570
   9423SM  H17T12699   6.654   7.392  14.574
   9423SM  C18S12700   6.556   7.538  14.733
   9423SM  H18S12701   6.646   7.507  14.809
   9423SM  H18T12702   6.448   7.463  14.744
   9423SM  H18U12703   6.514   7.662  14.751
   9423SM   C1F12704   6.301   8.170  12.907
   9423SM    OF12705   6.170   8.177  12.854
   9423SM   C2F12706   6.402   8.316  12.931
   9423SM   H2F12707   6.389   8.394  12.841
   9423SM   H2G12708   6.530   8.285  12.941
   9423SM   C3F12709   6.346   8.416  13.053
   9423SM   H3F12710   6.212   8.410  13.062
   9423SM   H3G12711   6.380   8.543  13.032
   9423SM   C4F12712   6.425   8.369  13.186
   9423SM   H4F12713   6.557   8.353  13.173
   9423SM   H4G12714   6.376   8.252  13.223
   9423SM   C5F12715   6.398   8.497  13.293
   9423SM   H5F12716   6.268   8.495  13.316
   9423SM   H5G12717   6.425   8.620  13.256
   9423SM   C6F12718   6.493   8.462  13.421
   9423SM   H6F12719   6.588   8.555  13.438
   9423SM   H6G12720   6.557   8.347  13.408
   9423SM   C7F12721   6.373   8.456  13.536
   9423SM   H7F12722   6.259   8.405  13.496
   9423SM   H7G12723   6.346   8.581  13.571
   9423SM   C8F12724   6.408   8.352  13.658
   9423SM   H8F12725   6.290   8.296  13.683
   9423SM   H8G12726   6.439   8.432  13.742
   9423SM   C9F12727   6.528   8.214  13.647
   9423SM   H9F12728   6.650   8.268  13.640
   9423SM   H9G12729   6.506   8.143  13.555
   9423SM  C10F12730   6.520   8.105  13.772
   9423SM  H10F12731   6.612   8.010  13.766
   9423SM  H10G12732   6.401   8.042  13.773
   9423SM  C11F12733   6.539   8.196  13.905
   9423SM  H11F12734   6.456   8.300  13.911
   9423SM  H11G12735   6.664   8.243  13.910
   9423SM  C12F12736   6.502   8.095  14.030
   9423SM  H12F12737   6.547   7.972  14.016
   9423SM  H12G12738   6.370   8.087  14.044
   9423SM  C13F12739   6.580   8.171  14.153
   9423SM  H13F12740   6.517   8.282  14.183
   9423SM  H13G12741   6.703   8.208  14.123
   9423SM  C14F12742   6.599   8.056  14.270
   9423SM  H14F12743   6.652   7.942  14.232
   9423SM  H14G12744   6.482   8.026  14.318
   9423SM  C15F12745   6.716   8.129  14.370
   9423SM  H15F12746   6.658   8.226  14.428
   9423SM  H15G12747   6.816   8.185  14.312
   9423SM  C16F12748   6.794   8.004  14.462
   9423SM  H16F12749   6.926   8.014  14.445
   9423SM  H16G12750   6.757   7.880  14.435
   9423SM  C17F12751   6.766   8.038  14.610
   9423SM  H17F12752   6.760   8.170  14.621
   9423SM  H17G12753   6.869   7.992  14.668
   9423SM  C18F12754   6.614   7.962  14.668
   9423SM  H18F12755   6.624   7.832  14.650
   9423SM  H18G12756   6.505   8.004  14.613
   9423SM  C19F12757   6.594   7.999  14.818
   9423SM  H19F12758   6.702   7.973  14.877
   9423SM  H19G12759   6.497   7.919  14.853
   9423SM  C20F12760   6.539   8.173  14.837
   9423SM  H20F12761   6.406   8.168  14.842
   9423SM  H20G12762   6.566   8.238  14.742
   9423SM  C21F12763   6.608   8.276  14.952
   9423SM  H21F12764   6.740   8.281  14.946
   9423SM  H21G12765   6.586   8.224  15.051
   9423SM  C22F12766   6.540   8.448  14.938
   9423SM  H22F12767   6.415   8.448  14.975
   9423SM  H22G12768   6.536   8.473  14.828
   9423SM  C23F12769   6.624   8.592  15.003
   9423SM  H23F12770   6.571   8.705  14.963
   9423SM  H23G12771   6.754   8.594  14.980
   9423SM  H23H12772   6.610   8.593  15.113
   9523SM     N12773   1.397   2.034  12.165
   9523SM   C1512774   1.235   2.108  12.144
   9523SM  H15A12775   1.243   2.238  12.139
   9523SM  H15B12776   1.152   2.077  12.223
   9523SM  H15C12777   1.187   2.069  12.049
   9523SM   C1412778   1.385   1.856  12.153
   9523SM  H14A12779   1.502   1.804  12.167
   9523SM  H14B12780   1.343   1.825  12.053
   9523SM  H14C12781   1.300   1.812  12.226
   9523SM   C1312782   1.506   2.090  12.057
   9523SM  H13A12783   1.616   2.022  12.051
   9523SM  H13B12784   1.540   2.215  12.071
   9523SM  H13C12785   1.444   2.083  11.962
   9523SM   C1212786   1.462   2.081  12.298
   9523SM  H12A12787   1.468   2.212  12.305
   9523SM  H12B12788   1.585   2.041  12.311
   9523SM   C1112789   1.370   2.022  12.421
   9523SM  H11A12790   1.394   1.892  12.441
   9523SM  H11B12791   1.238   2.038  12.410
   9523SM     P12792   1.596   2.114  12.588
   9523SM   O1312793   1.711   2.111  12.474
   9523SM   O1412794   1.609   2.251  12.682
   9523SM   O1112795   1.594   1.945  12.662
   9523SM   O1212796   1.422   2.119  12.527
   9523SM   C1S12797   1.699   1.902  12.769
   9523SM   H1S12798   1.788   2.000  12.791
   9523SM   H1T12799   1.771   1.795  12.740
   9523SM    NF12800   1.714   1.818  13.013
   9523SM   HNF12801   1.691   1.721  13.068
   9523SM   C2S12802   1.607   1.861  12.902
   9523SM   H2S12803   1.541   1.973  12.929
   9523SM   C3S12804   1.481   1.724  12.886
   9523SM   H3S12805   1.544   1.608  12.878
   9523SM    O312806   1.381   1.733  12.770
   9523SM   HO312807   1.434   1.811  12.714
   9523SM   C4S12808   1.376   1.722  13.010
   9523SM   H4S12809   1.300   1.828  13.021
   9523SM   C5S12810   1.375   1.609  13.108
   9523SM   H5S12811   1.459   1.507  13.101
   9523SM   C6S12812   1.271   1.610  13.232
   9523SM   H6S12813   1.223   1.487  13.249
   9523SM   H6T12814   1.165   1.691  13.219
   9523SM   C7S12815   1.355   1.662  13.363
   9523SM   H7S12816   1.394   1.789  13.356
   9523SM   H7T12817   1.466   1.590  13.373
   9523SM   C8S12818   1.248   1.642  13.488
   9523SM   H8S12819   1.212   1.513  13.497
   9523SM   H8T12820   1.138   1.714  13.475
   9523SM   C9S12821   1.328   1.692  13.620
   9523SM   H9S12822   1.394   1.806  13.607
   9523SM   H9T12823   1.420   1.598  13.644
   9523SM  C10S12824   1.216   1.708  13.742
   9523SM  H10S12825   1.115   1.620  13.734
   9523SM  H10T12826   1.165   1.831  13.745
   9523SM  C11S12827   1.312   1.672  13.869
   9523SM  H11S12828   1.429   1.735  13.861
   9523SM  H11T12829   1.334   1.541  13.869
   9523SM  C12S12830   1.241   1.714  14.005
   9523SM  H12S12831   1.122   1.656  14.019
   9523SM  H12T12832   1.226   1.846  14.014
   9523SM  C13S12833   1.358   1.655  14.113
   9523SM  H13S12834   1.469   1.729  14.108
   9523SM  H13T12835   1.393   1.528  14.093
   9523SM  C14S12836   1.290   1.663  14.255
   9523SM  H14S12837   1.195   1.571  14.269
   9523SM  H14T12838   1.234   1.783  14.269
   9523SM  C15S12839   1.421   1.643  14.361
   9523SM  H15S12840   1.372   1.694  14.454
   9523SM  H15T12841   1.529   1.715  14.334
   9523SM  C16S12842   1.470   1.468  14.384
   9523SM  H16S12843   1.538   1.421  14.298
   9523SM  H16T12844   1.361   1.391  14.395
   9523SM  C17S12845   1.576   1.445  14.507
   9523SM  H17S12846   1.692   1.508  14.492
   9523SM  H17T12847   1.602   1.314  14.518
   9523SM  C18S12848   1.499   1.504  14.635
   9523SM  H18S12849   1.398   1.423  14.660
   9523SM  H18T12850   1.452   1.628  14.630
   9523SM  H18U12851   1.588   1.504  14.718
   9523SM   C1F12852   1.817   1.924  13.061
   9523SM    OF12853   1.813   2.064  13.027
   9523SM   C2F12854   1.942   1.871  13.155
   9523SM   H2F12855   1.996   1.981  13.199
   9523SM   H2G12856   2.036   1.807  13.098
   9523SM   C3F12857   1.886   1.763  13.269
   9523SM   H3F12858   1.854   1.639  13.235
   9523SM   H3G12859   1.782   1.813  13.325
   9523SM   C4F12860   2.034   1.758  13.358
   9523SM   H4F12861   2.062   1.883  13.391
   9523SM   H4G12862   2.140   1.712  13.301
   9523SM   C5F12863   2.011   1.657  13.480
   9523SM   H5F12864   2.004   1.528  13.451
   9523SM   H5G12865   1.896   1.690  13.530
   9523SM   C6F12866   2.150   1.685  13.575
   9523SM   H6F12867   2.159   1.812  13.607
   9523SM   H6G12868   2.267   1.648  13.529
   9523SM   C7F12869   2.106   1.579  13.690
   9523SM   H7F12870   2.105   1.451  13.657
   9523SM   H7G12871   1.979   1.612  13.716
   9523SM   C8F12872   2.202   1.597  13.816
   9523SM   H8F12873   2.224   1.724  13.844
   9523SM   H8G12874   2.318   1.535  13.814
   9523SM   C9F12875   2.105   1.510  13.919
   9523SM   H9F12876   2.194   1.438  13.976
   9523SM   H9G12877   2.027   1.422  13.866
   9523SM  C10F12878   2.015   1.622  14.012
   9523SM  H10F12879   1.889   1.650  13.985
   9523SM  H10G12880   2.074   1.742  14.008
   9523SM  C11F12881   2.027   1.553  14.151
   9523SM  H11F12882   2.074   1.428  14.150
   9523SM  H11G12883   1.907   1.547  14.199
   9523SM  C12F12884   2.134   1.663  14.231
   9523SM  H12F12885   2.230   1.712  14.166
   9523SM  H12G12886   2.194   1.609  14.318
   9523SM  C13F12887   2.021   1.790  14.281
   9523SM  H13F12888   1.934   1.738  14.355
   9523SM  H13G12889   1.948   1.837  14.196
   9523SM  C14F12890   2.112   1.926  14.342
   9523SM  H14F12891   2.216   1.958  14.278
   9523SM  H14G12892   2.160   1.891  14.442
   9523SM  C15F12893   1.999   2.069  14.348
   9523SM  H15F12894   1.961   2.100  14.245
   9523SM  H15G12895   2.076   2.162  14.392
   9523SM  C16F12896   1.854   2.050  14.438
   9523SM  H16F12897   1.786   1.939  14.415
   9523SM  H16G12898   1.770   2.153  14.423
   9523SM  C17F12899   1.914   2.050  14.581
   9523SM  H17F12900   1.970   2.167  14.605
   9523SM  H17G12901   2.008   1.955  14.592
   9523SM  C18F12902   1.784   2.010  14.682
   9523SM  H18F12903   1.853   1.973  14.772
   9523SM  H18G12904   1.710   1.908  14.648
   9523SM  C19F12905   1.679   2.155  14.714
   9523SM  H19F12906   1.606   2.190  14.626
   9523SM  H19G12907   1.758   2.258  14.737
   9523SM  C20F12908   1.570   2.119  14.834
   9523SM  H20F12909   1.487   2.020  14.806
   9523SM  H20G12910   1.496   2.227  14.858
   9523SM  C21F12911   1.664   2.068  14.958
   9523SM  H21F12912   1.756   2.160  14.984
   9523SM  H21G12913   1.730   1.955  14.940
   9523SM  C22F12914   1.555   2.035  15.077
   9523SM  H22F12915   1.468   1.940  15.046
   9523SM  H22G12916   1.487   2.146  15.103
   9523SM  C23F12917   1.652   1.975  15.197
   9523SM  H23F12918   1.573   1.916  15.272
   9523SM  H23G12919   1.716   2.076  15.245
   9523SM  H23H12920   1.745   1.888  15.162
   9623SM     N12921   3.148   9.652  12.247
   9623SM   C1512922   3.299   9.730  12.198
   9623SM  H15A12923   3.307   9.722  12.091
   9623SM  H15B12924   3.403   9.671  12.242
   9623SM  H15C12925   3.304   9.854  12.226
   9623SM   C1412926   3.006   9.734  12.188
   9623SM  H14A12927   2.894   9.678  12.214
   9623SM  H14B12928   3.016   9.742  12.079
   9623SM  H14C12929   3.000   9.859  12.221
   9623SM   C1312930   3.152   9.476  12.214
   9623SM  H13A12931   3.253   9.426  12.271
   9623SM  H13B12932   3.173   9.456  12.110
   9623SM  H13C12933   3.049   9.412  12.250
   9623SM   C1212934   3.140   9.659  12.398
   9623SM  H12A12935   3.050   9.572  12.429
   9623SM  H12B12936   3.097   9.776  12.430
   9623SM   C1112937   3.296   9.625  12.477
   9623SM  H11A12938   3.253   9.601  12.581
   9623SM  H11B12939   3.371   9.736  12.480
   9623SM     P12940   3.445   9.346  12.498
   9623SM   O1312941   3.328   9.217  12.468
   9623SM   O1412942   3.618   9.313  12.478
   9623SM   O1112943   3.424   9.404  12.645
   9623SM   O1212944   3.389   9.499  12.421
   9623SM   C1S12945   3.344   9.306  12.741
   9623SM   H1S12946   3.392   9.182  12.737
   9623SM   H1T12947   3.214   9.301  12.721
   9623SM    NF12948   3.310   9.270  12.988
   9623SM   HNF12949   3.215   9.311  13.039
   9623SM   C2S12950   3.368   9.377  12.883
   9623SM   H2S12951   3.499   9.398  12.898
   9623SM   C3S12952   3.282   9.544  12.886
   9623SM   H3S12953   3.160   9.534  12.845
   9623SM    O312954   3.356   9.660  12.805
   9623SM   HO312955   3.421   9.599  12.743
   9623SM   C4S12956   3.276   9.601  13.027
   9623SM   H4S12957   3.385   9.662  13.062
   9623SM   C5S12958   3.148   9.583  13.108
   9623SM   H5S12959   3.041   9.520  13.072
   9623SM   C6S12960   3.140   9.637  13.252
   9623SM   H6S12961   3.054   9.737  13.266
   9623SM   H6T12962   3.259   9.678  13.287
   9623SM   C7S12963   3.089   9.490  13.335
   9623SM   H7S12964   3.156   9.382  13.299
   9623SM   H7T12965   2.958   9.463  13.318
   9623SM   C8S12966   3.122   9.499  13.485
   9623SM   H8S12967   3.250   9.533  13.501
   9623SM   H8T12968   3.104   9.379  13.529
   9623SM   C9S12969   3.012   9.613  13.564
   9623SM   H9S12970   2.894   9.553  13.583
   9623SM   H9T12971   2.989   9.720  13.501
   9623SM  C10S12972   3.090   9.670  13.696
   9623SM  H10S12973   3.018   9.772  13.732
   9623SM  H10T12974   3.214   9.714  13.675
   9623SM  C11S12975   3.095   9.546  13.809
   9623SM  H11S12976   3.164   9.442  13.775
   9623SM  H11T12977   2.969   9.506  13.823
   9623SM  C12S12978   3.164   9.610  13.943
   9623SM  H12S12979   3.139   9.739  13.953
   9623SM  H12T12980   3.298   9.595  13.942
   9623SM  C13S12981   3.092   9.521  14.064
   9623SM  H13S12982   3.160   9.408  14.082
   9623SM  H13T12983   2.965   9.494  14.037
   9623SM  C14S12984   3.078   9.599  14.202
   9623SM  H14S12985   2.996   9.704  14.197
   9623SM  H14T12986   3.196   9.636  14.243
   9623SM  C15S12987   3.000   9.480  14.299
   9623SM  H15S12988   3.068   9.366  14.315
   9623SM  H15T12989   2.885   9.452  14.247
   9623SM  C16S12990   2.969   9.570  14.428
   9623SM  H16S12991   2.904   9.677  14.390
   9623SM  H16T12992   3.086   9.607  14.471
   9623SM  C17S12993   2.864   9.499  14.539
   9623SM  H17S12994   2.746   9.467  14.495
   9623SM  H17T12995   2.840   9.595  14.614
   9623SM  C18S12996   2.944   9.361  14.614
   9623SM  H18S12997   2.880   9.332  14.709
   9623SM  H18T12998   3.072   9.385  14.632
   9623SM  H18U12999   2.944   9.251  14.556
   9623SM   C1F13000   3.364   9.122  13.012
   9623SM    OF13001   3.448   9.050  12.931
   9623SM   C2F13002   3.302   9.040  13.136
   9623SM   H2F13003   3.220   8.944  13.102
   9623SM   H2G13004   3.233   9.125  13.198
   9623SM   C3F13005   3.439   8.964  13.221
   9623SM   H3F13006   3.497   9.056  13.284
   9623SM   H3G13007   3.535   8.921  13.152
   9623SM   C4F13008   3.388   8.818  13.305
   9623SM   H4F13009   3.460   8.713  13.272
   9623SM   H4G13010   3.259   8.790  13.286
   9623SM   C5F13011   3.420   8.827  13.457
   9623SM   H5F13012   3.388   8.948  13.496
   9623SM   H5G13013   3.551   8.813  13.474
   9623SM   C6F13014   3.325   8.690  13.526
   9623SM   H6F13015   3.370   8.574  13.487
   9623SM   H6G13016   3.198   8.705  13.496
   9623SM   C7F13017   3.330   8.682  13.680
   9623SM   H7F13018   3.349   8.804  13.722
   9623SM   H7G13019   3.436   8.610  13.712
   9623SM   C8F13020   3.174   8.615  13.741
   9623SM   H8F13021   3.145   8.494  13.701
   9623SM   H8G13022   3.073   8.694  13.713
   9623SM   C9F13023   3.186   8.615  13.895
   9623SM   H9F13024   3.278   8.708  13.916
   9623SM   H9G13025   3.235   8.498  13.929
   9623SM  C10F13026   3.036   8.664  13.976
   9623SM  H10F13027   2.970   8.556  14.011
   9623SM  H10G13028   2.952   8.729  13.907
   9623SM  C11F13029   3.073   8.780  14.094
   9623SM  H11F13030   3.011   8.892  14.073
   9623SM  H11G13031   3.203   8.812  14.096
   9623SM  C12F13032   3.022   8.723  14.235
   9623SM  H12F13033   3.065   8.598  14.247
   9623SM  H12G13034   2.890   8.716  14.236
   9623SM  C13F13035   3.082   8.826  14.356
   9623SM  H13F13036   3.066   8.956  14.342
   9623SM  H13G13037   3.212   8.820  14.363
   9623SM  C14F13038   3.006   8.785  14.494
   9623SM  H14F13039   2.964   8.658  14.496
   9623SM  H14G13040   2.896   8.860  14.504
   9623SM  C15F13041   3.116   8.813  14.616
   9623SM  H15F13042   3.238   8.848  14.583
   9623SM  H15G13043   3.128   8.699  14.673
   9623SM  C16F13044   3.050   8.944  14.710
   9623SM  H16F13045   2.938   8.898  14.757
   9623SM  H16G13046   3.017   9.048  14.648
   9623SM  C17F13047   3.160   9.001  14.824
   9623SM  H17F13048   3.212   8.899  14.880
   9623SM  H17G13049   3.080   9.067  14.894
   9623SM  C18F13050   3.294   9.119  14.783
   9623SM  H18F13051   3.245   9.216  14.718
   9623SM  H18G13052   3.383   9.054  14.722
   9623SM  C19F13053   3.374   9.194  14.906
   9623SM  H19F13054   3.480   9.269  14.877
   9623SM  H19G13055   3.420   9.097  14.972
   9623SM  C20F13056   3.266   9.307  14.987
   9623SM  H20F13057   3.335   9.340  15.078
   9623SM  H20G13058   3.157   9.245  15.020
   9623SM  C21F13059   3.220   9.462  14.914
   9623SM  H21F13060   3.181   9.436  14.810
   9623SM  H21G13061   3.328   9.539  14.906
   9623SM  C22F13062   3.082   9.552  14.983
   9623SM  H22F13063   2.968   9.488  14.958
   9623SM  H22G13064   3.072   9.676  14.941
   9623SM  C23F13065   3.095   9.560  15.136
   9623SM  H23F13066   3.216   9.526  15.170
   9623SM  H23G13067   3.008   9.474  15.182
   9623SM  H23H13068   3.070   9.683  15.175
   9723SM     N13069   5.130  -0.133  12.204
   9723SM   C1513070   4.957  -0.092  12.220
   9723SM  H15A13071   4.900  -0.048  12.131
   9723SM  H15B13072   4.946  -0.001  12.298
   9723SM  H15C13073   4.892  -0.199  12.253
   9723SM   C1413074   5.143  -0.272  12.113
   9723SM  H14A13075   5.082  -0.377  12.153
   9723SM  H14B13076   5.268  -0.308  12.096
   9723SM  H14C13077   5.094  -0.246  12.015
   9723SM   C1313078   5.209   0.016  12.153
   9723SM  H13A13079   5.165   0.054  12.057
   9723SM  H13B13080   5.339   0.005  12.148
   9723SM  H13C13081   5.186   0.113  12.224
   9723SM   C1213082   5.198  -0.176  12.341
   9723SM  H12A13083   5.327  -0.146  12.347
   9723SM  H12B13084   5.191  -0.306  12.354
   9723SM   C1113085   5.113  -0.103  12.464
   9723SM  H11A13086   5.178  -0.138  12.558
   9723SM  H11B13087   4.994  -0.163  12.471
   9723SM     P13088   5.218   0.187  12.507
   9723SM   O1313089   5.375   0.142  12.450
   9723SM   O1413090   5.160   0.353  12.480
   9723SM   O1113091   5.207   0.146  12.666
   9723SM   O1213092   5.088   0.066  12.453
   9723SM   C1S13093   5.045   0.156  12.719
   9723SM   H1S13094   4.973   0.055  12.681
   9723SM   H1T13095   4.984   0.270  12.689
   9723SM    NF13096   5.087   0.293  12.939
   9723SM   HNF13097   5.192   0.284  12.983
   9723SM   C2S13098   5.030   0.145  12.875
   9723SM   H2S13099   4.900   0.131  12.898
   9723SM   C3S13100   5.120  -0.002  12.932
   9723SM   H3S13101   5.251   0.008  12.913
   9723SM    O313102   5.070  -0.154  12.878
   9723SM   HO313103   5.004  -0.127  12.803
   9723SM   C4S13104   5.089   0.000  13.081
   9723SM   H4S13105   4.972  -0.050  13.109
   9723SM   C5S13106   5.190   0.058  13.175
   9723SM   H5S13107   5.308   0.103  13.142
   9723SM   C6S13108   5.161   0.064  13.324
   9723SM   H6S13109   5.089  -0.040  13.359
   9723SM   H6T13110   5.094   0.174  13.350
   9723SM   C7S13111   5.321   0.068  13.402
   9723SM   H7S13112   5.401   0.166  13.367
   9723SM   H7T13113   5.384  -0.048  13.382
   9723SM   C8S13114   5.303   0.083  13.555
   9723SM   H8S13115   5.399   0.005  13.596
   9723SM   H8T13116   5.188   0.030  13.589
   9723SM   C9S13117   5.328   0.250  13.617
   9723SM   H9S13118   5.216   0.323  13.602
   9723SM   H9T13119   5.429   0.313  13.568
   9723SM  C10S13120   5.365   0.236  13.768
   9723SM  H10S13121   5.484   0.179  13.782
   9723SM  H10T13122   5.272   0.156  13.812
   9723SM  C11S13123   5.368   0.394  13.847
   9723SM  H11S13124   5.291   0.481  13.793
   9723SM  H11T13125   5.490   0.444  13.850
   9723SM  C12S13126   5.299   0.374  13.989
   9723SM  H12S13127   5.188   0.301  13.987
   9723SM  H12T13128   5.264   0.497  14.026
   9723SM  C13S13129   5.416   0.302  14.091
   9723SM  H13S13130   5.533   0.366  14.081
   9723SM  H13T13131   5.436   0.173  14.070
   9723SM  C14S13132   5.356   0.325  14.236
   9723SM  H14S13133   5.254   0.242  14.256
   9723SM  H14T13134   5.310   0.450  14.247
   9723SM  C15S13135   5.488   0.298  14.340
   9723SM  H15S13136   5.596   0.365  14.307
   9723SM  H15T13137   5.519   0.168  14.344
   9723SM  C16S13138   5.442   0.358  14.479
   9723SM  H16S13139   5.340   0.287  14.520
   9723SM  H16T13140   5.404   0.485  14.473
   9723SM  C17S13141   5.585   0.344  14.575
   9723SM  H17S13142   5.690   0.402  14.527
   9723SM  H17T13143   5.614   0.215  14.592
   9723SM  C18S13144   5.555   0.425  14.709
   9723SM  H18S13145   5.496   0.542  14.691
   9723SM  H18T13146   5.670   0.445  14.763
   9723SM  H18U13147   5.473   0.353  14.774
   9723SM   C1F13148   4.999   0.427  12.935
   9723SM    OF13149   4.872   0.436  12.876
   9723SM   C2F13150   5.065   0.569  13.008
   9723SM   H2F13151   5.014   0.677  12.961
   9723SM   H2G13152   5.197   0.571  12.997
   9723SM   C3F13153   5.016   0.559  13.156
   9723SM   H3F13154   5.052   0.442  13.198
   9723SM   H3G13155   4.883   0.565  13.164
   9723SM   C4F13156   5.088   0.694  13.244
   9723SM   H4F13157   5.018   0.805  13.232
   9723SM   H4G13158   5.213   0.718  13.213
   9723SM   C5F13159   5.084   0.648  13.392
   9723SM   H5F13160   5.153   0.737  13.453
   9723SM   H5G13161   5.142   0.529  13.406
   9723SM   C6F13162   4.913   0.640  13.447
   9723SM   H6F13163   4.825   0.601  13.370
   9723SM   H6G13164   4.876   0.761  13.481
   9723SM   C7F13165   4.901   0.522  13.564
   9723SM   H7F13166   4.949   0.403  13.535
   9723SM   H7G13167   4.771   0.508  13.587
   9723SM   C8F13168   4.990   0.582  13.687
   9723SM   H8F13169   4.943   0.702  13.716
   9723SM   H8G13170   5.119   0.598  13.664
   9723SM   C9F13171   4.973   0.468  13.806
   9723SM   H9F13172   5.030   0.527  13.893
   9723SM   H9G13173   5.040   0.355  13.784
   9723SM  C10F13174   4.800   0.421  13.840
   9723SM  H10F13175   4.746   0.355  13.754
   9723SM  H10G13176   4.726   0.530  13.858
   9723SM  C11F13177   4.794   0.310  13.961
   9723SM  H11F13178   4.882   0.211  13.945
   9723SM  H11G13179   4.673   0.256  13.970
   9723SM  C12F13180   4.835   0.397  14.091
   9723SM  H12F13181   4.728   0.470  14.120
   9723SM  H12G13182   4.936   0.484  14.078
   9723SM  C13F13183   4.880   0.282  14.203
   9723SM  H13F13184   5.008   0.247  14.192
   9723SM  H13G13185   4.807   0.170  14.192
   9723SM  C14F13186   4.847   0.354  14.340
   9723SM  H14F13187   4.723   0.406  14.338
   9723SM  H14G13188   4.932   0.455  14.361
   9723SM  C15F13189   4.852   0.228  14.452
   9723SM  H15F13190   4.787   0.119  14.420
   9723SM  H15G13191   4.786   0.280  14.538
   9723SM  C16F13192   5.021   0.185  14.500
   9723SM  H16F13193   5.084   0.298  14.528
   9723SM  H16G13194   5.089   0.128  14.417
   9723SM  C17F13195   5.018   0.072  14.621
   9723SM  H17F13196   4.956  -0.041  14.592
   9723SM  H17G13197   4.946   0.127  14.702
   9723SM  C18F13198   5.186   0.031  14.675
   9723SM  H18F13199   5.243   0.142  14.715
   9723SM  H18G13200   5.258  -0.007  14.587
   9723SM  C19F13201   5.191  -0.106  14.779
   9723SM  H19F13202   5.306  -0.169  14.762
   9723SM  H19G13203   5.093  -0.193  14.762
   9723SM  C20F13204   5.194  -0.052  14.927
   9723SM  H20F13205   5.252   0.067  14.934
   9723SM  H20G13206   5.272  -0.136  14.985
   9723SM  C21F13207   5.028  -0.054  14.994
   9723SM  H21F13208   5.017  -0.160  15.062
   9723SM  H21G13209   4.936  -0.068  14.915
   9723SM  C22F13210   4.986   0.097  15.074
   9723SM  H22F13211   5.056   0.097  15.169
   9723SM  H22G13212   4.858   0.096  15.102
   9723SM  C23F13213   5.022   0.247  14.995
   9723SM  H23F13214   5.134   0.306  15.033
   9723SM  H23G13215   4.921   0.334  15.000
   9723SM  H23H13216   5.041   0.220  14.888
   9823SM     N13217   7.860   8.986  12.303
   9823SM   C1513218   7.884   9.156  12.341
   9823SM  H15A13219   7.794   9.197  12.412
   9823SM  H15B13220   7.873   9.235  12.256
   9823SM  H15C13221   8.003   9.175  12.383
   9823SM   C1413222   7.693   8.966  12.249
   9823SM  H14A13223   7.682   9.029  12.154
   9823SM  H14B13224   7.604   9.016  12.317
   9823SM  H14C13225   7.663   8.840  12.233
   9823SM   C1313226   7.979   8.940  12.198
   9823SM  H13A13227   7.975   9.017  12.111
   9823SM  H13B13228   7.961   8.816  12.164
   9823SM  H13C13229   8.100   8.940  12.240
   9823SM   C1213230   7.886   8.881  12.426
   9823SM  H12A13231   7.858   8.756  12.401
   9823SM  H12B13232   7.807   8.916  12.506
   9823SM   C1113233   8.060   8.874  12.482
   9823SM  H11A13234   8.057   8.822  12.584
   9823SM  H11B13235   8.108   8.998  12.494
   9823SM     P13236   8.142   8.600  12.373
   9823SM   O1313237   7.976   8.574  12.320
   9823SM   O1413238   8.275   8.546  12.287
   9823SM   O1113239   8.154   8.525  12.520
   9823SM   O1213240   8.167   8.786  12.397
   9823SM   C1S13241   8.298   8.556  12.595
   9823SM   H1S13242   8.378   8.645  12.545
   9823SM   H1T13243   8.369   8.443  12.603
   9823SM    NF13244   8.411   8.689  12.790
   9823SM   HNF13245   8.465   8.633  12.863
   9823SM   C2S13246   8.264   8.620  12.740
   9823SM   H2S13247   8.172   8.716  12.738
   9823SM   C3S13248   8.201   8.474  12.826
   9823SM   H3S13249   8.284   8.372  12.814
   9823SM    O313250   8.045   8.424  12.785
   9823SM   HO313251   8.030   8.470  12.697
   9823SM   C4S13252   8.182   8.513  12.975
   9823SM   H4S13253   8.122   8.627  12.997
   9823SM   C5S13254   8.230   8.416  13.077
   9823SM   H5S13255   8.276   8.298  13.050
   9823SM   C6S13256   8.209   8.443  13.227
   9823SM   H6S13257   8.149   8.334  13.264
   9823SM   H6T13258   8.120   8.543  13.241
   9823SM   C7S13259   8.333   8.466  13.344
   9823SM   H7S13260   8.266   8.522  13.428
   9823SM   H7T13261   8.419   8.556  13.312
   9823SM   C8S13262   8.413   8.314  13.401
   9823SM   H8S13263   8.477   8.251  13.319
   9823SM   H8T13264   8.320   8.230  13.436
   9823SM   C9S13265   8.540   8.336  13.515
   9823SM   H9S13266   8.645   8.398  13.470
   9823SM   H9T13267   8.582   8.213  13.543
   9823SM  C10S13268   8.488   8.423  13.644
   9823SM  H10S13269   8.405   8.336  13.690
   9823SM  H10T13270   8.422   8.534  13.620
   9823SM  C11S13271   8.606   8.458  13.761
   9823SM  H11S13272   8.702   8.542  13.729
   9823SM  H11T13273   8.663   8.341  13.791
   9823SM  C12S13274   8.514   8.525  13.883
   9823SM  H12S13275   8.406   8.447  13.892
   9823SM  H12T13276   8.470   8.648  13.861
   9823SM  C13S13277   8.592   8.522  14.023
   9823SM  H13S13278   8.682   8.621  14.030
   9823SM  H13T13279   8.656   8.407  14.039
   9823SM  C14S13280   8.462   8.543  14.134
   9823SM  H14S13281   8.392   8.431  14.144
   9823SM  H14T13282   8.383   8.644  14.104
   9823SM  C15S13283   8.521   8.590  14.274
   9823SM  H15S13284   8.423   8.645  14.334
   9823SM  H15T13285   8.616   8.678  14.258
   9823SM  C16S13286   8.582   8.449  14.356
   9823SM  H16S13287   8.634   8.364  14.285
   9823SM  H16T13288   8.480   8.393  14.409
   9823SM  C17S13289   8.726   8.480  14.446
   9823SM  H17S13290   8.797   8.580  14.401
   9823SM  H17T13291   8.803   8.371  14.441
   9823SM  C18S13292   8.689   8.512  14.593
   9823SM  H18S13293   8.785   8.586  14.638
   9823SM  H18T13294   8.684   8.395  14.648
   9823SM  H18U13295   8.573   8.575  14.606
   9823SM   C1F13296   8.485   8.820  12.744
   9823SM    OF13297   8.426   8.915  12.665
   9823SM   C2F13298   8.648   8.839  12.803
   9823SM   H2F13299   8.730   8.748  12.759
   9823SM   H2G13300   8.629   8.809  12.910
   9823SM   C3F13301   8.726   9.006  12.799
   9823SM   H3F13302   8.669   9.082  12.721
   9823SM   H3G13303   8.855   8.992  12.769
   9823SM   C4F13304   8.720   9.094  12.934
   9823SM   H4F13305   8.779   9.212  12.922
   9823SM   H4G13306   8.791   9.025  13.009
   9823SM   C5F13307   8.549   9.116  12.984
   9823SM   H5F13308   8.496   9.000  13.016
   9823SM   H5G13309   8.474   9.163  12.900
   9823SM   C6F13310   8.532   9.236  13.099
   9823SM   H6F13311   8.572   9.356  13.064
   9823SM   H6G13312   8.616   9.202  13.180
   9823SM   C7F13313   8.357   9.251  13.147
   9823SM   H7F13314   8.278   9.236  13.058
   9823SM   H7G13315   8.338   9.374  13.185
   9823SM   C8F13316   8.306   9.127  13.255
   9823SM   H8F13317   8.311   9.006  13.209
   9823SM   H8G13318   8.180   9.151  13.286
   9823SM   C9F13319   8.417   9.128  13.379
   9823SM   H9F13320   8.414   9.251  13.422
   9823SM   H9G13321   8.540   9.101  13.345
   9823SM  C10F13322   8.380   9.002  13.488
   9823SM  H10F13323   8.489   8.986  13.550
   9823SM  H10G13324   8.346   8.885  13.444
   9823SM  C11F13325   8.254   9.064  13.585
   9823SM  H11F13326   8.138   9.067  13.529
   9823SM  H11G13327   8.291   9.190  13.609
   9823SM  C12F13328   8.234   8.977  13.720
   9823SM  H12F13329   8.248   9.070  13.800
   9823SM  H12G13330   8.333   8.890  13.735
   9823SM  C13F13331   8.072   8.894  13.740
   9823SM  H13F13332   8.059   8.796  13.666
   9823SM  H13G13333   7.970   8.977  13.722
   9823SM  C14F13334   8.048   8.832  13.883
   9823SM  H14F13335   8.148   8.750  13.909
   9823SM  H14G13336   7.934   8.764  13.885
   9823SM  C15F13337   8.040   8.968  13.988
   9823SM  H15F13338   7.992   9.077  13.937
   9823SM  H15G13339   8.164   8.995  14.023
   9823SM  C16F13340   7.933   8.929  14.109
   9823SM  H16F13341   7.820   8.873  14.071
   9823SM  H16G13342   7.898   9.040  14.163
   9823SM  C17F13343   8.018   8.812  14.203
   9823SM  H17F13344   8.093   8.737  14.134
   9823SM  H17G13345   7.931   8.732  14.254
   9823SM  C18F13346   8.134   8.885  14.308
   9823SM  H18F13347   8.203   8.984  14.263
   9823SM  H18G13348   8.220   8.789  14.336
   9823SM  C19F13349   8.054   8.940  14.439
   9823SM  H19F13350   7.998   8.833  14.488
   9823SM  H19G13351   7.956   9.028  14.418
   9823SM  C20F13352   8.172   9.016  14.540
   9823SM  H20F13353   8.232   9.121  14.494
   9823SM  H20G13354   8.267   8.928  14.566
   9823SM  C21F13355   8.087   9.072  14.669
   9823SM  H21F13356   8.023   8.969  14.716
   9823SM  H21G13357   7.993   9.162  14.641
   9823SM  C22F13358   8.198   9.148  14.774
   9823SM  H22F13359   8.124   9.209  14.851
   9823SM  H22G13360   8.273   9.241  14.725
   9823SM  C23F13361   8.306   9.025  14.845
   9823SM  H23F13362   8.232   8.935  14.899
   9823SM  H23G13363   8.387   9.084  14.918
   9823SM  H23H13364   8.381   8.959  14.771
   9923SM     N13365   0.641   8.591  12.236
   9923SM   C1513366   0.599   8.419  12.266
   9923SM  H15A13367   0.671   8.382  12.351
   9923SM  H15B13368   0.624   8.342  12.182
   9923SM  H15C13369   0.474   8.406  12.294
   9923SM   C1413370   0.814   8.606  12.202
   9923SM  H14A13371   0.846   8.731  12.189
   9923SM  H14B13372   0.840   8.542  12.111
   9923SM  H14C13373   0.886   8.561  12.285
   9923SM   C1313374   0.546   8.652  12.120
   9923SM  H13A13375   0.577   8.778  12.108
   9923SM  H13B13376   0.418   8.642  12.138
   9923SM  H13C13377   0.578   8.591  12.027
   9923SM   C1213378   0.601   8.694  12.355
   9923SM  H12A13379   0.474   8.690  12.373
   9923SM  H12B13380   0.630   8.820  12.332
   9923SM   C1113381   0.690   8.660  12.486
   9923SM  H11A13382   0.679   8.532  12.515
   9923SM  H11B13383   0.629   8.732  12.565
   9923SM     P13384   0.899   8.886  12.483
   9923SM   O1313385   1.073   8.904  12.452
   9923SM   O1413386   0.779   8.974  12.402
   9923SM   O1113387   0.877   8.934  12.635
   9923SM   O1213388   0.857   8.700  12.477
   9923SM   C1S13389   0.962   8.839  12.731
   9923SM   H1S13390   1.084   8.890  12.746
   9923SM   H1T13391   0.980   8.712  12.698
   9923SM    NF13392   0.707   8.779  12.841
   9923SM   HNF13393   0.625   8.867  12.830
   9923SM   C2S13394   0.871   8.828  12.868
   9923SM   H2S13395   0.929   8.734  12.930
   9923SM   C3S13396   0.884   8.993  12.943
   9923SM   H3S13397   0.814   9.084  12.890
   9923SM    O313398   1.046   9.049  12.942
   9923SM   HO313399   1.068   9.044  12.848
   9923SM   C4S13400   0.823   8.982  13.087
   9923SM   H4S13401   0.694   9.004  13.095
   9923SM   C5S13402   0.906   8.953  13.201
   9923SM   H5S13403   1.034   8.926  13.193
   9923SM   C6S13404   0.841   8.946  13.343
   9923SM   H6S13405   0.866   9.065  13.389
   9923SM   H6T13406   0.912   8.860  13.404
   9923SM   C7S13407   0.662   8.918  13.376
   9923SM   H7S13408   0.619   8.801  13.339
   9923SM   H7T13409   0.592   9.017  13.328
   9923SM   C8S13410   0.636   8.928  13.527
   9923SM   H8S13411   0.511   8.965  13.548
   9923SM   H8T13412   0.719   9.019  13.570
   9923SM   C9S13413   0.665   8.770  13.601
   9923SM   H9S13414   0.796   8.743  13.603
   9923SM   H9T13415   0.604   8.672  13.544
   9923SM  C10S13416   0.600   8.774  13.744
   9923SM  H10S13417   0.590   8.650  13.782
   9923SM  H10T13418   0.475   8.822  13.744
   9923SM  C11S13419   0.707   8.869  13.842
   9923SM  H11S13420   0.713   8.998  13.811
   9923SM  H11T13421   0.830   8.821  13.837
   9923SM  C12S13422   0.646   8.860  13.988
   9923SM  H12S13423   0.631   8.731  14.015
   9923SM  H12T13424   0.527   8.918  13.994
   9923SM  C13S13425   0.763   8.932  14.090
   9923SM  H13S13426   0.809   9.044  14.045
   9923SM  H13T13427   0.865   8.848  14.103
   9923SM  C14S13428   0.688   8.972  14.226
   9923SM  H14S13429   0.629   8.864  14.267
   9923SM  H14T13430   0.590   9.061  14.210
   9923SM  C15S13431   0.808   9.037  14.330
   9923SM  H15S13432   0.853   9.156  14.299
   9923SM  H15T13433   0.913   8.956  14.335
   9923SM  C16S13434   0.736   9.050  14.471
   9923SM  H16S13435   0.714   8.926  14.504
   9923SM  H16T13436   0.622   9.119  14.474
   9923SM  C17S13437   0.853   9.112  14.576
   9923SM  H17S13438   0.875   9.241  14.565
   9923SM  H17T13439   0.965   9.052  14.548
   9923SM  C18S13440   0.809   9.073  14.721
   9923SM  H18S13441   0.914   9.077  14.788
   9923SM  H18T13442   0.752   8.954  14.735
   9923SM  H18U13443   0.718   9.161  14.758
   9923SM   C1F13444   0.671   8.632  12.800
   9923SM    OF13445   0.775   8.543  12.757
   9923SM   C2F13446   0.499   8.575  12.800
   9923SM   H2F13447   0.497   8.442  12.806
   9923SM   H2G13448   0.444   8.609  12.703
   9923SM   C3F13449   0.406   8.647  12.917
   9923SM   H3F13450   0.275   8.633  12.899
   9923SM   H3G13451   0.428   8.778  12.924
   9923SM   C4F13452   0.448   8.575  13.053
   9923SM   H4F13453   0.580   8.563  13.068
   9923SM   H4G13454   0.394   8.453  13.061
   9923SM   C5F13455   0.377   8.686  13.160
   9923SM   H5F13456   0.264   8.735  13.118
   9923SM   H5G13457   0.457   8.790  13.177
   9923SM   C6F13458   0.334   8.599  13.289
   9923SM   H6F13459   0.445   8.567  13.345
   9923SM   H6G13460   0.268   8.488  13.265
   9923SM   C7F13461   0.223   8.704  13.376
   9923SM   H7F13462   0.109   8.728  13.322
   9923SM   H7G13463   0.283   8.819  13.398
   9923SM   C8F13464   0.184   8.616  13.506
   9923SM   H8F13465   0.295   8.550  13.532
   9923SM   H8G13466   0.089   8.525  13.489
   9923SM   C9F13467   0.136   8.729  13.620
   9923SM   H9F13468   0.031   8.802  13.588
   9923SM   H9G13469   0.236   8.812  13.644
   9923SM  C10F13470   0.092   8.634  13.745
   9923SM  H10F13471  -0.006   8.550  13.719
   9923SM  H10G13472   0.047   8.713  13.826
   9923SM  C11F13473   0.235   8.538  13.796
   9923SM  H11F13474   0.335   8.524  13.723
   9923SM  H11G13475   0.192   8.414  13.816
   9923SM  C12F13476   0.302   8.598  13.928
   9923SM  H12F13477   0.198   8.603  13.997
   9923SM  H12G13478   0.354   8.720  13.928
   9923SM  C13F13479   0.420   8.471  13.979
   9923SM  H13F13480   0.544   8.516  13.986
   9923SM  H13G13481   0.424   8.368  13.909
   9923SM  C14F13482   0.355   8.420  14.113
   9923SM  H14F13483   0.238   8.358  14.098
   9923SM  H14G13484   0.332   8.534  14.165
   9923SM  C15F13485   0.466   8.323  14.200
   9923SM  H15F13486   0.511   8.218  14.143
   9923SM  H15G13487   0.397   8.279  14.288
   9923SM  C16F13488   0.608   8.422  14.250
   9923SM  H16F13489   0.683   8.456  14.163
   9923SM  H16G13490   0.676   8.341  14.317
   9923SM  C17F13491   0.571   8.572  14.331
   9923SM  H17F13492   0.499   8.656  14.270
   9923SM  H17G13493   0.688   8.634  14.350
   9923SM  C18F13494   0.488   8.545  14.467
   9923SM  H18F13495   0.574   8.482  14.535
   9923SM  H18G13496   0.380   8.470  14.456
   9923SM  C19F13497   0.445   8.711  14.523
   9923SM  H19F13498   0.342   8.762  14.470
   9923SM  H19G13499   0.545   8.788  14.492
   9923SM  C20F13500   0.428   8.729  14.676
   9923SM  H20F13501   0.535   8.676  14.726
   9923SM  H20G13502   0.320   8.663  14.710
   9923SM  C21F13503   0.414   8.908  14.716
   9923SM  H21F13504   0.312   8.959  14.659
   9923SM  H21G13505   0.521   8.974  14.682
   9923SM  C22F13506   0.385   8.938  14.866
   9923SM  H22F13507   0.306   8.842  14.905
   9923SM  H22G13508   0.318   9.053  14.875
   9923SM  C23F13509   0.536   8.953  14.953
   9923SM  H23F13510   0.505   8.978  15.059
   9923SM  H23G13511   0.610   9.058  14.919
   9923SM  H23H13512   0.611   8.843  14.948
  10023SM     N13513   0.337   0.562  12.201
  10023SM   C1513514   0.451   0.467  12.119
  10023SM  H15A13515   0.559   0.535  12.101
  10023SM  H15B13516   0.397   0.433  12.025
  10023SM  H15C13517   0.476   0.359  12.175
  10023SM   C1413518   0.295   0.714  12.132
  10023SM  H14A13519   0.401   0.782  12.104
  10023SM  H14B13520   0.218   0.787  12.196
  10023SM  H14C13521   0.227   0.690  12.042
  10023SM   C1313522   0.184   0.472  12.220
  10023SM  H13A13523   0.199   0.368  12.285
  10023SM  H13B13524   0.144   0.426  12.124
  10023SM  H13C13525   0.092   0.547  12.265
  10023SM   C1213526   0.414   0.592  12.338
  10023SM  H12A13527   0.320   0.636  12.404
  10023SM  H12B13528   0.505   0.683  12.328
  10023SM   C1113529   0.492   0.444  12.407
  10023SM  H11A13530   0.530   0.479  12.510
  10023SM  H11B13531   0.605   0.413  12.353
  10023SM     P13532   0.268   0.271  12.523
  10023SM   O1313533   0.176   0.420  12.546
  10023SM   O1413534   0.172   0.127  12.491
  10023SM   O1113535   0.370   0.240  12.652
  10023SM   O1213536   0.391   0.305  12.407
  10023SM   C1S13537   0.512   0.151  12.663
  10023SM   H1S13538   0.612   0.217  12.615
  10023SM   H1T13539   0.506   0.030  12.615
  10023SM    NF13540   0.410   0.052  12.878
  10023SM   HNF13541   0.347   0.126  12.933
  10023SM   C2S13542   0.546   0.128  12.814
  10023SM   H2S13543   0.653   0.049  12.824
  10023SM   C3S13544   0.582   0.288  12.884
  10023SM   H3S13545   0.478   0.370  12.881
  10023SM    O313546   0.712   0.373  12.824
  10023SM   HO313547   0.736   0.313  12.745
  10023SM   C4S13548   0.616   0.238  13.026
  10023SM   H4S13549   0.736   0.185  13.040
  10023SM   C5S13550   0.515   0.245  13.131
  10023SM   H5S13551   0.396   0.301  13.121
  10023SM   C6S13552   0.560   0.187  13.268
  10023SM   H6S13553   0.628   0.281  13.322
  10023SM   H6T13554   0.644   0.084  13.262
  10023SM   C7S13555   0.409   0.134  13.346
  10023SM   H7S13556   0.392   0.004  13.328
  10023SM   H7T13557   0.300   0.200  13.313
  10023SM   C8S13558   0.424   0.163  13.497
  10023SM   H8S13559   0.334   0.088  13.550
  10023SM   H8T13560   0.397   0.290  13.521
  10023SM   C9S13561   0.590   0.124  13.550
  10023SM   H9S13562   0.665   0.234  13.557
  10023SM   H9T13563   0.654   0.040  13.482
  10023SM  C10S13564   0.582   0.042  13.686
  10023SM  H10S13565   0.701  -0.014  13.703
  10023SM  H10T13566   0.491  -0.055  13.693
  10023SM  C11S13567   0.560   0.160  13.797
  10023SM  H11S13568   0.430   0.179  13.811
  10023SM  H11T13569   0.618   0.277  13.775
  10023SM  C12S13570   0.632   0.092  13.923
  10023SM  H12S13571   0.766   0.084  13.916
  10023SM  H12T13572   0.584  -0.030  13.944
  10023SM  C13S13573   0.582   0.208  14.028
  10023SM  H13S13574   0.449   0.209  14.026
  10023SM  H13T13575   0.630   0.330  14.004
  10023SM  C14S13576   0.635   0.155  14.163
  10023SM  H14S13577   0.738   0.072  14.155
  10023SM  H14T13578   0.534   0.089  14.210
  10023SM  C15S13579   0.679   0.299  14.247
  10023SM  H15S13580   0.578   0.386  14.242
  10023SM  H15T13581   0.790   0.360  14.210
  10023SM  C16S13582   0.697   0.235  14.387
  10023SM  H16S13583   0.818   0.181  14.399
  10023SM  H16T13584   0.607   0.139  14.404
  10023SM  C17S13585   0.664   0.362  14.489
  10023SM  H17S13586   0.562   0.437  14.454
  10023SM  H17T13587   0.768   0.445  14.493
  10023SM  C18S13588   0.631   0.290  14.626
  10023SM  H18S13589   0.504   0.257  14.640
  10023SM  H18T13590   0.670   0.373  14.707
  10023SM  H18U13591   0.695   0.175  14.634
  10023SM   C1F13592   0.374  -0.101  12.863
  10023SM    OF13593   0.463  -0.191  12.800
  10023SM   C2F13594   0.227  -0.157  12.933
  10023SM   H2F13595   0.224  -0.103  13.034
  10023SM   H2G13596   0.234  -0.289  12.946
  10023SM   C3F13597   0.070  -0.120  12.855
  10023SM   H3F13598  -0.034  -0.173  12.910
  10023SM   H3G13599   0.073  -0.184  12.757
  10023SM   C4F13600   0.032   0.059  12.830
  10023SM   H4F13601  -0.066   0.068  12.756
  10023SM   H4G13602   0.137   0.122  12.785
  10023SM   C5F13603  -0.017   0.142  12.960
  10023SM   H5F13604   0.078   0.120  13.035
  10023SM   H5G13605  -0.133   0.086  12.991
  10023SM   C6F13606  -0.037   0.325  12.953
  10023SM   H6F13607  -0.120   0.356  12.870
  10023SM   H6G13608   0.082   0.379  12.927
  10023SM   C7F13609  -0.100   0.401  13.085
  10023SM   H7F13610  -0.228   0.434  13.074
  10023SM   H7G13611  -0.036   0.516  13.102
  10023SM   C8F13612  -0.080   0.293  13.208
  10023SM   H8F13613   0.049   0.281  13.233
  10023SM   H8G13614  -0.133   0.174  13.185
  10023SM   C9F13615  -0.176   0.346  13.331
  10023SM   H9F13616  -0.158   0.257  13.413
  10023SM   H9G13617  -0.306   0.343  13.306
  10023SM  C10F13618  -0.126   0.509  13.383
  10023SM  H10F13619  -0.204   0.540  13.470
  10023SM  H10G13620  -0.144   0.604  13.306
  10023SM  C11F13621   0.050   0.505  13.427
  10023SM  H11F13622   0.132   0.515  13.339
  10023SM  H11G13623   0.073   0.385  13.474
  10023SM  C12F13624   0.092   0.632  13.530
  10023SM  H12F13625  -0.018   0.692  13.568
  10023SM  H12G13626   0.168   0.727  13.482
  10023SM  C13F13627   0.184   0.560  13.649
  10023SM  H13F13628   0.286   0.488  13.611
  10023SM  H13G13629   0.103   0.476  13.703
  10023SM  C14F13630   0.248   0.690  13.742
  10023SM  H14F13631   0.146   0.745  13.795
  10023SM  H14G13632   0.311   0.784  13.682
  10023SM  C15F13633   0.362   0.628  13.850
  10023SM  H15F13634   0.389   0.727  13.920
  10023SM  H15G13635   0.478   0.589  13.803
  10023SM  C16F13636   0.287   0.487  13.925
  10023SM  H16F13637   0.325   0.377  13.874
  10023SM  H16G13638   0.154   0.491  13.918
  10023SM  C17F13639   0.334   0.482  14.072
  10023SM  H17F13640   0.464   0.504  14.083
  10023SM  H17G13641   0.304   0.360  14.111
  10023SM  C18F13642   0.241   0.595  14.164
  10023SM  H18F13643   0.110   0.581  14.143
  10023SM  H18G13644   0.274   0.722  14.145
  10023SM  C19F13645   0.276   0.546  14.308
  10023SM  H19F13646   0.402   0.575  14.332
  10023SM  H19G13647   0.264   0.413  14.314
  10023SM  C20F13648   0.160   0.620  14.409
  10023SM  H20F13649   0.042   0.642  14.360
  10023SM  H20G13650   0.211   0.738  14.440
  10023SM  C21F13651   0.132   0.515  14.534
  10023SM  H21F13652   0.080   0.397  14.504
  10023SM  H21G13653   0.049   0.575  14.604
  10023SM  C22F13654   0.292   0.484  14.603
  10023SM  H22F13655   0.356   0.600  14.598
  10023SM  H22G13656   0.353   0.395  14.540
  10023SM  C23F13657   0.289   0.430  14.749
  10023SM  H23F13658   0.413   0.431  14.791
  10023SM  H23G13659   0.242   0.305  14.759
  10023SM  H23H13660   0.216   0.512  14.811
  101CHL1    C313661   4.813   5.491  16.716
  101CHL1    H313662   4.939   5.484  16.677
  101CHL1    O313663   4.818   5.503  16.857
  101CHL1   H3'13664   4.706   5.497  16.883
  101CHL1    C413665   4.729   5.638  16.655
  101CHL1   H4A13666   4.606   5.646  16.697
  101CHL1   H4B13667   4.794   5.747  16.690
  101CHL1    C513668   4.721   5.628  16.504
  101CHL1    C613669   4.786   5.742  16.426
  101CHL1    H613670   4.842   5.848  16.473
  101CHL1    C713671   4.781   5.741  16.276
  101CHL1   H7A13672   4.742   5.860  16.237
  101CHL1   H7B13673   4.904   5.718  16.238
  101CHL1    C813674   4.669   5.610  16.218
  101CHL1    H813675   4.543   5.654  16.225
  101CHL1   C1413676   4.711   5.581  16.072
  101CHL1   H1413677   4.837   5.533  16.073
  101CHL1   C1513678   4.715   5.726  15.977
  101CHL1  H15A13679   4.604   5.800  15.992
  101CHL1  H15B13680   4.822   5.803  15.995
  101CHL1   C1613681   4.715   5.651  15.838
  101CHL1  H16A13682   4.616   5.706  15.778
  101CHL1  H16B13683   4.830   5.669  15.785
  101CHL1   C1713684   4.682   5.467  15.858
  101CHL1   H1713685   4.802   5.407  15.861
  101CHL1   C1313686   4.613   5.453  16.001
  101CHL1   C1813687   4.433   5.498  15.995
  101CHL1  H18A13688   4.360   5.399  15.954
  101CHL1  H18B13689   4.385   5.526  16.096
  101CHL1  H18C13690   4.415   5.605  15.930
  101CHL1   C1213691   4.637   5.293  16.078
  101CHL1  H12A13692   4.564   5.195  16.036
  101CHL1  H12B13693   4.765   5.258  16.072
  101CHL1   C1113694   4.590   5.312  16.226
  101CHL1  H11A13695   4.459   5.335  16.231
  101CHL1  H11B13696   4.614   5.197  16.278
  101CHL1    C913697   4.684   5.453  16.295
  101CHL1    H913698   4.813   5.418  16.288
  101CHL1   C1013699   4.649   5.471  16.447
  101CHL1   C1913700   4.464   5.477  16.467
  101CHL1  H19A13701   4.410   5.359  16.442
  101CHL1  H19B13702   4.433   5.503  16.572
  101CHL1  H19C13703   4.409   5.570  16.402
  101CHL1    C113704   4.721   5.323  16.522
  101CHL1   H1A13705   4.652   5.214  16.494
  101CHL1   H1B13706   4.847   5.306  16.487
  101CHL1    C213707   4.723   5.339  16.675
  101CHL1   H2A13708   4.781   5.232  16.720
  101CHL1   H2B13709   4.597   5.346  16.712
  101CHL1   C2013710   4.589   5.395  15.741
  101CHL1   H2013711   4.477   5.466  15.725
  101CHL1   C2113712   4.542   5.221  15.773
  101CHL1  H21A13713   4.426   5.213  15.826
  101CHL1  H21B13714   4.636   5.173  15.840
  101CHL1  H21C13715   4.538   5.144  15.683
  101CHL1   C2213716   4.682   5.395  15.609
  101CHL1  H22A13717   4.753   5.508  15.599
  101CHL1  H22B13718   4.771   5.296  15.609
  101CHL1   C2313719   4.567   5.380  15.489
  101CHL1  H23A13720   4.466   5.298  15.517
  101CHL1  H23B13721   4.513   5.500  15.469
  101CHL1   C2413722   4.640   5.314  15.360
  101CHL1  H24A13723   4.675   5.185  15.376
  101CHL1  H24B13724   4.547   5.315  15.281
  101CHL1   C2513725   4.787   5.402  15.307
  101CHL1   H2513726   4.888   5.365  15.372
  101CHL1   C2613727   4.814   5.357  15.160
  101CHL1  H26A13728   4.919   5.423  15.119
  101CHL1  H26B13729   4.837   5.226  15.151
  101CHL1  H26C13730   4.709   5.388  15.099
  101CHL1   C2713731   4.786   5.586  15.321
  101CHL1  H27A13732   4.753   5.627  15.422
  101CHL1  H27B13733   4.907   5.634  15.297
  101CHL1  H27C13734   4.697   5.630  15.250
  102CHL1    C313735   3.172   5.532  16.722
  102CHL1    H313736   3.191   5.664  16.721
  102CHL1    O313737   3.167   5.476  16.856
  102CHL1   H3'13738   3.116   5.558  16.911
  102CHL1    C413739   3.013   5.488  16.656
  102CHL1   H4A13740   2.996   5.357  16.669
  102CHL1   H4B13741   2.912   5.548  16.711
  102CHL1    C513742   3.013   5.530  16.509
  102CHL1    C613743   2.909   5.634  16.457
  102CHL1    H613744   2.815   5.689  16.520
  102CHL1    C713745   2.902   5.672  16.311
  102CHL1   H7A13746   2.774   5.672  16.279
  102CHL1   H7B13747   2.951   5.795  16.291
  102CHL1    C813748   2.994   5.548  16.227
  102CHL1    H813749   2.921   5.436  16.229
  102CHL1   C1413750   3.013   5.605  16.086
  102CHL1   H1413751   3.092   5.714  16.087
  102CHL1   C1513752   2.857   5.660  16.024
  102CHL1  H15A13753   2.766   5.572  16.058
  102CHL1  H15B13754   2.826   5.784  16.053
  102CHL1   C1613755   2.880   5.645  15.876
  102CHL1  H16A13756   2.785   5.561  15.839
  102CHL1  H16B13757   2.867   5.761  15.825
  102CHL1   C1713758   3.049   5.570  15.856
  102CHL1   H1713759   3.134   5.672  15.846
  102CHL1   C1313760   3.086   5.485  15.990
  102CHL1   C1813761   2.998   5.322  15.994
  102CHL1  H18A13762   3.000   5.267  16.095
  102CHL1  H18B13763   2.870   5.334  15.965
  102CHL1  H18C13764   3.056   5.234  15.926
  102CHL1   C1213765   3.263   5.472  16.034
  102CHL1  H12A13766   3.330   5.386  15.971
  102CHL1  H12B13767   3.322   5.591  16.024
  102CHL1   C1113768   3.271   5.418  16.183
  102CHL1  H11A13769   3.238   5.290  16.183
  102CHL1  H11B13770   3.397   5.426  16.217
  102CHL1    C913771   3.161   5.514  16.281
  102CHL1    H913772   3.218   5.635  16.288
  102CHL1   C1013773   3.148   5.449  16.426
  102CHL1   C1913774   3.112   5.267  16.419
  102CHL1  H19A13775   3.212   5.200  16.373
  102CHL1  H19B13776   3.094   5.212  16.519
  102CHL1  H19C13777   3.002   5.244  16.359
  102CHL1    C113778   3.307   5.489  16.498
  102CHL1   H1A13779   3.407   5.426  16.446
  102CHL1   H1B13780   3.326   5.620  16.486
  102CHL1    C213781   3.311   5.449  16.649
  102CHL1   H2A13782   3.428   5.489  16.691
  102CHL1   H2B13783   3.300   5.317  16.662
  102CHL1   C2013784   3.049   5.474  15.727
  102CHL1   H2013785   2.972   5.365  15.740
  102CHL1   C2113786   3.220   5.419  15.690
  102CHL1  H21A13787   3.269   5.336  15.766
  102CHL1  H21B13788   3.300   5.525  15.681
  102CHL1  H21C13789   3.218   5.356  15.592
  102CHL1   C2213790   2.972   5.572  15.612
  102CHL1  H22A13791   2.855   5.626  15.641
  102CHL1  H22B13792   3.052   5.674  15.582
  102CHL1   C2313793   2.927   5.466  15.495
  102CHL1  H23A13794   3.031   5.456  15.425
  102CHL1  H23B13795   2.900   5.344  15.534
  102CHL1   C2413796   2.778   5.530  15.424
  102CHL1  H24A13797   2.670   5.521  15.489
  102CHL1  H24B13798   2.796   5.658  15.399
  102CHL1   C2513799   2.749   5.437  15.294
  102CHL1   H2513800   2.868   5.444  15.242
  102CHL1   C2613801   2.718   5.258  15.313
  102CHL1  H26A13802   2.735   5.197  15.215
  102CHL1  H26B13803   2.806   5.202  15.382
  102CHL1  H26C13804   2.594   5.237  15.349
  102CHL1   C2713805   2.620   5.518  15.208
  102CHL1  H27A13806   2.621   5.466  15.106
  102CHL1  H27B13807   2.498   5.501  15.252
  102CHL1  H27C13808   2.644   5.648  15.199
  103CHL1    C313809   3.140   3.448  16.712
  103CHL1    H313810   3.246   3.530  16.701
  103CHL1    O313811   3.101   3.431  16.849
  103CHL1   H3'13812   3.091   3.540  16.880
  103CHL1    C413813   2.994   3.511  16.637
  103CHL1   H4A13814   2.891   3.431  16.658
  103CHL1   H4B13815   2.960   3.631  16.678
  103CHL1    C513816   3.028   3.515  16.489
  103CHL1    C613817   3.018   3.650  16.421
  103CHL1    H613818   2.981   3.761  16.473
  103CHL1    C713819   3.046   3.659  16.274
  103CHL1   H7A13820   2.948   3.731  16.227
  103CHL1   H7B13821   3.162   3.719  16.252
  103CHL1    C813822   3.044   3.497  16.204
  103CHL1    H813823   2.918   3.456  16.204
  103CHL1   C1413824   3.104   3.520  16.065
  103CHL1   H1413825   3.236   3.550  16.072
  103CHL1   C1513826   3.031   3.659  15.985
  103CHL1  H15A13827   2.902   3.668  16.008
  103CHL1  H15B13828   3.092   3.774  16.008
  103CHL1   C1613829   3.056   3.607  15.840
  103CHL1  H16A13830   2.936   3.608  15.791
  103CHL1  H16B13831   3.138   3.690  15.785
  103CHL1   C1713832   3.125   3.433  15.845
  103CHL1   H1713833   3.258   3.444  15.836
  103CHL1   C1313834   3.091   3.367  15.984
  103CHL1   C1813835   2.915   3.301  15.987
  103CHL1  H18A13836   2.899   3.196  15.921
  103CHL1  H18B13837   2.878   3.262  16.087
  103CHL1  H18C13838   2.830   3.395  15.952
  103CHL1   C1213839   3.216   3.252  16.049
  103CHL1  H12A13840   3.230   3.139  15.993
  103CHL1  H12B13841   3.336   3.310  16.046
  103CHL1   C1113842   3.173   3.220  16.197
  103CHL1  H11A13843   3.062   3.145  16.196
  103CHL1  H11B13844   3.269   3.145  16.243
  103CHL1    C913845   3.148   3.377  16.278
  103CHL1    H913846   3.270   3.433  16.285
  103CHL1   C1013847   3.086   3.359  16.423
  103CHL1   C1913848   2.942   3.244  16.417
  103CHL1  H19A13849   2.855   3.280  16.339
  103CHL1  H19B13850   2.981   3.120  16.393
  103CHL1  H19C13851   2.876   3.239  16.513
  103CHL1    C113852   3.226   3.296  16.509
  103CHL1   H1A13853   3.263   3.181  16.464
  103CHL1   H1B13854   3.331   3.378  16.498
  103CHL1    C213855   3.184   3.283  16.658
  103CHL1   H2A13856   3.282   3.229  16.717
  103CHL1   H2B13857   3.073   3.209  16.669
  103CHL1   C2013858   3.064   3.338  15.726
  103CHL1   H2013859   2.930   3.331  15.729
  103CHL1   C2113860   3.131   3.167  15.732
  103CHL1  H21A13861   3.089   3.092  15.647
  103CHL1  H21B13862   3.090   3.104  15.822
  103CHL1  H21C13863   3.263   3.172  15.734
  103CHL1   C2213864   3.108   3.424  15.596
  103CHL1  H22A13865   3.028   3.529  15.583
  103CHL1  H22B13866   3.234   3.469  15.600
  103CHL1   C2313867   3.091   3.317  15.474
  103CHL1  H23A13868   3.194   3.233  15.469
  103CHL1  H23B13869   2.978   3.245  15.482
  103CHL1   C2413870   3.086   3.419  15.349
  103CHL1  H24A13871   2.976   3.493  15.356
  103CHL1  H24B13872   3.190   3.502  15.345
  103CHL1   C2513873   3.079   3.322  15.220
  103CHL1   H2513874   2.987   3.226  15.232
  103CHL1   C2613875   3.030   3.437  15.111
  103CHL1  H26A13876   2.923   3.509  15.139
  103CHL1  H26B13877   3.125   3.528  15.100
  103CHL1  H26C13878   3.006   3.376  15.014
  103CHL1   C2713879   3.242   3.244  15.185
  103CHL1  H27A13880   3.241   3.193  15.083
  103CHL1  H27B13881   3.340   3.334  15.192
  103CHL1  H27C13882   3.269   3.145  15.254
  104CHL1    C313883   7.352   4.951  16.732
  104CHL1    H313884   7.483   4.964  16.752
  104CHL1    O313885   7.268   4.940  16.854
  104CHL1   H3'13886   7.296   4.835  16.891
  104CHL1    C413887   7.290   5.100  16.657
  104CHL1   H4A13888   7.159   5.086  16.639
  104CHL1   H4B13889   7.306   5.207  16.723
  104CHL1    C513890   7.379   5.118  16.526
  104CHL1    C613891   7.463   5.251  16.501
  104CHL1    H613892   7.458   5.351  16.573
  104CHL1    C713893   7.562   5.276  16.377
  104CHL1   H7A13894   7.536   5.395  16.332
  104CHL1   H7B13895   7.691   5.276  16.407
  104CHL1    C813896   7.540   5.147  16.268
  104CHL1    H813897   7.430   5.180  16.209
  104CHL1   C1413898   7.688   5.136  16.179
  104CHL1   H1413899   7.784   5.081  16.242
  104CHL1   C1513900   7.764   5.291  16.128
  104CHL1  H15A13901   7.669   5.360  16.078
  104CHL1  H15B13902   7.822   5.363  16.207
  104CHL1   C1613903   7.882   5.232  16.022
  104CHL1  H16A13904   7.900   5.322  15.942
  104CHL1  H16B13905   7.998   5.210  16.072
  104CHL1   C1713906   7.829   5.063  15.979
  104CHL1   H1713907   7.918   4.981  16.030
  104CHL1   C1313908   7.668   5.033  16.055
  104CHL1   C1813909   7.525   5.102  15.973
  104CHL1  H18A13910   7.507   5.231  15.990
  104CHL1  H18B13911   7.541   5.093  15.865
  104CHL1  H18C13912   7.412   5.040  15.998
  104CHL1   C1213913   7.638   4.860  16.106
  104CHL1  H12A13914   7.604   4.781  16.021
  104CHL1  H12B13915   7.751   4.813  16.151
  104CHL1   C1113916   7.504   4.850  16.213
  104CHL1  H11A13917   7.387   4.862  16.159
  104CHL1  H11B13918   7.510   4.729  16.259
  104CHL1    C913919   7.514   4.979  16.326
  104CHL1    H913920   7.628   4.954  16.380
  104CHL1   C1013921   7.380   4.968  16.434
  104CHL1   C1913922   7.214   4.964  16.364
  104CHL1  H19A13923   7.199   5.068  16.295
  104CHL1  H19B13924   7.200   4.852  16.305
  104CHL1  H19C13925   7.116   4.967  16.438
  104CHL1    C113926   7.406   4.810  16.515
  104CHL1   H1A13927   7.369   4.706  16.452
  104CHL1   H1B13928   7.537   4.795  16.535
  104CHL1    C213929   7.320   4.800  16.650
  104CHL1   H2A13930   7.364   4.693  16.706
  104CHL1   H2B13931   7.189   4.787  16.634
  104CHL1   C2013932   7.842   5.023  15.828
  104CHL1   H2013933   7.730   5.053  15.775
  104CHL1   C2113934   7.866   4.843  15.821
  104CHL1  H21A13935   7.986   4.818  15.864
  104CHL1  H21B13936   7.860   4.801  15.716
  104CHL1  H21C13937   7.777   4.775  15.880
  104CHL1   C2213938   7.978   5.111  15.747
  104CHL1  H22A13939   7.952   5.242  15.743
  104CHL1  H22B13940   8.092   5.096  15.803
  104CHL1   C2313941   8.008   5.058  15.599
  104CHL1  H23A13942   8.106   5.137  15.563
  104CHL1  H23B13943   8.051   4.932  15.597
  104CHL1   C2413944   7.868   5.071  15.499
  104CHL1  H24A13945   7.771   4.988  15.532
  104CHL1  H24B13946   7.823   5.195  15.502
  104CHL1   C2513947   7.902   5.034  15.349
  104CHL1   H2513948   7.933   4.904  15.340
  104CHL1   C2613949   7.747   5.063  15.268
  104CHL1  H26A13950   7.643   5.011  15.320
  104CHL1  H26B13951   7.726   5.194  15.256
  104CHL1  H26C13952   7.754   5.009  15.167
  104CHL1   C2713953   8.040   5.132  15.289
  104CHL1  H27A13954   8.023   5.262  15.310
  104CHL1  H27B13955   8.158   5.094  15.332
  104CHL1  H27C13956   8.046   5.116  15.179
  105CHL1    C313957   7.256   3.934  16.728
  105CHL1    H313958   7.357   4.021  16.718
  105CHL1    O313959   7.216   3.917  16.864
  105CHL1   H3'13960   7.309   3.869  16.905
  105CHL1    C413961   7.110   3.996  16.649
  105CHL1   H4A13962   7.006   3.918  16.674
  105CHL1   H4B13963   7.081   4.117  16.690
  105CHL1    C513964   7.135   3.998  16.499
  105CHL1    C613965   7.110   4.132  16.427
  105CHL1    H613966   7.067   4.241  16.477
  105CHL1    C713967   7.128   4.139  16.277
  105CHL1   H7A13968   7.021   4.196  16.230
  105CHL1   H7B13969   7.234   4.214  16.252
  105CHL1    C813970   7.151   3.971  16.213
  105CHL1    H813971   7.033   3.910  16.212
  105CHL1   C1413972   7.214   3.985  16.071
  105CHL1   H1413973   7.337   4.033  16.087
  105CHL1   C1513974   7.133   4.102  15.972
  105CHL1  H15A13975   7.001   4.102  15.986
  105CHL1  H15B13976   7.177   4.225  15.987
  105CHL1   C1613977   7.180   4.038  15.833
  105CHL1  H16A13978   7.070   3.986  15.785
  105CHL1  H16B13979   7.228   4.134  15.767
  105CHL1   C1713980   7.304   3.904  15.858
  105CHL1   H1713981   7.421   3.967  15.874
  105CHL1   C1313982   7.255   3.832  15.996
  105CHL1   C1813983   7.102   3.730  15.981
  105CHL1  H18A13984   7.013   3.786  15.913
  105CHL1  H18B13985   7.132   3.610  15.940
  105CHL1  H18C13986   7.042   3.709  16.078
  105CHL1   C1213987   7.385   3.748  16.081
  105CHL1  H12A13988   7.427   3.634  16.037
  105CHL1  H12B13989   7.490   3.828  16.090
  105CHL1   C1113990   7.321   3.713  16.222
  105CHL1  H11A13991   7.220   3.626  16.214
  105CHL1  H11B13992   7.417   3.652  16.280
  105CHL1    C913993   7.266   3.868  16.296
  105CHL1    H913994   7.378   3.941  16.306
  105CHL1   C1013995   7.204   3.841  16.440
  105CHL1   C1913996   7.064   3.716  16.438
  105CHL1  H19A13997   7.108   3.598  16.403
  105CHL1  H19B13998   7.012   3.698  16.539
  105CHL1  H19C13999   6.966   3.756  16.371
  105CHL1    C114000   7.345   3.776  16.526
  105CHL1   H1A14001   7.375   3.654  16.492
  105CHL1   H1B14002   7.452   3.854  16.510
  105CHL1    C214003   7.309   3.769  16.676
  105CHL1   H2A14004   7.418   3.730  16.729
  105CHL1   H2B14005   7.211   3.682  16.694
  105CHL1   C2014006   7.330   3.786  15.742
  105CHL1   H2014007   7.237   3.690  15.752
  105CHL1   C2114008   7.498   3.708  15.755
  105CHL1  H21A14009   7.514   3.618  15.675
  105CHL1  H21B14010   7.513   3.647  15.851
  105CHL1  H21C14011   7.594   3.800  15.748
  105CHL1   C2214012   7.303   3.853  15.598
  105CHL1  H22A14013   7.292   3.746  15.532
  105CHL1  H22B14014   7.188   3.918  15.591
  105CHL1   C2314015   7.441   3.955  15.541
  105CHL1  H23A14016   7.457   4.066  15.602
  105CHL1  H23B14017   7.554   3.887  15.548
  105CHL1   C2414018   7.421   3.997  15.392
  105CHL1  H24A14019   7.528   4.068  15.362
  105CHL1  H24B14020   7.420   3.884  15.332
  105CHL1   C2514021   7.273   4.099  15.352
  105CHL1   H2514022   7.164   4.024  15.363
  105CHL1   C2614023   7.256   4.246  15.443
  105CHL1  H26A14024   7.217   4.211  15.545
  105CHL1  H26B14025   7.375   4.303  15.454
  105CHL1  H26C14026   7.170   4.333  15.401
  105CHL1   C2714027   7.286   4.150  15.205
  105CHL1  H27A14028   7.178   4.219  15.174
  105CHL1  H27B14029   7.394   4.226  15.188
  105CHL1  H27C14030   7.296   4.043  15.140
  106CHL1    C314031   2.303   2.990  16.733
  106CHL1    H314032   2.340   3.116  16.757
  106CHL1    O314033   2.267   2.909  16.854
  106CHL1   H3'14034   2.368   2.900  16.900
  106CHL1    C414035   2.152   2.992  16.647
  106CHL1   H4A14036   2.105   2.868  16.642
  106CHL1   H4B14037   2.058   3.064  16.698
  106CHL1    C514038   2.183   3.052  16.506
  106CHL1    C614039   2.108   3.181  16.459
  106CHL1    H614040   2.023   3.247  16.522
  106CHL1    C714041   2.117   3.234  16.319
  106CHL1   H7A14042   1.993   3.264  16.288
  106CHL1   H7B14043   2.191   3.343  16.308
  106CHL1    C814044   2.184   3.101  16.228
  106CHL1    H814045   2.093   3.005  16.218
  106CHL1   C1414046   2.224   3.176  16.097
  106CHL1   H1414047   2.333   3.251  16.117
  106CHL1   C1514048   2.106   3.302  16.051
  106CHL1  H15A14049   1.986   3.277  16.090
  106CHL1  H15B14050   2.148   3.422  16.086
  106CHL1   C1614051   2.110   3.289  15.901
  106CHL1  H16A14052   1.993   3.238  15.865
  106CHL1  H16B14053   2.128   3.410  15.864
  106CHL1   C1714054   2.256   3.182  15.864
  106CHL1   H1714055   2.363   3.263  15.871
  106CHL1   C1314056   2.267   3.065  15.982
  106CHL1   C1814057   2.144   2.929  15.957
  106CHL1  H18A14058   2.197   2.842  15.885
  106CHL1  H18B14059   2.116   2.862  16.049
  106CHL1  H18C14060   2.032   2.975  15.913
  106CHL1   C1214061   2.432   3.004  16.028
  106CHL1  H12A14062   2.480   2.916  15.955
  106CHL1  H12B14063   2.518   3.106  16.033
  106CHL1   C1114064   2.422   2.927  16.171
  106CHL1  H11A14065   2.357   2.812  16.157
  106CHL1  H11B14066   2.544   2.900  16.203
  106CHL1    C914067   2.338   3.031  16.282
  106CHL1    H914068   2.419   3.136  16.297
  106CHL1   C1014069   2.308   2.958  16.424
  106CHL1   C1914070   2.255   2.783  16.402
  106CHL1  H19A14071   2.215   2.722  16.494
  106CHL1  H19B14072   2.154   2.780  16.329
  106CHL1  H19C14073   2.356   2.712  16.359
  106CHL1    C114074   2.459   2.970  16.515
  106CHL1   H1A14075   2.552   2.899  16.465
  106CHL1   H1B14076   2.502   3.096  16.519
  106CHL1    C214077   2.441   2.906  16.659
  106CHL1   H2A14078   2.555   2.924  16.715
  106CHL1   H2B14079   2.417   2.776  16.654
  106CHL1   C2014080   2.242   3.126  15.717
  106CHL1   H2014081   2.152   3.029  15.711
  106CHL1   C2114082   2.404   3.058  15.669
  106CHL1  H21A14083   2.390   3.014  15.565
  106CHL1  H21B14084   2.442   2.956  15.732
  106CHL1  H21C14085   2.498   3.152  15.671
  106CHL1   C2214086   2.179   3.265  15.626
  106CHL1  H22A14087   2.051   3.287  15.647
  106CHL1  H22B14088   2.246   3.376  15.656
  106CHL1   C2314089   2.201   3.252  15.472
  106CHL1  H23A14090   2.330   3.270  15.457
  106CHL1  H23B14091   2.174   3.131  15.433
  106CHL1   C2414092   2.100   3.380  15.392
  106CHL1  H24A14093   1.974   3.340  15.390
  106CHL1  H24B14094   2.106   3.494  15.449
  106CHL1   C2514095   2.160   3.418  15.248
  106CHL1   H2514096   2.285   3.378  15.261
  106CHL1   C2614097   2.087   3.319  15.131
  106CHL1  H26A14098   2.038   3.204  15.165
  106CHL1  H26B14099   1.996   3.383  15.071
  106CHL1  H26C14100   2.180   3.293  15.057
  106CHL1   C2714101   2.174   3.595  15.210
  106CHL1  H27A14102   2.119   3.616  15.110
  106CHL1  H27B14103   2.110   3.670  15.282
  106CHL1  H27C14104   2.298   3.646  15.206
  107CHL1    C314105   4.841   7.506  16.718
  107CHL1    H314106   4.871   7.376  16.716
  107CHL1    O314107   4.825   7.553  16.853
  107CHL1   H3'14108   4.880   7.654  16.864
  107CHL1    C414109   4.979   7.602  16.655
  107CHL1   H4A14110   4.956   7.733  16.668
  107CHL1   H4B14111   5.090   7.574  16.712
  107CHL1    C514112   4.993   7.559  16.509
  107CHL1    C614113   5.128   7.490  16.461
  107CHL1    H614114   5.233   7.471  16.526
  107CHL1    C714115   5.146   7.445  16.318
  107CHL1   H7A14116   5.272   7.457  16.286
  107CHL1   H7B14117   5.110   7.318  16.302
  107CHL1    C814118   5.035   7.550  16.231
  107CHL1    H814119   5.068   7.679  16.248
  107CHL1   C1414120   5.063   7.512  16.086
  107CHL1   H1414121   5.044   7.379  16.075
  107CHL1   C1514122   5.231   7.544  16.032
  107CHL1  H15A14123   5.268   7.669  16.057
  107CHL1  H15B14124   5.320   7.459  16.074
  107CHL1   C1614125   5.207   7.523  15.882
  107CHL1  H16A14126   5.280   7.609  15.826
  107CHL1  H16B14127   5.244   7.398  15.856
  107CHL1   C1714128   5.024   7.543  15.852
  107CHL1   H1714129   4.978   7.422  15.828
  107CHL1   C1314130   4.949   7.594  15.988
  107CHL1   C1814131   4.963   7.778  16.003
  107CHL1  H18A14132   4.949   7.818  16.107
  107CHL1  H18B14133   5.082   7.823  15.967
  107CHL1  H18C14134   4.868   7.840  15.945
  107CHL1   C1214135   4.781   7.530  16.025
  107CHL1  H12A14136   4.687   7.570  15.954
  107CHL1  H12B14137   4.784   7.396  16.022
  107CHL1   C1114138   4.736   7.580  16.170
  107CHL1  H11A14139   4.722   7.712  16.169
  107CHL1  H11B14140   4.618   7.529  16.197
  107CHL1    C914141   4.862   7.525  16.276
  107CHL1    H914142   4.848   7.392  16.280
  107CHL1   C1014143   4.841   7.586  16.422
  107CHL1   C1914144   4.804   7.769  16.418
  107CHL1  H19A14145   4.690   7.792  16.366
  107CHL1  H19B14146   4.789   7.820  16.520
  107CHL1  H19C14147   4.901   7.836  16.366
  107CHL1    C114148   4.702   7.495  16.491
  107CHL1   H1A14149   4.588   7.524  16.438
  107CHL1   H1B14150   4.723   7.364  16.480
  107CHL1    C214151   4.682   7.534  16.641
  107CHL1   H2A14152   4.586   7.457  16.685
  107CHL1   H2B14153   4.645   7.661  16.654
  107CHL1   C2014154   4.998   7.654  15.729
  107CHL1   H2014155   5.051   7.774  15.753
  107CHL1   C2114156   4.817   7.675  15.705
  107CHL1  H21A14157   4.763   7.559  15.677
  107CHL1  H21B14158   4.794   7.763  15.624
  107CHL1  H21C14159   4.754   7.720  15.795
  107CHL1   C2214160   5.083   7.600  15.598
  107CHL1  H22A14161   5.214   7.583  15.617
  107CHL1  H22B14162   5.034   7.483  15.565
  107CHL1   C2314163   5.069   7.723  15.482
  107CHL1  H23A14164   4.940   7.739  15.454
  107CHL1  H23B14165   5.114   7.841  15.519
  107CHL1   C2414166   5.162   7.679  15.354
  107CHL1  H24A14167   5.287   7.651  15.386
  107CHL1  H24B14168   5.110   7.570  15.309
  107CHL1   C2514169   5.170   7.816  15.247
  107CHL1   H2514170   5.184   7.931  15.304
  107CHL1   C2614171   5.314   7.806  15.151
  107CHL1  H26A14172   5.320   7.913  15.085
  107CHL1  H26B14173   5.429   7.796  15.207
  107CHL1  H26C14174   5.300   7.698  15.085
  107CHL1   C2714175   5.017   7.826  15.161
  107CHL1  H27A14176   5.030   7.927  15.089
  107CHL1  H27B14177   5.002   7.714  15.103
  107CHL1  H27C14178   4.909   7.848  15.223
  108CHL1    C314179   7.262   2.946  16.729
  108CHL1    H314180   7.154   2.898  16.675
  108CHL1    O314181   7.249   2.903  16.865
  108CHL1   H3'14182   7.154   2.958  16.898
  108CHL1    C414183   7.416   2.870  16.675
  108CHL1   H4A14184   7.520   2.923  16.727
  108CHL1   H4B14185   7.415   2.741  16.698
  108CHL1    C514186   7.426   2.903  16.527
  108CHL1    C614187   7.432   2.779  16.442
  108CHL1    H614188   7.438   2.656  16.479
  108CHL1    C714189   7.439   2.798  16.293
  108CHL1   H7A14190   7.529   2.716  16.249
  108CHL1   H7B14191   7.318   2.767  16.254
  108CHL1    C814192   7.470   2.972  16.248
  108CHL1    H814193   7.600   3.000  16.260
  108CHL1   C1414194   7.426   2.983  16.102
  108CHL1   H1414195   7.297   2.944  16.095
  108CHL1   C1514196   7.517   2.872  16.004
  108CHL1  H15A14197   7.648   2.880  16.024
  108CHL1  H15B14198   7.478   2.744  16.014
  108CHL1   C1614199   7.477   2.944  15.867
  108CHL1  H16A14200   7.590   2.964  15.810
  108CHL1  H16B14201   7.399   2.861  15.809
  108CHL1   C1714202   7.388   3.106  15.896
  108CHL1   H1714203   7.258   3.076  15.898
  108CHL1   C1314204   7.429   3.150  16.042
  108CHL1   C1814205   7.601   3.222  16.043
  108CHL1  H18A14206   7.596   3.348  16.009
  108CHL1  H18B14207   7.652   3.221  16.145
  108CHL1  H18C14208   7.682   3.155  15.976
  108CHL1   C1214209   7.312   3.256  16.122
  108CHL1  H12A14210   7.312   3.380  16.085
  108CHL1  H12B14211   7.188   3.208  16.111
  108CHL1   C1114212   7.357   3.259  16.271
  108CHL1  H11A14213   7.474   3.322  16.282
  108CHL1  H11B14214   7.266   3.330  16.325
  108CHL1    C914215   7.368   3.088  16.331
  108CHL1    H914216   7.242   3.040  16.322
  108CHL1   C1014217   7.410   3.080  16.483
  108CHL1   C1914218   7.574   3.161  16.507
  108CHL1  H19A14219   7.670   3.100  16.449
  108CHL1  H19B14220   7.572   3.289  16.476
  108CHL1  H19C14221   7.608   3.157  16.615
  108CHL1    C114222   7.279   3.172  16.563
  108CHL1   H1A14223   7.301   3.302  16.553
  108CHL1   H1B14224   7.160   3.146  16.517
  108CHL1    C214225   7.270   3.128  16.713
  108CHL1   H2A14226   7.163   3.187  16.758
  108CHL1   H2B14227   7.378   3.174  16.765
  108CHL1   C2014228   7.415   3.233  15.790
  108CHL1   H2014229   7.541   3.277  15.792
  108CHL1   C2114230   7.303   3.373  15.822
  108CHL1  H21A14231   7.358   3.457  15.894
  108CHL1  H21B14232   7.192   3.329  15.868
  108CHL1  H21C14233   7.276   3.442  15.730
  108CHL1   C2214234   7.384   3.175  15.645
  108CHL1  H22A14235   7.384   3.282  15.578
  108CHL1  H22B14236   7.486   3.098  15.613
  108CHL1   C2314237   7.226   3.083  15.623
  108CHL1  H23A14238   7.214   2.984  15.697
  108CHL1  H23B14239   7.122   3.164  15.638
  108CHL1   C2414240   7.225   3.007  15.484
  108CHL1  H24A14241   7.259   3.098  15.408
  108CHL1  H24B14242   7.319   2.911  15.482
  108CHL1   C2514243   7.064   2.932  15.440
  108CHL1   H2514244   6.984   3.034  15.412
  108CHL1   C2614245   7.092   2.822  15.318
  108CHL1  H26A14246   7.183   2.731  15.341
  108CHL1  H26B14247   6.979   2.759  15.291
  108CHL1  H26C14248   7.132   2.894  15.230
  108CHL1   C2714249   6.979   2.837  15.551
  108CHL1  H27A14250   6.947   2.917  15.636
  108CHL1  H27B14251   6.865   2.784  15.512
  108CHL1  H27C14252   7.057   2.740  15.588
  109CHL1    C314253   3.234   7.590  16.688
  109CHL1    H314254   3.360   7.631  16.670
  109CHL1    O314255   3.208   7.577  16.827
  109CHL1   H3'14256   3.215   7.463  16.845
  109CHL1    C414257   3.119   7.711  16.619
  109CHL1   H4A14258   2.995   7.696  16.659
  109CHL1   H4B14259   3.156   7.834  16.652
  109CHL1    C514260   3.121   7.697  16.466
  109CHL1    C614261   3.149   7.819  16.383
  109CHL1    H614262   3.163   7.940  16.423
  109CHL1    C714263   3.162   7.801  16.232
  109CHL1   H7A14264   3.112   7.907  16.180
  109CHL1   H7B14265   3.289   7.796  16.201
  109CHL1    C814266   3.086   7.645  16.178
  109CHL1    H814267   2.954   7.658  16.180
  109CHL1   C1414268   3.143   7.606  16.037
  109CHL1   H1414269   3.269   7.562  16.047
  109CHL1   C1514270   3.161   7.741  15.936
  109CHL1  H15A14271   3.052   7.816  15.937
  109CHL1  H15B14272   3.265   7.819  15.959
  109CHL1   C1614273   3.187   7.648  15.805
  109CHL1  H16A14274   3.136   7.708  15.718
  109CHL1  H16B14275   3.319   7.640  15.790
  109CHL1   C1714276   3.122   7.471  15.826
  109CHL1   H1714277   3.235   7.400  15.829
  109CHL1   C1314278   3.052   7.470  15.969
  109CHL1   C1814279   2.870   7.506  15.957
  109CHL1  H18A14280   2.804   7.399  15.921
  109CHL1  H18B14281   2.815   7.540  16.053
  109CHL1  H18C14282   2.851   7.604  15.884
  109CHL1   C1214283   3.082   7.318  16.051
  109CHL1  H12A14284   2.999   7.222  16.016
  109CHL1  H12B14285   3.205   7.274  16.034
  109CHL1   C1114286   3.056   7.345  16.202
  109CHL1  H11A14287   2.924   7.340  16.217
  109CHL1  H11B14288   3.113   7.244  16.256
  109CHL1    C914289   3.128   7.501  16.262
  109CHL1    H914290   3.262   7.489  16.252
  109CHL1   C1014291   3.100   7.524  16.413
  109CHL1   C1914292   2.923   7.481  16.448
  109CHL1  H19A14293   2.890   7.358  16.418
  109CHL1  H19B14294   2.899   7.488  16.557
  109CHL1  H19C14295   2.839   7.565  16.397
  109CHL1    C114296   3.229   7.421  16.485
  109CHL1   H1A14297   3.227   7.297  16.447
  109CHL1   H1B14298   3.350   7.469  16.459
  109CHL1    C214299   3.212   7.422  16.636
  109CHL1   H2A14300   3.301   7.338  16.682
  109CHL1   H2B14301   3.090   7.379  16.664
  109CHL1   C2014302   3.018   7.392  15.716
  109CHL1   H2014303   2.888   7.423  15.727
  109CHL1   C2114304   3.032   7.208  15.732
  109CHL1  H21A14305   2.947   7.163  15.809
  109CHL1  H21B14306   3.155   7.176  15.764
  109CHL1  H21C14307   3.007   7.145  15.637
  109CHL1   C2214308   3.049   7.436  15.568
  109CHL1  H22A14309   2.987   7.346  15.505
  109CHL1  H22B14310   2.995   7.554  15.545
  109CHL1   C2314311   3.226   7.435  15.529
  109CHL1  H23A14312   3.293   7.524  15.590
  109CHL1  H23B14313   3.274   7.314  15.551
  109CHL1   C2414314   3.254   7.474  15.382
  109CHL1  H24A14315   3.191   7.384  15.320
  109CHL1  H24B14316   3.204   7.594  15.357
  109CHL1   C2514317   3.436   7.465  15.355
  109CHL1   H2514318   3.493   7.483  15.455
  109CHL1   C2614319   3.482   7.294  15.315
  109CHL1  H26A14320   3.414   7.243  15.231
  109CHL1  H26B14321   3.611   7.280  15.294
  109CHL1  H26C14322   3.462   7.216  15.402
  109CHL1   C2714323   3.506   7.603  15.269
  109CHL1  H27A14324   3.589   7.562  15.190
  109CHL1  H27B14325   3.410   7.675  15.221
  109CHL1  H27C14326   3.576   7.685  15.336
  110CHL1    C314327   1.516   6.560  16.718
  110CHL1    H314328   1.576   6.676  16.698
  110CHL1    O314329   1.505   6.528  16.858
  110CHL1   H3'14330   1.484   6.413  16.863
  110CHL1    C414331   1.355   6.592  16.649
  110CHL1   H4A14332   1.274   6.492  16.679
  110CHL1   H4B14333   1.306   6.706  16.693
  110CHL1    C514334   1.367   6.601  16.497
  110CHL1    C614335   1.307   6.719  16.422
  110CHL1    H614336   1.249   6.822  16.471
  110CHL1    C714337   1.292   6.702  16.272
  110CHL1   H7A14338   1.165   6.686  16.250
  110CHL1   H7B14339   1.314   6.814  16.220
  110CHL1    C814340   1.369   6.559  16.198
  110CHL1    H814341   1.276   6.466  16.186
  110CHL1   C1414342   1.436   6.601  16.061
  110CHL1   H1414343   1.556   6.658  16.079
  110CHL1   C1514344   1.350   6.725  15.974
  110CHL1  H15A14345   1.223   6.703  15.971
  110CHL1  H15B14346   1.363   6.850  16.009
  110CHL1   C1614347   1.423   6.700  15.836
  110CHL1  H16A14348   1.326   6.674  15.763
  110CHL1  H16B14349   1.492   6.808  15.806
  110CHL1   C1714350   1.537   6.554  15.848
  110CHL1   H1714351   1.657   6.605  15.870
  110CHL1   C1314352   1.489   6.460  15.975
  110CHL1   C1814353   1.349   6.346  15.941
  110CHL1  H18A14354   1.393   6.239  15.885
  110CHL1  H18B14355   1.289   6.299  16.031
  110CHL1  H18C14356   1.259   6.407  15.877
  110CHL1   C1214357   1.624   6.378  16.058
  110CHL1  H12A14358   1.666   6.268  16.008
  110CHL1  H12B14359   1.727   6.462  16.063
  110CHL1   C1114360   1.570   6.337  16.203
  110CHL1  H11A14361   1.475   6.245  16.196
  110CHL1  H11B14362   1.673   6.286  16.257
  110CHL1    C914363   1.502   6.486  16.279
  110CHL1    H914364   1.602   6.575  16.280
  110CHL1   C1014365   1.454   6.466  16.429
  110CHL1   C1914366   1.334   6.328  16.440
  110CHL1  H19A14367   1.308   6.298  16.546
  110CHL1  H19B14368   1.218   6.354  16.390
  110CHL1  H19C14369   1.386   6.224  16.390
  110CHL1    C114370   1.613   6.442  16.505
  110CHL1   H1A14371   1.667   6.335  16.460
  110CHL1   H1B14372   1.693   6.546  16.486
  110CHL1    C214373   1.601   6.418  16.656
  110CHL1   H2A14374   1.723   6.400  16.700
  110CHL1   H2B14375   1.530   6.308  16.677
  110CHL1   C2014376   1.553   6.466  15.716
  110CHL1   H2014377   1.434   6.414  15.689
  110CHL1   C2114378   1.674   6.334  15.739
  110CHL1  H21A14379   1.614   6.235  15.793
  110CHL1  H21B14380   1.775   6.377  15.802
  110CHL1  H21C14381   1.724   6.288  15.644
  110CHL1   C2214382   1.607   6.571  15.596
  110CHL1  H22A14383   1.566   6.696  15.607
  110CHL1  H22B14384   1.740   6.576  15.595
  110CHL1   C2314385   1.543   6.502  15.464
  110CHL1  H23A14386   1.600   6.382  15.452
  110CHL1  H23B14387   1.411   6.485  15.472
  110CHL1   C2414388   1.578   6.605  15.341
  110CHL1  H24A14389   1.517   6.722  15.354
  110CHL1  H24B14390   1.709   6.628  15.333
  110CHL1   C2514391   1.517   6.534  15.207
  110CHL1   H2514392   1.382   6.535  15.211
  110CHL1   C2614393   1.571   6.638  15.089
  110CHL1  H26A14394   1.543   6.766  15.108
  110CHL1  H26B14395   1.703   6.625  15.074
  110CHL1  H26C14396   1.510   6.600  14.996
  110CHL1   C2714397   1.571   6.360  15.186
  110CHL1  H27A14398   1.703   6.350  15.188
  110CHL1  H27B14399   1.522   6.282  15.266
  110CHL1  H27C14400   1.526   6.313  15.089
  111CHL1    C314401   3.924   0.808  16.767
  111CHL1    H314402   3.856   0.695  16.789
  111CHL1    O314403   3.924   0.902  16.885
  111CHL1   H3'14404   4.009   0.850  16.934
  111CHL1    C414405   4.098   0.769  16.731
  111CHL1   H4A14406   4.163   0.883  16.711
  111CHL1   H4B14407   4.156   0.712  16.818
  111CHL1    C514408   4.099   0.664  16.608
  111CHL1    C614409   4.160   0.516  16.613
  111CHL1    H614410   4.213   0.472  16.706
  111CHL1    C714411   4.170   0.407  16.494
  111CHL1   H7A14412   4.289   0.347  16.490
  111CHL1   H7B14413   4.076   0.313  16.503
  111CHL1    C814414   4.141   0.500  16.362
  111CHL1    H814415   4.248   0.580  16.345
  111CHL1   C1414416   4.128   0.386  16.246
  111CHL1   H1414417   4.022   0.307  16.266
  111CHL1   C1514418   4.273   0.275  16.228
  111CHL1  H15A14419   4.385   0.338  16.259
  111CHL1  H15B14420   4.259   0.164  16.288
  111CHL1   C1614421   4.274   0.240  16.078
  111CHL1  H16A14422   4.390   0.283  16.036
  111CHL1  H16B14423   4.266   0.112  16.056
  111CHL1   C1714424   4.128   0.330  16.016
  111CHL1   H1714425   4.022   0.248  16.023
  111CHL1   C1314426   4.096   0.469  16.113
  111CHL1   C1814427   4.219   0.602  16.085
  111CHL1  H18A14428   4.199   0.652  15.984
  111CHL1  H18B14429   4.212   0.703  16.155
  111CHL1  H18C14430   4.343   0.556  16.091
  111CHL1   C1214431   3.925   0.539  16.123
  111CHL1  H12A14432   3.890   0.604  16.030
  111CHL1  H12B14433   3.838   0.440  16.139
  111CHL1   C1114434   3.914   0.660  16.240
  111CHL1  H11A14435   3.974   0.770  16.206
  111CHL1  H11B14436   3.786   0.690  16.257
  111CHL1    C914437   3.989   0.601  16.375
  111CHL1    H914438   3.899   0.515  16.415
  111CHL1   C1014439   4.013   0.733  16.483
  111CHL1   C1914440   4.117   0.871  16.425
  111CHL1  H19A14441   4.230   0.827  16.380
  111CHL1  H19B14442   4.051   0.938  16.346
  111CHL1  H19C14443   4.148   0.960  16.503
  111CHL1    C114444   3.845   0.798  16.522
  111CHL1   H1A14445   3.798   0.871  16.438
  111CHL1   H1B14446   3.762   0.694  16.534
  111CHL1    C214447   3.842   0.895  16.652
  111CHL1   H2A14448   3.715   0.916  16.680
  111CHL1   H2B14449   3.902   1.014  16.635
  111CHL1   C2014450   4.157   0.361  15.867
  111CHL1   H2014451   4.274   0.425  15.857
  111CHL1   C2114452   4.031   0.472  15.800
  111CHL1  H21A14453   3.913   0.410  15.793
  111CHL1  H21B14454   4.072   0.505  15.698
  111CHL1  H21C14455   4.018   0.587  15.854
  111CHL1   C2214456   4.170   0.202  15.788
  111CHL1  H22A14457   4.273   0.130  15.827
  111CHL1  H22B14458   4.060   0.130  15.804
  111CHL1   C2314459   4.195   0.233  15.638
  111CHL1  H23A14460   4.087   0.290  15.594
  111CHL1  H23B14461   4.297   0.317  15.631
  111CHL1   C2414462   4.236   0.088  15.551
  111CHL1  H24A14463   4.324   0.010  15.604
  111CHL1  H24B14464   4.127   0.016  15.532
  111CHL1   C2514465   4.308   0.140  15.416
  111CHL1   H2514466   4.430   0.193  15.434
  111CHL1   C2614467   4.332  -0.007  15.330
  111CHL1  H26A14468   4.417  -0.084  15.385
  111CHL1  H26B14469   4.218  -0.076  15.319
  111CHL1  H26C14470   4.380   0.020  15.229
  111CHL1   C2714471   4.210   0.264  15.339
  111CHL1  H27A14472   4.219   0.245  15.229
  111CHL1  H27B14473   4.081   0.264  15.369
  111CHL1  H27C14474   4.262   0.383  15.356
  112CHL1    C314475   5.574   0.839  16.735
  112CHL1    H314476   5.555   0.708  16.750
  112CHL1    O314477   5.592   0.912  16.863
  112CHL1   H3'14478   5.549   1.019  16.850
  112CHL1    C414479   5.729   0.866  16.654
  112CHL1   H4A14480   5.768   0.992  16.672
  112CHL1   H4B14481   5.822   0.788  16.698
  112CHL1    C514482   5.718   0.844  16.504
  112CHL1    C614483   5.828   0.762  16.433
  112CHL1    H614484   5.933   0.708  16.484
  112CHL1    C714485   5.832   0.757  16.283
  112CHL1   H7A14486   5.957   0.776  16.245
  112CHL1   H7B14487   5.792   0.637  16.246
  112CHL1    C814488   5.722   0.888  16.222
  112CHL1    H814489   5.778   1.007  16.239
  112CHL1   C1414490   5.710   0.865  16.072
  112CHL1   H1414491   5.660   0.742  16.057
  112CHL1   C1514492   5.867   0.872  15.991
  112CHL1  H15A14493   5.936   0.980  16.021
  112CHL1  H15B14494   5.941   0.764  16.004
  112CHL1   C1614495   5.806   0.893  15.847
  112CHL1  H16A14496   5.864   1.000  15.800
  112CHL1  H16B14497   5.831   0.786  15.785
  112CHL1   C1714498   5.621   0.922  15.859
  112CHL1   H1714499   5.562   0.802  15.851
  112CHL1   C1314500   5.592   0.978  16.002
  112CHL1   C1814501   5.648   1.156  16.012
  112CHL1  H18A14502   5.662   1.194  16.118
  112CHL1  H18B14503   5.765   1.176  15.962
  112CHL1  H18C14504   5.560   1.237  15.965
  112CHL1   C1214505   5.425   0.950  16.063
  112CHL1  H12A14506   5.333   1.030  16.019
  112CHL1  H12B14507   5.388   0.824  16.044
  112CHL1   C1114508   5.428   0.984  16.213
  112CHL1  H11A14509   5.450   1.115  16.224
  112CHL1  H11B14510   5.306   0.960  16.255
  112CHL1    C914511   5.556   0.883  16.288
  112CHL1    H914512   5.514   0.756  16.279
  112CHL1   C1014513   5.570   0.922  16.439
  112CHL1   C1914514   5.590   1.104  16.453
  112CHL1  H19A14515   5.473   1.158  16.427
  112CHL1  H19B14516   5.618   1.144  16.556
  112CHL1  H19C14517   5.683   1.153  16.386
  112CHL1    C114518   5.417   0.872  16.516
  112CHL1   H1A14519   5.312   0.938  16.475
  112CHL1   H1B14520   5.393   0.743  16.501
  112CHL1    C214521   5.424   0.911  16.667
  112CHL1   H2A14522   5.315   0.864  16.717
  112CHL1   H2B14523   5.425   1.043  16.681
  112CHL1   C2014524   5.556   1.022  15.745
  112CHL1   H2014525   5.621   1.140  15.741
  112CHL1   C2114526   5.376   1.061  15.761
  112CHL1  H21A14527   5.304   0.950  15.775
  112CHL1  H21B14528   5.327   1.127  15.674
  112CHL1  H21C14529   5.356   1.144  15.846
  112CHL1   C2214530   5.592   0.934  15.613
  112CHL1  H22A14531   5.723   0.941  15.591
  112CHL1  H22B14532   5.557   0.805  15.620
  112CHL1   C2314533   5.498   1.009  15.500
  112CHL1  H23A14534   5.370   0.976  15.509
  112CHL1  H23B14535   5.509   1.142  15.510
  112CHL1   C2414536   5.557   0.964  15.362
  112CHL1  H24A14537   5.689   0.980  15.355
  112CHL1  H24B14538   5.530   0.836  15.338
  112CHL1   C2514539   5.478   1.078  15.263
  112CHL1   H2514540   5.501   1.204  15.296
  112CHL1   C2614541   5.557   1.054  15.128
  112CHL1  H26A14542   5.582   0.926  15.110
  112CHL1  H26B14543   5.486   1.106  15.044
  112CHL1  H26C14544   5.676   1.112  15.133
  112CHL1   C2714545   5.297   1.060  15.258
  112CHL1  H27A14546   5.252   1.146  15.183
  112CHL1  H27B14547   5.260   0.936  15.232
  112CHL1  H27C14548   5.242   1.092  15.355
  113CHL1    C314549   0.700   6.007  16.714
  113CHL1    H314550   0.698   5.874  16.704
  113CHL1    O314551   0.704   6.047  16.852
  113CHL1   H3'14552   0.655   5.957  16.898
  113CHL1    C414553   0.846   6.078  16.641
  113CHL1   H4A14554   0.848   6.210  16.652
  113CHL1   H4B14555   0.958   6.040  16.691
  113CHL1    C514556   0.839   6.023  16.497
  113CHL1    C614557   0.938   5.914  16.445
  113CHL1    H614558   1.032   5.862  16.507
  113CHL1    C714559   0.934   5.860  16.302
  113CHL1   H7A14560   1.055   5.830  16.264
  113CHL1   H7B14561   0.858   5.750  16.292
  113CHL1    C814562   0.863   5.996  16.217
  113CHL1    H814563   0.946   6.100  16.229
  113CHL1   C1414564   0.846   5.948  16.070
  113CHL1   H1414565   0.744   5.862  16.065
  113CHL1   C1514566   0.988   5.866  16.000
  113CHL1  H15A14567   1.104   5.902  16.045
  113CHL1  H15B14568   0.972   5.734  16.006
  113CHL1   C1614569   0.979   5.924  15.853
  113CHL1  H16A14570   1.080   6.008  15.833
  113CHL1  H16B14571   0.984   5.825  15.780
  113CHL1   C1714572   0.817   6.012  15.843
  113CHL1   H1714573   0.725   5.915  15.839
  113CHL1   C1314574   0.804   6.089  15.980
  113CHL1   C1814575   0.935   6.218  15.994
  113CHL1  H18A14576   0.990   6.254  15.898
  113CHL1  H18B14577   0.878   6.324  16.039
  113CHL1  H18C14578   1.036   6.179  16.058
  113CHL1   C1214579   0.637   6.144  16.021
  113CHL1  H12A14580   0.600   6.253  15.966
  113CHL1  H12B14581   0.569   6.038  15.990
  113CHL1   C1114582   0.622   6.175  16.171
  113CHL1  H11A14583   0.678   6.293  16.175
  113CHL1  H11B14584   0.498   6.198  16.203
  113CHL1    C914585   0.698   6.050  16.268
  113CHL1    H914586   0.619   5.942  16.261
  113CHL1   C1014587   0.702   6.100  16.418
  113CHL1   C1914588   0.721   6.281  16.430
  113CHL1  H19A14589   0.648   6.354  16.362
  113CHL1  H19B14590   0.690   6.326  16.530
  113CHL1  H19C14591   0.848   6.310  16.410
  113CHL1    C114592   0.552   6.042  16.495
  113CHL1   H1A14593   0.448   6.102  16.452
  113CHL1   H1B14594   0.539   5.910  16.479
  113CHL1    C214595   0.547   6.072  16.648
  113CHL1   H2A14596   0.436   6.020  16.691
  113CHL1   H2B14597   0.545   6.202  16.670
  113CHL1   C2014598   0.792   6.115  15.719
  113CHL1   H2014599   0.863   6.228  15.725
  113CHL1   C2114600   0.613   6.156  15.705
  113CHL1  H21A14601   0.581   6.186  15.601
  113CHL1  H21B14602   0.578   6.259  15.769
  113CHL1  H21C14603   0.542   6.048  15.735
  113CHL1   C2214604   0.842   6.031  15.589
  113CHL1  H22A14605   0.808   6.114  15.507
  113CHL1  H22B14606   0.976   6.018  15.584
  113CHL1   C2314607   0.762   5.867  15.568
  113CHL1  H23A14608   0.796   5.782  15.647
  113CHL1  H23B14609   0.629   5.881  15.573
  113CHL1   C2414610   0.802   5.794  15.431
  113CHL1  H24A14611   0.934   5.778  15.421
  113CHL1  H24B14612   0.746   5.672  15.430
  113CHL1   C2514613   0.732   5.897  15.317
  113CHL1   H2514614   0.641   5.978  15.363
  113CHL1   C2614615   0.858   6.004  15.248
  113CHL1  H26A14616   0.955   5.929  15.204
  113CHL1  H26B14617   0.802   6.073  15.166
  113CHL1  H26C14618   0.914   6.089  15.318
  113CHL1   C2714619   0.642   5.794  15.214
  113CHL1  H27A14620   0.532   5.856  15.179
  113CHL1  H27B14621   0.721   5.772  15.126
  113CHL1  H27C14622   0.605   5.676  15.257
  114CHL1    C314623   6.452   8.579  16.734
  114CHL1    H314624   6.576   8.628  16.727
  114CHL1    O314625   6.406   8.564  16.870
  114CHL1   H3'14626   6.302   8.512  16.866
  114CHL1    C414627   6.336   8.694  16.662
  114CHL1   H4A14628   6.210   8.657  16.684
  114CHL1   H4B14629   6.352   8.814  16.709
  114CHL1    C514630   6.361   8.700  16.513
  114CHL1    C614631   6.378   8.839  16.449
  114CHL1    H614632   6.371   8.953  16.505
  114CHL1    C714633   6.388   8.852  16.300
  114CHL1   H7A14634   6.307   8.950  16.265
  114CHL1   H7B14635   6.511   8.884  16.269
  114CHL1    C814636   6.337   8.694  16.229
  114CHL1    H814637   6.204   8.684  16.235
  114CHL1   C1414638   6.386   8.706  16.085
  114CHL1   H1414639   6.522   8.711  16.085
  114CHL1   C1514640   6.331   8.858  16.013
  114CHL1  H15A14641   6.204   8.885  16.041
  114CHL1  H15B14642   6.407   8.963  16.037
  114CHL1   C1614643   6.343   8.813  15.866
  114CHL1  H16A14644   6.223   8.826  15.818
  114CHL1  H16B14645   6.432   8.888  15.813
  114CHL1   C1714646   6.396   8.633  15.862
  114CHL1   H1714647   6.528   8.632  15.864
  114CHL1   C1314648   6.344   8.562  15.998
  114CHL1   C1814649   6.162   8.533  15.992
  114CHL1  H18A14650   6.095   8.636  15.952
  114CHL1  H18B14651   6.139   8.428  15.928
  114CHL1  H18C14652   6.112   8.506  16.092
  114CHL1   C1214653   6.433   8.417  16.058
  114CHL1  H12A14654   6.409   8.305  16.000
  114CHL1  H12B14655   6.564   8.440  16.053
  114CHL1   C1114656   6.383   8.393  16.205
  114CHL1  H11A14657   6.252   8.366  16.205
  114CHL1  H11B14658   6.439   8.284  16.248
  114CHL1    C914659   6.414   8.546  16.292
  114CHL1    H914660   6.546   8.566  16.289
  114CHL1   C1014661   6.366   8.534  16.442
  114CHL1   C1914662   6.194   8.467  16.449
  114CHL1  H19A14663   6.109   8.542  16.391
  114CHL1  H19B14664   6.194   8.344  16.409
  114CHL1  H19C14665   6.149   8.460  16.553
  114CHL1    C114666   6.484   8.422  16.517
  114CHL1   H1A14667   6.474   8.300  16.473
  114CHL1   H1B14668   6.610   8.465  16.500
  114CHL1    C214669   6.450   8.412  16.668
  114CHL1   H2A14670   6.540   8.334  16.716
  114CHL1   H2B14671   6.331   8.356  16.683
  114CHL1   C2014672   6.347   8.556  15.729
  114CHL1   H2014673   6.214   8.555  15.723
  114CHL1   C2114674   6.414   8.383  15.725
  114CHL1  H21A14675   6.403   8.330  15.624
  114CHL1  H21B14676   6.348   8.304  15.795
  114CHL1  H21C14677   6.542   8.382  15.756
  114CHL1   C2214678   6.407   8.662  15.611
  114CHL1  H22A14679   6.364   8.788  15.623
  114CHL1  H22B14680   6.539   8.664  15.621
  114CHL1   C2314681   6.358   8.618  15.467
  114CHL1  H23A14682   6.452   8.664  15.398
  114CHL1  H23B14683   6.355   8.488  15.454
  114CHL1   C2414684   6.200   8.704  15.427
  114CHL1  H24A14685   6.106   8.672  15.500
  114CHL1  H24B14686   6.220   8.836  15.436
  114CHL1   C2514687   6.137   8.674  15.284
  114CHL1   H2514688   6.005   8.654  15.291
  114CHL1   C2614689   6.167   8.819  15.192
  114CHL1  H26A14690   6.114   8.929  15.235
  114CHL1  H26B14691   6.298   8.838  15.179
  114CHL1  H26C14692   6.112   8.798  15.093
  114CHL1   C2714693   6.208   8.526  15.217
  114CHL1  H27A14694   6.155   8.508  15.117
  114CHL1  H27B14695   6.340   8.537  15.206
  114CHL1  H27C14696   6.182   8.417  15.277
  115CHL1    C314697   2.238   0.815  16.723
  115CHL1    H314698   2.110   0.788  16.697
  115CHL1    O314699   2.251   0.829  16.864
  115CHL1   H3'14700   2.249   0.720  16.898
  115CHL1    C414701   2.344   0.674  16.674
  115CHL1   H4A14702   2.466   0.690  16.714
  115CHL1   H4B14703   2.296   0.562  16.718
  115CHL1    C514704   2.350   0.665  16.522
  115CHL1    C614705   2.309   0.532  16.456
  115CHL1    H614706   2.270   0.424  16.511
  115CHL1    C714707   2.324   0.516  16.307
  115CHL1   H7A14708   2.376   0.397  16.281
  115CHL1   H7B14709   2.203   0.524  16.260
  115CHL1    C814710   2.432   0.648  16.245
  115CHL1    H814711   2.558   0.622  16.276
  115CHL1   C1414712   2.423   0.643  16.095
  115CHL1   H1414713   2.294   0.671  16.069
  115CHL1   C1514714   2.464   0.485  16.026
  115CHL1  H15A14715   2.581   0.439  16.062
  115CHL1  H15B14716   2.374   0.391  16.047
  115CHL1   C1614717   2.473   0.532  15.878
  115CHL1  H16A14718   2.578   0.472  15.831
  115CHL1  H16B14719   2.363   0.499  15.823
  115CHL1   C1714720   2.489   0.719  15.876
  115CHL1   H1714721   2.365   0.766  15.855
  115CHL1   C1314722   2.522   0.769  16.021
  115CHL1   C1814723   2.704   0.744  16.050
  115CHL1  H18A14724   2.748   0.629  16.009
  115CHL1  H18B14725   2.774   0.841  16.004
  115CHL1  H18C14726   2.730   0.746  16.158
  115CHL1   C1214727   2.464   0.936  16.066
  115CHL1  H12A14728   2.539   1.031  16.021
  115CHL1  H12B14729   2.338   0.954  16.032
  115CHL1   C1114730   2.471   0.952  16.219
  115CHL1  H11A14731   2.600   0.954  16.244
  115CHL1  H11B14732   2.419   1.069  16.249
  115CHL1    C914733   2.384   0.814  16.297
  115CHL1    H914734   2.255   0.827  16.273
  115CHL1   C1014735   2.399   0.822  16.451
  115CHL1   C1914736   2.576   0.854  16.486
  115CHL1  H19A14737   2.597   0.856  16.596
  115CHL1  H19B14738   2.658   0.766  16.439
  115CHL1  H19C14739   2.610   0.976  16.450
  115CHL1    C114740   2.291   0.959  16.505
  115CHL1   H1A14741   2.329   1.075  16.461
  115CHL1   H1B14742   2.167   0.935  16.470
  115CHL1    C214743   2.286   0.973  16.658
  115CHL1   H2A14744   2.197   1.067  16.687
  115CHL1   H2B14745   2.405   1.012  16.696
  115CHL1   C2014746   2.600   0.778  15.766
  115CHL1   H2014747   2.726   0.740  15.788
  115CHL1   C2114748   2.594   0.961  15.754
  115CHL1  H21A14749   2.470   1.006  15.749
  115CHL1  H21B14750   2.658   1.001  15.662
  115CHL1  H21C14751   2.653   1.019  15.840
  115CHL1   C2214752   2.557   0.704  15.630
  115CHL1  H22A14753   2.638   0.760  15.554
  115CHL1  H22B14754   2.581   0.574  15.626
  115CHL1   C2314755   2.382   0.736  15.591
  115CHL1  H23A14756   2.306   0.634  15.624
  115CHL1  H23B14757   2.333   0.840  15.645
  115CHL1   C2414758   2.372   0.767  15.442
  115CHL1  H24A14759   2.440   0.880  15.422
  115CHL1  H24B14760   2.434   0.668  15.387
  115CHL1   C2514761   2.203   0.785  15.386
  115CHL1   H2514762   2.142   0.665  15.384
  115CHL1   C2614763   2.094   0.900  15.464
  115CHL1  H26A14764   1.973   0.906  15.418
  115CHL1  H26B14765   2.081   0.859  15.569
  115CHL1  H26C14766   2.147   1.022  15.464
  115CHL1   C2714767   2.228   0.841  15.243
  115CHL1  H27A14768   2.311   0.947  15.240
  115CHL1  H27B14769   2.278   0.744  15.178
  115CHL1  H27C14770   2.113   0.878  15.203
  116CHL1    C314771   3.098   0.361  16.710
  116CHL1    H314772   3.011   0.268  16.678
  116CHL1    O314773   3.106   0.358  16.853
  116CHL1   H3'14774   3.138   0.250  16.873
  116CHL1    C414775   3.264   0.320  16.652
  116CHL1   H4A14776   3.354   0.401  16.699
  116CHL1   H4B14777   3.295   0.198  16.686
  116CHL1    C514778   3.274   0.337  16.501
  116CHL1    C614779   3.330   0.222  16.422
  116CHL1    H614780   3.364   0.109  16.465
  116CHL1    C714781   3.366   0.240  16.277
  116CHL1   H7A14782   3.486   0.191  16.252
  116CHL1   H7B14783   3.277   0.169  16.222
  116CHL1    C814784   3.347   0.413  16.224
  116CHL1    H814785   3.455   0.485  16.246
  116CHL1   C1414786   3.331   0.402  16.075
  116CHL1   H1414787   3.233   0.314  16.055
  116CHL1   C1514788   3.478   0.338  16.002
  116CHL1  H15A14789   3.584   0.414  16.026
  116CHL1  H15B14790   3.508   0.212  16.027
  116CHL1   C1614791   3.424   0.361  15.858
  116CHL1  H16A14792   3.530   0.396  15.799
  116CHL1  H16B14793   3.372   0.246  15.821
  116CHL1   C1714794   3.283   0.486  15.857
  116CHL1   H1714795   3.173   0.410  15.849
  116CHL1   C1314796   3.281   0.554  16.000
  116CHL1   C1814797   3.410   0.686  16.011
  116CHL1  H18A14798   3.443   0.709  16.117
  116CHL1  H18B14799   3.521   0.655  15.955
  116CHL1  H18C14800   3.364   0.800  15.968
  116CHL1   C1214801   3.120   0.610  16.060
  116CHL1  H12A14802   3.079   0.720  16.011
  116CHL1  H12B14803   3.029   0.515  16.042
  116CHL1   C1114804   3.136   0.636  16.213
  116CHL1  H11A14805   3.218   0.738  16.233
  116CHL1  H11B14806   3.016   0.672  16.252
  116CHL1    C914807   3.197   0.484  16.287
  116CHL1    H914808   3.098   0.395  16.269
  116CHL1   C1014809   3.217   0.496  16.441
  116CHL1   C1914810   3.359   0.607  16.474
  116CHL1  H19A14811   3.380   0.612  16.583
  116CHL1  H19B14812   3.474   0.565  16.431
  116CHL1  H19C14813   3.338   0.731  16.436
  116CHL1    C114814   3.053   0.540  16.506
  116CHL1   H1A14815   3.019   0.662  16.475
  116CHL1   H1B14816   2.960   0.457  16.463
  116CHL1    C214817   3.042   0.526  16.660
  116CHL1   H2A14818   2.916   0.545  16.694
  116CHL1   H2B14819   3.116   0.620  16.706
  116CHL1   C2014820   3.281   0.598  15.734
  116CHL1   H2014821   3.368   0.697  15.747
  116CHL1   C2114822   3.110   0.667  15.720
  116CHL1  H21A14823   3.096   0.731  15.623
  116CHL1  H21B14824   3.088   0.755  15.801
  116CHL1  H21C14825   3.018   0.571  15.726
  116CHL1   C2214826   3.329   0.504  15.605
  116CHL1  H22A14827   3.455   0.463  15.619
  116CHL1  H22B14828   3.251   0.397  15.596
  116CHL1   C2314829   3.338   0.590  15.469
  116CHL1  H23A14830   3.216   0.622  15.432
  116CHL1  H23B14831   3.408   0.703  15.483
  116CHL1   C2414832   3.421   0.481  15.365
  116CHL1  H24A14833   3.535   0.437  15.409
  116CHL1  H24B14834   3.342   0.377  15.346
  116CHL1   C2514835   3.468   0.559  15.232
  116CHL1   H2514836   3.361   0.624  15.192
  116CHL1   C2614837   3.605   0.677  15.256
  116CHL1  H26A14838   3.635   0.726  15.156
  116CHL1  H26B14839   3.571   0.776  15.324
  116CHL1  H26C14840   3.713   0.616  15.296
  116CHL1   C2714841   3.526   0.437  15.127
  116CHL1  H27A14842   3.464   0.320  15.141
  116CHL1  H27B14843   3.499   0.481  15.024
  116CHL1  H27C14844   3.656   0.416  15.135
  117CHL1    C314845   6.506   0.371  16.709
  117CHL1    H314846   6.637   0.347  16.697
  117CHL1    O314847   6.463   0.377  16.847
  117CHL1   H3'14848   6.506   0.476  16.884
  117CHL1    C414849   6.463   0.529  16.636
  117CHL1   H4A14850   6.338   0.563  16.664
  117CHL1   H4B14851   6.542   0.625  16.676
  117CHL1    C514852   6.478   0.516  16.486
  117CHL1    C614853   6.568   0.617  16.412
  117CHL1    H614854   6.635   0.715  16.460
  117CHL1    C714855   6.575   0.610  16.261
  117CHL1   H7A14856   6.569   0.732  16.217
  117CHL1   H7B14857   6.690   0.556  16.229
  117CHL1    C814858   6.437   0.508  16.201
  117CHL1    H814859   6.322   0.574  16.213
  117CHL1   C1414860   6.466   0.478  16.054
  117CHL1   H1414861   6.584   0.413  16.048
  117CHL1   C1514862   6.485   0.626  15.964
  117CHL1  H15A14863   6.395   0.719  15.992
  117CHL1  H15B14864   6.607   0.678  15.971
  117CHL1   C1614865   6.449   0.562  15.823
  117CHL1  H16A14866   6.341   0.624  15.782
  117CHL1  H16B14867   6.551   0.580  15.754
  117CHL1   C1714868   6.409   0.379  15.841
  117CHL1   H1714869   6.527   0.316  15.840
  117CHL1   C1314870   6.346   0.366  15.985
  117CHL1   C1814871   6.173   0.437  15.993
  117CHL1  H18A14872   6.167   0.559  15.949
  117CHL1  H18B14873   6.088   0.358  15.938
  117CHL1  H18C14874   6.132   0.445  16.098
  117CHL1   C1214875   6.354   0.202  16.054
  117CHL1  H12A14876   6.264   0.118  16.013
  117CHL1  H12B14877   6.475   0.150  16.038
  117CHL1   C1114878   6.323   0.216  16.205
  117CHL1  H11A14879   6.193   0.242  16.218
  117CHL1  H11B14880   6.346   0.097  16.252
  117CHL1    C914881   6.426   0.348  16.276
  117CHL1    H914882   6.551   0.299  16.273
  117CHL1   C1014883   6.385   0.374  16.425
  117CHL1   C1914884   6.205   0.419  16.440
  117CHL1  H19A14885   6.174   0.530  16.386
  117CHL1  H19B14886   6.127   0.320  16.401
  117CHL1  H19C14887   6.170   0.434  16.546
  117CHL1    C114888   6.422   0.216  16.501
  117CHL1   H1A14889   6.336   0.124  16.467
  117CHL1   H1B14890   6.545   0.175  16.475
  117CHL1    C214891   6.409   0.232  16.653
  117CHL1   H2A14892   6.444   0.118  16.703
  117CHL1   H2B14893   6.282   0.257  16.679
  117CHL1   C2014894   6.311   0.312  15.724
  117CHL1   H2014895   6.190   0.368  15.727
  117CHL1   C2114896   6.290   0.128  15.736
  117CHL1  H21A14897   6.407   0.070  15.754
  117CHL1  H21B14898   6.238   0.078  15.643
  117CHL1  H21C14899   6.205   0.097  15.818
  117CHL1   C2214900   6.390   0.356  15.588
  117CHL1  H22A14901   6.402   0.488  15.581
  117CHL1  H22B14902   6.512   0.305  15.584
  117CHL1   C2314903   6.294   0.307  15.464
  117CHL1  H23A14904   6.355   0.365  15.377
  117CHL1  H23B14905   6.299   0.175  15.448
  117CHL1   C2414906   6.120   0.364  15.475
  117CHL1  H24A14907   6.055   0.288  15.549
  117CHL1  H24B14908   6.121   0.488  15.514
  117CHL1   C2514909   6.023   0.364  15.345
  117CHL1   H2514910   6.011   0.238  15.308
  117CHL1   C2614911   5.854   0.428  15.375
  117CHL1  H26A14912   5.860   0.542  15.432
  117CHL1  H26B14913   5.785   0.451  15.282
  117CHL1  H26C14914   5.785   0.340  15.436
  117CHL1   C2714915   6.106   0.463  15.235
  117CHL1  H27A14916   6.204   0.391  15.190
  117CHL1  H27B14917   6.019   0.497  15.155
  117CHL1  H27C14918   6.158   0.574  15.279
  118CHL1    C314919   8.915   1.894  16.730
  118CHL1    H314920   8.968   2.012  16.706
  118CHL1    O314921   8.870   1.889  16.868
  118CHL1   H3'14922   8.798   1.978  16.883
  118CHL1    C414923   8.765   1.862  16.643
  118CHL1   H4A14924   8.705   1.756  16.684
  118CHL1   H4B14925   8.681   1.966  16.658
  118CHL1    C514926   8.801   1.834  16.497
  118CHL1    C614927   8.717   1.909  16.402
  118CHL1    H614928   8.614   1.982  16.433
  118CHL1    C714929   8.750   1.895  16.256
  118CHL1   H7A14930   8.639   1.902  16.194
  118CHL1   H7B14931   8.827   1.999  16.228
  118CHL1    C814932   8.845   1.745  16.219
  118CHL1    H814933   8.765   1.638  16.228
  118CHL1   C1414934   8.908   1.763  16.078
  118CHL1   H1414935   8.989   1.867  16.083
  118CHL1   C1514936   8.789   1.808  15.965
  118CHL1  H15A14937   8.672   1.745  15.973
  118CHL1  H15B14938   8.765   1.939  15.964
  118CHL1   C1614939   8.880   1.758  15.839
  118CHL1  H16A14940   8.808   1.666  15.786
  118CHL1  H16B14941   8.898   1.858  15.768
  118CHL1   C1714942   9.043   1.684  15.886
  118CHL1   H1714943   9.130   1.783  15.898
  118CHL1   C1314944   9.010   1.624  16.027
  118CHL1   C1814945   8.903   1.475  16.015
  118CHL1  H18A14946   8.803   1.498  15.944
  118CHL1  H18B14947   8.972   1.372  15.976
  118CHL1  H18C14948   8.851   1.439  16.112
  118CHL1   C1214949   9.154   1.595  16.119
  118CHL1  H12A14950   9.209   1.478  16.092
  118CHL1  H12B14951   9.246   1.688  16.104
  118CHL1   C1114952   9.101   1.586  16.266
  118CHL1  H11A14953   9.028   1.476  16.273
  118CHL1  H11B14954   9.208   1.574  16.331
  118CHL1    C914955   8.990   1.727  16.313
  118CHL1    H914956   9.062   1.838  16.301
  118CHL1   C1014957   8.940   1.720  16.462
  118CHL1   C1914958   8.869   1.552  16.489
  118CHL1  H19A14959   8.957   1.454  16.470
  118CHL1  H19B14960   8.836   1.542  16.595
  118CHL1  H19C14961   8.759   1.530  16.428
  118CHL1    C114962   9.085   1.750  16.556
  118CHL1   H1A14963   9.172   1.649  16.547
  118CHL1   H1B14964   9.149   1.861  16.526
  118CHL1    C214965   9.041   1.764  16.706
  118CHL1   H2A14966   9.149   1.789  16.766
  118CHL1   H2B14967   8.993   1.646  16.741
  118CHL1   C2014968   9.112   1.570  15.780
  118CHL1   H2014969   9.025   1.472  15.768
  118CHL1   C2114970   9.265   1.477  15.815
  118CHL1  H21A14971   9.304   1.402  15.729
  118CHL1  H21B14972   9.245   1.393  15.899
  118CHL1  H21C14973   9.365   1.555  15.841
  118CHL1   C2214974   9.122   1.669  15.651
  118CHL1  H22A14975   9.000   1.708  15.619
  118CHL1  H22B14976   9.193   1.778  15.673
  118CHL1   C2314977   9.194   1.598  15.527
  118CHL1  H23A14978   9.322   1.564  15.542
  118CHL1  H23B14979   9.125   1.489  15.499
  118CHL1   C2414980   9.181   1.729  15.419
  118CHL1  H24A14981   9.053   1.750  15.394
  118CHL1  H24B14982   9.230   1.844  15.456
  118CHL1   C2514983   9.272   1.684  15.294
  118CHL1   H2514984   9.401   1.669  15.324
  118CHL1   C2614985   9.202   1.526  15.246
  118CHL1  H26A14986   9.253   1.488  15.149
  118CHL1  H26B14987   9.223   1.424  15.316
  118CHL1  H26C14988   9.073   1.547  15.230
  118CHL1   C2714989   9.264   1.810  15.182
  118CHL1  H27A14990   9.319   1.760  15.089
  118CHL1  H27B14991   9.138   1.843  15.161
  118CHL1  H27C14992   9.331   1.919  15.211
  119CHL1    C314993   1.435   0.294  16.725
  119CHL1    H314994   1.356   0.186  16.717
  119CHL1    O314995   1.486   0.311  16.860
  119CHL1   H3'14996   1.387   0.310  16.914
  119CHL1    C414997   1.585   0.265  16.638
  119CHL1   H4A14998   1.686   0.340  16.674
  119CHL1   H4B14999   1.625   0.139  16.656
  119CHL1    C515000   1.554   0.298  16.491
  119CHL1    C615001   1.583   0.188  16.397
  119CHL1    H615002   1.633   0.073  16.427
  119CHL1    C715003   1.560   0.220  16.250
  119CHL1   H7A15004   1.658   0.163  16.193
  119CHL1   H7B15005   1.446   0.166  16.216
  119CHL1    C815006   1.564   0.398  16.214
  119CHL1    H815007   1.687   0.443  16.231
  119CHL1   C1415008   1.516   0.424  16.068
  119CHL1   H1415009   1.388   0.382  16.060
  119CHL1   C1515010   1.608   0.335  15.955
  119CHL1  H15A15011   1.738   0.334  15.979
  119CHL1  H15B15012   1.564   0.209  15.949
  119CHL1   C1615013   1.574   0.434  15.826
  119CHL1  H16A15014   1.688   0.470  15.779
  119CHL1  H16B15015   1.505   0.360  15.754
  119CHL1   C1715016   1.472   0.581  15.876
  119CHL1   H1715017   1.350   0.528  15.871
  119CHL1   C1315018   1.518   0.598  16.024
  119CHL1   C1815019   1.692   0.665  16.030
  119CHL1  H18A15020   1.745   0.650  16.130
  119CHL1  H18B15021   1.774   0.605  15.958
  119CHL1  H18C15022   1.692   0.794  16.007
  119CHL1   C1215023   1.403   0.692  16.115
  119CHL1  H12A15024   1.409   0.821  16.088
  119CHL1  H12B15025   1.278   0.649  16.098
  119CHL1   C1115026   1.445   0.671  16.263
  119CHL1  H11A15027   1.565   0.726  16.278
  119CHL1  H11B15028   1.358   0.738  16.325
  119CHL1    C915029   1.450   0.492  16.306
  119CHL1    H915030   1.327   0.443  16.286
  119CHL1   C1015031   1.481   0.461  16.458
  119CHL1   C1915032   1.597   0.590  16.510
  119CHL1  H19A15033   1.708   0.594  16.448
  119CHL1  H19B15034   1.536   0.709  16.506
  119CHL1  H19C15035   1.632   0.574  16.615
  119CHL1    C115036   1.320   0.466  16.535
  119CHL1   H1A15037   1.260   0.583  16.516
  119CHL1   H1B15038   1.241   0.370  16.497
  119CHL1    C215039   1.339   0.444  16.688
  119CHL1   H2A15040   1.219   0.438  16.735
  119CHL1   H2B15041   1.399   0.553  16.728
  119CHL1   C2015042   1.463   0.745  15.804
  119CHL1   H2015043   1.554   0.829  15.845
  119CHL1   C2115044   1.292   0.805  15.841
  119CHL1  H21A15045   1.298   0.919  15.897
  119CHL1  H21B15046   1.218   0.719  15.897
  119CHL1  H21C15047   1.220   0.821  15.750
  119CHL1   C2215048   1.483   0.757  15.651
  119CHL1  H22A15049   1.598   0.704  15.617
  119CHL1  H22B15050   1.386   0.680  15.610
  119CHL1   C2315051   1.470   0.928  15.584
  119CHL1  H23A15052   1.495   1.027  15.653
  119CHL1  H23B15053   1.566   0.934  15.507
  119CHL1   C2415054   1.304   0.946  15.515
  119CHL1  H24A15055   1.294   0.824  15.479
  119CHL1  H24B15056   1.216   0.959  15.593
  119CHL1   C2515057   1.261   1.038  15.384
  119CHL1   H2515058   1.193   1.147  15.409
  119CHL1   C2615059   1.408   1.098  15.318
  119CHL1  H26A15060   1.462   1.012  15.247
  119CHL1  H26B15061   1.345   1.189  15.259
  119CHL1  H26C15062   1.496   1.146  15.390
  119CHL1   C2715063   1.162   0.966  15.265
  119CHL1  H27A15064   1.237   0.890  15.200
  119CHL1  H27B15065   1.051   0.899  15.291
  119CHL1  H27C15066   1.126   1.067  15.199
  120CHL1    C315067   8.814   9.058  16.701
  120CHL1    H315068   8.687   9.017  16.706
  120CHL1    O315069   8.867   9.097  16.833
  120CHL1   H3'15070   8.803   9.185  16.864
  120CHL1    C415071   8.917   8.920  16.648
  120CHL1   H4A15072   9.042   8.960  16.661
  120CHL1   H4B15073   8.904   8.813  16.713
  120CHL1    C515074   8.900   8.881  16.501
  120CHL1    C615075   8.875   8.730  16.458
  120CHL1    H615076   8.869   8.630  16.530
  120CHL1    C715077   8.885   8.684  16.313
  120CHL1   H7A15078   8.964   8.578  16.300
  120CHL1   H7B15079   8.765   8.650  16.275
  120CHL1    C815080   8.956   8.821  16.224
  120CHL1    H815081   9.086   8.826  16.238
  120CHL1   C1415082   8.926   8.784  16.078
  120CHL1   H1415083   8.792   8.779  16.068
  120CHL1   C1515084   8.978   8.620  16.025
  120CHL1  H15A15085   9.106   8.597  16.052
  120CHL1  H15B15086   8.902   8.522  16.068
  120CHL1   C1615087   8.957   8.639  15.874
  120CHL1  H16A15088   9.067   8.599  15.820
  120CHL1  H16B15089   8.854   8.567  15.837
  120CHL1   C1715090   8.926   8.821  15.850
  120CHL1   H1715091   8.794   8.838  15.861
  120CHL1   C1315092   8.988   8.906  15.977
  120CHL1   C1815093   9.173   8.910  15.974
  120CHL1  H18A15094   9.222   8.944  16.073
  120CHL1  H18B15095   9.223   8.792  15.945
  120CHL1  H18C15096   9.215   9.000  15.900
  120CHL1   C1215097   8.917   9.072  16.010
  120CHL1  H12A15098   8.977   9.166  15.949
  120CHL1  H12B15099   8.790   9.073  15.982
  120CHL1   C1115100   8.939   9.116  16.158
  120CHL1  H11A15101   9.068   9.139  16.169
  120CHL1  H11B15102   8.874   9.230  16.179
  120CHL1    C915103   8.885   8.986  16.260
  120CHL1    H915104   8.752   8.975  16.252
  120CHL1   C1015105   8.918   9.028  16.409
  120CHL1   C1915106   9.092   9.092  16.416
  120CHL1  H19A15107   9.101   9.212  16.370
  120CHL1  H19B15108   9.134   9.107  16.520
  120CHL1  H19C15109   9.178   9.011  16.366
  120CHL1    C115110   8.800   9.160  16.460
  120CHL1   H1A15111   8.815   9.269  16.398
  120CHL1   H1B15112   8.674   9.118  16.446
  120CHL1    C215113   8.825   9.205  16.609
  120CHL1   H2A15114   8.736   9.298  16.640
  120CHL1   H2B15115   8.947   9.259  16.619
  120CHL1   C2015116   8.962   8.878  15.707
  120CHL1   H2015117   9.085   8.842  15.679
  120CHL1   C2115118   8.946   9.060  15.693
  120CHL1  H21A15119   8.956   9.096  15.586
  120CHL1  H21B15120   9.041   9.122  15.750
  120CHL1  H21C15121   8.826   9.100  15.730
  120CHL1   C2215122   8.844   8.797  15.609
  120CHL1  H22A15123   8.765   8.718  15.669
  120CHL1  H22B15124   8.768   8.887  15.557
  120CHL1   C2315125   8.908   8.672  15.512
  120CHL1  H23A15126   8.995   8.596  15.566
  120CHL1  H23B15127   8.800   8.599  15.485
  120CHL1   C2415128   8.974   8.732  15.379
  120CHL1  H24A15129   8.874   8.792  15.324
  120CHL1  H24B15130   9.066   8.825  15.397
  120CHL1   C2515131   9.034   8.592  15.291
  120CHL1   H2515132   8.924   8.518  15.271
  120CHL1   C2615133   9.091   8.647  15.154
  120CHL1  H26A15134   9.208   8.712  15.159
  120CHL1  H26B15135   9.106   8.544  15.086
  120CHL1  H26C15136   9.001   8.730  15.110
  120CHL1   C2715137   9.158   8.482  15.358
  120CHL1  H27A15138   9.266   8.549  15.392
  120CHL1  H27B15139   9.108   8.422  15.448
  120CHL1  H27C15140   9.197   8.387  15.288
  121CHL1    C315141   5.170   4.591  13.227
  121CHL1    H315142   5.136   4.720  13.232
  121CHL1    O315143   5.172   4.537  13.092
  121CHL1   H3'15144   5.231   4.619  13.041
  121CHL1    C415145   5.336   4.565  13.288
  121CHL1   H4A15146   5.378   4.444  13.261
  121CHL1   H4B15147   5.420   4.651  13.239
  121CHL1    C515148   5.341   4.578  13.439
  121CHL1    C615149   5.447   4.676  13.498
  121CHL1    H615150   5.532   4.745  13.437
  121CHL1    C715151   5.465   4.688  13.646
  121CHL1   H7A15152   5.594   4.690  13.673
  121CHL1   H7B15153   5.408   4.801  13.682
  121CHL1    C815154   5.386   4.544  13.719
  121CHL1    H815155   5.465   4.440  13.700
  121CHL1   C1415156   5.375   4.579  13.866
  121CHL1   H1415157   5.276   4.670  13.880
  121CHL1   C1515158   5.521   4.654  13.928
  121CHL1  H15A15159   5.633   4.589  13.901
  121CHL1  H15B15160   5.527   4.777  13.892
  121CHL1   C1615161   5.486   4.644  14.078
  121CHL1  H16A15162   5.599   4.607  14.127
  121CHL1  H16B15163   5.444   4.760  14.119
  121CHL1   C1715164   5.351   4.519  14.094
  121CHL1   H1715165   5.237   4.585  14.114
  121CHL1   C1315166   5.335   4.440  13.956
  121CHL1   C1815167   5.476   4.318  13.951
  121CHL1  H18A15168   5.436   4.202  13.995
  121CHL1  H18B15169   5.522   4.298  13.850
  121CHL1  H18C15170   5.582   4.358  14.008
  121CHL1   C1215171   5.168   4.381  13.913
  121CHL1  H12A15172   5.141   4.264  13.959
  121CHL1  H12B15173   5.078   4.469  13.949
  121CHL1   C1115174   5.148   4.366  13.759
  121CHL1  H11A15175   5.213   4.253  13.736
  121CHL1  H11B15176   5.020   4.348  13.735
  121CHL1    C915177   5.219   4.504  13.671
  121CHL1    H915178   5.143   4.612  13.690
  121CHL1   C1015179   5.218   4.476  13.516
  121CHL1   C1915180   5.264   4.298  13.493
  121CHL1  H19A15181   5.381   4.272  13.543
  121CHL1  H19B15182   5.172   4.218  13.537
  121CHL1  H19C15183   5.274   4.265  13.387
  121CHL1    C115184   5.050   4.513  13.456
  121CHL1   H1A15185   4.958   4.435  13.503
  121CHL1   H1B15186   5.017   4.639  13.480
  121CHL1    C215187   5.045   4.490  13.302
  121CHL1   H2A15188   4.922   4.514  13.262
  121CHL1   H2B15189   5.076   4.364  13.278
  121CHL1   C2015190   5.388   4.412  14.213
  121CHL1   H2015191   5.500   4.342  14.198
  121CHL1   C2115192   5.250   4.294  14.232
  121CHL1  H21A15193   5.233   4.217  14.143
  121CHL1  H21B15194   5.140   4.364  14.252
  121CHL1  H21C15195   5.273   4.211  14.317
  121CHL1   C2215196   5.417   4.512  14.338
  121CHL1  H22A15197   5.534   4.576  14.330
  121CHL1  H22B15198   5.322   4.606  14.351
  121CHL1   C2315199   5.423   4.405  14.461
  121CHL1  H23A15200   5.298   4.373  14.488
  121CHL1  H23B15201   5.491   4.294  14.440
  121CHL1   C2415202   5.503   4.495  14.573
  121CHL1  H24A15203   5.630   4.520  14.549
  121CHL1  H24B15204   5.442   4.614  14.576
  121CHL1   C2515205   5.489   4.414  14.709
  121CHL1   H2515206   5.539   4.506  14.776
  121CHL1   C2615207   5.315   4.373  14.748
  121CHL1  H26A15208   5.236   4.478  14.732
  121CHL1  H26B15209   5.267   4.272  14.688
  121CHL1  H26C15210   5.309   4.338  14.855
  121CHL1   C2715211   5.599   4.270  14.733
  121CHL1  H27A15212   5.567   4.168  14.668
  121CHL1  H27B15213   5.725   4.308  14.715
  121CHL1  H27C15214   5.590   4.232  14.839
  122CHL1    C315215   3.184   4.541  13.254
  122CHL1    H315216   3.287   4.466  13.291
  122CHL1    O315217   3.172   4.517  13.115
  122CHL1   H3'15218   3.078   4.574  13.085
  122CHL1    C415219   3.028   4.487  13.319
  122CHL1   H4A15220   2.927   4.561  13.282
  122CHL1   H4B15221   3.004   4.361  13.287
  122CHL1    C515222   3.042   4.504  13.469
  122CHL1    C615223   3.024   4.375  13.547
  122CHL1    H615224   2.995   4.256  13.503
  122CHL1    C715225   3.035   4.386  13.695
  122CHL1   H7A15226   2.946   4.307  13.745
  122CHL1   H7B15227   3.152   4.343  13.726
  122CHL1    C815228   3.034   4.556  13.753
  122CHL1    H815229   2.909   4.603  13.749
  122CHL1   C1415230   3.090   4.544  13.896
  122CHL1   H1415231   3.214   4.492  13.894
  122CHL1   C1515232   2.989   4.435  13.986
  122CHL1  H15A15233   2.862   4.469  13.969
  122CHL1  H15B15234   3.006   4.306  13.967
  122CHL1   C1615235   3.041   4.483  14.127
  122CHL1  H16A15236   2.932   4.510  14.186
  122CHL1  H16B15237   3.110   4.387  14.177
  122CHL1   C1715238   3.145   4.638  14.110
  122CHL1   H1715239   3.272   4.597  14.106
  122CHL1   C1315240   3.107   4.704  13.969
  122CHL1   C1815241   2.945   4.793  13.974
  122CHL1  H18A15242   2.857   4.728  14.038
  122CHL1  H18B15243   2.962   4.915  14.017
  122CHL1  H18C15244   2.891   4.806  13.874
  122CHL1   C1215245   3.234   4.801  13.891
  122CHL1  H12A15246   3.253   4.920  13.937
  122CHL1  H12B15247   3.349   4.734  13.894
  122CHL1   C1115248   3.185   4.824  13.743
  122CHL1  H11A15249   3.078   4.903  13.740
  122CHL1  H11B15250   3.283   4.886  13.689
  122CHL1    C915251   3.146   4.662  13.672
  122CHL1    H915252   3.264   4.596  13.672
  122CHL1   C1015253   3.095   4.670  13.522
  122CHL1   C1915254   2.946   4.782  13.512
  122CHL1  H19A15255   2.849   4.738  13.578
  122CHL1  H19B15256   2.976   4.906  13.542
  122CHL1  H19C15257   2.899   4.786  13.409
  122CHL1    C115258   3.236   4.738  13.437
  122CHL1   H1A15259   3.258   4.866  13.462
  122CHL1   H1B15260   3.347   4.669  13.465
  122CHL1    C215261   3.215   4.718  13.285
  122CHL1   H2A15262   3.325   4.760  13.233
  122CHL1   H2B15263   3.112   4.792  13.250
  122CHL1   C2015264   3.128   4.744  14.234
  122CHL1   H2015265   3.002   4.790  14.241
  122CHL1   C2115266   3.240   4.891  14.223
  122CHL1  H21A15267   3.204   4.967  14.137
  122CHL1  H21B15268   3.366   4.853  14.210
  122CHL1  H21C15269   3.230   4.967  14.313
  122CHL1   C2215270   3.158   4.639  14.361
  122CHL1  H22A15271   3.049   4.566  14.381
  122CHL1  H22B15272   3.259   4.555  14.341
  122CHL1   C2315273   3.200   4.730  14.490
  122CHL1  H23A15274   3.314   4.796  14.472
  122CHL1  H23B15275   3.103   4.818  14.511
  122CHL1   C2415276   3.224   4.620  14.611
  122CHL1  H24A15277   3.120   4.537  14.621
  122CHL1  H24B15278   3.334   4.544  14.595
  122CHL1   C2515279   3.245   4.711  14.745
  122CHL1   H2515280   3.130   4.771  14.766
  122CHL1   C2615281   3.278   4.600  14.863
  122CHL1  H26A15282   3.176   4.518  14.883
  122CHL1  H26B15283   3.386   4.525  14.843
  122CHL1  H26C15284   3.301   4.672  14.955
  122CHL1   C2715285   3.374   4.843  14.736
  122CHL1  H27A15286   3.370   4.920  14.826
  122CHL1  H27B15287   3.496   4.788  14.727
  122CHL1  H27C15288   3.356   4.922  14.649
  123CHL1    C315289   6.226   4.612  13.244
  123CHL1    H315290   6.223   4.478  13.244
  123CHL1    O315291   6.148   4.668  13.126
  123CHL1   H3'15292   6.110   4.774  13.149
  123CHL1    C415293   6.133   4.676  13.366
  123CHL1   H4A15294   6.068   4.788  13.339
  123CHL1   H4B15295   6.036   4.586  13.382
  123CHL1    C515296   6.227   4.705  13.495
  123CHL1    C615297   6.154   4.674  13.611
  123CHL1    H615298   6.026   4.639  13.612
  123CHL1    C715299   6.232   4.693  13.745
  123CHL1   H7A15300   6.155   4.766  13.813
  123CHL1   H7B15301   6.245   4.573  13.792
  123CHL1    C815302   6.400   4.772  13.740
  123CHL1    H815303   6.384   4.904  13.734
  123CHL1   C1415304   6.490   4.729  13.866
  123CHL1   H1415305   6.499   4.595  13.865
  123CHL1   C1515306   6.410   4.771  14.001
  123CHL1  H15A15307   6.368   4.897  13.998
  123CHL1  H15B15308   6.306   4.692  14.023
  123CHL1   C1615309   6.548   4.750  14.101
  123CHL1  H16A15310   6.560   4.861  14.161
  123CHL1  H16B15311   6.529   4.646  14.169
  123CHL1   C1715312   6.703   4.722  14.015
  123CHL1   H1715313   6.719   4.590  14.002
  123CHL1   C1315314   6.661   4.790  13.876
  123CHL1   C1815315   6.662   4.976  13.879
  123CHL1  H18A15316   6.590   5.028  13.797
  123CHL1  H18B15317   6.614   5.026  13.974
  123CHL1  H18C15318   6.786   5.022  13.866
  123CHL1   C1215319   6.755   4.726  13.754
  123CHL1  H12A15320   6.880   4.770  13.752
  123CHL1  H12B15321   6.758   4.592  13.760
  123CHL1   C1115322   6.673   4.775  13.623
  123CHL1  H11A15323   6.680   4.908  13.615
  123CHL1  H11B15324   6.744   4.723  13.540
  123CHL1    C915325   6.496   4.716  13.618
  123CHL1    H915326   6.504   4.582  13.628
  123CHL1   C1015327   6.408   4.748  13.485
  123CHL1   C1915328   6.444   4.926  13.449
  123CHL1  H19A15329   6.572   4.942  13.422
  123CHL1  H19B15330   6.377   4.962  13.359
  123CHL1  H19C15331   6.414   5.009  13.531
  123CHL1    C115332   6.481   4.643  13.374
  123CHL1   H1A15333   6.608   4.679  13.366
  123CHL1   H1B15334   6.475   4.516  13.405
  123CHL1    C215335   6.400   4.667  13.238
  123CHL1   H2A15336   6.460   4.597  13.159
  123CHL1   H2B15337   6.408   4.794  13.207
  123CHL1   C2015338   6.854   4.787  14.082
  123CHL1   H2015339   6.827   4.916  14.087
  123CHL1   C2115340   7.000   4.780  13.989
  123CHL1  H21A15341   7.115   4.799  14.042
  123CHL1  H21B15342   6.989   4.877  13.916
  123CHL1  H21C15343   7.001   4.664  13.936
  123CHL1   C2215344   6.889   4.724  14.227
  123CHL1  H22A15345   6.796   4.783  14.286
  123CHL1  H22B15346   6.857   4.597  14.234
  123CHL1   C2315347   7.062   4.750  14.287
  123CHL1  H23A15348   7.151   4.676  14.233
  123CHL1  H23B15349   7.102   4.872  14.271
  123CHL1   C2415350   7.088   4.712  14.437
  123CHL1  H24A15351   7.026   4.798  14.502
  123CHL1  H24B15352   7.036   4.596  14.455
  123CHL1   C2515353   7.260   4.702  14.495
  123CHL1   H2515354   7.333   4.624  14.429
  123CHL1   C2615355   7.338   4.867  14.508
  123CHL1  H26A15356   7.264   4.945  14.574
  123CHL1  H26B15357   7.459   4.858  14.555
  123CHL1  H26C15358   7.350   4.926  14.409
  123CHL1   C2715359   7.249   4.624  14.634
  123CHL1  H27A15360   7.171   4.696  14.701
  123CHL1  H27B15361   7.196   4.501  14.627
  123CHL1  H27C15362   7.369   4.613  14.681
  124CHL1    C315363   4.276   6.293  13.242
  124CHL1    H315364   4.207   6.392  13.289
  124CHL1    O315365   4.254   6.296  13.101
  124CHL1   H3'15366   4.139   6.287  13.084
  124CHL1    C415367   4.456   6.311  13.279
  124CHL1   H4A15368   4.520   6.208  13.234
  124CHL1   H4B15369   4.505   6.420  13.231
  124CHL1    C515370   4.477   6.311  13.430
  124CHL1    C615371   4.547   6.430  13.501
  124CHL1    H615372   4.597   6.534  13.448
  124CHL1    C715373   4.566   6.424  13.651
  124CHL1   H7A15374   4.685   6.470  13.683
  124CHL1   H7B15375   4.470   6.498  13.693
  124CHL1    C815376   4.531   6.263  13.723
  124CHL1    H815377   4.640   6.190  13.710
  124CHL1   C1415378   4.480   6.280  13.872
  124CHL1   H1415379   4.356   6.334  13.869
  124CHL1   C1515380   4.568   6.392  13.966
  124CHL1  H15A15381   4.698   6.371  13.954
  124CHL1  H15B15382   4.543   6.520  13.948
  124CHL1   C1615383   4.525   6.338  14.108
  124CHL1  H16A15384   4.636   6.343  14.166
  124CHL1  H16B15385   4.438   6.420  14.156
  124CHL1   C1715386   4.456   6.166  14.101
  124CHL1   H1715387   4.325   6.182  14.118
  124CHL1   C1315388   4.466   6.120  13.948
  124CHL1   C1815389   4.621   6.023  13.925
  124CHL1  H18A15390   4.638   5.988  13.820
  124CHL1  H18B15391   4.727   6.094  13.958
  124CHL1  H18C15392   4.618   5.909  13.981
  124CHL1   C1215393   4.318   6.040  13.884
  124CHL1  H12A15394   4.302   5.917  13.925
  124CHL1  H12B15395   4.208   6.110  13.908
  124CHL1   C1115396   4.332   6.031  13.730
  124CHL1  H11A15397   4.417   5.934  13.709
  124CHL1  H11B15398   4.212   5.998  13.690
  124CHL1    C915399   4.390   6.184  13.653
  124CHL1    H915400   4.289   6.272  13.664
  124CHL1   C1015401   4.411   6.161  13.500
  124CHL1   C1915402   4.544   6.036  13.469
  124CHL1  H19A15403   4.547   5.939  13.543
  124CHL1  H19B15404   4.525   5.982  13.369
  124CHL1  H19C15405   4.667   6.089  13.471
  124CHL1    C115406   4.243   6.109  13.443
  124CHL1   H1A15407   4.225   5.981  13.469
  124CHL1   H1B15408   4.150   6.180  13.496
  124CHL1    C215409   4.214   6.131  13.292
  124CHL1   H2A15410   4.085   6.122  13.269
  124CHL1   H2B15411   4.277   6.034  13.236
  124CHL1   C2015412   4.517   6.044  14.213
  124CHL1   H2015413   4.602   5.960  14.168
  124CHL1   C2115414   4.366   5.953  14.259
  124CHL1  H21A15415   4.319   5.876  14.177
  124CHL1  H21B15416   4.268   6.037  14.289
  124CHL1  H21C15417   4.392   5.876  14.347
  124CHL1   C2215418   4.614   6.104  14.340
  124CHL1  H22A15419   4.686   6.210  14.315
  124CHL1  H22B15420   4.528   6.148  14.416
  124CHL1   C2315421   4.742   5.995  14.412
  124CHL1  H23A15422   4.675   5.918  14.483
  124CHL1  H23B15423   4.810   5.920  14.340
  124CHL1   C2415424   4.862   6.103  14.490
  124CHL1  H24A15425   4.949   6.160  14.423
  124CHL1  H24B15426   4.782   6.196  14.532
  124CHL1   C2515427   4.982   6.068  14.604
  124CHL1   H2515428   5.089   6.002  14.566
  124CHL1   C2615429   5.035   6.236  14.655
  124CHL1  H26A15430   5.119   6.230  14.741
  124CHL1  H26B15431   5.092   6.307  14.574
  124CHL1  H26C15432   4.927   6.304  14.689
  124CHL1   C2715433   4.906   5.980  14.718
  124CHL1  H27A15434   4.800   6.053  14.744
  124CHL1  H27B15435   4.865   5.858  14.687
  124CHL1  H27C15436   4.986   5.970  14.807
  125CHL1    C315437   5.148   6.288  13.203
  125CHL1    H315438   5.018   6.301  13.180
  125CHL1    O315439   5.234   6.260  13.082
  125CHL1   H3'15440   5.189   6.163  13.042
  125CHL1    C415441   5.213   6.443  13.267
  125CHL1   H4A15442   5.346   6.432  13.271
  125CHL1   H4B15443   5.189   6.544  13.197
  125CHL1    C515444   5.148   6.476  13.406
  125CHL1    C615445   5.077   6.617  13.439
  125CHL1    H615446   5.066   6.712  13.364
  125CHL1    C715447   5.023   6.659  13.579
  125CHL1   H7A15448   5.062   6.782  13.608
  125CHL1   H7B15449   4.890   6.653  13.585
  125CHL1    C815450   5.092   6.544  13.686
  125CHL1    H815451   5.222   6.568  13.697
  125CHL1   C1415452   5.015   6.578  13.823
  125CHL1   H1415453   4.882   6.574  13.806
  125CHL1   C1515454   5.047   6.744  13.888
  125CHL1  H15A15455   5.172   6.786  13.872
  125CHL1  H15B15456   4.962   6.835  13.849
  125CHL1   C1615457   5.017   6.720  14.038
  125CHL1  H16A15458   5.125   6.738  14.101
  125CHL1  H16B15459   4.927   6.808  14.070
  125CHL1   C1715460   4.957   6.545  14.050
  125CHL1   H1715461   4.829   6.556  14.023
  125CHL1   C1315462   5.046   6.455  13.932
  125CHL1   C1815463   5.227   6.451  13.962
  125CHL1  H18A15464   5.296   6.437  13.868
  125CHL1  H18B15465   5.273   6.560  14.012
  125CHL1  H18C15466   5.257   6.346  14.026
  125CHL1   C1215467   4.994   6.289  13.874
  125CHL1  H12A15468   5.014   6.190  13.946
  125CHL1  H12B15469   4.868   6.289  13.842
  125CHL1   C1115470   5.090   6.242  13.748
  125CHL1  H11A15471   5.218   6.226  13.774
  125CHL1  H11B15472   5.046   6.125  13.711
  125CHL1    C915473   5.069   6.370  13.636
  125CHL1    H915474   4.939   6.361  13.609
  125CHL1   C1015475   5.165   6.335  13.505
  125CHL1   C1915476   5.345   6.314  13.538
  125CHL1  H19A15477   5.393   6.420  13.593
  125CHL1  H19B15478   5.365   6.206  13.599
  125CHL1  H19C15479   5.418   6.300  13.446
  125CHL1    C115480   5.101   6.179  13.436
  125CHL1   H1A15481   5.129   6.074  13.501
  125CHL1   H1B15482   4.968   6.186  13.426
  125CHL1    C215483   5.173   6.144  13.296
  125CHL1   H2A15484   5.117   6.036  13.252
  125CHL1   H2B15485   5.304   6.120  13.306
  125CHL1   C2015486   4.958   6.482  14.195
  125CHL1   H2015487   5.074   6.517  14.245
  125CHL1   C2115488   4.956   6.302  14.179
  125CHL1  H21A15489   5.080   6.256  14.160
  125CHL1  H21B15490   4.873   6.266  14.099
  125CHL1  H21C15491   4.908   6.246  14.266
  125CHL1   C2215492   4.819   6.552  14.285
  125CHL1  H22A15493   4.865   6.673  14.301
  125CHL1  H22B15494   4.706   6.566  14.228
  125CHL1   C2315495   4.790   6.504  14.434
  125CHL1  H23A15496   4.864   6.400  14.460
  125CHL1  H23B15497   4.843   6.600  14.497
  125CHL1   C2415498   4.612   6.491  14.480
  125CHL1  H24A15499   4.554   6.610  14.470
  125CHL1  H24B15500   4.548   6.409  14.410
  125CHL1   C2515501   4.579   6.430  14.626
  125CHL1   H2515502   4.655   6.322  14.643
  125CHL1   C2615503   4.627   6.548  14.736
  125CHL1  H26A15504   4.522   6.619  14.769
  125CHL1  H26B15505   4.674   6.481  14.823
  125CHL1  H26C15506   4.722   6.631  14.702
  125CHL1   C2715507   4.405   6.374  14.651
  125CHL1  H27A15508   4.399   6.296  14.740
  125CHL1  H27B15509   4.326   6.480  14.669
  125CHL1  H27C15510   4.357   6.306  14.565
  126CHL1    C315511   3.083   6.175  13.217
  126CHL1    H315512   3.101   6.044  13.199
  126CHL1    O315513   3.089   6.260  13.094
  126CHL1   H3'15514   3.073   6.176  13.028
  126CHL1    C415515   2.918   6.203  13.283
  126CHL1   H4A15516   2.879   6.329  13.266
  126CHL1   H4B15517   2.831   6.127  13.228
  126CHL1    C515518   2.916   6.167  13.432
  126CHL1    C615519   2.810   6.068  13.489
  126CHL1    H615520   2.716   6.013  13.428
  126CHL1    C715521   2.810   6.031  13.635
  126CHL1   H7A15522   2.684   6.022  13.671
  126CHL1   H7B15523   2.866   5.912  13.652
  126CHL1    C815524   2.902   6.155  13.723
  126CHL1    H815525   2.825   6.263  13.734
  126CHL1   C1415526   2.941   6.084  13.859
  126CHL1   H1415527   3.041   5.996  13.841
  126CHL1   C1515528   2.812   5.981  13.925
  126CHL1  H15A15529   2.695   6.040  13.910
  126CHL1  H15B15530   2.808   5.858  13.882
  126CHL1   C1615531   2.856   5.984  14.072
  126CHL1  H16A15532   2.768   6.062  14.121
  126CHL1  H16B15533   2.856   5.863  14.119
  126CHL1   C1715534   3.017   6.076  14.083
  126CHL1   H1715535   3.103   5.981  14.055
  126CHL1   C1315536   3.010   6.197  13.965
  126CHL1   C1815537   2.892   6.336  13.999
  126CHL1  H18A15538   2.874   6.416  13.911
  126CHL1  H18B15539   2.772   6.292  14.029
  126CHL1  H18C15540   2.940   6.413  14.081
  126CHL1   C1215541   3.167   6.264  13.907
  126CHL1  H12A15542   3.212   6.364  13.970
  126CHL1  H12B15543   3.258   6.168  13.910
  126CHL1   C1115544   3.148   6.323  13.760
  126CHL1  H11A15545   3.077   6.436  13.765
  126CHL1  H11B15546   3.268   6.355  13.720
  126CHL1    C915547   3.061   6.203  13.664
  126CHL1    H915548   3.136   6.091  13.664
  126CHL1   C1015549   3.049   6.247  13.513
  126CHL1   C1915550   3.013   6.427  13.502
  126CHL1  H19A15551   3.024   6.470  13.397
  126CHL1  H19B15552   2.891   6.456  13.538
  126CHL1  H19C15553   3.100   6.500  13.561
  126CHL1    C115554   3.208   6.191  13.446
  126CHL1   H1A15555   3.310   6.239  13.503
  126CHL1   H1B15556   3.216   6.058  13.452
  126CHL1    C215557   3.223   6.239  13.299
  126CHL1   H2A15558   3.337   6.193  13.256
  126CHL1   H2B15559   3.224   6.372  13.291
  126CHL1   C2015560   3.062   6.130  14.225
  126CHL1   H2015561   3.007   6.250  14.244
  126CHL1   C2115562   3.247   6.143  14.232
  126CHL1  H21A15563   3.304   6.024  14.216
  126CHL1  H21B15564   3.289   6.181  14.332
  126CHL1  H21C15565   3.296   6.226  14.155
  126CHL1   C2215566   3.007   6.017  14.342
  126CHL1  H22A15567   2.884   5.972  14.326
  126CHL1  H22B15568   3.088   5.911  14.343
  126CHL1   C2315569   3.007   6.100  14.481
  126CHL1  H23A15570   3.110   6.185  14.485
  126CHL1  H23B15571   2.897   6.173  14.491
  126CHL1   C2415572   3.019   5.986  14.602
  126CHL1  H24A15573   2.917   5.900  14.604
  126CHL1  H24B15574   3.130   5.911  14.588
  126CHL1   C2515575   3.035   6.068  14.740
  126CHL1   H2515576   3.048   5.972  14.818
  126CHL1   C2615577   3.187   6.170  14.745
  126CHL1  H26A15578   3.163   6.287  14.696
  126CHL1  H26B15579   3.226   6.193  14.850
  126CHL1  H26C15580   3.287   6.109  14.692
  126CHL1   C2715581   2.894   6.178  14.781
  126CHL1  H27A15582   2.855   6.253  14.696
  126CHL1  H27B15583   2.791   6.108  14.818
  126CHL1  H27C15584   2.932   6.258  14.864
  127CHL1    C315585   4.097   7.739  13.239
  127CHL1    H315586   4.226   7.709  13.242
  127CHL1    O315587   4.049   7.750  13.103
  127CHL1   H3'15588   4.008   7.645  13.078
  127CHL1    C415589   3.996   7.609  13.312
  127CHL1   H4A15590   3.868   7.631  13.287
  127CHL1   H4B15591   4.027   7.492  13.266
  127CHL1    C515592   4.019   7.607  13.463
  127CHL1    C615593   4.058   7.474  13.530
  127CHL1    H615594   4.072   7.361  13.476
  127CHL1    C715595   4.078   7.468  13.680
  127CHL1   H7A15596   4.015   7.360  13.721
  127CHL1   H7B15597   4.207   7.456  13.705
  127CHL1    C815598   4.012   7.618  13.753
  127CHL1    H815599   3.878   7.608  13.756
  127CHL1   C1415600   4.076   7.627  13.895
  127CHL1   H1415601   4.210   7.644  13.882
  127CHL1   C1515602   4.062   7.478  13.984
  127CHL1  H15A15603   3.941   7.427  13.971
  127CHL1  H15B15604   4.157   7.391  13.958
  127CHL1   C1615605   4.075   7.538  14.128
  127CHL1  H16A15606   3.960   7.518  14.181
  127CHL1  H16B15607   4.171   7.476  14.185
  127CHL1   C1715608   4.109   7.720  14.110
  127CHL1   H1715609   4.240   7.729  14.087
  127CHL1   C1315610   4.021   7.768  13.980
  127CHL1   C1815611   3.836   7.764  14.003
  127CHL1  H18A15612   3.800   7.867  14.067
  127CHL1  H18B15613   3.770   7.772  13.908
  127CHL1  H18C15614   3.797   7.652  14.054
  127CHL1   C1215615   4.073   7.921  13.906
  127CHL1  H12A15616   4.024   8.029  13.957
  127CHL1  H12B15617   4.206   7.930  13.906
  127CHL1   C1115618   4.013   7.924  13.760
  127CHL1  H11A15619   3.881   7.938  13.764
  127CHL1  H11B15620   4.064   8.032  13.712
  127CHL1    C915621   4.060   7.770  13.680
  127CHL1    H915622   4.194   7.769  13.678
  127CHL1   C1015623   4.006   7.771  13.532
  127CHL1   C1915624   3.826   7.817  13.527
  127CHL1  H19A15625   3.756   7.733  13.590
  127CHL1  H19B15626   3.805   7.939  13.565
  127CHL1  H19C15627   3.776   7.813  13.424
  127CHL1    C115628   4.112   7.892  13.455
  127CHL1   H1A15629   4.102   8.014  13.501
  127CHL1   H1B15630   4.241   7.856  13.467
  127CHL1    C215631   4.075   7.903  13.305
  127CHL1   H2A15632   4.153   7.993  13.255
  127CHL1   H2B15633   3.949   7.939  13.290
  127CHL1   C2015634   4.085   7.814  14.238
  127CHL1   H2015635   3.956   7.812  14.269
  127CHL1   C2115636   4.132   7.984  14.203
  127CHL1  H21A15637   4.176   8.056  14.288
  127CHL1  H21B15638   4.019   8.041  14.166
  127CHL1  H21C15639   4.225   7.991  14.125
  127CHL1   C2215640   4.188   7.753  14.355
  127CHL1  H22A15641   4.284   7.673  14.317
  127CHL1  H22B15642   4.250   7.854  14.405
  127CHL1   C2315643   4.086   7.666  14.458
  127CHL1  H23A15644   4.010   7.753  14.514
  127CHL1  H23B15645   4.003   7.586  14.403
  127CHL1   C2415646   4.190   7.570  14.555
  127CHL1  H24A15647   4.291   7.514  14.499
  127CHL1  H24B15648   4.242   7.651  14.631
  127CHL1   C2515649   4.099   7.433  14.625
  127CHL1   H2515650   3.990   7.482  14.674
  127CHL1   C2615651   4.048   7.304  14.523
  127CHL1  H26A15652   3.959   7.354  14.453
  127CHL1  H26B15653   4.153   7.261  14.465
  127CHL1  H26C15654   3.994   7.201  14.576
  127CHL1   C2715655   4.204   7.355  14.732
  127CHL1  H27A15656   4.136   7.262  14.788
  127CHL1  H27B15657   4.312   7.300  14.687
  127CHL1  H27C15658   4.243   7.448  14.805
  128CHL1    C315659   2.462   2.064  13.240
  128CHL1    H315660   2.338   2.088  13.276
  128CHL1    O315661   2.461   2.064  13.097
  128CHL1   H3'15662   2.393   1.973  13.074
  128CHL1    C415663   2.575   2.196  13.291
  128CHL1   H4A15664   2.698   2.174  13.252
  128CHL1   H4B15665   2.534   2.312  13.248
  128CHL1    C515666   2.573   2.200  13.442
  128CHL1    C615667   2.527   2.332  13.508
  128CHL1    H615668   2.507   2.442  13.452
  128CHL1    C715669   2.506   2.340  13.656
  128CHL1   H7A15670   2.538   2.459  13.698
  128CHL1   H7B15671   2.378   2.316  13.679
  128CHL1    C815672   2.604   2.212  13.728
  128CHL1    H815673   2.732   2.246  13.720
  128CHL1   C1415674   2.550   2.203  13.873
  128CHL1   H1415675   2.424   2.158  13.872
  128CHL1   C1515676   2.543   2.359  13.957
  128CHL1  H15A15677   2.648   2.437  13.936
  128CHL1  H15B15678   2.432   2.429  13.936
  128CHL1   C1615679   2.549   2.297  14.102
  128CHL1  H16A15680   2.652   2.352  14.154
  128CHL1  H16B15681   2.437   2.327  14.158
  128CHL1   C1715682   2.570   2.111  14.090
  128CHL1   H1715683   2.447   2.059  14.085
  128CHL1   C1315684   2.647   2.087  13.954
  128CHL1   C1815685   2.822   2.147  13.961
  128CHL1  H18A15686   2.879   2.144  13.861
  128CHL1  H18B15687   2.836   2.270  14.000
  128CHL1  H18C15688   2.894   2.068  14.027
  128CHL1   C1215689   2.635   1.916  13.894
  128CHL1  H12A15690   2.726   1.836  13.940
  128CHL1  H12B15691   2.514   1.868  13.913
  128CHL1   C1115692   2.671   1.915  13.744
  128CHL1  H11A15693   2.803   1.936  13.737
  128CHL1  H11B15694   2.645   1.794  13.704
  128CHL1    C915695   2.580   2.046  13.665
  128CHL1    H915696   2.449   2.018  13.678
  128CHL1   C1015697   2.612   2.041  13.512
  128CHL1   C1915698   2.792   2.016  13.490
  128CHL1  H19A15699   2.862   2.116  13.536
  128CHL1  H19B15700   2.836   1.901  13.533
  128CHL1  H19C15701   2.822   2.011  13.383
  128CHL1    C115702   2.518   1.901  13.448
  128CHL1   H1A15703   2.569   1.788  13.487
  128CHL1   H1B15704   2.390   1.907  13.484
  128CHL1    C215705   2.516   1.900  13.294
  128CHL1   H2A15706   2.434   1.804  13.259
  128CHL1   H2B15707   2.638   1.873  13.255
  128CHL1   C2015708   2.657   2.032  14.205
  128CHL1   H2015709   2.784   2.072  14.208
  128CHL1   C2115710   2.657   1.848  14.193
  128CHL1  H21A15711   2.663   1.796  14.294
  128CHL1  H21B15712   2.764   1.806  14.138
  128CHL1  H21C15713   2.546   1.804  14.144
  128CHL1   C2215714   2.584   2.077  14.339
  128CHL1  H22A15715   2.495   2.176  14.332
  128CHL1  H22B15716   2.520   1.973  14.384
  128CHL1   C2315717   2.719   2.131  14.430
  128CHL1  H23A15718   2.812   2.036  14.441
  128CHL1  H23B15719   2.780   2.238  14.385
  128CHL1   C2415720   2.650   2.173  14.563
  128CHL1  H24A15721   2.550   2.260  14.545
  128CHL1  H24B15722   2.598   2.066  14.614
  128CHL1   C2515723   2.777   2.254  14.650
  128CHL1   H2515724   2.886   2.281  14.589
  128CHL1   C2615725   2.706   2.412  14.693
  128CHL1  H26A15726   2.699   2.500  14.610
  128CHL1  H26B15727   2.582   2.393  14.732
  128CHL1  H26C15728   2.782   2.461  14.773
  128CHL1   C2715729   2.825   2.146  14.767
  128CHL1  H27A15730   2.886   2.036  14.730
  128CHL1  H27B15731   2.906   2.210  14.837
  128CHL1  H27C15732   2.716   2.108  14.823
  129CHL1    C315733   6.862   7.184  13.241
  129CHL1    H315734   6.930   7.073  13.221
  129CHL1    O315735   6.763   7.216  13.129
  129CHL1   H3'15736   6.829   7.201  13.050
  129CHL1    C415737   6.752   7.163  13.362
  129CHL1   H4A15738   6.667   7.265  13.368
  129CHL1   H4B15739   6.676   7.055  13.341
  129CHL1    C515740   6.846   7.146  13.490
  129CHL1    C615741   6.829   7.015  13.566
  129CHL1    H615742   6.744   6.920  13.539
  129CHL1    C715743   6.925   6.992  13.690
  129CHL1   H7A15744   6.859   6.918  13.765
  129CHL1   H7B15745   7.033   6.928  13.661
  129CHL1    C815746   6.992   7.147  13.750
  129CHL1    H815747   6.889   7.214  13.793
  129CHL1   C1415748   7.117   7.105  13.855
  129CHL1   H1415749   7.225   7.062  13.800
  129CHL1   C1515750   7.080   6.970  13.954
  129CHL1  H15A15751   6.952   6.964  13.980
  129CHL1  H15B15752   7.117   6.853  13.909
  129CHL1   C1615753   7.182   7.012  14.076
  129CHL1  H16A15754   7.103   7.022  14.165
  129CHL1  H16B15755   7.276   6.919  14.093
  129CHL1   C1715756   7.270   7.170  14.047
  129CHL1   H1715757   7.380   7.139  13.997
  129CHL1   C1315758   7.175   7.248  13.934
  129CHL1   C1815759   7.033   7.325  14.003
  129CHL1  H18A15760   6.955   7.240  14.058
  129CHL1  H18B15761   7.086   7.408  14.077
  129CHL1  H18C15762   6.960   7.393  13.931
  129CHL1   C1215763   7.266   7.356  13.834
  129CHL1  H12A15764   7.309   7.468  13.881
  129CHL1  H12B15765   7.372   7.285  13.800
  129CHL1   C1115766   7.164   7.396  13.708
  129CHL1  H11A15767   7.075   7.487  13.741
  129CHL1  H11B15768   7.243   7.453  13.633
  129CHL1    C915769   7.076   7.248  13.644
  129CHL1    H915770   7.175   7.170  13.605
  129CHL1   C1015771   6.968   7.282  13.520
  129CHL1   C1915772   6.875   7.440  13.543
  129CHL1  H19A15773   6.790   7.465  13.461
  129CHL1  H19B15774   6.806   7.434  13.638
  129CHL1  H19C15775   6.958   7.543  13.548
  129CHL1    C115776   7.076   7.296  13.393
  129CHL1   H1A15777   7.162   7.397  13.408
  129CHL1   H1B15778   7.147   7.183  13.383
  129CHL1    C215779   6.983   7.321  13.262
  129CHL1   H2A15780   7.067   7.327  13.177
  129CHL1   H2B15781   6.917   7.438  13.266
  129CHL1   C2015782   7.326   7.253  14.177
  129CHL1   H2015783   7.223   7.278  14.243
  129CHL1   C2115784   7.418   7.408  14.147
  129CHL1  H21A15785   7.526   7.375  14.088
  129CHL1  H21B15786   7.458   7.466  14.241
  129CHL1  H21C15787   7.344   7.495  14.090
  129CHL1   C2215788   7.446   7.138  14.247
  129CHL1  H22A15789   7.394   7.015  14.258
  129CHL1  H22B15790   7.550   7.129  14.178
  129CHL1   C2315791   7.513   7.183  14.385
  129CHL1  H23A15792   7.589   7.080  14.417
  129CHL1  H23B15793   7.592   7.289  14.377
  129CHL1   C2415794   7.384   7.217  14.489
  129CHL1  H24A15795   7.313   7.324  14.457
  129CHL1  H24B15796   7.300   7.112  14.493
  129CHL1   C2515797   7.452   7.249  14.629
  129CHL1   H2515798   7.531   7.356  14.625
  129CHL1   C2615799   7.314   7.283  14.724
  129CHL1  H26A15800   7.240   7.172  14.734
  129CHL1  H26B15801   7.354   7.319  14.825
  129CHL1  H26C15802   7.235   7.378  14.682
  129CHL1   C2715803   7.544   7.106  14.684
  129CHL1  H27A15804   7.466   6.998  14.688
  129CHL1  H27B15805   7.654   7.080  14.625
  129CHL1  H27C15806   7.584   7.133  14.787
  130CHL1    C315807   3.109   7.811  13.249
  130CHL1    H315808   2.999   7.859  13.299
  130CHL1    O315809   3.080   7.819  13.109
  130CHL1   H3'15810   3.184   7.834  13.067
  130CHL1    C415811   3.257   7.910  13.291
  130CHL1   H4A15812   3.367   7.850  13.255
  130CHL1   H4B15813   3.252   8.030  13.243
  130CHL1    C515814   3.257   7.921  13.443
  130CHL1    C615815   3.244   8.064  13.503
  130CHL1    H615816   3.245   8.174  13.442
  130CHL1    C715817   3.227   8.087  13.651
  130CHL1   H7A15818   3.307   8.184  13.689
  130CHL1   H7B15819   3.102   8.124  13.672
  130CHL1    C815820   3.259   7.932  13.732
  130CHL1    H815821   3.391   7.918  13.744
  130CHL1   C1415822   3.179   7.946  13.868
  130CHL1   H1415823   3.047   7.949  13.847
  130CHL1   C1515824   3.211   8.098  13.950
  130CHL1  H15A15825   3.341   8.122  13.945
  130CHL1  H15B15826   3.144   8.204  13.913
  130CHL1   C1615827   3.162   8.050  14.093
  130CHL1  H16A15828   3.265   8.071  14.160
  130CHL1  H16B15829   3.059   8.122  14.129
  130CHL1   C1715830   3.119   7.867  14.088
  130CHL1   H1715831   2.988   7.860  14.067
  130CHL1   C1315832   3.205   7.805  13.962
  130CHL1   C1815833   3.386   7.784  13.995
  130CHL1  H18A15834   3.404   7.682  14.064
  130CHL1  H18B15835   3.458   7.758  13.904
  130CHL1  H18C15836   3.437   7.891  14.043
  130CHL1   C1215837   3.132   7.658  13.892
  130CHL1  H12A15838   3.151   7.550  13.953
  130CHL1  H12B15839   3.001   7.676  13.881
  130CHL1   C1115840   3.206   7.631  13.753
  130CHL1  H11A15841   3.335   7.600  13.766
  130CHL1  H11B15842   3.146   7.526  13.706
  130CHL1    C915843   3.192   7.782  13.663
  130CHL1    H915844   3.060   7.805  13.656
  130CHL1   C1015845   3.250   7.758  13.517
  130CHL1   C1915846   3.422   7.690  13.520
  130CHL1  H19A15847   3.424   7.567  13.564
  130CHL1  H19B15848   3.473   7.678  13.417
  130CHL1  H19C15849   3.503   7.766  13.580
  130CHL1    C115850   3.137   7.634  13.449
  130CHL1   H1A15851   3.167   7.511  13.483
  130CHL1   H1B15852   3.012   7.660  13.481
  130CHL1    C215853   3.136   7.638  13.295
  130CHL1   H2A15854   3.038   7.559  13.256
  130CHL1   H2B15855   3.251   7.591  13.256
  130CHL1   C2015856   3.150   7.781  14.220
  130CHL1   H2015857   3.282   7.772  14.235
  130CHL1   C2115858   3.079   7.610  14.220
  130CHL1  H21A15859   3.084   7.558  14.323
  130CHL1  H21B15860   3.149   7.530  14.155
  130CHL1  H21C15861   2.952   7.612  14.188
  130CHL1   C2215862   3.086   7.870  14.344
  130CHL1  H22A15863   3.080   8.002  14.331
  130CHL1  H22B15864   2.962   7.829  14.366
  130CHL1   C2315865   3.196   7.837  14.464
  130CHL1  H23A15866   3.228   7.708  14.467
  130CHL1  H23B15867   3.310   7.906  14.449
  130CHL1   C2415868   3.119   7.886  14.596
  130CHL1  H24A15869   3.074   8.011  14.588
  130CHL1  H24B15870   3.012   7.808  14.615
  130CHL1   C2515871   3.238   7.874  14.713
  130CHL1   H2515872   3.346   7.944  14.686
  130CHL1   C2615873   3.163   7.948  14.837
  130CHL1  H26A15874   3.053   7.882  14.865
  130CHL1  H26B15875   3.247   7.948  14.923
  130CHL1  H26C15876   3.128   8.074  14.815
  130CHL1   C2715877   3.292   7.702  14.741
  130CHL1  H27A15878   3.352   7.697  14.840
  130CHL1  H27B15879   3.188   7.620  14.742
  130CHL1  H27C15880   3.377   7.661  14.663
  131CHL1    C315881   1.068   6.128  13.258
  131CHL1    H315882   1.106   6.001  13.253
  131CHL1    O315883   1.025   6.182  13.129
  131CHL1   H3'15884   1.122   6.179  13.078
  131CHL1    C415885   0.923   6.138  13.352
  131CHL1   H4A15886   0.863   6.257  13.343
  131CHL1   H4B15887   0.832   6.050  13.317
  131CHL1    C515888   0.971   6.108  13.495
  131CHL1    C615889   0.905   5.993  13.570
  131CHL1    H615890   0.810   5.915  13.528
  131CHL1    C715891   0.947   5.970  13.714
  131CHL1   H7A15892   0.839   5.933  13.771
  131CHL1   H7B15893   1.037   5.872  13.721
  131CHL1    C815894   1.021   6.125  13.776
  131CHL1    H815895   0.926   6.218  13.778
  131CHL1   C1415896   1.082   6.094  13.915
  131CHL1   H1415897   1.181   6.002  13.905
  131CHL1   C1515898   0.959   6.018  14.004
  131CHL1  H15A15899   0.838   6.074  13.993
  131CHL1  H15B15900   0.954   5.898  13.962
  131CHL1   C1615901   1.026   6.036  14.144
  131CHL1  H16A15902   0.930   6.089  14.208
  131CHL1  H16B15903   1.068   5.922  14.188
  131CHL1   C1715904   1.171   6.151  14.134
  131CHL1   H1715905   1.280   6.074  14.127
  131CHL1   C1315906   1.153   6.230  13.994
  131CHL1   C1815907   1.025   6.364  14.005
  131CHL1  H18A15908   0.907   6.319  14.040
  131CHL1  H18B15909   1.063   6.451  14.080
  131CHL1  H18C15910   1.007   6.425  13.907
  131CHL1   C1215911   1.306   6.278  13.916
  131CHL1  H12A15912   1.358   6.389  13.959
  131CHL1  H12B15913   1.396   6.180  13.925
  131CHL1   C1115914   1.270   6.306  13.765
  131CHL1  H11A15915   1.210   6.422  13.762
  131CHL1  H11B15916   1.385   6.318  13.710
  131CHL1    C915917   1.162   6.179  13.692
  131CHL1    H915918   1.240   6.070  13.683
  131CHL1   C1015919   1.104   6.218  13.548
  131CHL1   C1915920   1.024   6.386  13.543
  131CHL1  H19A15921   1.091   6.476  13.600
  131CHL1  H19B15922   1.015   6.432  13.439
  131CHL1  H19C15923   0.901   6.384  13.586
  131CHL1    C115924   1.249   6.197  13.452
  131CHL1   H1A15925   1.351   6.274  13.486
  131CHL1   H1B15926   1.290   6.070  13.460
  131CHL1    C215927   1.212   6.229  13.305
  131CHL1   H2A15928   1.319   6.198  13.244
  131CHL1   H2B15929   1.186   6.358  13.288
  131CHL1   C2015930   1.184   6.251  14.263
  131CHL1   H2015931   1.075   6.328  14.273
  131CHL1   C2115932   1.331   6.364  14.254
  131CHL1  H21A15933   1.319   6.449  14.170
  131CHL1  H21B15934   1.442   6.293  14.241
  131CHL1  H21C15935   1.342   6.434  14.348
  131CHL1   C2215936   1.198   6.148  14.392
  131CHL1  H22A15937   1.258   6.031  14.369
  131CHL1  H22B15938   1.277   6.212  14.463
  131CHL1   C2315939   1.039   6.116  14.468
  131CHL1  H23A15940   0.968   6.229  14.475
  131CHL1  H23B15941   0.967   6.028  14.412
  131CHL1   C2415942   1.068   6.053  14.611
  131CHL1  H24A15943   1.141   5.942  14.603
  131CHL1  H24B15944   1.138   6.142  14.670
  131CHL1   C2515945   0.913   6.007  14.686
  131CHL1   H2515946   0.828   6.112  14.683
  131CHL1   C2615947   0.838   5.864  14.614
  131CHL1  H26A15948   0.756   5.906  14.533
  131CHL1  H26B15949   0.931   5.786  14.571
  131CHL1  H26C15950   0.769   5.788  14.684
  131CHL1   C2715951   0.943   5.965  14.834
  131CHL1  H27A15952   1.012   5.851  14.842
  131CHL1  H27B15953   1.010   6.061  14.885
  131CHL1  H27C15954   0.827   5.950  14.887
  132CHL1    C315955   4.567   8.497  13.246
  132CHL1    H315956   4.532   8.624  13.264
  132CHL1    O315957   4.564   8.465  13.105
  132CHL1   H3'15958   4.487   8.537  13.063
  132CHL1    C415959   4.739   8.468  13.299
  132CHL1   H4A15960   4.778   8.348  13.262
  132CHL1   H4B15961   4.819   8.557  13.249
  132CHL1    C515962   4.756   8.474  13.450
  132CHL1    C615963   4.862   8.570  13.511
  132CHL1    H615964   4.943   8.645  13.450
  132CHL1    C715965   4.889   8.578  13.660
  132CHL1   H7A15966   5.018   8.575  13.684
  132CHL1   H7B15967   4.840   8.693  13.699
  132CHL1    C815968   4.806   8.440  13.738
  132CHL1    H815969   4.879   8.329  13.725
  132CHL1   C1415970   4.795   8.480  13.887
  132CHL1   H1415971   4.714   8.588  13.891
  132CHL1   C1515972   4.946   8.534  13.961
  132CHL1  H15A15973   5.046   8.449  13.942
  132CHL1  H15B15974   4.985   8.657  13.931
  132CHL1   C1615975   4.896   8.527  14.109
  132CHL1  H16A15976   4.990   8.462  14.167
  132CHL1  H16B15977   4.883   8.650  14.152
  132CHL1   C1715978   4.732   8.438  14.115
  132CHL1   H1715979   4.638   8.533  14.116
  132CHL1   C1315980   4.715   8.356  13.977
  132CHL1   C1815981   4.807   8.195  13.977
  132CHL1  H18A15982   4.819   8.146  13.874
  132CHL1  H18B15983   4.930   8.209  14.020
  132CHL1  H18C15984   4.741   8.105  14.038
  132CHL1   C1215985   4.544   8.335  13.922
  132CHL1  H12A15986   4.474   8.245  13.979
  132CHL1  H12B15987   4.487   8.454  13.934
  132CHL1   C1115988   4.540   8.291  13.772
  132CHL1  H11A15989   4.588   8.167  13.762
  132CHL1  H11B15990   4.412   8.291  13.739
  132CHL1    C915991   4.637   8.410  13.682
  132CHL1    H915992   4.573   8.527  13.692
  132CHL1   C1015993   4.634   8.371  13.529
  132CHL1   C1915994   4.681   8.194  13.511
  132CHL1  H19A15995   4.589   8.113  13.554
  132CHL1  H19B15996   4.691   8.161  13.403
  132CHL1  H19C15997   4.798   8.167  13.560
  132CHL1    C115998   4.463   8.402  13.471
  132CHL1   H1A15999   4.379   8.316  13.518
  132CHL1   H1B16000   4.424   8.525  13.501
  132CHL1    C216001   4.447   8.387  13.318
  132CHL1   H2A16002   4.324   8.418  13.286
  132CHL1   H2B16003   4.470   8.261  13.288
  132CHL1   C2016004   4.711   8.341  14.245
  132CHL1   H2016005   4.804   8.244  14.246
  132CHL1   C2116006   4.546   8.261  14.255
  132CHL1  H21A16007   4.534   8.191  14.349
  132CHL1  H21B16008   4.523   8.177  14.171
  132CHL1  H21C16009   4.453   8.356  14.254
  132CHL1   C2216010   4.739   8.443  14.373
  132CHL1  H22A16011   4.748   8.359  14.460
  132CHL1  H22B16012   4.856   8.506  14.366
  132CHL1   C2316013   4.608   8.569  14.406
  132CHL1  H23A16014   4.578   8.636  14.314
  132CHL1  H23B16015   4.496   8.508  14.440
  132CHL1   C2416016   4.662   8.693  14.512
  132CHL1  H24A16017   4.774   8.752  14.474
  132CHL1  H24B16018   4.571   8.789  14.520
  132CHL1   C2516019   4.697   8.626  14.653
  132CHL1   H2516020   4.777   8.520  14.642
  132CHL1   C2616021   4.786   8.754  14.735
  132CHL1  H26A16022   4.818   8.705  14.835
  132CHL1  H26B16023   4.897   8.791  14.684
  132CHL1  H26C16024   4.709   8.861  14.750
  132CHL1   C2716025   4.544   8.570  14.728
  132CHL1  H27A16026   4.476   8.482  14.668
  132CHL1  H27B16027   4.577   8.514  14.824
  132CHL1  H27C16028   4.465   8.675  14.750
  133CHL1    C316029   1.068   2.903  13.224
  133CHL1    H316030   1.158   2.804  13.211
  133CHL1    O316031   1.010   2.952  13.097
  133CHL1   H3'16032   1.086   2.908  13.032
  133CHL1    C416033   0.924   2.840  13.305
  133CHL1   H4A16034   0.830   2.934  13.298
  133CHL1   H4B16035   0.877   2.734  13.252
  133CHL1    C516036   0.954   2.809  13.452
  133CHL1    C616037   0.913   2.669  13.508
  133CHL1    H616038   0.856   2.575  13.447
  133CHL1    C716039   0.929   2.635  13.654
  133CHL1   H7A16040   0.815   2.582  13.694
  133CHL1   H7B16041   1.026   2.546  13.672
  133CHL1    C816042   0.965   2.789  13.736
  133CHL1    H816043   0.851   2.857  13.745
  133CHL1   C1416044   1.020   2.741  13.873
  133CHL1   H1416045   1.138   2.677  13.859
  133CHL1   C1516046   0.913   2.623  13.951
  133CHL1  H15A16047   0.787   2.665  13.949
  133CHL1  H15B16048   0.918   2.498  13.911
  133CHL1   C1616049   0.982   2.634  14.092
  133CHL1  H16A16050   0.882   2.647  14.164
  133CHL1  H16B16051   1.052   2.526  14.118
  133CHL1   C1716052   1.094   2.784  14.092
  133CHL1   H1716053   1.219   2.738  14.077
  133CHL1   C1316054   1.055   2.880  13.967
  133CHL1   C1816055   0.902   2.983  13.995
  133CHL1  H18A16056   0.808   2.911  14.045
  133CHL1  H18B16057   0.931   3.085  14.061
  133CHL1  H18C16058   0.853   3.032  13.901
  133CHL1   C1216059   1.192   2.978  13.905
  133CHL1  H12A16060   1.222   3.084  13.967
  133CHL1  H12B16061   1.300   2.902  13.901
  133CHL1   C1116062   1.148   3.034  13.762
  133CHL1  H11A16063   1.054   3.126  13.774
  133CHL1  H11B16064   1.254   3.094  13.717
  133CHL1    C916065   1.092   2.894  13.669
  133CHL1    H916066   1.199   2.815  13.656
  133CHL1   C1016067   1.040   2.946  13.527
  133CHL1   C1916068   0.925   3.091  13.542
  133CHL1  H19A16069   0.832   3.059  13.615
  133CHL1  H19B16070   0.988   3.199  13.579
  133CHL1  H19C16071   0.865   3.125  13.448
  133CHL1    C116072   1.187   2.998  13.442
  133CHL1   H1A16073   1.249   3.100  13.492
  133CHL1   H1B16074   1.271   2.893  13.438
  133CHL1    C216075   1.146   3.044  13.296
  133CHL1   H2A16076   1.256   3.083  13.242
  133CHL1   H2B16077   1.062   3.146  13.298
  133CHL1   C2016078   1.091   2.867  14.227
  133CHL1   H2016079   0.966   2.905  14.252
  133CHL1   C2116080   1.200   3.016  14.232
  133CHL1  H21A16081   1.205   3.070  14.333
  133CHL1  H21B16082   1.153   3.110  14.164
  133CHL1  H21C16083   1.324   2.984  14.201
  133CHL1   C2216084   1.145   2.744  14.330
  133CHL1  H22A16085   1.060   2.641  14.333
  133CHL1  H22B16086   1.266   2.695  14.306
  133CHL1   C2316087   1.144   2.814  14.469
  133CHL1  H23A16088   1.255   2.886  14.485
  133CHL1  H23B16089   1.039   2.896  14.479
  133CHL1   C2416090   1.130   2.675  14.567
  133CHL1  H24A16091   1.008   2.623  14.559
  133CHL1  H24B16092   1.219   2.580  14.541
  133CHL1   C2516093   1.159   2.731  14.709
  133CHL1   H2516094   1.141   2.624  14.773
  133CHL1   C2616095   1.336   2.786  14.724
  133CHL1  H26A16096   1.350   2.914  14.698
  133CHL1  H26B16097   1.380   2.767  14.827
  133CHL1  H26C16098   1.414   2.717  14.654
  133CHL1   C2716099   1.030   2.858  14.740
  133CHL1  H27A16100   1.050   2.971  14.684
  133CHL1  H27B16101   0.908   2.814  14.711
  133CHL1  H27C16102   1.026   2.888  14.847
  134CHL1    C316103   8.298   3.001  13.223
  134CHL1    H316104   8.401   2.915  13.228
  134CHL1    O316105   8.242   3.007  13.090
  134CHL1   H3'16106   8.200   2.899  13.073
  134CHL1    C416107   8.160   2.945  13.312
  134CHL1   H4A16108   8.062   3.035  13.308
  134CHL1   H4B16109   8.110   2.831  13.272
  134CHL1    C516110   8.222   2.927  13.453
  134CHL1    C616111   8.225   2.782  13.509
  134CHL1    H616112   8.173   2.677  13.456
  134CHL1    C716113   8.286   2.755  13.647
  134CHL1   H7A16114   8.206   2.674  13.700
  134CHL1   H7B16115   8.408   2.700  13.644
  134CHL1    C816116   8.292   2.911  13.730
  134CHL1    H816117   8.165   2.946  13.750
  134CHL1   C1416118   8.377   2.880  13.860
  134CHL1   H1416119   8.504   2.850  13.834
  134CHL1   C1516120   8.316   2.736  13.939
  134CHL1  H15A16121   8.183   2.737  13.940
  134CHL1  H15B16122   8.358   2.623  13.892
  134CHL1   C1616123   8.382   2.764  14.079
  134CHL1  H16A16124   8.280   2.752  14.150
  134CHL1  H16B16125   8.478   2.680  14.108
  134CHL1   C1716126   8.454   2.936  14.080
  134CHL1   H1716127   8.585   2.922  14.059
  134CHL1   C1316128   8.382   3.020  13.956
  134CHL1   C1816129   8.212   3.079  13.994
  134CHL1  H18A16130   8.141   2.983  14.044
  134CHL1  H18B16131   8.219   3.184  14.062
  134CHL1  H18C16132   8.143   3.119  13.905
  134CHL1   C1216133   8.482   3.151  13.885
  134CHL1  H12A16134   8.486   3.262  13.947
  134CHL1  H12B16135   8.605   3.107  13.871
  134CHL1   C1116136   8.408   3.193  13.747
  134CHL1  H11A16137   8.293   3.256  13.769
  134CHL1  H11B16138   8.486   3.281  13.695
  134CHL1    C916139   8.376   3.046  13.654
  134CHL1    H916140   8.497   2.996  13.629
  134CHL1   C1016141   8.292   3.080  13.519
  134CHL1   C1916142   8.149   3.194  13.547
  134CHL1  H19A16143   8.076   3.217  13.456
  134CHL1  H19B16144   8.070   3.143  13.625
  134CHL1  H19C16145   8.192   3.314  13.580
  134CHL1    C116146   8.413   3.158  13.420
  134CHL1   H1A16147   8.441   3.281  13.456
  134CHL1   H1B16148   8.527   3.088  13.422
  134CHL1    C216149   8.356   3.167  13.273
  134CHL1   H2A16150   8.454   3.214  13.208
  134CHL1   H2B16151   8.254   3.252  13.268
  134CHL1   C2016152   8.437   3.012  14.219
  134CHL1   H2016153   8.309   3.042  14.238
  134CHL1   C2116154   8.537   3.167  14.227
  134CHL1  H21A16155   8.528   3.222  14.327
  134CHL1  H21B16156   8.495   3.258  14.154
  134CHL1  H21C16157   8.665   3.138  14.208
  134CHL1   C2216158   8.489   2.894  14.330
  134CHL1  H22A16159   8.412   2.785  14.327
  134CHL1  H22B16160   8.615   2.855  14.313
  134CHL1   C2316161   8.471   2.960  14.471
  134CHL1  H23A16162   8.568   3.048  14.493
  134CHL1  H23B16163   8.353   3.024  14.480
  134CHL1   C2416164   8.474   2.824  14.573
  134CHL1  H24A16165   8.374   2.738  14.555
  134CHL1  H24B16166   8.588   2.756  14.558
  134CHL1   C2516167   8.467   2.882  14.718
  134CHL1   H2516168   8.563   2.976  14.729
  134CHL1   C2616169   8.305   2.954  14.758
  134CHL1  H26A16170   8.310   2.999  14.863
  134CHL1  H26B16171   8.273   3.056  14.692
  134CHL1  H26C16172   8.209   2.862  14.751
  134CHL1   C2716173   8.507   2.744  14.813
  134CHL1  H27A16174   8.543   2.795  14.911
  134CHL1  H27B16175   8.404   2.663  14.827
  134CHL1  H27C16176   8.609   2.674  14.772
  135CHL1    C316177   8.639   3.844  13.247
  135CHL1    H316178   8.711   3.733  13.263
  135CHL1    O316179   8.611   3.859  13.108
  135CHL1   H3'16180   8.544   3.769  13.087
  135CHL1    C416181   8.477   3.829  13.320
  135CHL1   H4A16182   8.405   3.937  13.295
  135CHL1   H4B16183   8.410   3.725  13.278
  135CHL1    C516184   8.496   3.816  13.470
  135CHL1    C616185   8.438   3.690  13.538
  135CHL1    H616186   8.374   3.595  13.485
  135CHL1    C716187   8.450   3.672  13.688
  135CHL1   H7A16188   8.332   3.640  13.730
  135CHL1   H7B16189   8.534   3.572  13.711
  135CHL1    C816190   8.512   3.826  13.760
  135CHL1    H816191   8.408   3.911  13.769
  135CHL1   C1416192   8.573   3.782  13.899
  135CHL1   H1416193   8.677   3.701  13.882
  135CHL1   C1516194   8.460   3.685  13.991
  135CHL1  H15A16195   8.336   3.738  13.987
  135CHL1  H15B16196   8.454   3.558  13.962
  135CHL1   C1616197   8.531   3.710  14.131
  135CHL1  H16A16198   8.437   3.764  14.195
  135CHL1  H16B16199   8.570   3.595  14.177
  135CHL1   C1716200   8.675   3.829  14.115
  135CHL1   H1716201   8.782   3.752  14.092
  135CHL1   C1316202   8.638   3.920  13.984
  135CHL1   C1816203   8.504   4.046  14.014
  135CHL1  H18A16204   8.555   4.146  14.073
  135CHL1  H18B16205   8.455   4.097  13.920
  135CHL1  H18C16206   8.402   3.992  14.070
  135CHL1   C1216207   8.778   3.995  13.904
  135CHL1  H12A16208   8.825   4.104  13.955
  135CHL1  H12B16209   8.876   3.906  13.897
  135CHL1   C1116210   8.726   4.044  13.761
  135CHL1  H11A16211   8.642   4.147  13.771
  135CHL1  H11B16212   8.834   4.088  13.707
  135CHL1    C916213   8.646   3.907  13.680
  135CHL1    H916214   8.740   3.812  13.669
  135CHL1   C1016215   8.594   3.952  13.535
  135CHL1   C1916216   8.486   4.102  13.538
  135CHL1  H19A16217   8.381   4.085  13.603
  135CHL1  H19B16218   8.558   4.202  13.576
  135CHL1  H19C16219   8.446   4.135  13.436
  135CHL1    C116220   8.747   3.992  13.450
  135CHL1   H1A16221   8.790   4.114  13.480
  135CHL1   H1B16222   8.842   3.906  13.474
  135CHL1    C216223   8.729   3.991  13.297
  135CHL1   H2A16224   8.850   3.994  13.249
  135CHL1   H2B16225   8.664   4.102  13.264
  135CHL1   C2016226   8.716   3.922  14.244
  135CHL1   H2016227   8.616   4.004  14.270
  135CHL1   C2116228   8.869   4.021  14.224
  135CHL1  H21A16229   8.911   4.072  14.320
  135CHL1  H21B16230   8.845   4.126  14.157
  135CHL1  H21C16231   8.966   3.947  14.180
  135CHL1   C2216232   8.741   3.809  14.367
  135CHL1  H22A16233   8.778   3.689  14.332
  135CHL1  H22B16234   8.840   3.856  14.429
  135CHL1   C2316235   8.593   3.793  14.459
  135CHL1  H23A16236   8.581   3.905  14.520
  135CHL1  H23B16237   8.484   3.785  14.397
  135CHL1   C2416238   8.602   3.646  14.552
  135CHL1  H24A16239   8.628   3.538  14.491
  135CHL1  H24B16240   8.704   3.662  14.623
  135CHL1   C2516241   8.447   3.616  14.633
  135CHL1   H2516242   8.416   3.730  14.686
  135CHL1   C2616243   8.305   3.569  14.542
  135CHL1  H26A16244   8.276   3.667  14.471
  135CHL1  H26B16245   8.335   3.460  14.484
  135CHL1  H26C16246   8.196   3.545  14.603
  135CHL1   C2716247   8.472   3.485  14.739
  135CHL1  H27A16248   8.360   3.467  14.798
  135CHL1  H27B16249   8.503   3.368  14.691
  135CHL1  H27C16250   8.570   3.518  14.809
  136CHL1    C316251   6.626   0.542  13.254
  136CHL1    H316252   6.499   0.562  13.285
  136CHL1    O316253   6.634   0.521  13.114
  136CHL1   H3'16254   6.637   0.629  13.080
  136CHL1    C416255   6.727   0.690  13.287
  136CHL1   H4A16256   6.853   0.668  13.253
  136CHL1   H4B16257   6.682   0.793  13.227
  136CHL1    C516258   6.724   0.726  13.435
  136CHL1    C616259   6.677   0.870  13.480
  136CHL1    H616260   6.650   0.967  13.409
  136CHL1    C716261   6.664   0.911  13.626
  136CHL1   H7A16262   6.722   1.028  13.647
  136CHL1   H7B16263   6.535   0.924  13.651
  136CHL1    C816264   6.738   0.782  13.719
  136CHL1    H816265   6.869   0.804  13.723
  136CHL1   C1416266   6.665   0.798  13.856
  136CHL1   H1416267   6.533   0.772  13.843
  136CHL1   C1516268   6.670   0.962  13.924
  136CHL1  H15A16269   6.796   1.003  13.929
  136CHL1  H15B16270   6.596   1.055  13.873
  136CHL1   C1616271   6.607   0.923  14.064
  136CHL1  H16A16272   6.665   1.002  14.138
  136CHL1  H16B16273   6.475   0.943  14.068
  136CHL1   C1716274   6.637   0.738  14.085
  136CHL1   H1716275   6.516   0.682  14.083
  136CHL1   C1316276   6.726   0.678  13.959
  136CHL1   C1816277   6.910   0.694  13.976
  136CHL1  H18A16278   6.956   0.605  14.048
  136CHL1  H18B16279   6.976   0.676  13.881
  136CHL1  H18C16280   6.942   0.815  14.012
  136CHL1   C1216281   6.680   0.509  13.910
  136CHL1  H12A16282   6.726   0.415  13.979
  136CHL1  H12B16283   6.548   0.499  13.905
  136CHL1   C1116284   6.750   0.478  13.770
  136CHL1  H11A16285   6.882   0.467  13.778
  136CHL1  H11B16286   6.704   0.360  13.736
  136CHL1    C916287   6.703   0.612  13.669
  136CHL1    H916288   6.569   0.605  13.663
  136CHL1   C1016289   6.763   0.582  13.525
  136CHL1   C1916290   6.949   0.570  13.528
  136CHL1  H19A16291   7.002   0.677  13.576
  136CHL1  H19B16292   6.990   0.462  13.583
  136CHL1  H19C16293   7.000   0.562  13.425
  136CHL1    C116294   6.689   0.420  13.476
  136CHL1   H1A16295   6.750   0.319  13.527
  136CHL1   H1B16296   6.560   0.419  13.506
  136CHL1    C216297   6.692   0.394  13.324
  136CHL1   H2A16298   6.619   0.287  13.299
  136CHL1   H2B16299   6.817   0.371  13.291
  136CHL1   C2016300   6.713   0.695  14.218
  136CHL1   H2016301   6.841   0.732  14.219
  136CHL1   C2116302   6.703   0.510  14.239
  136CHL1  H21A16303   6.730   0.476  14.344
  136CHL1  H21B16304   6.793   0.448  14.177
  136CHL1  H21C16305   6.582   0.466  14.214
  136CHL1   C2216306   6.636   0.780  14.339
  136CHL1  H22A16307   6.606   0.907  14.319
  136CHL1  H22B16308   6.523   0.718  14.366
  136CHL1   C2316309   6.760   0.781  14.451
  136CHL1  H23A16310   6.804   0.658  14.471
  136CHL1  H23B16311   6.862   0.852  14.410
  136CHL1   C2416312   6.706   0.857  14.583
  136CHL1  H24A16313   6.803   0.840  14.658
  136CHL1  H24B16314   6.689   0.988  14.569
  136CHL1   C2516315   6.551   0.781  14.638
  136CHL1   H2516316   6.455   0.791  14.561
  136CHL1   C2616317   6.574   0.604  14.675
  136CHL1  H26A16318   6.671   0.590  14.750
  136CHL1  H26B16319   6.461   0.554  14.718
  136CHL1  H26C16320   6.605   0.530  14.586
  136CHL1   C2716321   6.497   0.877  14.759
  136CHL1  H27A16322   6.394   0.820  14.810
  136CHL1  H27B16323   6.600   0.884  14.830
  136CHL1  H27C16324   6.463   1.002  14.731
  137CHL1    C316325   0.475   2.036  13.253
  137CHL1    H316326   0.432   1.910  13.255
  137CHL1    O316327   0.475   2.086  13.119
  137CHL1   H3'16328   0.541   2.180  13.121
  137CHL1    C416329   0.364   2.148  13.332
  137CHL1   H4A16330   0.401   2.275  13.316
  137CHL1   H4B16331   0.240   2.136  13.291
  137CHL1    C516332   0.371   2.108  13.479
  137CHL1    C616333   0.236   2.071  13.547
  137CHL1    H616334   0.120   2.072  13.495
  137CHL1    C716335   0.233   2.030  13.693
  137CHL1   H7A16336   0.127   2.088  13.742
  137CHL1   H7B16337   0.222   1.898  13.707
  137CHL1    C816338   0.389   2.088  13.761
  137CHL1    H816339   0.382   2.219  13.767
  137CHL1   C1416340   0.402   2.022  13.901
  137CHL1   H1416341   0.433   1.892  13.886
  137CHL1   C1516342   0.252   2.014  13.991
  137CHL1  H15A16343   0.172   2.118  13.978
  137CHL1  H15B16344   0.184   1.902  13.969
  137CHL1   C1616345   0.322   2.010  14.133
  137CHL1  H16A16346   0.278   2.116  14.190
  137CHL1  H16B16347   0.287   1.898  14.187
  137CHL1   C1716348   0.508   2.016  14.116
  137CHL1   H1716349   0.542   1.896  14.085
  137CHL1   C1316350   0.542   2.093  13.981
  137CHL1   C1816351   0.530   2.275  13.999
  137CHL1  H18A16352   0.412   2.308  14.040
  137CHL1  H18B16353   0.625   2.322  14.066
  137CHL1  H18C16354   0.548   2.333  13.901
  137CHL1   C1216355   0.698   2.040  13.911
  137CHL1  H12A16356   0.804   2.098  13.957
  137CHL1  H12B16357   0.712   1.907  13.919
  137CHL1   C1116358   0.698   2.087  13.763
  137CHL1  H11A16359   0.719   2.218  13.766
  137CHL1  H11B16360   0.803   2.030  13.712
  137CHL1    C916361   0.541   2.041  13.685
  137CHL1    H916362   0.538   1.908  13.679
  137CHL1   C1016363   0.542   2.101  13.539
  137CHL1   C1916364   0.619   2.268  13.540
  137CHL1  H19A16365   0.595   2.335  13.447
  137CHL1  H19B16366   0.572   2.334  13.628
  137CHL1  H19C16367   0.751   2.261  13.550
  137CHL1    C116368   0.655   1.997  13.452
  137CHL1   H1A16369   0.780   2.012  13.488
  137CHL1   H1B16370   0.623   1.870  13.464
  137CHL1    C216371   0.649   2.045  13.303
  137CHL1   H2A16372   0.726   1.963  13.243
  137CHL1   H2B16373   0.695   2.168  13.290
  137CHL1   C2016374   0.601   2.064  14.243
  137CHL1   H2016375   0.598   2.196  14.254
  137CHL1   C2116376   0.778   2.010  14.231
  137CHL1  H21A16377   0.786   1.879  14.210
  137CHL1  H21B16378   0.845   2.036  14.323
  137CHL1  H21C16379   0.840   2.076  14.151
  137CHL1   C2216380   0.523   1.994  14.373
  137CHL1  H22A16381   0.409   2.060  14.392
  137CHL1  H22B16382   0.490   1.867  14.356
  137CHL1   C2316383   0.624   2.000  14.503
  137CHL1  H23A16384   0.737   1.931  14.489
  137CHL1  H23B16385   0.654   2.125  14.528
  137CHL1   C2416386   0.530   1.919  14.616
  137CHL1  H24A16387   0.409   1.974  14.622
  137CHL1  H24B16388   0.518   1.794  14.580
  137CHL1   C2516389   0.605   1.918  14.759
  137CHL1   H2516390   0.668   2.034  14.773
  137CHL1   C2616391   0.474   1.903  14.867
  137CHL1  H26A16392   0.379   1.994  14.852
  137CHL1  H26B16393   0.419   1.783  14.865
  137CHL1  H26C16394   0.527   1.921  14.968
  137CHL1   C2716395   0.724   1.780  14.779
  137CHL1  H27A16396   0.816   1.776  14.699
  137CHL1  H27B16397   0.785   1.792  14.878
  137CHL1  H27C16398   0.660   1.662  14.780
  138CHL1    C316399   8.208   1.271  13.215
  138CHL1    H316400   8.246   1.142  13.219
  138CHL1    O316401   8.158   1.307  13.084
  138CHL1   H3'16402   8.113   1.207  13.047
  138CHL1    C416403   8.064   1.298  13.306
  138CHL1   H4A16404   8.022   1.424  13.295
  138CHL1   H4B16405   7.963   1.223  13.269
  138CHL1    C516406   8.108   1.260  13.448
  138CHL1    C616407   8.022   1.152  13.515
  138CHL1    H616408   7.916   1.099  13.466
  138CHL1    C716409   8.050   1.114  13.659
  138CHL1   H7A16410   7.938   1.156  13.707
  138CHL1   H7B16411   8.064   0.983  13.674
  138CHL1    C816412   8.182   1.211  13.731
  138CHL1    H816413   8.112   1.318  13.759
  138CHL1   C1416414   8.266   1.130  13.852
  138CHL1   H1416415   8.369   1.058  13.810
  138CHL1   C1516416   8.182   1.006  13.942
  138CHL1  H15A16417   8.054   1.037  13.945
  138CHL1  H15B16418   8.192   0.881  13.903
  138CHL1   C1616419   8.257   1.026  14.082
  138CHL1  H16A16420   8.158   1.061  14.150
  138CHL1  H16B16421   8.310   0.913  14.120
  138CHL1   C1716422   8.387   1.162  14.074
  138CHL1   H1716423   8.502   1.099  14.052
  138CHL1   C1316424   8.340   1.255  13.945
  138CHL1   C1816425   8.204   1.375  13.987
  138CHL1  H18A16426   8.101   1.309  14.024
  138CHL1  H18B16427   8.239   1.458  14.067
  138CHL1  H18C16428   8.161   1.454  13.906
  138CHL1   C1216429   8.479   1.327  13.862
  138CHL1  H12A16430   8.545   1.422  13.915
  138CHL1  H12B16431   8.570   1.231  13.843
  138CHL1   C1116432   8.422   1.393  13.726
  138CHL1  H11A16433   8.348   1.501  13.752
  138CHL1  H11B16434   8.526   1.434  13.666
  138CHL1    C916435   8.315   1.277  13.642
  138CHL1    H916436   8.393   1.172  13.615
  138CHL1   C1016437   8.255   1.346  13.506
  138CHL1   C1916438   8.200   1.520  13.523
  138CHL1  H19A16439   8.096   1.531  13.592
  138CHL1  H19B16440   8.296   1.596  13.563
  138CHL1  H19C16441   8.170   1.573  13.425
  138CHL1    C116442   8.396   1.337  13.404
  138CHL1   H1A16443   8.494   1.418  13.438
  138CHL1   H1B16444   8.444   1.212  13.407
  138CHL1    C216445   8.350   1.375  13.258
  138CHL1   H2A16446   8.455   1.351  13.193
  138CHL1   H2B16447   8.318   1.504  13.249
  138CHL1   C2016448   8.412   1.267  14.202
  138CHL1   H2016449   8.297   1.328  14.225
  138CHL1   C2116450   8.539   1.394  14.172
  138CHL1  H21A16451   8.641   1.348  14.111
  138CHL1  H21B16452   8.587   1.451  14.264
  138CHL1  H21C16453   8.483   1.492  14.116
  138CHL1   C2216454   8.459   1.189  14.337
  138CHL1  H22A16455   8.394   1.075  14.350
  138CHL1  H22B16456   8.588   1.159  14.336
  138CHL1   C2316457   8.424   1.298  14.461
  138CHL1  H23A16458   8.528   1.379  14.480
  138CHL1  H23B16459   8.320   1.379  14.439
  138CHL1   C2416460   8.392   1.192  14.584
  138CHL1  H24A16461   8.292   1.106  14.563
  138CHL1  H24B16462   8.506   1.122  14.593
  138CHL1   C2516463   8.360   1.261  14.724
  138CHL1   H2516464   8.357   1.154  14.793
  138CHL1   C2616465   8.501   1.364  14.773
  138CHL1  H26A16466   8.617   1.303  14.756
  138CHL1  H26B16467   8.508   1.482  14.722
  138CHL1  H26C16468   8.490   1.385  14.882
  138CHL1   C2716469   8.195   1.340  14.741
  138CHL1  H27A16470   8.096   1.254  14.733
  138CHL1  H27B16471   8.186   1.398  14.842
  138CHL1  H27C16472   8.176   1.435  14.665
  139CHL1    C316473   0.169   7.868  13.261
  139CHL1    H316474   0.037   7.866  13.284
  139CHL1    O316475   0.191   7.900  13.124
  139CHL1   H3'16476   0.191   7.792  13.082
  139CHL1    C416477   0.248   8.008  13.337
  139CHL1   H4A16478   0.371   8.030  13.297
  139CHL1   H4B16479   0.180   8.118  13.312
  139CHL1    C516480   0.250   7.976  13.486
  139CHL1    C616481   0.198   8.088  13.570
  139CHL1    H616482   0.169   8.207  13.531
  139CHL1    C716483   0.185   8.060  13.717
  139CHL1   H7A16484   0.205   8.174  13.772
  139CHL1   H7B16485   0.062   8.016  13.742
  139CHL1    C816486   0.310   7.936  13.762
  139CHL1    H816487   0.426   7.997  13.744
  139CHL1   C1416488   0.288   7.891  13.907
  139CHL1   H1416489   0.184   7.807  13.914
  139CHL1   C1516490   0.246   8.026  14.003
  139CHL1  H15A16491   0.329   8.129  13.986
  139CHL1  H15B16492   0.121   8.066  13.992
  139CHL1   C1616493   0.275   7.949  14.139
  139CHL1  H16A16494   0.323   8.042  14.206
  139CHL1  H16B16495   0.161   7.902  14.182
  139CHL1   C1716496   0.392   7.806  14.117
  139CHL1   H1716497   0.324   7.694  14.138
  139CHL1   C1316498   0.432   7.804  13.966
  139CHL1   C1816499   0.586   7.902  13.942
  139CHL1  H18A16500   0.617   7.913  13.835
  139CHL1  H18B16501   0.570   8.023  13.985
  139CHL1  H18C16502   0.694   7.846  13.987
  139CHL1   C1216503   0.438   7.639  13.895
  139CHL1  H12A16504   0.547   7.573  13.926
  139CHL1  H12B16505   0.332   7.567  13.925
  139CHL1   C1116506   0.437   7.660  13.741
  139CHL1  H11A16507   0.559   7.704  13.717
  139CHL1  H11B16508   0.424   7.542  13.692
  139CHL1    C916509   0.306   7.778  13.684
  139CHL1    H916510   0.187   7.722  13.704
  139CHL1   C1016511   0.312   7.811  13.532
  139CHL1   C1916512   0.487   7.829  13.497
  139CHL1  H19A16513   0.548   7.927  13.552
  139CHL1  H19B16514   0.556   7.720  13.514
  139CHL1  H19C16515   0.497   7.848  13.389
  139CHL1    C116516   0.238   7.673  13.449
  139CHL1   H1A16517   0.305   7.561  13.471
  139CHL1   H1B16518   0.112   7.654  13.482
  139CHL1    C216519   0.241   7.704  13.297
  139CHL1   H2A16520   0.175   7.607  13.244
  139CHL1   H2B16521   0.367   7.700  13.261
  139CHL1   C2016522   0.532   7.813  14.218
  139CHL1   H2016523   0.601   7.925  14.202
  139CHL1   C2116524   0.643   7.667  14.205
  139CHL1  H21A16525   0.732   7.667  14.288
  139CHL1  H21B16526   0.713   7.664  14.111
  139CHL1  H21C16527   0.574   7.554  14.210
  139CHL1   C2216528   0.464   7.820  14.363
  139CHL1  H22A16529   0.367   7.912  14.372
  139CHL1  H22B16530   0.410   7.703  14.388
  139CHL1   C2316531   0.588   7.870  14.468
  139CHL1  H23A16532   0.674   7.770  14.483
  139CHL1  H23B16533   0.655   7.976  14.432
  139CHL1   C2416534   0.502   7.910  14.599
  139CHL1  H24A16535   0.428   8.021  14.584
  139CHL1  H24B16536   0.418   7.811  14.623
  139CHL1   C2516537   0.613   7.933  14.720
  139CHL1   H2516538   0.536   7.966  14.808
  139CHL1   C2616539   0.698   7.775  14.753
  139CHL1  H26A16540   0.791   7.748  14.677
  139CHL1  H26B16541   0.756   7.780  14.853
  139CHL1  H26C16542   0.611   7.674  14.753
  139CHL1   C2716543   0.733   8.070  14.698
  139CHL1  H27A16544   0.818   8.077  14.783
  139CHL1  H27B16545   0.805   8.050  14.606
  139CHL1  H27C16546   0.671   8.186  14.687
  140CHL1    C316547   8.641   0.530  13.257
  140CHL1    H316548   8.772   0.539  13.277
  140CHL1    O316549   8.618   0.536  13.115
  140CHL1   H3'16550   8.674   0.443  13.076
  140CHL1    C416551   8.572   0.373  13.313
  140CHL1   H4A16552   8.444   0.365  13.277
  140CHL1   H4B16553   8.635   0.270  13.265
  140CHL1    C516554   8.572   0.360  13.464
  140CHL1    C616555   8.635   0.232  13.526
  140CHL1    H616556   8.686   0.133  13.467
  140CHL1    C716557   8.627   0.205  13.674
  140CHL1   H7A16558   8.584   0.082  13.695
  140CHL1   H7B16559   8.748   0.216  13.719
  140CHL1    C816560   8.512   0.324  13.745
  140CHL1    H816561   8.387   0.283  13.726
  140CHL1   C1416562   8.545   0.320  13.894
  140CHL1   H1416563   8.675   0.356  13.902
  140CHL1   C1516564   8.532   0.157  13.961
  140CHL1  H15A16565   8.420   0.092  13.929
  140CHL1  H15B16566   8.638   0.090  13.927
  140CHL1   C1616567   8.528   0.194  14.111
  140CHL1  H16A16568   8.414   0.144  14.151
  140CHL1  H16B16569   8.628   0.138  14.168
  140CHL1   C1716570   8.536   0.382  14.118
  140CHL1   H1716571   8.665   0.410  14.105
  140CHL1   C1316572   8.453   0.434  13.983
  140CHL1   C1816573   8.272   0.389  13.971
  140CHL1  H18A16574   8.233   0.377  13.865
  140CHL1  H18B16575   8.240   0.275  14.021
  140CHL1  H18C16576   8.197   0.486  14.012
  140CHL1   C1216577   8.480   0.606  13.934
  140CHL1  H12A16578   8.404   0.689  13.993
  140CHL1  H12B16579   8.608   0.640  13.952
  140CHL1   C1116580   8.443   0.622  13.783
  140CHL1  H11A16581   8.311   0.606  13.771
  140CHL1  H11B16582   8.472   0.745  13.751
  140CHL1    C916583   8.533   0.496  13.694
  140CHL1    H916584   8.664   0.524  13.708
  140CHL1   C1016585   8.501   0.505  13.540
  140CHL1   C1916586   8.316   0.504  13.519
  140CHL1  H19A16587   8.260   0.402  13.573
  140CHL1  H19B16588   8.263   0.617  13.556
  140CHL1  H19C16589   8.282   0.492  13.413
  140CHL1    C116590   8.576   0.660  13.480
  140CHL1   H1A16591   8.516   0.764  13.527
  140CHL1   H1B16592   8.705   0.664  13.509
  140CHL1    C216593   8.562   0.674  13.326
  140CHL1   H2A16594   8.620   0.787  13.292
  140CHL1   H2B16595   8.434   0.678  13.297
  140CHL1   C2016596   8.498   0.457  14.255
  140CHL1   H2016597   8.570   0.391  14.332
  140CHL1   C2116598   8.321   0.418  14.276
  140CHL1  H21A16599   8.293   0.288  14.271
  140CHL1  H21B16600   8.243   0.482  14.205
  140CHL1  H21C16601   8.282   0.457  14.372
  140CHL1   C2216602   8.546   0.640  14.273
  140CHL1  H22A16603   8.647   0.659  14.201
  140CHL1  H22B16604   8.450   0.713  14.228
  140CHL1   C2316605   8.611   0.718  14.410
  140CHL1  H23A16606   8.738   0.749  14.387
  140CHL1  H23B16607   8.549   0.835  14.421
  140CHL1   C2416608   8.616   0.625  14.548
  140CHL1  H24A16609   8.497   0.564  14.555
  140CHL1  H24B16610   8.708   0.532  14.536
  140CHL1   C2516611   8.635   0.709  14.694
  140CHL1   H2516612   8.617   0.614  14.772
  140CHL1   C2616613   8.501   0.830  14.713
  140CHL1  H26A16614   8.388   0.775  14.747
  140CHL1  H26B16615   8.528   0.934  14.778
  140CHL1  H26C16616   8.490   0.881  14.612
  140CHL1   C2716617   8.788   0.804  14.736
  140CHL1  H27A16618   8.840   0.866  14.649
  140CHL1  H27B16619   8.753   0.900  14.807
  140CHL1  H27C16620   8.880   0.737  14.794
  141DOPC     N16621   4.604   3.439  17.029
  141DOPC   C1216622   4.730   3.306  17.033
  141DOPC  H12A16623   4.670   3.194  17.058
  141DOPC  H12B16624   4.816   3.329  17.112
  141DOPC   C1316625   4.513   3.434  16.899
  141DOPC  H13A16626   4.426   3.529  16.894
  141DOPC  H13B16627   4.598   3.458  16.818
  141DOPC  H13C16628   4.462   3.317  16.881
  141DOPC   C1416629   4.684   3.600  17.035
  141DOPC  H14A16630   4.751   3.617  16.942
  141DOPC  H14B16631   4.596   3.695  17.043
  141DOPC  H14C16632   4.770   3.607  17.115
  141DOPC   C1516633   4.493   3.424  17.145
  141DOPC  H15A16634   4.405   3.521  17.146
  141DOPC  H15B16635   4.559   3.436  17.238
  141DOPC  H15C16636   4.429   3.311  17.145
  141DOPC   C1116637   4.828   3.275  16.904
  141DOPC  H11A16638   4.896   3.162  16.913
  141DOPC  H11B16639   4.738   3.256  16.824
  141DOPC     P16640   4.928   3.491  16.737
  141DOPC   O1316641   5.076   3.588  16.720
  141DOPC   O1416642   4.772   3.576  16.730
  141DOPC   O1216643   4.936   3.403  16.877
  141DOPC   O1116644   4.928   3.341  16.637
  141DOPC    C116645   5.077   3.299  16.576
  141DOPC    HA16646   5.168   3.271  16.653
  141DOPC    HB16647   5.126   3.408  16.527
  141DOPC    C216648   5.071   3.161  16.468
  141DOPC    HS16649   5.194   3.106  16.467
  141DOPC   O2116650   5.040   3.223  16.341
  141DOPC   C2116651   5.142   3.322  16.292
  141DOPC   O2216652   5.275   3.354  16.336
  141DOPC   C2216653   5.063   3.379  16.168
  141DOPC   H2R16654   4.933   3.342  16.168
  141DOPC   H2S16655   5.118   3.317  16.083
  141DOPC    C316656   4.951   3.018  16.469
  141DOPC    HX16657   4.963   2.933  16.552
  141DOPC    HY16658   4.992   2.950  16.378
  141DOPC   O3116659   4.787   3.061  16.441
  141DOPC   C3116660   4.703   3.091  16.550
  141DOPC   O3216661   4.753   3.066  16.663
  141DOPC   C3216662   4.532   3.144  16.518
  141DOPC   H2X16663   4.470   3.154  16.616
  141DOPC   H2Y16664   4.532   3.266  16.474
  141DOPC   C2316665   5.069   3.562  16.158
  141DOPC   H3R16666   5.194   3.605  16.143
  141DOPC   H3S16667   5.022   3.617  16.252
  141DOPC   C2416668   4.958   3.602  16.044
  141DOPC   H4R16669   4.842   3.541  16.063
  141DOPC   H4S16670   5.006   3.553  15.949
  141DOPC   C2516671   4.919   3.780  16.031
  141DOPC   H5R16672   5.029   3.846  16.002
  141DOPC   H5S16673   4.878   3.826  16.129
  141DOPC   C2616674   4.784   3.800  15.928
  141DOPC   H6R16675   4.732   3.922  15.939
  141DOPC   H6S16676   4.688   3.709  15.946
  141DOPC   C2716677   4.843   3.780  15.783
  141DOPC   H7R16678   4.878   3.655  15.759
  141DOPC   H7S16679   4.956   3.846  15.777
  141DOPC   C2816680   4.734   3.858  15.679
  141DOPC   H8R16681   4.796   3.864  15.581
  141DOPC   H8S16682   4.706   3.984  15.709
  141DOPC   C2916683   4.588   3.755  15.677
  141DOPC   H9R16684   4.512   3.763  15.768
  141DOPC  C21016685   4.549   3.652  15.580
  141DOPC  H10R16686   4.440   3.577  15.592
  141DOPC  C21116687   4.645   3.622  15.454
  141DOPC  H11R16688   4.654   3.737  15.399
  141DOPC  H11S16689   4.576   3.539  15.389
  141DOPC  C21216690   4.819   3.553  15.463
  141DOPC  H12R16691   4.900   3.641  15.513
  141DOPC  H12S16692   4.861   3.540  15.357
  141DOPC  C21316693   4.834   3.390  15.534
  141DOPC  H13R16694   4.753   3.305  15.484
  141DOPC  H13S16695   4.789   3.409  15.637
  141DOPC  C21416696   4.997   3.305  15.544
  141DOPC  H14R16697   4.980   3.176  15.567
  141DOPC  H14S16698   5.063   3.359  15.630
  141DOPC  C21516699   5.100   3.319  15.418
  141DOPC  H15R16700   5.226   3.282  15.437
  141DOPC  H15S16701   5.095   3.446  15.389
  141DOPC  C21616702   5.056   3.233  15.291
  141DOPC  H16R16703   4.930   3.260  15.270
  141DOPC  H16S16704   5.072   3.103  15.310
  141DOPC  C21716705   5.167   3.277  15.175
  141DOPC  H17R16706   5.111   3.236  15.081
  141DOPC  H17S16707   5.279   3.205  15.186
  141DOPC  C21816708   5.222   3.451  15.159
  141DOPC  H18R16709   5.118   3.533  15.149
  141DOPC  H18S16710   5.302   3.462  15.070
  141DOPC  H18T16711   5.293   3.488  15.247
  141DOPC   C3316712   4.439   3.019  16.432
  141DOPC   H3X16713   4.308   3.043  16.441
  141DOPC   H3Y16714   4.464   2.898  16.473
  141DOPC   C3416715   4.481   3.016  16.283
  141DOPC   H4X16716   4.381   2.957  16.226
  141DOPC   H4Y16717   4.591   2.944  16.266
  141DOPC   C3516718   4.510   3.184  16.226
  141DOPC   H5X16719   4.630   3.227  16.259
  141DOPC   H5Y16720   4.418   3.269  16.267
  141DOPC   C3616721   4.501   3.190  16.075
  141DOPC   H6X16722   4.590   3.104  16.033
  141DOPC   H6Y16723   4.380   3.152  16.040
  141DOPC   C3716724   4.536   3.360  16.027
  141DOPC   H7X16725   4.462   3.448  16.085
  141DOPC   H7Y16726   4.663   3.386  16.052
  141DOPC   C3816727   4.506   3.384  15.878
  141DOPC   H8X16728   4.538   3.510  15.852
  141DOPC   H8Y16729   4.376   3.368  15.857
  141DOPC   C3916730   4.612   3.269  15.803
  141DOPC   H9X16731   4.739   3.274  15.833
  141DOPC  C31016732   4.570   3.166  15.706
  141DOPC  H10X16733   4.662   3.088  15.663
  141DOPC  C31116734   4.404   3.142  15.650
  141DOPC  H11X16735   4.310   3.202  15.710
  141DOPC  H11Y16736   4.380   3.012  15.660
  141DOPC  C31216737   4.385   3.196  15.502
  141DOPC  H12X16738   4.393   3.329  15.497
  141DOPC  H12Y16739   4.261   3.163  15.470
  141DOPC  C31316740   4.504   3.122  15.400
  141DOPC  H13X16741   4.589   3.217  15.371
  141DOPC  H13Y16742   4.572   3.025  15.450
  141DOPC  C31416743   4.423   3.061  15.272
  141DOPC  H14X16744   4.338   2.968  15.301
  141DOPC  H14Y16745   4.356   3.161  15.226
  141DOPC  C31516746   4.520   2.972  15.163
  141DOPC  H15X16747   4.434   2.962  15.078
  141DOPC  H15Y16748   4.546   2.846  15.193
  141DOPC  C31616749   4.674   3.052  15.112
  141DOPC  H16X16750   4.777   3.017  15.176
  141DOPC  H16Y16751   4.703   3.001  15.012
  141DOPC  C31716752   4.666   3.235  15.103
  141DOPC  H17X16753   4.541   3.274  15.084
  141DOPC  H17Y16754   4.700   3.286  15.201
  141DOPC  C31816755   4.775   3.305  14.995
  141DOPC  H18X16756   4.720   3.288  14.894
  141DOPC  H18Y16757   4.795   3.434  15.012
  141DOPC  H18Z16758   4.892   3.242  14.996
  142DOPC     N16759   5.322   3.919  16.974
  142DOPC   C1216760   5.382   3.941  16.831
  142DOPC  H12A16761   5.396   4.067  16.808
  142DOPC  H12B16762   5.296   3.895  16.760
  142DOPC   C1316763   5.174   4.015  17.004
  142DOPC  H13A16764   5.083   4.006  16.926
  142DOPC  H13B16765   5.118   3.980  17.097
  142DOPC  H13C16766   5.201   4.142  17.016
  142DOPC   C1416767   5.449   3.976  17.067
  142DOPC  H14A16768   5.561   3.910  17.053
  142DOPC  H14B16769   5.480   4.100  17.049
  142DOPC  H14C16770   5.416   3.970  17.172
  142DOPC   C1516771   5.291   3.744  16.993
  142DOPC  H15A16772   5.200   3.702  16.923
  142DOPC  H15B16773   5.254   3.714  17.093
  142DOPC  H15C16774   5.401   3.678  16.971
  142DOPC   C1116775   5.546   3.872  16.795
  142DOPC  H11A16776   5.555   3.746  16.831
  142DOPC  H11B16777   5.563   3.872  16.684
  142DOPC     P16778   5.838   3.911  16.863
  142DOPC   O1316779   5.824   3.736  16.886
  142DOPC   O1416780   5.920   4.012  16.963
  142DOPC   O1216781   5.660   3.978  16.853
  142DOPC   O1116782   5.897   3.960  16.716
  142DOPC    C116783   5.910   4.132  16.703
  142DOPC    HA16784   6.028   4.171  16.745
  142DOPC    HB16785   5.815   4.201  16.758
  142DOPC    C216786   5.904   4.183  16.555
  142DOPC    HS16787   5.933   4.314  16.552
  142DOPC   O2116788   5.752   4.162  16.493
  142DOPC   C2116789   5.628   4.235  16.542
  142DOPC   O2216790   5.623   4.338  16.627
  142DOPC   C2216791   5.486   4.164  16.467
  142DOPC   H2R16792   5.376   4.231  16.489
  142DOPC   H2S16793   5.476   4.037  16.502
  142DOPC    C316794   6.029   4.088  16.472
  142DOPC    HX16795   5.981   3.966  16.451
  142DOPC    HY16796   6.139   4.075  16.535
  142DOPC   O3116797   6.066   4.180  16.353
  142DOPC   C3116798   6.047   4.118  16.231
  142DOPC   O3216799   6.025   3.979  16.202
  142DOPC   C3216800   6.073   4.261  16.134
  142DOPC   H2X16801   6.056   4.372  16.194
  142DOPC   H2Y16802   6.202   4.258  16.106
  142DOPC   C2316803   5.506   4.166  16.315
  142DOPC   H3R16804   5.623   4.111  16.284
  142DOPC   H3S16805   5.503   4.292  16.277
  142DOPC   C2416806   5.371   4.068  16.254
  142DOPC   H4R16807   5.346   4.118  16.154
  142DOPC   H4S16808   5.261   4.078  16.316
  142DOPC   C2516809   5.422   3.893  16.238
  142DOPC   H5R16810   5.316   3.812  16.237
  142DOPC   H5S16811   5.503   3.857  16.320
  142DOPC   C2616812   5.508   3.881  16.105
  142DOPC   H6R16813   5.578   3.992  16.084
  142DOPC   H6S16814   5.411   3.865  16.033
  142DOPC   C2716815   5.616   3.737  16.083
  142DOPC   H7R16816   5.551   3.628  16.114
  142DOPC   H7S16817   5.723   3.752  16.149
  142DOPC   C2816818   5.666   3.732  15.935
  142DOPC   H8R16819   5.704   3.853  15.901
  142DOPC   H8S16820   5.561   3.694  15.875
  142DOPC   C2916821   5.800   3.616  15.919
  142DOPC   H9R16822   5.765   3.503  15.962
  142DOPC  C21016823   5.953   3.632  15.884
  142DOPC  H10R16824   6.031   3.527  15.885
  142DOPC  C21116825   6.034   3.787  15.852
  142DOPC  H11R16826   6.166   3.769  15.862
  142DOPC  H11S16827   6.001   3.875  15.932
  142DOPC  C21216828   6.000   3.866  15.716
  142DOPC  H12R16829   5.868   3.876  15.698
  142DOPC  H12S16830   6.052   3.798  15.633
  142DOPC  C21316831   6.073   4.034  15.727
  142DOPC  H13R16832   6.199   4.028  15.762
  142DOPC  H13S16833   6.007   4.081  15.813
  142DOPC  C21416834   6.056   4.158  15.616
  142DOPC  H14R16835   6.152   4.250  15.633
  142DOPC  H14S16836   5.940   4.220  15.626
  142DOPC  C21516837   6.065   4.099  15.472
  142DOPC  H15R16838   5.965   4.016  15.449
  142DOPC  H15S16839   6.179   4.033  15.457
  142DOPC  C21616840   6.062   4.246  15.380
  142DOPC  H16R16841   6.098   4.351  15.441
  142DOPC  H16S16842   5.940   4.268  15.341
  142DOPC  C21716843   6.186   4.234  15.267
  142DOPC  H17R16844   6.292   4.163  15.301
  142DOPC  H17S16845   6.233   4.355  15.245
  142DOPC  C21816846   6.115   4.163  15.140
  142DOPC  H18R16847   6.205   4.174  15.058
  142DOPC  H18S16848   6.005   4.230  15.111
  142DOPC  H18T16849   6.085   4.034  15.155
  142DOPC   C3316850   5.969   4.283  16.003
  142DOPC   H3X16851   6.053   4.255  15.921
  142DOPC   H3Y16852   5.944   4.412  15.990
  142DOPC   C3416853   5.807   4.190  15.996
  142DOPC   H4X16854   5.724   4.249  16.068
  142DOPC   H4Y16855   5.828   4.067  16.034
  142DOPC   C3516856   5.712   4.164  15.862
  142DOPC   H5X16857   5.591   4.123  15.891
  142DOPC   H5Y16858   5.766   4.064  15.805
  142DOPC   C3616859   5.693   4.301  15.759
  142DOPC   H6X16860   5.620   4.393  15.806
  142DOPC   H6Y16861   5.810   4.358  15.742
  142DOPC   C3716862   5.610   4.255  15.622
  142DOPC   H7X16863   5.627   4.360  15.555
  142DOPC   H7Y16864   5.684   4.164  15.571
  142DOPC   C3816865   5.420   4.216  15.635
  142DOPC   H8X16866   5.376   4.308  15.700
  142DOPC   H8Y16867   5.429   4.136  15.724
  142DOPC   C3916868   5.258   4.199  15.548
  142DOPC   H9X16869   5.210   4.319  15.526
  142DOPC  C31016870   5.160   4.081  15.490
  142DOPC  H10X16871   5.047   4.130  15.449
  142DOPC  C31116872   5.142   3.893  15.488
  142DOPC  H11X16873   5.052   3.895  15.405
  142DOPC  H11Y16874   5.069   3.850  15.571
  142DOPC  C31216875   5.236   3.736  15.425
  142DOPC  H12X16876   5.286   3.757  15.328
  142DOPC  H12Y16877   5.123   3.668  15.404
  142DOPC  C31316878   5.360   3.608  15.485
  142DOPC  H13X16879   5.376   3.589  15.591
  142DOPC  H13Y16880   5.291   3.499  15.480
  142DOPC  C31416881   5.532   3.565  15.420
  142DOPC  H14X16882   5.573   3.491  15.506
  142DOPC  H14Y16883   5.519   3.490  15.331
  142DOPC  C31516884   5.700   3.656  15.426
  142DOPC  H15X16885   5.758   3.640  15.526
  142DOPC  H15Y16886   5.690   3.787  15.425
  142DOPC  C31616887   5.824   3.641  15.312
  142DOPC  H16X16888   5.873   3.762  15.289
  142DOPC  H16Y16889   5.924   3.570  15.352
  142DOPC  C31716890   5.772   3.557  15.182
  142DOPC  H17X16891   5.884   3.538  15.124
  142DOPC  H17Y16892   5.726   3.438  15.213
  142DOPC  C31816893   5.650   3.632  15.087
  142DOPC  H18X16894   5.630   3.550  15.003
  142DOPC  H18Y16895   5.530   3.648  15.134
  142DOPC  H18Z16896   5.692   3.749  15.047
  143DOPC     N16897   3.041   4.517  17.074
  143DOPC   C1216898   3.203   4.438  17.048
  143DOPC  H12A16899   3.188   4.309  17.060
  143DOPC  H12B16900   3.289   4.476  17.122
  143DOPC   C1316901   2.910   4.412  17.020
  143DOPC  H13A16902   2.792   4.464  17.033
  143DOPC  H13B16903   2.934   4.397  16.914
  143DOPC  H13C16904   2.911   4.295  17.066
  143DOPC   C1416905   3.032   4.679  17.008
  143DOPC  H14A16906   3.120   4.759  17.054
  143DOPC  H14B16907   3.064   4.669  16.902
  143DOPC  H14C16908   2.916   4.734  17.017
  143DOPC   C1516909   3.011   4.540  17.218
  143DOPC  H15A16910   2.910   4.619  17.232
  143DOPC  H15B16911   3.112   4.600  17.265
  143DOPC  H15C16912   2.988   4.427  17.267
  143DOPC   C1116913   3.283   4.466  16.911
  143DOPC  H11A16914   3.299   4.598  16.895
  143DOPC  H11B16915   3.406   4.416  16.912
  143DOPC     P16916   3.173   4.483  16.670
  143DOPC   O1316917   3.325   4.486  16.596
  143DOPC   O1416918   3.100   4.637  16.707
  143DOPC   O1216919   3.194   4.388  16.807
  143DOPC   O1116920   3.047   4.381  16.590
  143DOPC    C116921   2.924   4.295  16.661
  143DOPC    HA16922   2.900   4.343  16.761
  143DOPC    HB16923   2.968   4.170  16.675
  143DOPC    C216924   2.759   4.296  16.589
  143DOPC    HS16925   2.676   4.225  16.653
  143DOPC   O2116926   2.767   4.225  16.460
  143DOPC   C2116927   2.815   4.078  16.455
  143DOPC   O2216928   2.838   3.984  16.546
  143DOPC   C2216929   2.844   4.042  16.307
  143DOPC   H2R16930   2.791   4.139  16.245
  143DOPC   H2S16931   2.780   3.928  16.285
  143DOPC    C316932   2.681   4.466  16.572
  143DOPC    HX16933   2.658   4.513  16.674
  143DOPC    HY16934   2.562   4.450  16.523
  143DOPC   O3116935   2.779   4.580  16.501
  143DOPC   C3116936   2.791   4.561  16.369
  143DOPC   O3216937   2.695   4.490  16.298
  143DOPC   C3216938   2.952   4.630  16.319
  143DOPC   H2X16939   3.040   4.621  16.401
  143DOPC   H2Y16940   2.990   4.547  16.241
  143DOPC   C2316941   3.024   4.020  16.274
  143DOPC   H3R16942   3.040   3.982  16.168
  143DOPC   H3S16943   3.068   3.926  16.342
  143DOPC   C2416944   3.146   4.146  16.311
  143DOPC   H4R16945   3.262   4.081  16.303
  143DOPC   H4S16946   3.133   4.188  16.416
  143DOPC   C2516947   3.161   4.285  16.214
  143DOPC   H5R16948   3.038   4.336  16.206
  143DOPC   H5S16949   3.190   4.236  16.114
  143DOPC   C2616950   3.290   4.402  16.266
  143DOPC   H6R16951   3.395   4.330  16.299
  143DOPC   H6S16952   3.245   4.459  16.359
  143DOPC   C2716953   3.354   4.530  16.169
  143DOPC   H7R16954   3.446   4.601  16.223
  143DOPC   H7S16955   3.254   4.613  16.145
  143DOPC   C2816956   3.431   4.454  16.043
  143DOPC   H8R16957   3.361   4.345  16.018
  143DOPC   H8S16958   3.551   4.410  16.075
  143DOPC   C2916959   3.443   4.558  15.920
  143DOPC   H9R16960   3.518   4.666  15.932
  143DOPC  C21016961   3.371   4.531  15.801
  143DOPC  H10R16962   3.392   4.616  15.719
  143DOPC  C21116963   3.262   4.392  15.765
  143DOPC  H11R16964   3.162   4.381  15.838
  143DOPC  H11S16965   3.329   4.277  15.770
  143DOPC  C21216966   3.190   4.409  15.623
  143DOPC  H12R16967   3.287   4.440  15.551
  143DOPC  H12S16968   3.101   4.507  15.619
  143DOPC  C21316969   3.109   4.254  15.570
  143DOPC  H13R16970   2.993   4.235  15.621
  143DOPC  H13S16971   3.186   4.150  15.594
  143DOPC  C21416972   3.083   4.261  15.418
  143DOPC  H14R16973   3.197   4.300  15.369
  143DOPC  H14S16974   2.990   4.355  15.396
  143DOPC  C21516975   3.031   4.099  15.357
  143DOPC  H15R16976   2.929   4.054  15.417
  143DOPC  H15S16977   3.131   4.010  15.366
  143DOPC  C21616978   2.980   4.115  15.211
  143DOPC  H16R16979   2.916   4.231  15.196
  143DOPC  H16S16980   2.892   4.016  15.188
  143DOPC  C21716981   3.119   4.100  15.111
  143DOPC  H17R16982   3.170   3.978  15.119
  143DOPC  H17S16983   3.215   4.187  15.140
  143DOPC  C21816984   3.068   4.133  14.967
  143DOPC  H18R16985   3.169   4.111  14.898
  143DOPC  H18S16986   3.028   4.259  14.954
  143DOPC  H18T16987   2.966   4.052  14.938
  143DOPC   C3316988   2.954   4.795  16.250
  143DOPC   H3X16989   3.080   4.838  16.247
  143DOPC   H3Y16990   2.887   4.883  16.311
  143DOPC   C3416991   2.892   4.788  16.105
  143DOPC   H4X16992   2.878   4.913  16.067
  143DOPC   H4Y16993   2.768   4.735  16.110
  143DOPC   C3516994   2.999   4.692  16.007
  143DOPC   H5X16995   3.030   4.573  16.049
  143DOPC   H5Y16996   3.112   4.759  15.991
  143DOPC   C3616997   2.924   4.656  15.869
  143DOPC   H6X16998   2.894   4.771  15.822
  143DOPC   H6Y16999   3.016   4.598  15.805
  143DOPC   C3717000   2.778   4.543  15.875
  143DOPC   H7X17001   2.694   4.590  15.952
  143DOPC   H7Y17002   2.714   4.547  15.777
  143DOPC   C3817003   2.820   4.368  15.908
  143DOPC   H8X17004   2.896   4.362  16.000
  143DOPC   H8Y17005   2.896   4.319  15.825
  143DOPC   C3917006   2.664   4.280  15.928
  143DOPC   H9X17007   2.608   4.304  16.026
  143DOPC  C31017008   2.590   4.188  15.838
  143DOPC  H10X17009   2.473   4.134  15.865
  143DOPC  C31117010   2.648   4.153  15.698
  143DOPC  H11X17011   2.668   4.022  15.687
  143DOPC  H11Y17012   2.766   4.207  15.678
  143DOPC  C31217013   2.537   4.210  15.585
  143DOPC  H12X17014   2.538   4.344  15.581
  143DOPC  H12Y17015   2.412   4.170  15.605
  143DOPC  C31317016   2.593   4.141  15.451
  143DOPC  H13X17017   2.714   4.189  15.428
  143DOPC  H13Y17018   2.605   4.009  15.462
  143DOPC  C31417019   2.480   4.174  15.333
  143DOPC  H14X17020   2.507   4.084  15.254
  143DOPC  H14Y17021   2.353   4.154  15.365
  143DOPC  C31517022   2.500   4.340  15.273
  143DOPC  H15X17023   2.627   4.362  15.244
  143DOPC  H15Y17024   2.468   4.432  15.350
  143DOPC  C31617025   2.393   4.361  15.150
  143DOPC  H16X17026   2.443   4.296  15.063
  143DOPC  H16Y17027   2.275   4.304  15.175
  143DOPC  C31717028   2.357   4.535  15.115
  143DOPC  H17X17029   2.362   4.604  15.209
  143DOPC  H17Y17030   2.452   4.584  15.049
  143DOPC  C31817031   2.191   4.554  15.052
  143DOPC  H18X17032   2.178   4.478  14.961
  143DOPC  H18Y17033   2.096   4.522  15.125
  143DOPC  H18Z17034   2.170   4.680  15.022
  144DOPC     N17035   3.804   3.098  16.758
  144DOPC   C1217036   3.955   3.002  16.740
  144DOPC  H12A17037   4.048   3.073  16.693
  144DOPC  H12B17038   3.931   2.902  16.675
  144DOPC   C1317039   3.833   3.208  16.875
  144DOPC  H13A17040   3.864   3.130  16.961
  144DOPC  H13B17041   3.931   3.288  16.860
  144DOPC  H13C17042   3.725   3.268  16.907
  144DOPC   C1417043   3.672   2.987  16.799
  144DOPC  H14A17044   3.638   2.903  16.722
  144DOPC  H14B17045   3.716   2.918  16.885
  144DOPC  H14C17046   3.569   3.050  16.837
  144DOPC   C1517047   3.756   3.192  16.639
  144DOPC  H15A17048   3.656   3.271  16.664
  144DOPC  H15B17049   3.719   3.118  16.556
  144DOPC  H15C17050   3.853   3.268  16.604
  144DOPC   C1117051   4.032   2.935  16.871
  144DOPC  H11A17052   4.096   2.830  16.831
  144DOPC  H11B17053   4.123   3.018  16.913
  144DOPC     P17054   3.950   2.735  17.060
  144DOPC   O1317055   3.794   2.689  17.119
  144DOPC   O1417056   4.082   2.778  17.152
  144DOPC   O1217057   3.920   2.892  16.973
  144DOPC   O1117058   4.009   2.606  16.948
  144DOPC    C117059   3.905   2.582  16.837
  144DOPC    HA17060   3.898   2.690  16.774
  144DOPC    HB17061   3.781   2.556  16.875
  144DOPC    C217062   3.946   2.441  16.742
  144DOPC    HS17063   3.934   2.329  16.803
  144DOPC   O2117064   4.099   2.447  16.674
  144DOPC   C2117065   4.146   2.298  16.636
  144DOPC   O2217066   4.129   2.178  16.704
  144DOPC   C2217067   4.218   2.299  16.497
  144DOPC   H2R17068   4.230   2.174  16.459
  144DOPC   H2S17069   4.340   2.348  16.505
  144DOPC    C317070   3.812   2.446  16.633
  144DOPC    HX17071   3.695   2.438  16.685
  144DOPC    HY17072   3.828   2.336  16.570
  144DOPC   O3117073   3.823   2.596  16.557
  144DOPC   C3117074   3.767   2.581  16.433
  144DOPC   O3217075   3.697   2.462  16.394
  144DOPC   C3217076   3.810   2.729  16.348
  144DOPC   H2X17077   3.769   2.836  16.403
  144DOPC   H2Y17078   3.943   2.731  16.341
  144DOPC   C2317079   4.123   2.401  16.396
  144DOPC   H3R17080   4.216   2.462  16.336
  144DOPC   H3S17081   4.056   2.500  16.442
  144DOPC   C2417082   4.018   2.293  16.309
  144DOPC   H4R17083   3.917   2.242  16.367
  144DOPC   H4S17084   4.093   2.191  16.274
  144DOPC   C2517085   3.950   2.372  16.183
  144DOPC   H5R17086   3.830   2.424  16.201
  144DOPC   H5S17087   3.924   2.273  16.112
  144DOPC   C2617088   4.058   2.500  16.122
  144DOPC   H6R17089   4.187   2.478  16.145
  144DOPC   H6S17090   4.032   2.622  16.159
  144DOPC   C2717091   4.042   2.491  15.972
  144DOPC   H7R17092   3.931   2.552  15.939
  144DOPC   H7S17093   4.025   2.362  15.950
  144DOPC   C2817094   4.192   2.552  15.901
  144DOPC   H8R17095   4.301   2.525  15.959
  144DOPC   H8S17096   4.182   2.686  15.896
  144DOPC   C2917097   4.195   2.468  15.768
  144DOPC   H9R17098   4.267   2.358  15.763
  144DOPC  C21017099   4.117   2.522  15.660
  144DOPC  H10R17100   4.123   2.454  15.566
  144DOPC  C21117101   4.019   2.674  15.660
  144DOPC  H11R17102   3.950   2.693  15.754
  144DOPC  H11S17103   3.929   2.672  15.578
  144DOPC  C21217104   4.139   2.813  15.643
  144DOPC  H12R17105   4.235   2.808  15.720
  144DOPC  H12S17106   4.078   2.929  15.655
  144DOPC  C21317107   4.217   2.808  15.504
  144DOPC  H13R17108   4.264   2.687  15.480
  144DOPC  H13S17109   4.324   2.886  15.499
  144DOPC  C21417110   4.093   2.861  15.402
  144DOPC  H14R17111   4.120   2.980  15.357
  144DOPC  H14S17112   3.978   2.884  15.456
  144DOPC  C21517113   4.066   2.734  15.296
  144DOPC  H15R17114   4.063   2.614  15.345
  144DOPC  H15S17115   4.160   2.732  15.218
  144DOPC  C21617116   3.900   2.764  15.239
  144DOPC  H16R17117   3.823   2.756  15.328
  144DOPC  H16S17118   3.860   2.666  15.173
  144DOPC  C21717119   3.877   2.928  15.173
  144DOPC  H17R17120   3.882   3.025  15.249
  144DOPC  H17S17121   3.755   2.933  15.129
  144DOPC  C21817122   4.003   2.963  15.065
  144DOPC  H18R17123   4.116   3.011  15.110
  144DOPC  H18S17124   3.959   3.050  14.991
  144DOPC  H18T17125   4.034   2.850  15.010
  144DOPC   C3317126   3.742   2.738  16.203
  144DOPC   H3X17127   3.610   2.731  16.200
  144DOPC   H3Y17128   3.784   2.641  16.137
  144DOPC   C3417129   3.793   2.894  16.134
  144DOPC   H4X17130   3.926   2.897  16.130
  144DOPC   H4Y17131   3.751   2.999  16.195
  144DOPC   C3517132   3.730   2.912  15.991
  144DOPC   H5X17133   3.596   2.916  15.990
  144DOPC   H5Y17134   3.768   2.807  15.931
  144DOPC   C3617135   3.798   3.065  15.928
  144DOPC   H6X17136   3.743   3.172  15.975
  144DOPC   H6Y17137   3.929   3.067  15.950
  144DOPC   C3717138   3.779   3.073  15.775
  144DOPC   H7X17139   3.874   3.158  15.740
  144DOPC   H7Y17140   3.806   2.954  15.730
  144DOPC   C3817141   3.613   3.131  15.730
  144DOPC   H8X17142   3.575   3.234  15.794
  144DOPC   H8Y17143   3.524   3.034  15.746
  144DOPC   C3917144   3.623   3.185  15.586
  144DOPC   H9X17145   3.715   3.277  15.567
  144DOPC  C31017146   3.535   3.132  15.483
  144DOPC  H10X17147   3.554   3.184  15.383
  144DOPC  C31117148   3.407   3.005  15.491
  144DOPC  H11X17149   3.329   3.006  15.402
  144DOPC  H11Y17150   3.328   3.029  15.577
  144DOPC  C31217151   3.464   2.832  15.509
  144DOPC  H12X17152   3.360   2.758  15.538
  144DOPC  H12Y17153   3.552   2.827  15.593
  144DOPC  C31317154   3.542   2.762  15.383
  144DOPC  H13X17155   3.608   2.860  15.331
  144DOPC  H13Y17156   3.628   2.666  15.416
  144DOPC  C31417157   3.425   2.683  15.286
  144DOPC  H14X17158   3.338   2.616  15.347
  144DOPC  H14Y17159   3.361   2.779  15.230
  144DOPC  C31517160   3.497   2.563  15.185
  144DOPC  H15X17161   3.545   2.458  15.239
  144DOPC  H15Y17162   3.602   2.621  15.141
  144DOPC  C31617163   3.370   2.514  15.080
  144DOPC  H16X17164   3.268   2.460  15.136
  144DOPC  H16Y17165   3.323   2.624  15.032
  144DOPC  C31717166   3.419   2.395  14.968
  144DOPC  H17X17167   3.508   2.450  14.902
  144DOPC  H17Y17168   3.481   2.290  15.011
  144DOPC  C31817169   3.281   2.341  14.877
  144DOPC  H18X17170   3.193   2.266  14.932
  144DOPC  H18Y17171   3.215   2.447  14.837
  144DOPC  H18Z17172   3.328   2.270  14.791
  145DOPC     N17173   4.715   6.581  17.076
  145DOPC   C1217174   4.828   6.673  16.983
  145DOPC  H12A17175   4.942   6.608  16.978
  145DOPC  H12B17176   4.852   6.791  17.025
  145DOPC   C1317177   4.740   6.406  17.046
  145DOPC  H13A17178   4.867   6.373  17.046
  145DOPC  H13B17179   4.676   6.329  17.113
  145DOPC  H13C17180   4.702   6.384  16.944
  145DOPC   C1417181   4.544   6.624  17.046
  145DOPC  H14A17182   4.528   6.631  16.938
  145DOPC  H14B17183   4.462   6.534  17.084
  145DOPC  H14C17184   4.507   6.737  17.092
  145DOPC   C1517185   4.742   6.613  17.221
  145DOPC  H15A17186   4.732   6.739  17.245
  145DOPC  H15B17187   4.858   6.572  17.258
  145DOPC  H15C17188   4.648   6.556  17.280
  145DOPC   C1117189   4.774   6.695  16.834
  145DOPC  H11A17190   4.672   6.781  16.831
  145DOPC  H11B17191   4.873   6.752  16.776
  145DOPC     P17192   4.855   6.422  16.721
  145DOPC   O1317193   4.763   6.275  16.691
  145DOPC   O1417194   4.984   6.415  16.824
  145DOPC   O1217195   4.724   6.547  16.772
  145DOPC   O1117196   4.921   6.500  16.587
  145DOPC    C117197   4.819   6.587  16.497
  145DOPC    HA17198   4.766   6.694  16.548
  145DOPC    HB17199   4.718   6.510  16.462
  145DOPC    C217200   4.914   6.648  16.372
  145DOPC    HS17201   4.832   6.726  16.312
  145DOPC   O2117202   4.969   6.515  16.293
  145DOPC   C2117203   4.862   6.451  16.212
  145DOPC   O2217204   4.733   6.506  16.182
  145DOPC   C2217205   4.925   6.288  16.166
  145DOPC   H2R17206   4.838   6.197  16.202
  145DOPC   H2S17207   5.042   6.264  16.214
  145DOPC    C317208   5.059   6.755  16.413
  145DOPC    HX17209   5.102   6.713  16.512
  145DOPC    HY17210   5.016   6.881  16.428
  145DOPC   O3117211   5.189   6.740  16.316
  145DOPC   C3117212   5.204   6.859  16.230
  145DOPC   O3217213   5.146   6.992  16.241
  145DOPC   C3217214   5.300   6.802  16.107
  145DOPC   H2X17215   5.430   6.812  16.128
  145DOPC   H2Y17216   5.270   6.673  16.090
  145DOPC   C2317217   4.943   6.272  16.013
  145DOPC   H3R17218   4.829   6.307  15.962
  145DOPC   H3S17219   4.966   6.144  15.987
  145DOPC   C2417220   5.082   6.372  15.958
  145DOPC   H4R17221   5.197   6.328  16.001
  145DOPC   H4S17222   5.070   6.499  15.989
  145DOPC   C2517223   5.094   6.364  15.806
  145DOPC   H5R17224   5.069   6.240  15.769
  145DOPC   H5S17225   5.219   6.395  15.775
  145DOPC   C2617226   4.979   6.484  15.739
  145DOPC   H6R17227   4.998   6.604  15.785
  145DOPC   H6S17228   4.853   6.448  15.758
  145DOPC   C2717229   5.016   6.500  15.591
  145DOPC   H7R17230   5.147   6.511  15.590
  145DOPC   H7S17231   4.970   6.616  15.549
  145DOPC   C2817232   4.964   6.358  15.503
  145DOPC   H8R17233   5.029   6.250  15.542
  145DOPC   H8S17234   5.014   6.377  15.400
  145DOPC   C2917235   4.788   6.320  15.493
  145DOPC   H9R17236   4.762   6.194  15.466
  145DOPC  C21017237   4.662   6.418  15.515
  145DOPC  H10R17238   4.542   6.366  15.496
  145DOPC  C21117239   4.661   6.593  15.554
  145DOPC  H11R17240   4.746   6.661  15.490
  145DOPC  H11S17241   4.702   6.607  15.660
  145DOPC  C21217242   4.498   6.677  15.545
  145DOPC  H12R17243   4.514   6.804  15.575
  145DOPC  H12S17244   4.414   6.623  15.619
  145DOPC  C21317245   4.422   6.673  15.405
  145DOPC  H13R17246   4.300   6.722  15.413
  145DOPC  H13S17247   4.414   6.546  15.371
  145DOPC  C21417248   4.517   6.769  15.301
  145DOPC  H14R17249   4.633   6.709  15.289
  145DOPC  H14S17250   4.538   6.893  15.340
  145DOPC  C21517251   4.439   6.780  15.162
  145DOPC  H15R17252   4.525   6.840  15.092
  145DOPC  H15S17253   4.332   6.860  15.169
  145DOPC  C21617254   4.390   6.617  15.103
  145DOPC  H16R17255   4.328   6.638  15.005
  145DOPC  H16S17256   4.306   6.553  15.170
  145DOPC  C21717257   4.528   6.500  15.082
  145DOPC  H17R17258   4.595   6.480  15.177
  145DOPC  H17S17259   4.604   6.564  15.010
  145DOPC  C21817260   4.478   6.340  15.023
  145DOPC  H18R17261   4.374   6.353  14.955
  145DOPC  H18S17262   4.446   6.253  15.104
  145DOPC  H18T17263   4.579   6.288  14.965
  145DOPC   C3317264   5.257   6.899  15.980
  145DOPC   H3X17265   5.329   6.852  15.895
  145DOPC   H3Y17266   5.287   7.027  15.994
  145DOPC   C3417267   5.078   6.880  15.949
  145DOPC   H4X17268   5.008   6.931  16.033
  145DOPC   H4Y17269   5.050   6.749  15.945
  145DOPC   C3517270   5.011   6.959  15.822
  145DOPC   H5X17271   5.062   6.902  15.730
  145DOPC   H5Y17272   5.045   7.088  15.822
  145DOPC   C3617273   4.828   6.940  15.825
  145DOPC   H6X17274   4.798   6.810  15.831
  145DOPC   H6Y17275   4.782   6.997  15.917
  145DOPC   C3717276   4.741   7.014  15.705
  145DOPC   H7X17277   4.786   6.954  15.613
  145DOPC   H7Y17278   4.610   6.988  15.714
  145DOPC   C3817279   4.765   7.196  15.699
  145DOPC   H8X17280   4.896   7.218  15.683
  145DOPC   H8Y17281   4.739   7.246  15.800
  145DOPC   C3917282   4.668   7.284  15.596
  145DOPC   H9X17283   4.549   7.325  15.629
  145DOPC  C31017284   4.712   7.310  15.469
  145DOPC  H10X17285   4.632   7.374  15.400
  145DOPC  C31117286   4.868   7.255  15.409
  145DOPC  H11X17287   4.966   7.235  15.484
  145DOPC  H11Y17288   4.915   7.340  15.333
  145DOPC  C31217289   4.823   7.096  15.344
  145DOPC  H12X17290   4.733   7.115  15.263
  145DOPC  H12Y17291   4.769   7.012  15.417
  145DOPC  C31317292   4.964   7.009  15.282
  145DOPC  H13X17293   5.022   7.091  15.208
  145DOPC  H13Y17294   5.054   6.978  15.361
  145DOPC  C31417295   4.902   6.857  15.218
  145DOPC  H14X17296   4.855   6.779  15.299
  145DOPC  H14Y17297   4.806   6.882  15.144
  145DOPC  C31517298   5.036   6.767  15.151
  145DOPC  H15X17299   5.143   6.798  15.211
  145DOPC  H15Y17300   5.050   6.824  15.052
  145DOPC  C31617301   5.022   6.582  15.152
  145DOPC  H16X17302   5.144   6.529  15.160
  145DOPC  H16Y17303   4.956   6.545  15.243
  145DOPC  C31717304   4.943   6.510  15.028
  145DOPC  H17X17305   4.825   6.568  15.025
  145DOPC  H17Y17306   5.002   6.545  14.932
  145DOPC  C31817307   4.927   6.326  15.030
  145DOPC  H18X17308   4.873   6.286  15.125
  145DOPC  H18Y17309   4.850   6.284  14.946
  145DOPC  H18Z17310   5.047   6.270  15.019
  146DOPC     N17311   6.432   3.230  17.024
  146DOPC   C1217312   6.574   3.268  16.931
  146DOPC  H12A17313   6.576   3.178  16.853
  146DOPC  H12B17314   6.683   3.260  16.988
  146DOPC   C1317315   6.478   3.108  17.126
  146DOPC  H13A17316   6.564   3.160  17.195
  146DOPC  H13B17317   6.371   3.070  17.180
  146DOPC  H13C17318   6.528   3.002  17.080
  146DOPC   C1417319   6.287   3.175  16.948
  146DOPC  H14A17320   6.238   3.272  16.887
  146DOPC  H14B17321   6.312   3.076  16.881
  146DOPC  H14C17322   6.191   3.132  17.014
  146DOPC   C1517323   6.388   3.384  17.093
  146DOPC  H15A17324   6.486   3.436  17.148
  146DOPC  H15B17325   6.287   3.366  17.158
  146DOPC  H15C17326   6.354   3.475  17.019
  146DOPC   C1117327   6.570   3.432  16.860
  146DOPC  H11A17328   6.588   3.532  16.933
  146DOPC  H11B17329   6.670   3.440  16.785
  146DOPC     P17330   6.326   3.600  16.767
  146DOPC   O1317331   6.358   3.716  16.874
  146DOPC   O1417332   6.161   3.547  16.741
  146DOPC   O1217333   6.422   3.440  16.793
  146DOPC   O1117334   6.409   3.647  16.627
  146DOPC    C117335   6.372   3.535  16.519
  146DOPC    HA17336   6.258   3.574  16.470
  146DOPC    HB17337   6.353   3.409  16.556
  146DOPC    C217338   6.503   3.517  16.407
  146DOPC    HS17339   6.620   3.503  16.459
  146DOPC   O2117340   6.500   3.659  16.324
  146DOPC   C2117341   6.625   3.682  16.246
  146DOPC   O2217342   6.745   3.598  16.239
  146DOPC   C2217343   6.596   3.835  16.166
  146DOPC   H2R17344   6.594   3.937  16.238
  146DOPC   H2S17345   6.478   3.824  16.118
  146DOPC    C317346   6.472   3.362  16.322
  146DOPC    HX17347   6.373   3.394  16.251
  146DOPC    HY17348   6.425   3.266  16.389
  146DOPC   O3117349   6.614   3.302  16.257
  146DOPC   C3117350   6.594   3.238  16.137
  146DOPC   O3217351   6.466   3.211  16.084
  146DOPC   C3217352   6.760   3.199  16.077
  146DOPC   H2X17353   6.852   3.272  16.130
  146DOPC   H2Y17354   6.785   3.071  16.096
  146DOPC   C2317355   6.730   3.859  16.062
  146DOPC   H3R17356   6.772   3.742  16.021
  146DOPC   H3S17357   6.834   3.916  16.112
  146DOPC   C2417358   6.680   3.962  15.945
  146DOPC   H4R17359   6.788   4.016  15.898
  146DOPC   H4S17360   6.601   4.062  15.980
  146DOPC   C2517361   6.596   3.860  15.839
  146DOPC   H5R17362   6.487   3.805  15.884
  146DOPC   H5S17363   6.678   3.762  15.808
  146DOPC   C2617364   6.551   3.960  15.717
  146DOPC   H6R17365   6.656   3.986  15.653
  146DOPC   H6S17366   6.503   4.078  15.755
  146DOPC   C2717367   6.415   3.882  15.637
  146DOPC   H7R17368   6.356   3.983  15.583
  146DOPC   H7S17369   6.331   3.832  15.712
  146DOPC   C2817370   6.457   3.750  15.537
  146DOPC   H8R17371   6.522   3.652  15.588
  146DOPC   H8S17372   6.535   3.798  15.457
  146DOPC   C2917373   6.296   3.696  15.483
  146DOPC   H9R17374   6.235   3.785  15.420
  146DOPC  C21017375   6.226   3.553  15.504
  146DOPC  H10R17376   6.106   3.533  15.464
  146DOPC  C21117377   6.289   3.416  15.586
  146DOPC  H11R17378   6.192   3.350  15.638
  146DOPC  H11S17379   6.376   3.457  15.664
  146DOPC  C21217380   6.377   3.308  15.484
  146DOPC  H12R17381   6.467   3.385  15.431
  146DOPC  H12S17382   6.292   3.262  15.408
  146DOPC  C21317383   6.473   3.167  15.541
  146DOPC  H13R17384   6.396   3.059  15.548
  146DOPC  H13S17385   6.511   3.199  15.645
  146DOPC  C21417386   6.625   3.133  15.458
  146DOPC  H14R17387   6.696   3.037  15.508
  146DOPC  H14S17388   6.701   3.244  15.459
  146DOPC  C21517389   6.596   3.086  15.310
  146DOPC  H15R17390   6.532   3.185  15.260
  146DOPC  H15S17391   6.517   2.982  15.308
  146DOPC  C21617392   6.757   3.054  15.237
  146DOPC  H16R17393   6.804   2.942  15.282
  146DOPC  H16S17394   6.841   3.154  15.263
  146DOPC  C21717395   6.767   3.032  15.084
  146DOPC  H17R17396   6.731   2.909  15.056
  146DOPC  H17S17397   6.895   3.040  15.053
  146DOPC  C21817398   6.668   3.146  14.997
  146DOPC  H18R17399   6.635   3.088  14.902
  146DOPC  H18S17400   6.736   3.258  14.975
  146DOPC  H18T17401   6.553   3.176  15.048
  146DOPC   C3317402   6.768   3.233  15.925
  146DOPC   H3X17403   6.679   3.157  15.871
  146DOPC   H3Y17404   6.889   3.196  15.890
  146DOPC   C3417405   6.739   3.410  15.889
  146DOPC   H4X17406   6.820   3.488  15.949
  146DOPC   H4Y17407   6.613   3.442  15.913
  146DOPC   C3517408   6.769   3.442  15.740
  146DOPC   H5X17409   6.703   3.550  15.705
  146DOPC   H5Y17410   6.722   3.338  15.682
  146DOPC   C3617411   6.947   3.462  15.709
  146DOPC   H6X17412   6.996   3.574  15.754
  146DOPC   H6Y17413   7.004   3.356  15.757
  146DOPC   C3717414   6.991   3.450  15.562
  146DOPC   H7X17415   7.124   3.432  15.555
  146DOPC   H7Y17416   6.934   3.338  15.523
  146DOPC   C3817417   6.946   3.596  15.478
  146DOPC   H8X17418   7.015   3.703  15.509
  146DOPC   H8Y17419   6.816   3.624  15.491
  146DOPC   C3917420   6.991   3.542  15.340
  146DOPC   H9X17421   7.120   3.522  15.326
  146DOPC  C31017422   6.890   3.506  15.240
  146DOPC  H10X17423   6.941   3.463  15.145
  146DOPC  C31117424   6.710   3.512  15.244
  146DOPC  H11X17425   6.665   3.582  15.330
  146DOPC  H11Y17426   6.662   3.390  15.253
  146DOPC  C31217427   6.646   3.588  15.115
  146DOPC  H12X17428   6.678   3.512  15.027
  146DOPC  H12Y17429   6.704   3.707  15.100
  146DOPC  C31317430   6.463   3.611  15.118
  146DOPC  H13X17431   6.428   3.684  15.207
  146DOPC  H13Y17432   6.426   3.677  15.026
  146DOPC  C31417433   6.376   3.451  15.121
  146DOPC  H14X17434   6.426   3.379  15.038
  146DOPC  H14Y17435   6.400   3.389  15.217
  146DOPC  C31517436   6.194   3.462  15.099
  146DOPC  H15X17437   6.166   3.570  15.038
  146DOPC  H15Y17438   6.132   3.474  15.197
  146DOPC  C31617439   6.134   3.313  15.025
  146DOPC  H16X17440   6.006   3.328  14.999
  146DOPC  H16Y17441   6.203   3.301  14.930
  146DOPC  C31717442   6.158   3.161  15.108
  146DOPC  H17X17443   6.286   3.150  15.141
  146DOPC  H17Y17444   6.085   3.168  15.201
  146DOPC  C31817445   6.119   3.011  15.028
  146DOPC  H18X17446   6.094   2.908  15.095
  146DOPC  H18Y17447   6.016   3.029  14.960
  146DOPC  H18Z17448   6.223   2.986  14.964
  147DOPC     N17449   2.017   3.892  16.998
  147DOPC   C1217450   2.111   4.042  16.957
  147DOPC  H12A17451   2.084   4.138  17.027
  147DOPC  H12B17452   2.071   4.078  16.858
  147DOPC   C1317453   1.994   3.799  16.873
  147DOPC  H13A17454   1.951   3.678  16.885
  147DOPC  H13B17455   1.915   3.857  16.802
  147DOPC  H13C17456   2.112   3.788  16.824
  147DOPC   C1417457   1.865   3.942  17.065
  147DOPC  H14A17458   1.772   3.983  16.996
  147DOPC  H14B17459   1.819   3.853  17.133
  147DOPC  H14C17460   1.892   4.042  17.131
  147DOPC   C1517461   2.122   3.802  17.093
  147DOPC  H15A17462   2.150   3.877  17.179
  147DOPC  H15B17463   2.236   3.775  17.043
  147DOPC  H15C17464   2.072   3.691  17.132
  147DOPC   C1117465   2.296   4.033  16.952
  147DOPC  H11A17466   2.338   4.157  16.923
  147DOPC  H11B17467   2.347   4.013  17.054
  147DOPC     P17468   2.509   3.949  16.779
  147DOPC   O1317469   2.633   4.012  16.871
  147DOPC   O1417470   2.461   4.049  16.663
  147DOPC   O1217471   2.348   3.913  16.862
  147DOPC   O1117472   2.560   3.775  16.730
  147DOPC    C117473   2.428   3.676  16.689
  147DOPC    HA17474   2.333   3.746  16.637
  147DOPC    HB17475   2.374   3.619  16.780
  147DOPC    C217476   2.472   3.536  16.593
  147DOPC    HS17477   2.557   3.455  16.645
  147DOPC   O2117478   2.543   3.593  16.469
  147DOPC   C2117479   2.582   3.480  16.381
  147DOPC   O2217480   2.584   3.336  16.399
  147DOPC   C2217481   2.620   3.562  16.250
  147DOPC   H2R17482   2.652   3.468  16.176
  147DOPC   H2S17483   2.723   3.642  16.267
  147DOPC    C317484   2.314   3.448  16.565
  147DOPC    HX17485   2.266   3.398  16.661
  147DOPC    HY17486   2.345   3.342  16.504
  147DOPC   O3117487   2.202   3.548  16.493
  147DOPC   C3117488   2.071   3.594  16.560
  147DOPC   O3217489   2.042   3.559  16.676
  147DOPC   C3217490   1.957   3.689  16.467
  147DOPC   H2X17491   1.834   3.676  16.508
  147DOPC   H2Y17492   1.990   3.817  16.469
  147DOPC   C2317493   2.477   3.661  16.199
  147DOPC   H3R17494   2.424   3.737  16.279
  147DOPC   H3S17495   2.382   3.576  16.168
  147DOPC   C2417496   2.530   3.772  16.085
  147DOPC   H4R17497   2.638   3.721  16.034
  147DOPC   H4S17498   2.564   3.890  16.127
  147DOPC   C2517499   2.396   3.788  15.982
  147DOPC   H5R17500   2.420   3.888  15.912
  147DOPC   H5S17501   2.284   3.818  16.036
  147DOPC   C2617502   2.372   3.631  15.904
  147DOPC   H6R17503   2.263   3.650  15.847
  147DOPC   H6S17504   2.347   3.530  15.972
  147DOPC   C2717505   2.503   3.577  15.806
  147DOPC   H7R17506   2.452   3.486  15.737
  147DOPC   H7S17507   2.599   3.514  15.864
  147DOPC   C2817508   2.581   3.710  15.722
  147DOPC   H8R17509   2.700   3.665  15.687
  147DOPC   H8S17510   2.611   3.811  15.791
  147DOPC   C2917511   2.484   3.769  15.604
  147DOPC   H9R17512   2.417   3.881  15.623
  147DOPC  C21017513   2.468   3.701  15.482
  147DOPC  H10R17514   2.398   3.764  15.406
  147DOPC  C21117515   2.544   3.546  15.434
  147DOPC  H11R17516   2.447   3.460  15.417
  147DOPC  H11S17517   2.626   3.494  15.510
  147DOPC  C21217518   2.632   3.542  15.299
  147DOPC  H12R17519   2.755   3.584  15.324
  147DOPC  H12S17520   2.581   3.632  15.231
  147DOPC  C21317521   2.651   3.370  15.238
  147DOPC  H13R17522   2.700   3.292  15.319
  147DOPC  H13S17523   2.741   3.380  15.159
  147DOPC  C21417524   2.518   3.277  15.161
  147DOPC  H14R17525   2.432   3.365  15.118
  147DOPC  H14S17526   2.454   3.199  15.234
  147DOPC  C21517527   2.573   3.175  15.039
  147DOPC  H15R17528   2.606   3.053  15.073
  147DOPC  H15S17529   2.682   3.234  14.999
  147DOPC  C21617530   2.456   3.166  14.917
  147DOPC  H16R17531   2.525   3.125  14.829
  147DOPC  H16S17532   2.417   3.289  14.896
  147DOPC  C21717533   2.306   3.059  14.925
  147DOPC  H17R17534   2.260   3.070  15.028
  147DOPC  H17S17535   2.336   2.930  14.906
  147DOPC  C21817536   2.168   3.108  14.831
  147DOPC  H18R17537   2.141   3.236  14.849
  147DOPC  H18S17538   2.058   3.040  14.854
  147DOPC  H18T17539   2.200   3.091  14.724
  147DOPC   C3317540   1.962   3.624  16.322
  147DOPC   H3X17541   1.944   3.492  16.331
  147DOPC   H3Y17542   2.082   3.647  16.276
  147DOPC   C3417543   1.830   3.684  16.227
  147DOPC   H4X17544   1.836   3.815  16.212
  147DOPC   H4Y17545   1.712   3.658  16.276
  147DOPC   C3517546   1.831   3.592  16.093
  147DOPC   H5X17547   1.705   3.578  16.058
  147DOPC   H5Y17548   1.860   3.467  16.119
  147DOPC   C3617549   1.937   3.656  15.976
  147DOPC   H6X17550   1.942   3.790  15.979
  147DOPC   H6Y17551   2.063   3.620  15.992
  147DOPC   C3717552   1.883   3.604  15.834
  147DOPC   H7X17553   1.843   3.476  15.836
  147DOPC   H7Y17554   1.776   3.676  15.803
  147DOPC   C3817555   2.003   3.628  15.719
  147DOPC   H8X17556   1.949   3.578  15.626
  147DOPC   H8Y17557   2.113   3.558  15.725
  147DOPC   C3917558   2.048   3.802  15.707
  147DOPC   H9X17559   2.149   3.845  15.769
  147DOPC  C31017560   1.974   3.900  15.625
  147DOPC  H10X17561   2.010   4.026  15.622
  147DOPC  C31117562   1.838   3.851  15.535
  147DOPC  H11X17563   1.730   3.923  15.558
  147DOPC  H11Y17564   1.793   3.726  15.551
  147DOPC  C31217565   1.885   3.865  15.388
  147DOPC  H12X17566   1.777   3.907  15.331
  147DOPC  H12Y17567   1.909   3.743  15.350
  147DOPC  C31317568   2.029   3.977  15.356
  147DOPC  H13X17569   2.041   4.078  15.426
  147DOPC  H13Y17570   2.142   3.907  15.365
  147DOPC  C31417571   2.009   4.052  15.217
  147DOPC  H14X17572   1.882   4.087  15.202
  147DOPC  H14Y17573   2.087   4.159  15.206
  147DOPC  C31517574   2.056   3.930  15.115
  147DOPC  H15X17575   1.987   3.820  15.136
  147DOPC  H15Y17576   2.180   3.910  15.144
  147DOPC  C31617577   2.034   3.965  14.965
  147DOPC  H16X17578   2.065   3.847  14.918
  147DOPC  H16Y17579   1.906   3.991  14.942
  147DOPC  C31717580   2.148   4.087  14.901
  147DOPC  H17X17581   2.092   4.206  14.891
  147DOPC  H17Y17582   2.251   4.102  14.969
  147DOPC  C31817583   2.208   4.044  14.761
  147DOPC  H18X17584   2.252   3.918  14.757
  147DOPC  H18Y17585   2.111   4.057  14.686
  147DOPC  H18Z17586   2.308   4.126  14.733
  148DOPC     N17587   3.257   6.403  16.718
  148DOPC   C1217588   3.245   6.582  16.750
  148DOPC  H12A17589   3.120   6.622  16.749
  148DOPC  H12B17590   3.304   6.654  16.674
  148DOPC   C1317591   3.427   6.347  16.741
  148DOPC  H13A17592   3.460   6.366  16.845
  148DOPC  H13B17593   3.442   6.221  16.720
  148DOPC  H13C17594   3.512   6.415  16.681
  148DOPC   C1417595   3.214   6.362  16.578
  148DOPC  H14A17596   3.240   6.236  16.561
  148DOPC  H14B17597   3.088   6.382  16.558
  148DOPC  H14C17598   3.286   6.431  16.509
  148DOPC   C1517599   3.150   6.316  16.815
  148DOPC  H15A17600   3.030   6.365  16.815
  148DOPC  H15B17601   3.197   6.338  16.916
  148DOPC  H15C17602   3.151   6.187  16.801
  148DOPC   C1117603   3.316   6.635  16.887
  148DOPC  H11A17604   3.446   6.611  16.888
  148DOPC  H11B17605   3.301   6.767  16.899
  148DOPC     P17606   3.095   6.614  17.074
  148DOPC   O1317607   3.138   6.761  17.150
  148DOPC   O1417608   3.036   6.474  17.150
  148DOPC   O1217609   3.245   6.551  16.994
  148DOPC   O1117610   2.975   6.656  16.956
  148DOPC    C117611   2.894   6.810  16.958
  148DOPC    HA17612   2.927   6.893  17.041
  148DOPC    HB17613   2.764   6.786  16.968
  148DOPC    C217614   2.914   6.902  16.824
  148DOPC    HS17615   2.803   6.980  16.815
  148DOPC   O2117616   2.938   6.785  16.719
  148DOPC   C2117617   2.802   6.760  16.655
  148DOPC   O2217618   2.686   6.847  16.660
  148DOPC   C2217619   2.808   6.607  16.572
  148DOPC   H2R17620   2.682   6.599  16.537
  148DOPC   H2S17621   2.834   6.503  16.636
  148DOPC    C317622   3.049   7.030  16.818
  148DOPC    HX17623   3.168   6.983  16.848
  148DOPC    HY17624   3.017   7.127  16.889
  148DOPC   O3117625   3.050   7.099  16.686
  148DOPC   C3117626   3.122   7.010  16.594
  148DOPC   O3217627   3.227   6.912  16.614
  148DOPC   C3217628   3.032   7.032  16.462
  148DOPC   H2X17629   2.909   6.986  16.480
  148DOPC   H2Y17630   3.023   7.160  16.439
  148DOPC   C2317631   2.906   6.605  16.440
  148DOPC   H3R17632   3.034   6.578  16.459
  148DOPC   H3S17633   2.898   6.726  16.395
  148DOPC   C2417634   2.827   6.490  16.339
  148DOPC   H4R17635   2.750   6.564  16.272
  148DOPC   H4S17636   2.746   6.408  16.394
  148DOPC   C2517637   2.935   6.384  16.251
  148DOPC   H5R17638   2.989   6.287  16.312
  148DOPC   H5S17639   3.034   6.456  16.207
  148DOPC   C2617640   2.837   6.311  16.135
  148DOPC   H6R17641   2.788   6.410  16.073
  148DOPC   H6S17642   2.731   6.248  16.180
  148DOPC   C2717643   2.927   6.191  16.045
  148DOPC   H7R17644   2.858   6.076  16.044
  148DOPC   H7S17645   3.047   6.163  16.087
  148DOPC   C2817646   2.941   6.245  15.897
  148DOPC   H8R17647   2.820   6.269  15.856
  148DOPC   H8S17648   2.994   6.145  15.837
  148DOPC   C2917649   3.048   6.389  15.889
  148DOPC   H9R17650   3.168   6.373  15.932
  148DOPC  C21017651   3.010   6.533  15.839
  148DOPC  H10R17652   3.091   6.632  15.860
  148DOPC  C21117653   2.857   6.593  15.778
  148DOPC  H11R17654   2.851   6.720  15.811
  148DOPC  H11S17655   2.750   6.530  15.818
  148DOPC  C21217656   2.852   6.595  15.624
  148DOPC  H12R17657   2.732   6.637  15.590
  148DOPC  H12S17658   2.869   6.472  15.585
  148DOPC  C21317659   2.981   6.707  15.563
  148DOPC  H13R17660   3.100   6.666  15.599
  148DOPC  H13S17661   2.962   6.832  15.599
  148DOPC  C21417662   2.987   6.704  15.410
  148DOPC  H14R17663   2.975   6.580  15.373
  148DOPC  H14S17664   3.107   6.749  15.375
  148DOPC  C21517665   2.864   6.814  15.342
  148DOPC  H15R17666   2.879   6.941  15.374
  148DOPC  H15S17667   2.742   6.775  15.375
  148DOPC  C21617668   2.875   6.799  15.189
  148DOPC  H16R17669   2.768   6.860  15.151
  148DOPC  H16S17670   2.866   6.671  15.160
  148DOPC  C21717671   3.018   6.877  15.118
  148DOPC  H17R17672   2.999   6.862  15.008
  148DOPC  H17S17673   3.128   6.811  15.143
  148DOPC  C21817674   3.042   7.057  15.144
  148DOPC  H18R17675   3.048   7.084  15.253
  148DOPC  H18S17676   2.941   7.126  15.100
  148DOPC  H18T17677   3.155   7.100  15.097
  148DOPC   C3317678   3.116   6.938  16.350
  148DOPC   H3X17679   3.124   6.811  16.380
  148DOPC   H3Y17680   3.242   6.979  16.340
  148DOPC   C3417681   3.034   6.948  16.212
  148DOPC   H4X17682   3.102   7.034  16.150
  148DOPC   H4Y17683   2.910   6.996  16.220
  148DOPC   C3517684   3.035   6.791  16.134
  148DOPC   H5X17685   2.996   6.816  16.029
  148DOPC   H5Y17686   2.942   6.709  16.175
  148DOPC   C3617687   3.199   6.709  16.134
  148DOPC   H6X17688   3.227   6.662  16.236
  148DOPC   H6Y17689   3.196   6.601  16.068
  148DOPC   C3717690   3.338   6.818  16.091
  148DOPC   H7X17691   3.348   6.923  16.158
  148DOPC   H7Y17692   3.451   6.750  16.101
  148DOPC   C3817693   3.323   6.882  15.948
  148DOPC   H8X17694   3.414   6.977  15.934
  148DOPC   H8Y17695   3.204   6.940  15.934
  148DOPC   C3917696   3.348   6.752  15.848
  148DOPC   H9X17697   3.350   6.628  15.886
  148DOPC  C31017698   3.378   6.779  15.719
  148DOPC  H10X17699   3.397   6.674  15.653
  148DOPC  C31117700   3.392   6.942  15.657
  148DOPC  H11X17701   3.521   6.971  15.650
  148DOPC  H11Y17702   3.337   7.037  15.719
  148DOPC  C31217703   3.320   6.942  15.516
  148DOPC  H12X17704   3.323   7.066  15.476
  148DOPC  H12Y17705   3.191   6.914  15.520
  148DOPC  C31317706   3.409   6.822  15.428
  148DOPC  H13X17707   3.535   6.812  15.467
  148DOPC  H13Y17708   3.354   6.701  15.443
  148DOPC  C31417709   3.419   6.854  15.277
  148DOPC  H14X17710   3.342   6.763  15.228
  148DOPC  H14Y17711   3.376   6.977  15.251
  148DOPC  C31517712   3.592   6.832  15.229
  148DOPC  H15X17713   3.626   6.715  15.274
  148DOPC  H15Y17714   3.666   6.929  15.275
  148DOPC  C31617715   3.626   6.818  15.079
  148DOPC  H16X17716   3.580   6.924  15.025
  148DOPC  H16Y17717   3.758   6.814  15.060
  148DOPC  C31717718   3.544   6.676  15.015
  148DOPC  H17X17719   3.569   6.565  15.074
  148DOPC  H17Y17720   3.413   6.700  15.021
  148DOPC  C31817721   3.590   6.652  14.869
  148DOPC  H18X17722   3.637   6.528  14.852
  148DOPC  H18Y17723   3.482   6.670  14.807
  148DOPC  H18Z17724   3.682   6.739  14.836
  149DOPC     N17725   3.012   2.334  16.766
  149DOPC   C1217726   2.993   2.339  16.917
  149DOPC  H12A17727   3.089   2.270  16.965
  149DOPC  H12B17728   2.881   2.281  16.945
  149DOPC   C1317729   2.887   2.438  16.705
  149DOPC  H13A17730   2.771   2.419  16.750
  149DOPC  H13B17731   2.921   2.563  16.724
  149DOPC  H13C17732   2.880   2.420  16.598
  149DOPC   C1417733   3.004   2.166  16.715
  149DOPC  H14A17734   2.891   2.108  16.736
  149DOPC  H14B17735   3.023   2.156  16.607
  149DOPC  H14C17736   3.098   2.092  16.758
  149DOPC   C1517737   3.172   2.401  16.728
  149DOPC  H15A17738   3.175   2.524  16.765
  149DOPC  H15B17739   3.193   2.401  16.622
  149DOPC  H15C17740   3.266   2.338  16.779
  149DOPC   C1117741   3.000   2.504  16.985
  149DOPC  H11A17742   2.922   2.592  16.932
  149DOPC  H11B17743   2.956   2.490  17.089
  149DOPC     P17744   3.185   2.736  17.048
  149DOPC   O1317745   3.349   2.764  17.096
  149DOPC   O1417746   3.052   2.772  17.140
  149DOPC   O1217747   3.162   2.558  16.990
  149DOPC   O1117748   3.157   2.837  16.917
  149DOPC    C117749   3.251   2.810  16.802
  149DOPC    HA17750   3.294   2.686  16.790
  149DOPC    HB17751   3.358   2.888  16.811
  149DOPC    C217752   3.155   2.869  16.680
  149DOPC    HS17753   3.101   2.982  16.716
  149DOPC   O2117754   3.036   2.756  16.631
  149DOPC   C2117755   2.912   2.834  16.573
  149DOPC   O2217756   2.879   2.974  16.593
  149DOPC   C2217757   2.819   2.724  16.481
  149DOPC   H2R17758   2.702   2.701  16.532
  149DOPC   H2S17759   2.881   2.609  16.466
  149DOPC    C317760   3.272   2.905  16.566
  149DOPC    HX17761   3.360   2.999  16.595
  149DOPC    HY17762   3.197   2.951  16.481
  149DOPC   O3117763   3.356   2.760  16.533
  149DOPC   C3117764   3.383   2.750  16.404
  149DOPC   O3217765   3.396   2.863  16.328
  149DOPC   C3217766   3.385   2.576  16.368
  149DOPC   H2X17767   3.473   2.556  16.285
  149DOPC   H2Y17768   3.421   2.503  16.456
  149DOPC   C2317769   2.784   2.803  16.344
  149DOPC   H3R17770   2.752   2.933  16.355
  149DOPC   H3S17771   2.681   2.738  16.300
  149DOPC   C2417772   2.922   2.795  16.245
  149DOPC   H4R17773   2.971   2.671  16.245
  149DOPC   H4S17774   3.017   2.881  16.276
  149DOPC   C2517775   2.872   2.833  16.101
  149DOPC   H5R17776   2.792   2.941  16.099
  149DOPC   H5S17777   2.802   2.730  16.060
  149DOPC   C2617778   3.022   2.866  16.018
  149DOPC   H6R17779   3.126   2.820  16.076
  149DOPC   H6S17780   3.036   2.996  16.010
  149DOPC   C2717781   3.024   2.791  15.879
  149DOPC   H7R17782   2.948   2.864  15.810
  149DOPC   H7S17783   2.966   2.672  15.886
  149DOPC   C2817784   3.196   2.777  15.821
  149DOPC   H8R17785   3.252   2.897  15.818
  149DOPC   H8S17786   3.182   2.740  15.714
  149DOPC   C2917787   3.308   2.669  15.898
  149DOPC   H9R17788   3.335   2.706  16.001
  149DOPC  C21017789   3.374   2.532  15.853
  149DOPC  H10R17790   3.452   2.460  15.920
  149DOPC  C21117791   3.347   2.460  15.717
  149DOPC  H11R17792   3.238   2.509  15.668
  149DOPC  H11S17793   3.322   2.330  15.730
  149DOPC  C21217794   3.484   2.477  15.616
  149DOPC  H12R17795   3.571   2.570  15.648
  149DOPC  H12S17796   3.430   2.515  15.520
  149DOPC  C21317797   3.568   2.318  15.587
  149DOPC  H13R17798   3.614   2.270  15.683
  149DOPC  H13S17799   3.672   2.344  15.520
  149DOPC  C21417800   3.458   2.191  15.522
  149DOPC  H14R17801   3.355   2.160  15.587
  149DOPC  H14S17802   3.533   2.082  15.512
  149DOPC  C21517803   3.400   2.228  15.381
  149DOPC  H15R17804   3.510   2.242  15.319
  149DOPC  H15S17805   3.331   2.344  15.377
  149DOPC  C21617806   3.298   2.095  15.317
  149DOPC  H16R17807   3.169   2.108  15.345
  149DOPC  H16S17808   3.340   1.975  15.350
  149DOPC  C21717809   3.322   2.106  15.166
  149DOPC  H17R17810   3.454   2.104  15.145
  149DOPC  H17S17811   3.271   2.224  15.137
  149DOPC  C21817812   3.242   1.984  15.078
  149DOPC  H18R17813   3.283   1.994  14.973
  149DOPC  H18S17814   3.112   2.005  15.080
  149DOPC  H18T17815   3.270   1.861  15.114
  149DOPC   C3317816   3.224   2.518  16.318
  149DOPC   H3X17817   3.196   2.585  16.225
  149DOPC   H3Y17818   3.127   2.537  16.393
  149DOPC   C3417819   3.242   2.340  16.289
  149DOPC   H4X17820   3.278   2.276  16.381
  149DOPC   H4Y17821   3.342   2.329  16.214
  149DOPC   C3517822   3.094   2.262  16.232
  149DOPC   H5X17823   2.989   2.299  16.292
  149DOPC   H5Y17824   3.103   2.129  16.235
  149DOPC   C3617825   3.070   2.316  16.088
  149DOPC   H6X17826   2.940   2.324  16.067
  149DOPC   H6Y17827   3.118   2.440  16.074
  149DOPC   C3717828   3.149   2.204  15.985
  149DOPC   H7X17829   3.274   2.245  15.972
  149DOPC   H7Y17830   3.151   2.080  16.025
  149DOPC   C3817831   3.064   2.200  15.849
  149DOPC   H8X17832   2.964   2.112  15.852
  149DOPC   H8Y17833   3.148   2.156  15.770
  149DOPC   C3917834   3.001   2.364  15.821
  149DOPC   H9X17835   3.050   2.459  15.883
  149DOPC  C31017836   2.903   2.408  15.724
  149DOPC  H10X17837   2.856   2.531  15.724
  149DOPC  C31117838   2.838   2.298  15.622
  149DOPC  H11X17839   2.707   2.302  15.635
  149DOPC  H11Y17840   2.884   2.172  15.627
  149DOPC  C31217841   2.864   2.370  15.485
  149DOPC  H12X17842   2.816   2.285  15.409
  149DOPC  H12Y17843   2.995   2.383  15.466
  149DOPC  C31317844   2.776   2.530  15.473
  149DOPC  H13X17845   2.657   2.522  15.524
  149DOPC  H13Y17846   2.844   2.628  15.522
  149DOPC  C31417847   2.748   2.568  15.327
  149DOPC  H14X17848   2.656   2.480  15.291
  149DOPC  H14Y17849   2.699   2.690  15.316
  149DOPC  C31517850   2.903   2.552  15.248
  149DOPC  H15X17851   2.886   2.582  15.141
  149DOPC  H15Y17852   2.944   2.425  15.248
  149DOPC  C31617853   3.037   2.657  15.304
  149DOPC  H16X17854   3.067   2.623  15.408
  149DOPC  H16Y17855   3.140   2.628  15.240
  149DOPC  C31717856   3.010   2.838  15.294
  149DOPC  H17X17857   2.888   2.870  15.329
  149DOPC  H17Y17858   3.097   2.899  15.361
  149DOPC  C31817859   3.037   2.893  15.151
  149DOPC  H18X17860   3.167   2.896  15.126
  149DOPC  H18Y17861   2.978   2.812  15.079
  149DOPC  H18Z17862   2.987   3.014  15.134
  150DOPC     N17863   7.272   5.945  17.109
  150DOPC   C1217864   7.126   5.989  17.029
  150DOPC  H12A17865   7.027   6.012  17.097
  150DOPC  H12B17866   7.096   5.886  16.968
  150DOPC   C1317867   7.386   6.084  17.120
  150DOPC  H13A17868   7.502   6.047  17.158
  150DOPC  H13B17869   7.405   6.138  17.021
  150DOPC  H13C17870   7.338   6.179  17.182
  150DOPC   C1417871   7.358   5.814  17.033
  150DOPC  H14A17872   7.289   5.706  17.020
  150DOPC  H14B17873   7.390   5.855  16.932
  150DOPC  H14C17874   7.474   5.784  17.077
  150DOPC   C1517875   7.234   5.879  17.244
  150DOPC  H15A17876   7.140   5.789  17.241
  150DOPC  H15B17877   7.199   5.974  17.312
  150DOPC  H15C17878   7.343   5.825  17.281
  150DOPC   C1117879   7.132   6.131  16.929
  150DOPC  H11A17880   7.040   6.090  16.856
  150DOPC  H11B17881   7.088   6.245  16.974
  150DOPC     P17882   7.332   6.077  16.730
  150DOPC   O1317883   7.376   5.911  16.762
  150DOPC   O1417884   7.454   6.175  16.661
  150DOPC   O1217885   7.282   6.161  16.865
  150DOPC   O1117886   7.170   6.059  16.650
  150DOPC    C117887   7.118   5.904  16.604
  150DOPC    HA17888   7.004   5.876  16.655
  150DOPC    HB17889   7.198   5.800  16.626
  150DOPC    C217890   7.084   5.902  16.452
  150DOPC    HS17891   6.962   5.846  16.439
  150DOPC   O2117892   7.205   5.808  16.385
  150DOPC   C2117893   7.157   5.764  16.264
  150DOPC   O2217894   7.024   5.784  16.218
  150DOPC   C2217895   7.292   5.675  16.194
  150DOPC   H2R17896   7.327   5.574  16.261
  150DOPC   H2S17897   7.391   5.762  16.185
  150DOPC    C317898   7.074   6.072  16.391
  150DOPC    HX17899   6.971   6.124  16.444
  150DOPC    HY17900   7.039   6.066  16.284
  150DOPC   O3117901   7.206   6.181  16.414
  150DOPC   C3117902   7.316   6.193  16.319
  150DOPC   O3217903   7.331   6.102  16.225
  150DOPC   C3217904   7.415   6.349  16.337
  150DOPC   H2X17905   7.331   6.452  16.344
  150DOPC   H2Y17906   7.481   6.338  16.433
  150DOPC   C2317907   7.238   5.616  16.056
  150DOPC   H3R17908   7.117   5.562  16.070
  150DOPC   H3S17909   7.330   5.533  16.007
  150DOPC   C2417910   7.218   5.753  15.956
  150DOPC   H4R17911   7.327   5.831  15.952
  150DOPC   H4S17912   7.118   5.830  15.989
  150DOPC   C2517913   7.175   5.683  15.819
  150DOPC   H5R17914   7.043   5.692  15.808
  150DOPC   H5S17915   7.198   5.552  15.811
  150DOPC   C2617916   7.259   5.776  15.708
  150DOPC   H6R17917   7.374   5.826  15.744
  150DOPC   H6S17918   7.184   5.880  15.677
  150DOPC   C2717919   7.289   5.671  15.588
  150DOPC   H7R17920   7.186   5.587  15.576
  150DOPC   H7S17921   7.397   5.598  15.609
  150DOPC   C2817922   7.315   5.772  15.463
  150DOPC   H8R17923   7.434   5.833  15.468
  150DOPC   H8S17924   7.222   5.867  15.457
  150DOPC   C2917925   7.306   5.662  15.346
  150DOPC   H9R17926   7.410   5.587  15.326
  150DOPC  C21017927   7.176   5.635  15.272
  150DOPC  H10R17928   7.184   5.536  15.200
  150DOPC  C21117929   7.014   5.711  15.292
  150DOPC  H11R17930   6.986   5.723  15.400
  150DOPC  H11S17931   6.930   5.626  15.248
  150DOPC  C21217932   6.971   5.867  15.222
  150DOPC  H12R17933   6.995   5.851  15.113
  150DOPC  H12S17934   7.052   5.964  15.254
  150DOPC  C21317935   6.792   5.916  15.240
  150DOPC  H13R17936   6.761   5.941  15.346
  150DOPC  H13S17937   6.719   5.810  15.210
  150DOPC  C21417938   6.767   6.064  15.148
  150DOPC  H14R17939   6.827   6.031  15.057
  150DOPC  H14S17940   6.851   6.149  15.186
  150DOPC  C21517941   6.601   6.145  15.115
  150DOPC  H15R17942   6.595   6.269  15.156
  150DOPC  H15S17943   6.526   6.072  15.182
  150DOPC  C21617944   6.500   6.136  14.978
  150DOPC  H16R17945   6.438   6.240  15.012
  150DOPC  H16S17946   6.403   6.054  15.000
  150DOPC  C21717947   6.500   6.226  14.834
  150DOPC  H17R17948   6.610   6.292  14.825
  150DOPC  H17S17949   6.414   6.326  14.829
  150DOPC  C21817950   6.475   6.143  14.696
  150DOPC  H18R17951   6.364   6.184  14.647
  150DOPC  H18S17952   6.478   6.011  14.696
  150DOPC  H18T17953   6.577   6.173  14.629
  150DOPC   C3317954   7.537   6.382  16.223
  150DOPC   H3X17955   7.582   6.268  16.179
  150DOPC   H3Y17956   7.643   6.444  16.268
  150DOPC   C3417957   7.474   6.496  16.115
  150DOPC   H4X17958   7.445   6.612  16.161
  150DOPC   H4Y17959   7.356   6.450  16.079
  150DOPC   C3517960   7.591   6.521  15.997
  150DOPC   H5X17961   7.714   6.545  16.034
  150DOPC   H5Y17962   7.553   6.629  15.940
  150DOPC   C3617963   7.591   6.383  15.897
  150DOPC   H6X17964   7.656   6.425  15.806
  150DOPC   H6Y17965   7.655   6.277  15.938
  150DOPC   C3717966   7.420   6.334  15.860
  150DOPC   H7X17967   7.372   6.253  15.939
  150DOPC   H7Y17968   7.343   6.444  15.861
  150DOPC   C3817969   7.399   6.256  15.723
  150DOPC   H8X17970   7.370   6.353  15.653
  150DOPC   H8Y17971   7.292   6.175  15.728
  150DOPC   C3917972   7.543   6.166  15.674
  150DOPC   H9X17973   7.567   6.055  15.730
  150DOPC  C31017974   7.640   6.209  15.573
  150DOPC  H10X17975   7.736   6.125  15.544
  150DOPC  C31117976   7.628   6.355  15.484
  150DOPC  H11X17977   7.730   6.438  15.503
  150DOPC  H11Y17978   7.516   6.425  15.500
  150DOPC  C31217979   7.633   6.302  15.337
  150DOPC  H12X17980   7.751   6.245  15.317
  150DOPC  H12Y17981   7.625   6.409  15.270
  150DOPC  C31317982   7.499   6.185  15.300
  150DOPC  H13X17983   7.484   6.090  15.377
  150DOPC  H13Y17984   7.382   6.248  15.290
  150DOPC  C31417985   7.537   6.102  15.169
  150DOPC  H14X17986   7.667   6.070  15.166
  150DOPC  H14Y17987   7.466   5.990  15.167
  150DOPC  C31517988   7.492   6.200  15.048
  150DOPC  H15X17989   7.576   6.158  14.968
  150DOPC  H15Y17990   7.514   6.330  15.065
  150DOPC  C31617991   7.318   6.176  15.003
  150DOPC  H16X17992   7.296   6.046  14.987
  150DOPC  H16Y17993   7.232   6.216  15.082
  150DOPC  C31717994   7.286   6.264  14.872
  150DOPC  H17X17995   7.168   6.232  14.831
  150DOPC  H17Y17996   7.280   6.395  14.892
  150DOPC  C31817997   7.412   6.224  14.767
  150DOPC  H18X17998   7.379   6.270  14.667
  150DOPC  H18Y17999   7.531   6.277  14.793
  150DOPC  H18Z18000   7.427   6.092  14.761
  151DOPC     N18001   1.723   4.639  16.925
  151DOPC   C1218002   1.559   4.711  16.952
  151DOPC  H12A18003   1.501   4.744  16.859
  151DOPC  H12B18004   1.571   4.820  17.012
  151DOPC   C1318005   1.718   4.559  16.791
  151DOPC  H13A18006   1.705   4.643  16.710
  151DOPC  H13B18007   1.822   4.484  16.773
  151DOPC  H13C18008   1.612   4.482  16.787
  151DOPC   C1418009   1.756   4.513  17.028
  151DOPC  H14A18010   1.754   4.565  17.128
  151DOPC  H14B18011   1.657   4.427  17.027
  151DOPC  H14C18012   1.867   4.452  17.012
  151DOPC   C1518013   1.852   4.763  16.934
  151DOPC  H15A18014   1.850   4.818  17.033
  151DOPC  H15B18015   1.831   4.856  16.862
  151DOPC  H15C18016   1.969   4.710  16.920
  151DOPC   C1118017   1.438   4.603  17.026
  151DOPC  H11A18018   1.478   4.590  17.132
  151DOPC  H11B18019   1.319   4.664  17.034
  151DOPC     P18020   1.284   4.402  16.865
  151DOPC   O1318021   1.183   4.544  16.848
  151DOPC   O1418022   1.216   4.256  16.927
  151DOPC   O1218023   1.426   4.450  16.962
  151DOPC   O1118024   1.388   4.366  16.736
  151DOPC    C118025   1.481   4.222  16.719
  151DOPC    HA18026   1.459   4.132  16.800
  151DOPC    HB18027   1.610   4.250  16.721
  151DOPC    C218028   1.440   4.136  16.584
  151DOPC    HS18029   1.528   4.037  16.568
  151DOPC   O2118030   1.446   4.244  16.471
  151DOPC   C2118031   1.576   4.332  16.451
  151DOPC   O2218032   1.708   4.316  16.504
  151DOPC   C2218033   1.536   4.454  16.341
  151DOPC   H2R18034   1.411   4.495  16.362
  151DOPC   H2S18035   1.536   4.392  16.244
  151DOPC    C318036   1.270   4.057  16.593
  151DOPC    HX18037   1.182   4.141  16.640
  151DOPC    HY18038   1.283   3.954  16.664
  151DOPC   O3118039   1.218   3.995  16.465
  151DOPC   C3118040   1.144   4.097  16.383
  151DOPC   O3218041   1.080   4.223  16.412
  151DOPC   C3218042   1.164   4.031  16.243
  151DOPC   H2X18043   1.294   4.038  16.226
  151DOPC   H2Y18044   1.130   3.904  16.246
  151DOPC   C2318045   1.646   4.603  16.334
  151DOPC   H3R18046   1.763   4.577  16.284
  151DOPC   H3S18047   1.673   4.643  16.438
  151DOPC   C2418048   1.564   4.746  16.265
  151DOPC   H4R18049   1.609   4.853  16.319
  151DOPC   H4S18050   1.432   4.739  16.279
  151DOPC   C2518051   1.601   4.776  16.117
  151DOPC   H5R18052   1.721   4.832  16.109
  151DOPC   H5S18053   1.513   4.865  16.076
  151DOPC   C2618054   1.597   4.627  16.028
  151DOPC   H6R18055   1.480   4.566  16.038
  151DOPC   H6S18056   1.692   4.542  16.061
  151DOPC   C2718057   1.628   4.675  15.883
  151DOPC   H7R18058   1.729   4.758  15.884
  151DOPC   H7S18059   1.523   4.739  15.839
  151DOPC   C2818060   1.693   4.547  15.791
  151DOPC   H8R18061   1.799   4.487  15.837
  151DOPC   H8S18062   1.732   4.602  15.695
  151DOPC   C2918063   1.560   4.433  15.766
  151DOPC   H9R18064   1.445   4.469  15.807
  151DOPC  C21018065   1.580   4.301  15.694
  151DOPC  H10R18066   1.480   4.218  15.678
  151DOPC  C21118067   1.738   4.258  15.633
  151DOPC  H11R18068   1.790   4.157  15.690
  151DOPC  H11S18069   1.829   4.356  15.633
  151DOPC  C21218070   1.706   4.210  15.489
  151DOPC  H12R18071   1.609   4.118  15.483
  151DOPC  H12S18072   1.816   4.147  15.455
  151DOPC  C21318073   1.685   4.342  15.385
  151DOPC  H13R18074   1.636   4.283  15.293
  151DOPC  H13S18075   1.806   4.388  15.360
  151DOPC  C21418076   1.583   4.489  15.418
  151DOPC  H14R18077   1.648   4.567  15.490
  151DOPC  H14S18078   1.465   4.460  15.465
  151DOPC  C21518079   1.549   4.578  15.288
  151DOPC  H15R18080   1.494   4.489  15.219
  151DOPC  H15S18081   1.666   4.615  15.244
  151DOPC  C21618082   1.436   4.720  15.307
  151DOPC  H16R18083   1.500   4.816  15.362
  151DOPC  H16S18084   1.333   4.679  15.370
  151DOPC  C21718085   1.366   4.784  15.176
  151DOPC  H17R18086   1.464   4.817  15.106
  151DOPC  H17S18087   1.300   4.897  15.198
  151DOPC  C21818088   1.249   4.666  15.110
  151DOPC  H18R18089   1.216   4.705  15.008
  151DOPC  H18S18090   1.140   4.650  15.171
  151DOPC  H18T18091   1.307   4.546  15.098
  151DOPC   C3318092   1.066   4.110  16.129
  151DOPC   H3X18093   1.001   4.219  16.162
  151DOPC   H3Y18094   0.974   4.025  16.090
  151DOPC   C3418095   1.174   4.140  16.010
  151DOPC   H4X18096   1.110   4.128  15.913
  151DOPC   H4Y18097   1.254   4.036  16.010
  151DOPC   C3518098   1.266   4.297  16.024
  151DOPC   H5X18099   1.366   4.298  15.951
  151DOPC   H5Y18100   1.321   4.302  16.125
  151DOPC   C3618101   1.156   4.442  16.005
  151DOPC   H6X18102   1.069   4.446  16.091
  151DOPC   H6Y18103   1.225   4.555  16.007
  151DOPC   C3718104   1.056   4.435  15.876
  151DOPC   H7X18105   0.986   4.322  15.875
  151DOPC   H7Y18106   0.967   4.531  15.880
  151DOPC   C3818107   1.158   4.444  15.748
  151DOPC   H8X18108   1.248   4.346  15.758
  151DOPC   H8Y18109   1.225   4.560  15.750
  151DOPC   C3918110   1.070   4.429  15.618
  151DOPC   H9X18111   0.986   4.528  15.597
  151DOPC  C31018112   1.075   4.304  15.532
  151DOPC  H10X18113   0.997   4.306  15.443
  151DOPC  C31118114   1.171   4.153  15.548
  151DOPC  H11X18115   1.092   4.046  15.542
  151DOPC  H11Y18116   1.230   4.145  15.648
  151DOPC  C31218117   1.304   4.139  15.443
  151DOPC  H12X18118   1.380   4.037  15.479
  151DOPC  H12Y18119   1.382   4.244  15.439
  151DOPC  C31318120   1.249   4.090  15.304
  151DOPC  H13X18121   1.355   4.031  15.255
  151DOPC  H13Y18122   1.154   3.998  15.322
  151DOPC  C31418123   1.188   4.211  15.201
  151DOPC  H14X18124   1.068   4.256  15.231
  151DOPC  H14Y18125   1.270   4.314  15.192
  151DOPC  C31518126   1.171   4.123  15.065
  151DOPC  H15X18127   1.292   4.086  15.030
  151DOPC  H15Y18128   1.120   4.207  14.990
  151DOPC  C31618129   1.063   3.974  15.078
  151DOPC  H16X18130   1.124   3.894  15.150
  151DOPC  H16Y18131   0.948   4.007  15.126
  151DOPC  C31718132   1.028   3.877  14.952
  151DOPC  H17X18133   1.144   3.833  14.912
  151DOPC  H17Y18134   0.953   3.772  14.976
  151DOPC  C31818135   0.953   3.976  14.841
  151DOPC  H18X18136   0.940   3.902  14.749
  151DOPC  H18Y18137   0.834   4.020  14.871
  151DOPC  H18Z18138   1.033   4.079  14.819
  152DOPC     N18139   4.729   1.678  16.855
  152DOPC   C1218140   4.781   1.544  16.762
  152DOPC  H12A18141   4.860   1.591  16.686
  152DOPC  H12B18142   4.675   1.495  16.713
  152DOPC   C1318143   4.867   1.744  16.933
  152DOPC  H13A18144   4.957   1.798  16.870
  152DOPC  H13B18145   4.826   1.834  17.004
  152DOPC  H13C18146   4.920   1.649  16.994
  152DOPC   C1418147   4.613   1.613  16.956
  152DOPC  H14A18148   4.580   1.700  17.030
  152DOPC  H14B18149   4.507   1.565  16.909
  152DOPC  H14C18150   4.672   1.512  17.006
  152DOPC   C1518151   4.651   1.811  16.782
  152DOPC  H15A18152   4.624   1.908  16.850
  152DOPC  H15B18153   4.538   1.771  16.739
  152DOPC  H15C18154   4.726   1.856  16.702
  152DOPC   C1118155   4.867   1.402  16.827
  152DOPC  H11A18156   4.910   1.326  16.741
  152DOPC  H11B18157   4.975   1.447  16.880
  152DOPC     P18158   4.847   1.144  16.956
  152DOPC   O1318159   4.752   1.064  17.062
  152DOPC   O1418160   5.018   1.182  16.985
  152DOPC   O1218161   4.765   1.310  16.916
  152DOPC   O1118162   4.828   1.043  16.820
  152DOPC    C118163   4.684   1.056  16.741
  152DOPC    HA18164   4.668   1.181  16.702
  152DOPC    HB18165   4.577   1.027  16.803
  152DOPC    C218166   4.679   0.943  16.615
  152DOPC    HS18167   4.693   0.818  16.653
  152DOPC   O2118168   4.810   0.982  16.525
  152DOPC   C2118169   4.824   0.890  16.417
  152DOPC   O2218170   4.742   0.774  16.389
  152DOPC   C2218171   4.958   0.954  16.328
  152DOPC   H2R18172   5.062   0.870  16.341
  152DOPC   H2S18173   4.996   1.075  16.360
  152DOPC    C318174   4.514   0.956  16.540
  152DOPC    HX18175   4.415   0.961  16.615
  152DOPC    HY18176   4.493   0.845  16.482
  152DOPC   O3118177   4.514   1.090  16.447
  152DOPC   C3118178   4.412   1.207  16.469
  152DOPC   O3218179   4.313   1.212  16.558
  152DOPC   C3218180   4.440   1.342  16.369
  152DOPC   H2X18181   4.495   1.290  16.277
  152DOPC   H2Y18182   4.324   1.394  16.341
  152DOPC   C2318183   4.902   0.953  16.182
  152DOPC   H3R18184   4.885   0.826  16.152
  152DOPC   H3S18185   4.994   1.004  16.115
  152DOPC   C2418186   4.742   1.042  16.163
  152DOPC   H4R18187   4.751   1.166  16.202
  152DOPC   H4S18188   4.644   0.979  16.218
  152DOPC   C2518189   4.693   1.052  16.016
  152DOPC   H5R18190   4.715   0.936  15.967
  152DOPC   H5S18191   4.780   1.136  15.971
  152DOPC   C2618192   4.522   1.112  15.997
  152DOPC   H6R18193   4.459   1.108  16.095
  152DOPC   H6S18194   4.451   1.037  15.927
  152DOPC   C2718195   4.518   1.282  15.939
  152DOPC   H7R18196   4.556   1.274  15.832
  152DOPC   H7S18197   4.612   1.354  15.992
  152DOPC   C2818198   4.354   1.364  15.946
  152DOPC   H8R18199   4.296   1.336  16.043
  152DOPC   H8S18200   4.276   1.314  15.866
  152DOPC   C2918201   4.376   1.543  15.933
  152DOPC   H9R18202   4.440   1.600  16.018
  152DOPC  C21018203   4.336   1.636  15.829
  152DOPC  H10R18204   4.362   1.765  15.833
  152DOPC  C21118205   4.258   1.582  15.701
  152DOPC  H11R18206   4.205   1.685  15.647
  152DOPC  H11S18207   4.158   1.498  15.723
  152DOPC  C21218208   4.375   1.495  15.606
  152DOPC  H12R18209   4.304   1.452  15.519
  152DOPC  H12S18210   4.428   1.388  15.655
  152DOPC  C21318211   4.512   1.600  15.550
  152DOPC  H13R18212   4.606   1.613  15.628
  152DOPC  H13S18213   4.468   1.720  15.519
  152DOPC  C21418214   4.590   1.514  15.432
  152DOPC  H14R18215   4.495   1.456  15.371
  152DOPC  H14S18216   4.663   1.422  15.481
  152DOPC  C21518217   4.699   1.613  15.342
  152DOPC  H15R18218   4.796   1.535  15.301
  152DOPC  H15S18219   4.758   1.708  15.402
  152DOPC  C21618220   4.602   1.680  15.226
  152DOPC  H16R18221   4.484   1.722  15.264
  152DOPC  H16S18222   4.579   1.584  15.151
  152DOPC  C21718223   4.688   1.818  15.160
  152DOPC  H17R18224   4.794   1.764  15.109
  152DOPC  H17S18225   4.730   1.900  15.241
  152DOPC  C21818226   4.589   1.914  15.060
  152DOPC  H18R18227   4.547   1.835  14.979
  152DOPC  H18S18228   4.662   2.012  15.016
  152DOPC  H18T18229   4.483   1.968  15.111
  152DOPC   C3318230   4.550   1.469  16.433
  152DOPC   H3X18231   4.656   1.409  16.479
  152DOPC   H3Y18232   4.483   1.530  16.514
  152DOPC   C3418233   4.614   1.591  16.331
  152DOPC   H4X18234   4.664   1.696  16.387
  152DOPC   H4Y18235   4.516   1.636  16.266
  152DOPC   C3518236   4.747   1.519  16.245
  152DOPC   H5X18237   4.694   1.432  16.174
  152DOPC   H5Y18238   4.831   1.451  16.310
  152DOPC   C3618239   4.842   1.646  16.168
  152DOPC   H6X18240   4.765   1.698  16.088
  152DOPC   H6Y18241   4.873   1.746  16.238
  152DOPC   C3718242   4.999   1.582  16.107
  152DOPC   H7X18243   5.068   1.686  16.067
  152DOPC   H7Y18244   5.072   1.523  16.186
  152DOPC   C3818245   4.968   1.462  15.994
  152DOPC   H8X18246   4.868   1.511  15.932
  152DOPC   H8Y18247   4.921   1.349  16.038
  152DOPC   C3918248   5.116   1.428  15.910
  152DOPC   H9X18249   5.227   1.415  15.966
  152DOPC  C31018250   5.117   1.409  15.776
  152DOPC  H10X18251   5.228   1.375  15.725
  152DOPC  C31118252   4.968   1.418  15.691
  152DOPC  H11X18253   4.996   1.433  15.583
  152DOPC  H11Y18254   4.894   1.524  15.720
  152DOPC  C31218255   4.865   1.267  15.716
  152DOPC  H12X18256   4.742   1.288  15.676
  152DOPC  H12Y18257   4.848   1.256  15.824
  152DOPC  C31318258   4.933   1.109  15.661
  152DOPC  H13X18259   5.041   1.074  15.719
  152DOPC  H13Y18260   4.842   1.014  15.675
  152DOPC  C31418261   4.979   1.120  15.513
  152DOPC  H14X18262   5.072   1.213  15.502
  152DOPC  H14Y18263   5.032   1.007  15.475
  152DOPC  C31518264   4.836   1.164  15.425
  152DOPC  H15X18265   4.880   1.255  15.353
  152DOPC  H15Y18266   4.740   1.216  15.486
  152DOPC  C31618267   4.756   1.024  15.353
  152DOPC  H16X18268   4.849   0.961  15.295
  152DOPC  H16Y18269   4.715   0.938  15.431
  152DOPC  C31718270   4.613   1.064  15.261
  152DOPC  H17X18271   4.604   0.964  15.188
  152DOPC  H17Y18272   4.500   1.062  15.320
  152DOPC  C31818273   4.622   1.224  15.185
  152DOPC  H18X18274   4.522   1.304  15.213
  152DOPC  H18Y18275   4.736   1.289  15.202
  152DOPC  H18Z18276   4.618   1.206  15.076
  153DOPC     N18277   6.372   7.654  17.068
  153DOPC   C1218278   6.528   7.710  17.001
  153DOPC  H12A18279   6.617   7.740  17.076
  153DOPC  H12B18280   6.508   7.818  16.942
  153DOPC   C1318281   6.389   7.477  17.099
  153DOPC  H13A18282   6.278   7.417  17.122
  153DOPC  H13B18283   6.432   7.421  17.005
  153DOPC  H13C18284   6.479   7.452  17.174
  153DOPC   C1418285   6.240   7.666  16.966
  153DOPC  H14A18286   6.210   7.788  16.941
  153DOPC  H14B18287   6.284   7.610  16.874
  153DOPC  H14C18288   6.134   7.601  16.998
  153DOPC   C1518289   6.340   7.757  17.186
  153DOPC  H15A18290   6.424   7.729  17.266
  153DOPC  H15B18291   6.218   7.748  17.222
  153DOPC  H15C18292   6.358   7.883  17.160
  153DOPC   C1118293   6.613   7.594  16.905
  153DOPC  H11A18294   6.698   7.663  16.841
  153DOPC  H11B18295   6.688   7.510  16.967
  153DOPC     P18296   6.574   7.368  16.739
  153DOPC   O1318297   6.622   7.243  16.836
  153DOPC   O1418298   6.696   7.439  16.651
  153DOPC   O1218299   6.500   7.512  16.822
  153DOPC   O1118300   6.419   7.312  16.659
  153DOPC    C118301   6.428   7.199  16.553
  153DOPC    HA18302   6.306   7.181  16.511
  153DOPC    HB18303   6.467   7.080  16.592
  153DOPC    C218304   6.541   7.252  16.437
  153DOPC    HS18305   6.665   7.271  16.476
  153DOPC   O2118306   6.485   7.397  16.373
  153DOPC   C2118307   6.590   7.469  16.291
  153DOPC   O2218308   6.725   7.421  16.266
  153DOPC   C2218309   6.505   7.614  16.225
  153DOPC   H2R18310   6.492   7.705  16.304
  153DOPC   H2S18311   6.384   7.576  16.193
  153DOPC    C318312   6.550   7.108  16.340
  153DOPC    HX18313   6.577   7.003  16.406
  153DOPC    HY18314   6.652   7.122  16.270
  153DOPC   O3118315   6.398   7.078  16.273
  153DOPC   C3118316   6.362   7.178  16.174
  153DOPC   O3218317   6.450   7.273  16.119
  153DOPC   C3218318   6.196   7.150  16.122
  153DOPC   H2X18319   6.184   7.019  16.123
  153DOPC   H2Y18320   6.109   7.210  16.189
  153DOPC   C2318321   6.586   7.691  16.099
  153DOPC   H3R18322   6.569   7.608  16.013
  153DOPC   H3S18323   6.716   7.704  16.112
  153DOPC   C2418324   6.509   7.855  16.066
  153DOPC   H4R18325   6.536   7.943  16.146
  153DOPC   H4S18326   6.377   7.843  16.069
  153DOPC   C2518327   6.557   7.931  15.931
  153DOPC   H5R18328   6.685   7.967  15.931
  153DOPC   H5S18329   6.484   8.041  15.915
  153DOPC   C2618330   6.526   7.817  15.814
  153DOPC   H6R18331   6.618   7.720  15.817
  153DOPC   H6S18332   6.544   7.880  15.717
  153DOPC   C2718333   6.358   7.742  15.818
  153DOPC   H7R18334   6.268   7.840  15.805
  153DOPC   H7S18335   6.332   7.682  15.915
  153DOPC   C2818336   6.334   7.616  15.709
  153DOPC   H8R18337   6.368   7.676  15.613
  153DOPC   H8S18338   6.205   7.586  15.699
  153DOPC   C2918339   6.432   7.468  15.739
  153DOPC   H9R18340   6.408   7.409  15.836
  153DOPC  C21018341   6.547   7.410  15.660
  153DOPC  H10R18342   6.617   7.303  15.691
  153DOPC  C21118343   6.590   7.489  15.530
  153DOPC  H11R18344   6.712   7.452  15.496
  153DOPC  H11S18345   6.602   7.620  15.547
  153DOPC  C21218346   6.461   7.465  15.421
  153DOPC  H12R18347   6.492   7.542  15.334
  153DOPC  H12S18348   6.342   7.507  15.457
  153DOPC  C21318349   6.439   7.292  15.373
  153DOPC  H13R18350   6.365   7.289  15.281
  153DOPC  H13S18351   6.378   7.219  15.451
  153DOPC  C21418352   6.601   7.217  15.345
  153DOPC  H14R18353   6.688   7.228  15.429
  153DOPC  H14S18354   6.654   7.276  15.255
  153DOPC  C21518355   6.590   7.039  15.320
  153DOPC  H15R18356   6.470   7.004  15.285
  153DOPC  H15S18357   6.619   6.973  15.414
  153DOPC  C21618358   6.709   7.009  15.209
  153DOPC  H16R18359   6.817   7.058  15.260
  153DOPC  H16S18360   6.682   7.092  15.125
  153DOPC  C21718361   6.725   6.836  15.162
  153DOPC  H17R18362   6.841   6.809  15.114
  153DOPC  H17S18363   6.646   6.814  15.076
  153DOPC  C21818364   6.695   6.718  15.274
  153DOPC  H18R18365   6.683   6.594  15.233
  153DOPC  H18S18366   6.584   6.738  15.331
  153DOPC  H18T18367   6.800   6.725  15.342
  153DOPC   C3318368   6.194   7.216  15.976
  153DOPC   H3X18369   6.283   7.145  15.917
  153DOPC   H3Y18370   6.234   7.343  15.976
  153DOPC   C3418371   6.037   7.219  15.897
  153DOPC   H4X18372   5.958   7.316  15.935
  153DOPC   H4Y18373   5.970   7.105  15.901
  153DOPC   C3518374   6.072   7.270  15.752
  153DOPC   H5X18375   6.194   7.243  15.718
  153DOPC   H5Y18376   6.065   7.402  15.748
  153DOPC   C3618377   5.948   7.213  15.650
  153DOPC   H6X18378   5.930   7.081  15.646
  153DOPC   H6Y18379   5.833   7.265  15.683
  153DOPC   C3718380   5.995   7.284  15.515
  153DOPC   H7X18381   5.924   7.396  15.502
  153DOPC   H7Y18382   6.124   7.322  15.519
  153DOPC   C3818383   5.980   7.171  15.395
  153DOPC   H8X18384   6.041   7.061  15.419
  153DOPC   H8Y18385   6.052   7.222  15.312
  153DOPC   C3918386   5.815   7.120  15.356
  153DOPC   H9X18387   5.738   7.076  15.438
  153DOPC  C31018388   5.760   7.110  15.231
  153DOPC  H10X18389   5.645   7.054  15.213
  153DOPC  C31118390   5.854   7.145  15.109
  153DOPC  H11X18391   5.822   7.045  15.041
  153DOPC  H11Y18392   5.982   7.134  15.137
  153DOPC  C31218393   5.844   7.283  15.008
  153DOPC  H12X18394   5.816   7.402  15.051
  153DOPC  H12Y18395   5.749   7.252  14.934
  153DOPC  C31318396   6.013   7.277  14.947
  153DOPC  H13X18397   6.092   7.306  15.032
  153DOPC  H13Y18398   6.052   7.154  14.923
  153DOPC  C31418399   6.049   7.387  14.832
  153DOPC  H14X18400   6.112   7.319  14.751
  153DOPC  H14Y18401   5.935   7.434  14.789
  153DOPC  C31518402   6.149   7.530  14.879
  153DOPC  H15X18403   6.058   7.603  14.934
  153DOPC  H15Y18404   6.192   7.597  14.791
  153DOPC  C31618405   6.295   7.506  14.974
  153DOPC  H16X18406   6.266   7.446  15.068
  153DOPC  H16Y18407   6.388   7.427  14.932
  153DOPC  C31718408   6.366   7.669  15.014
  153DOPC  H17X18409   6.398   7.668  15.122
  153DOPC  H17Y18410   6.479   7.690  14.958
  153DOPC  C31818411   6.253   7.810  14.988
  153DOPC  H18X18412   6.149   7.812  15.056
  153DOPC  H18Y18413   6.324   7.916  15.000
  153DOPC  H18Z18414   6.211   7.818  14.883
  154DOPC     N18415   8.305   4.536  17.047
  154DOPC   C1218416   8.212   4.662  16.969
  154DOPC  H12A18417   8.285   4.766  16.950
  154DOPC  H12B18418   8.111   4.703  17.030
  154DOPC   C1318419   8.371   4.613  17.170
  154DOPC  H13A18420   8.417   4.520  17.237
  154DOPC  H13B18421   8.462   4.702  17.146
  154DOPC  H13C18422   8.278   4.675  17.225
  154DOPC   C1418423   8.437   4.459  16.964
  154DOPC  H14A18424   8.531   4.542  16.932
  154DOPC  H14B18425   8.498   4.360  17.012
  154DOPC  H14C18426   8.389   4.408  16.871
  154DOPC   C1518427   8.195   4.403  17.087
  154DOPC  H15A18428   8.089   4.451  17.134
  154DOPC  H15B18429   8.251   4.318  17.155
  154DOPC  H15C18430   8.154   4.337  16.999
  154DOPC   C1118431   8.130   4.607  16.840
  154DOPC  H11A18432   8.108   4.712  16.775
  154DOPC  H11B18433   8.215   4.526  16.785
  154DOPC     P18434   7.885   4.468  16.743
  154DOPC   O1318435   7.841   4.603  16.655
  154DOPC   O1418436   7.762   4.348  16.780
  154DOPC   O1218437   7.980   4.529  16.872
  154DOPC   O1118438   8.029   4.372  16.680
  154DOPC    C118439   8.089   4.229  16.744
  154DOPC    HA18440   8.000   4.172  16.814
  154DOPC    HB18441   8.200   4.252  16.804
  154DOPC    C218442   8.119   4.104  16.634
  154DOPC    HS18443   8.149   3.989  16.684
  154DOPC   O2118444   8.250   4.135  16.544
  154DOPC   C2118445   8.309   4.280  16.546
  154DOPC   O2218446   8.365   4.351  16.641
  154DOPC   C2218447   8.291   4.352  16.407
  154DOPC   H2R18448   8.339   4.476  16.411
  154DOPC   H2S18449   8.161   4.358  16.387
  154DOPC    C318450   7.956   4.092  16.557
  154DOPC    HX18451   7.870   4.171  16.609
  154DOPC    HY18452   7.895   3.977  16.572
  154DOPC   O3118453   7.966   4.153  16.421
  154DOPC   C3118454   7.850   4.097  16.345
  154DOPC   O3218455   7.783   3.968  16.360
  154DOPC   C3218456   7.799   4.224  16.244
  154DOPC   H2X18457   7.754   4.331  16.300
  154DOPC   H2Y18458   7.900   4.264  16.180
  154DOPC   C2318459   8.377   4.254  16.299
  154DOPC   H3R18460   8.315   4.136  16.287
  154DOPC   H3S18461   8.503   4.228  16.330
  154DOPC   C2418462   8.382   4.345  16.167
  154DOPC   H4R18463   8.417   4.261  16.086
  154DOPC   H4S18464   8.473   4.441  16.174
  154DOPC   C2518465   8.227   4.429  16.126
  154DOPC   H5R18466   8.191   4.523  16.200
  154DOPC   H5S18467   8.129   4.339  16.120
  154DOPC   C2618468   8.255   4.507  15.990
  154DOPC   H6R18469   8.341   4.430  15.932
  154DOPC   H6S18470   8.311   4.627  16.002
  154DOPC   C2718471   8.102   4.518  15.907
  154DOPC   H7R18472   8.017   4.597  15.961
  154DOPC   H7S18473   8.045   4.398  15.901
  154DOPC   C2818474   8.134   4.585  15.765
  154DOPC   H8R18475   8.192   4.704  15.773
  154DOPC   H8S18476   8.012   4.608  15.722
  154DOPC   C2918477   8.221   4.480  15.668
  154DOPC   H9R18478   8.352   4.500  15.657
  154DOPC  C21018479   8.147   4.367  15.597
  154DOPC  H10R18480   8.214   4.296  15.522
  154DOPC  C21118481   7.969   4.334  15.608
  154DOPC  H11R18482   7.898   4.445  15.586
  154DOPC  H11S18483   7.937   4.298  15.712
  154DOPC  C21218484   7.910   4.200  15.514
  154DOPC  H12R18485   7.942   4.232  15.409
  154DOPC  H12S18486   7.778   4.190  15.521
  154DOPC  C21318487   7.985   4.038  15.550
  154DOPC  H13R18488   7.963   4.012  15.657
  154DOPC  H13S18489   8.116   4.049  15.537
  154DOPC  C21418490   7.930   3.896  15.464
  154DOPC  H14R18491   7.801   3.870  15.485
  154DOPC  H14S18492   7.999   3.788  15.495
  154DOPC  C21518493   7.952   3.923  15.313
  154DOPC  H15R18494   7.986   3.805  15.266
  154DOPC  H15S18495   8.052   4.008  15.293
  154DOPC  C21618496   7.798   3.980  15.246
  154DOPC  H16R18497   7.768   4.103  15.283
  154DOPC  H16S18498   7.700   3.898  15.276
  154DOPC  C21718499   7.804   3.985  15.094
  154DOPC  H17R18500   7.834   3.862  15.059
  154DOPC  H17S18501   7.900   4.067  15.061
  154DOPC  C21818502   7.644   4.040  15.034
  154DOPC  H18R18503   7.546   3.962  15.069
  154DOPC  H18S18504   7.648   4.034  14.923
  154DOPC  H18T18505   7.619   4.166  15.063
  154DOPC   C3318506   7.662   4.152  16.161
  154DOPC   H3X18507   7.583   4.073  16.223
  154DOPC   H3Y18508   7.710   4.074  16.079
  154DOPC   C3418509   7.552   4.282  16.110
  154DOPC   H4X18510   7.522   4.368  16.191
  154DOPC   H4Y18511   7.435   4.232  16.078
  154DOPC   C3518512   7.614   4.366  15.986
  154DOPC   H5X18513   7.645   4.273  15.909
  154DOPC   H5Y18514   7.723   4.435  16.010
  154DOPC   C3618515   7.480   4.471  15.933
  154DOPC   H6X18516   7.368   4.400  15.919
  154DOPC   H6Y18517   7.453   4.564  16.010
  154DOPC   C3718518   7.517   4.552  15.800
  154DOPC   H7X18519   7.644   4.591  15.799
  154DOPC   H7Y18520   7.502   4.463  15.718
  154DOPC   C3818521   7.403   4.694  15.783
  154DOPC   H8X18522   7.386   4.751  15.883
  154DOPC   H8Y18523   7.283   4.646  15.754
  154DOPC   C3918524   7.458   4.824  15.690
  154DOPC   H9X18525   7.524   4.921  15.738
  154DOPC  C31018526   7.457   4.818  15.557
  154DOPC  H10X18527   7.500   4.921  15.500
  154DOPC  C31118528   7.399   4.678  15.476
  154DOPC  H11X18529   7.338   4.717  15.383
  154DOPC  H11Y18530   7.314   4.601  15.532
  154DOPC  C31218531   7.549   4.578  15.443
  154DOPC  H12X18532   7.510   4.476  15.380
  154DOPC  H12Y18533   7.603   4.528  15.535
  154DOPC  C31318534   7.682   4.664  15.365
  154DOPC  H13X18535   7.627   4.734  15.282
  154DOPC  H13Y18536   7.748   4.747  15.432
  154DOPC  C31418537   7.795   4.536  15.309
  154DOPC  H14X18538   7.866   4.486  15.391
  154DOPC  H14Y18539   7.717   4.439  15.269
  154DOPC  C31518540   7.910   4.583  15.197
  154DOPC  H15X18541   8.014   4.652  15.238
  154DOPC  H15Y18542   7.847   4.660  15.123
  154DOPC  C31618543   7.967   4.428  15.129
  154DOPC  H16X18544   7.914   4.322  15.180
  154DOPC  H16Y18545   7.916   4.426  15.027
  154DOPC  C31718546   8.148   4.402  15.123
  154DOPC  H17X18547   8.210   4.516  15.099
  154DOPC  H17Y18548   8.188   4.363  15.225
  154DOPC  C31818549   8.191   4.276  15.018
  154DOPC  H18X18550   8.198   4.330  14.917
  154DOPC  H18Y18551   8.308   4.216  15.039
  154DOPC  H18Z18552   8.098   4.181  15.013
  155DOPC     N18553   2.209   2.105  16.790
  155DOPC   C1218554   2.333   2.047  16.892
  155DOPC  H12A18555   2.408   2.146  16.925
  155DOPC  H12B18556   2.416   1.963  16.842
  155DOPC   C1318557   2.075   2.195  16.858
  155DOPC  H13A18558   2.016   2.114  16.928
  155DOPC  H13B18559   2.118   2.297  16.915
  155DOPC  H13C18560   1.987   2.238  16.786
  155DOPC   C1418561   2.147   1.955  16.724
  155DOPC  H14A18562   2.114   1.867  16.801
  155DOPC  H14B18563   2.047   1.974  16.659
  155DOPC  H14C18564   2.243   1.896  16.670
  155DOPC   C1518565   2.281   2.214  16.688
  155DOPC  H15A18566   2.365   2.152  16.625
  155DOPC  H15B18567   2.341   2.316  16.735
  155DOPC  H15C18568   2.188   2.263  16.625
  155DOPC   C1118569   2.269   1.957  17.018
  155DOPC  H11A18570   2.374   1.940  17.087
  155DOPC  H11B18571   2.186   2.039  17.073
  155DOPC     P18572   2.297   1.650  16.966
  155DOPC   O1318573   2.190   1.520  16.915
  155DOPC   O1418574   2.387   1.616  17.092
  155DOPC   O1218575   2.190   1.807  16.990
  155DOPC   O1118576   2.418   1.715  16.853
  155DOPC    C118577   2.480   1.616  16.748
  155DOPC    HA18578   2.386   1.591  16.673
  155DOPC    HB18579   2.521   1.498  16.789
  155DOPC    C218580   2.629   1.693  16.674
  155DOPC    HS18581   2.720   1.718  16.752
  155DOPC   O2118582   2.582   1.841  16.607
  155DOPC   C2118583   2.701   1.934  16.563
  155DOPC   O2218584   2.844   1.906  16.565
  155DOPC   C2218585   2.630   2.101  16.541
  155DOPC   H2R18586   2.651   2.168  16.635
  155DOPC   H2S18587   2.501   2.088  16.521
  155DOPC    C318588   2.708   1.576  16.571
  155DOPC    HX18589   2.740   1.464  16.627
  155DOPC    HY18590   2.825   1.622  16.534
  155DOPC   O3118591   2.599   1.532  16.466
  155DOPC   C3118592   2.611   1.613  16.352
  155DOPC   O3218593   2.702   1.722  16.326
  155DOPC   C3218594   2.484   1.550  16.254
  155DOPC   H2X18595   2.536   1.565  16.152
  155DOPC   H2Y18596   2.461   1.421  16.272
  155DOPC   C2318597   2.705   2.192  16.423
  155DOPC   H3R18598   2.834   2.162  16.410
  155DOPC   H3S18599   2.694   2.324  16.438
  155DOPC   C2418600   2.612   2.152  16.295
  155DOPC   H4R18601   2.486   2.192  16.303
  155DOPC   H4S18602   2.616   2.018  16.283
  155DOPC   C2518603   2.690   2.224  16.172
  155DOPC   H5R18604   2.807   2.161  16.160
  155DOPC   H5S18605   2.711   2.354  16.186
  155DOPC   C2618606   2.596   2.197  16.044
  155DOPC   H6R18607   2.628   2.294  15.973
  155DOPC   H6S18608   2.465   2.203  16.062
  155DOPC   C2718609   2.644   2.036  15.981
  155DOPC   H7R18610   2.632   1.939  16.057
  155DOPC   H7S18611   2.771   2.041  15.952
  155DOPC   C2818612   2.539   1.992  15.860
  155DOPC   H8R18613   2.417   1.992  15.897
  155DOPC   H8S18614   2.569   1.870  15.826
  155DOPC   C2918615   2.531   2.113  15.751
  155DOPC   H9R18616   2.533   2.239  15.783
  155DOPC  C21018617   2.516   2.082  15.620
  155DOPC  H10R18618   2.507   2.183  15.550
  155DOPC  C21118619   2.507   1.920  15.557
  155DOPC  H11R18620   2.399   1.924  15.492
  155DOPC  H11S18621   2.491   1.823  15.632
  155DOPC  C21218622   2.651   1.877  15.471
  155DOPC  H12R18623   2.644   1.747  15.444
  155DOPC  H12S18624   2.761   1.894  15.532
  155DOPC  C21318625   2.657   1.979  15.344
  155DOPC  H13R18626   2.777   1.973  15.297
  155DOPC  H13S18627   2.642   2.106  15.375
  155DOPC  C21418628   2.526   1.940  15.241
  155DOPC  H14R18629   2.495   2.057  15.191
  155DOPC  H14S18630   2.414   1.895  15.288
  155DOPC  C21518631   2.578   1.825  15.128
  155DOPC  H15R18632   2.693   1.874  15.093
  155DOPC  H15S18633   2.489   1.832  15.046
  155DOPC  C21618634   2.596   1.648  15.169
  155DOPC  H16R18635   2.532   1.634  15.265
  155DOPC  H16S18636   2.718   1.608  15.191
  155DOPC  C21718637   2.540   1.518  15.070
  155DOPC  H17R18638   2.410   1.530  15.052
  155DOPC  H17S18639   2.567   1.403  15.123
  155DOPC  C21818640   2.622   1.500  14.934
  155DOPC  H18R18641   2.590   1.601  14.866
  155DOPC  H18S18642   2.580   1.387  14.890
  155DOPC  H18T18643   2.754   1.490  14.944
  155DOPC   C3318644   2.327   1.649  16.262
  155DOPC   H3X18645   2.258   1.620  16.354
  155DOPC   H3Y18646   2.251   1.616  16.174
  155DOPC   C3418647   2.365   1.828  16.258
  155DOPC   H4X18648   2.470   1.843  16.190
  155DOPC   H4Y18649   2.401   1.868  16.360
  155DOPC   C3518650   2.236   1.940  16.204
  155DOPC   H5X18651   2.288   2.064  16.207
  155DOPC   H5Y18652   2.126   1.940  16.268
  155DOPC   C3618653   2.191   1.906  16.059
  155DOPC   H6X18654   2.297   1.862  16.004
  155DOPC   H6Y18655   2.110   1.802  16.053
  155DOPC   C3718656   2.106   2.052  16.000
  155DOPC   H7X18657   1.984   2.029  16.039
  155DOPC   H7Y18658   2.153   2.165  16.045
  155DOPC   C3818659   2.095   2.077  15.848
  155DOPC   H8X18660   2.216   2.070  15.804
  155DOPC   H8Y18661   2.050   2.200  15.826
  155DOPC   C3918662   1.980   1.954  15.798
  155DOPC   H9X18663   1.853   1.973  15.822
  155DOPC  C31018664   2.021   1.824  15.727
  155DOPC  H10X18665   1.930   1.733  15.715
  155DOPC  C31118666   2.186   1.780  15.685
  155DOPC  H11X18667   2.254   1.716  15.765
  155DOPC  H11Y18668   2.250   1.894  15.666
  155DOPC  C31218669   2.186   1.681  15.555
  155DOPC  H12X18670   2.269   1.733  15.480
  155DOPC  H12Y18671   2.066   1.687  15.506
  155DOPC  C31318672   2.240   1.508  15.577
  155DOPC  H13X18673   2.374   1.506  15.593
  155DOPC  H13Y18674   2.188   1.462  15.671
  155DOPC  C31418675   2.195   1.405  15.457
  155DOPC  H14X18676   2.188   1.277  15.486
  155DOPC  H14Y18677   2.074   1.442  15.420
  155DOPC  C31518678   2.314   1.427  15.343
  155DOPC  H15X18679   2.431   1.372  15.372
  155DOPC  H15Y18680   2.330   1.555  15.323
  155DOPC  C31618681   2.255   1.350  15.215
  155DOPC  H16X18682   2.357   1.314  15.152
  155DOPC  H16Y18683   2.212   1.232  15.250
  155DOPC  C31718684   2.123   1.438  15.133
  155DOPC  H17X18685   2.119   1.376  15.034
  155DOPC  H17Y18686   2.010   1.409  15.187
  155DOPC  C31818687   2.108   1.619  15.107
  155DOPC  H18X18688   1.985   1.643  15.067
  155DOPC  H18Y18689   2.119   1.686  15.202
  155DOPC  H18Z18690   2.194   1.666  15.032
  156DOPC     N18691   7.319   6.796  16.984
  156DOPC   C1218692   7.444   6.884  16.899
  156DOPC  H12A18693   7.409   6.874  16.795
  156DOPC  H12B18694   7.559   6.827  16.910
  156DOPC   C1318695   7.336   6.617  16.965
  156DOPC  H13A18696   7.244   6.556  17.022
  156DOPC  H13B18697   7.326   6.578  16.861
  156DOPC  H13C18698   7.451   6.576  17.004
  156DOPC   C1418699   7.152   6.844  16.942
  156DOPC  H14A18700   7.147   6.976  16.932
  156DOPC  H14B18701   7.118   6.793  16.846
  156DOPC  H14C18702   7.063   6.805  17.014
  156DOPC   C1518703   7.344   6.834  17.130
  156DOPC  H15A18704   7.250   6.787  17.195
  156DOPC  H15B18705   7.343   6.964  17.145
  156DOPC  H15C18706   7.457   6.788  17.168
  156DOPC   C1118707   7.466   7.067  16.922
  156DOPC  H11A18708   7.514   7.088  17.024
  156DOPC  H11B18709   7.561   7.111  16.851
  156DOPC     P18710   7.289   7.292  16.807
  156DOPC   O1318711   7.410   7.417  16.838
  156DOPC   O1418712   7.118   7.342  16.813
  156DOPC   O1218713   7.316   7.148  16.908
  156DOPC   O1118714   7.338   7.206  16.671
  156DOPC    C118715   7.235   7.097  16.605
  156DOPC    HA18716   7.158   7.162  16.533
  156DOPC    HB18717   7.154   7.036  16.678
  156DOPC    C218718   7.326   6.961  16.527
  156DOPC    HS18719   7.421   6.912  16.594
  156DOPC   O2118720   7.398   7.021  16.406
  156DOPC   C2118721   7.483   6.914  16.334
  156DOPC   O2218722   7.511   6.776  16.367
  156DOPC   C2218723   7.567   7.002  16.220
  156DOPC   H2R18724   7.693   6.964  16.233
  156DOPC   H2S18725   7.556   7.134  16.234
  156DOPC    C318726   7.201   6.828  16.498
  156DOPC    HX18727   7.166   6.775  16.596
  156DOPC    HY18728   7.258   6.728  16.441
  156DOPC   O3118729   7.058   6.889  16.435
  156DOPC   C3118730   7.055   6.890  16.301
  156DOPC   O3218731   7.159   6.835  16.230
  156DOPC   C3218732   6.894   6.959  16.252
  156DOPC   H2X18733   6.806   6.934  16.333
  156DOPC   H2Y18734   6.912   7.091  16.242
  156DOPC   C2318735   7.535   6.952  16.076
  156DOPC   H3R18736   7.540   6.820  16.073
  156DOPC   H3S18737   7.634   6.996  16.011
  156DOPC   C2418738   7.378   7.009  16.014
  156DOPC   H4R18739   7.393   7.128  15.964
  156DOPC   H4S18740   7.283   7.025  16.091
  156DOPC   C2518741   7.325   6.882  15.912
  156DOPC   H5R18742   7.199   6.902  15.880
  156DOPC   H5S18743   7.327   6.762  15.960
  156DOPC   C2618744   7.433   6.882  15.788
  156DOPC   H6R18745   7.561   6.863  15.815
  156DOPC   H6S18746   7.423   7.003  15.742
  156DOPC   C2718747   7.381   6.751  15.689
  156DOPC   H7R18748   7.248   6.757  15.681
  156DOPC   H7S18749   7.411   6.632  15.732
  156DOPC   C2818750   7.457   6.767  15.550
  156DOPC   H8R18751   7.411   6.668  15.486
  156DOPC   H8S18752   7.589   6.752  15.557
  156DOPC   C2918753   7.414   6.929  15.495
  156DOPC   H9R18754   7.504   7.024  15.508
  156DOPC  C21018755   7.274   6.966  15.436
  156DOPC  H10R18756   7.255   7.087  15.398
  156DOPC  C21118757   7.135   6.857  15.413
  156DOPC  H11R18758   7.024   6.926  15.398
  156DOPC  H11S18759   7.110   6.780  15.500
  156DOPC  C21218760   7.170   6.749  15.291
  156DOPC  H12R18761   7.064   6.674  15.287
  156DOPC  H12S18762   7.273   6.667  15.308
  156DOPC  C21318763   7.186   6.832  15.155
  156DOPC  H13R18764   7.150   6.748  15.075
  156DOPC  H13S18765   7.312   6.862  15.145
  156DOPC  C21418766   7.093   6.988  15.146
  156DOPC  H14R18767   7.145   7.081  15.211
  156DOPC  H14S18768   6.988   6.950  15.200
  156DOPC  C21518769   7.044   7.054  15.009
  156DOPC  H15R18770   6.949   6.974  14.967
  156DOPC  H15S18771   7.146   7.051  14.937
  156DOPC  C21618772   6.980   7.228  15.018
  156DOPC  H16R18773   7.082   7.314  15.007
  156DOPC  H16S18774   6.928   7.247  15.119
  156DOPC  C21718775   6.857   7.266  14.910
  156DOPC  H17R18776   6.755   7.334  14.953
  156DOPC  H17S18777   6.811   7.150  14.872
  156DOPC  C21818778   6.924   7.356  14.791
  156DOPC  H18R18779   7.038   7.300  14.767
  156DOPC  H18S18780   6.944   7.486  14.811
  156DOPC  H18T18781   6.850   7.340  14.701
  156DOPC   C3318782   6.829   6.886  16.119
  156DOPC   H3X18783   6.757   6.776  16.143
  156DOPC   H3Y18784   6.932   6.848  16.056
  156DOPC   C3418785   6.713   6.978  16.026
  156DOPC   H4X18786   6.592   6.992  16.071
  156DOPC   H4Y18787   6.696   6.896  15.939
  156DOPC   C3518788   6.772   7.136  15.967
  156DOPC   H5X18789   6.794   7.224  16.048
  156DOPC   H5Y18790   6.673   7.187  15.904
  156DOPC   C3618791   6.922   7.109  15.882
  156DOPC   H6X18792   7.016   7.058  15.947
  156DOPC   H6Y18793   6.895   7.019  15.802
  156DOPC   C3718794   6.988   7.261  15.817
  156DOPC   H7X18795   6.893   7.319  15.755
  156DOPC   H7Y18796   7.019   7.345  15.900
  156DOPC   C3818797   7.136   7.226  15.732
  156DOPC   H8X18798   7.102   7.152  15.644
  156DOPC   H8Y18799   7.220   7.151  15.791
  156DOPC   C3918800   7.219   7.380  15.696
  156DOPC   H9X18801   7.304   7.426  15.772
  156DOPC  C31018802   7.198   7.465  15.584
  156DOPC  H10X18803   7.260   7.580  15.572
  156DOPC  C31118804   7.085   7.422  15.472
  156DOPC  H11X18805   6.973   7.494  15.483
  156DOPC  H11Y18806   7.046   7.295  15.476
  156DOPC  C31218807   7.159   7.452  15.333
  156DOPC  H12X18808   7.158   7.583  15.311
  156DOPC  H12Y18809   7.078   7.394  15.259
  156DOPC  C31318810   7.333   7.391  15.315
  156DOPC  H13X18811   7.420   7.490  15.333
  156DOPC  H13Y18812   7.358   7.300  15.392
  156DOPC  C31418813   7.368   7.315  15.177
  156DOPC  H14X18814   7.255   7.264  15.141
  156DOPC  H14Y18815   7.402   7.408  15.104
  156DOPC  C31518816   7.494   7.177  15.181
  156DOPC  H15X18817   7.470   7.099  15.268
  156DOPC  H15Y18818   7.615   7.230  15.194
  156DOPC  C31618819   7.494   7.072  15.056
  156DOPC  H16X18820   7.372   7.037  15.026
  156DOPC  H16Y18821   7.534   7.153  14.975
  156DOPC  C31718822   7.606   6.922  15.056
  156DOPC  H17X18823   7.594   6.875  14.952
  156DOPC  H17Y18824   7.730   6.967  15.070
  156DOPC  C31818825   7.584   6.774  15.147
  156DOPC  H18X18826   7.547   6.809  15.250
  156DOPC  H18Y18827   7.493   6.690  15.106
  156DOPC  H18Z18828   7.698   6.704  15.154
  157DOPC     N18829   7.202   2.173  16.922
  157DOPC   C1218830   7.265   2.075  16.804
  157DOPC  H12A18831   7.356   2.141  16.750
  157DOPC  H12B18832   7.165   2.062  16.736
  157DOPC   C1318833   7.296   2.134  17.046
  157DOPC  H13A18834   7.421   2.165  17.035
  157DOPC  H13B18835   7.244   2.194  17.132
  157DOPC  H13C18836   7.288   2.005  17.063
  157DOPC   C1418837   7.031   2.129  16.949
  157DOPC  H14A18838   7.020   1.998  16.954
  157DOPC  H14B18839   6.990   2.182  17.043
  157DOPC  H14C18840   6.950   2.168  16.871
  157DOPC   C1518841   7.210   2.351  16.898
  157DOPC  H15A18842   7.124   2.388  16.821
  157DOPC  H15B18843   7.328   2.389  16.869
  157DOPC  H15C18844   7.175   2.413  16.989
  157DOPC   C1118845   7.327   1.900  16.823
  157DOPC  H11A18846   7.373   1.856  16.724
  157DOPC  H11B18847   7.432   1.898  16.892
  157DOPC     P18848   7.235   1.604  16.878
  157DOPC   O1318849   7.124   1.541  16.982
  157DOPC   O1418850   7.408   1.583  16.901
  157DOPC   O1218851   7.204   1.795  16.870
  157DOPC   O1118852   7.188   1.540  16.732
  157DOPC    C118853   7.076   1.634  16.657
  157DOPC    HA18854   7.118   1.762  16.647
  157DOPC    HB18855   6.959   1.633  16.710
  157DOPC    C218856   7.042   1.577  16.511
  157DOPC    HS18857   7.028   1.445  16.512
  157DOPC   O2118858   7.168   1.624  16.420
  157DOPC   C2118859   7.151   1.585  16.292
  157DOPC   O2218860   7.040   1.516  16.239
  157DOPC   C2218861   7.298   1.649  16.223
  157DOPC   H2R18862   7.399   1.584  16.271
  157DOPC   H2S18863   7.315   1.777  16.246
  157DOPC    C318864   6.882   1.658  16.468
  157DOPC    HX18865   6.794   1.642  16.550
  157DOPC    HY18866   6.833   1.597  16.380
  157DOPC   O3118867   6.912   1.825  16.433
  157DOPC   C3118868   6.847   1.936  16.509
  157DOPC   O3218869   6.755   1.914  16.601
  157DOPC   C3218870   6.912   2.100  16.464
  157DOPC   H2X18871   6.943   2.095  16.357
  157DOPC   H2Y18872   6.815   2.188  16.480
  157DOPC   C2318873   7.290   1.626  16.071
  157DOPC   H3R18874   7.276   1.499  16.040
  157DOPC   H3S18875   7.405   1.675  16.032
  157DOPC   C2418876   7.166   1.733  16.006
  157DOPC   H4R18877   7.154   1.842  16.071
  157DOPC   H4S18878   7.049   1.670  16.003
  157DOPC   C2518879   7.214   1.793  15.867
  157DOPC   H5R18880   7.196   1.698  15.791
  157DOPC   H5S18881   7.344   1.825  15.864
  157DOPC   C2618882   7.117   1.944  15.835
  157DOPC   H6R18883   7.160   1.997  15.740
  157DOPC   H6S18884   7.140   2.034  15.915
  157DOPC   C2718885   6.935   1.910  15.827
  157DOPC   H7R18886   6.868   2.024  15.831
  157DOPC   H7S18887   6.895   1.841  15.916
  157DOPC   C2818888   6.893   1.820  15.696
  157DOPC   H8R18889   6.973   1.716  15.693
  157DOPC   H8S18890   6.928   1.898  15.610
  157DOPC   C2918891   6.721   1.765  15.681
  157DOPC   H9R18892   6.654   1.756  15.776
  157DOPC  C21018893   6.644   1.733  15.565
  157DOPC  H10R18894   6.518   1.694  15.569
  157DOPC  C21118895   6.715   1.744  15.425
  157DOPC  H11R18896   6.840   1.697  15.418
  157DOPC  H11S18897   6.724   1.876  15.406
  157DOPC  C21218898   6.608   1.679  15.311
  157DOPC  H12R18899   6.566   1.787  15.257
  157DOPC  H12S18900   6.502   1.618  15.354
  157DOPC  C21318901   6.665   1.571  15.194
  157DOPC  H13R18902   6.596   1.598  15.101
  157DOPC  H13S18903   6.628   1.446  15.219
  157DOPC  C21418904   6.841   1.565  15.157
  157DOPC  H14R18905   6.920   1.583  15.245
  157DOPC  H14S18906   6.872   1.655  15.080
  157DOPC  C21518907   6.869   1.396  15.102
  157DOPC  H15R18908   6.788   1.374  15.014
  157DOPC  H15S18909   6.836   1.307  15.180
  157DOPC  C21618910   7.040   1.366  15.066
  157DOPC  H16R18911   7.118   1.427  15.141
  157DOPC  H16S18912   7.052   1.429  14.969
  157DOPC  C21718913   7.080   1.187  15.062
  157DOPC  H17R18914   6.990   1.126  14.997
  157DOPC  H17S18915   7.063   1.140  15.165
  157DOPC  C21818916   7.247   1.139  15.015
  157DOPC  H18R18917   7.290   1.038  15.078
  157DOPC  H18S18918   7.339   1.232  15.024
  157DOPC  H18T18919   7.246   1.100  14.909
  157DOPC   C3318920   7.049   2.170  16.550
  157DOPC   H3X18921   7.166   2.118  16.519
  157DOPC   H3Y18922   7.021   2.137  16.655
  157DOPC   C3418923   7.050   2.353  16.543
  157DOPC   H4X18924   7.150   2.400  16.605
  157DOPC   H4Y18925   6.935   2.399  16.588
  157DOPC   C3518926   7.063   2.422  16.402
  157DOPC   H5X18927   7.085   2.552  16.407
  157DOPC   H5Y18928   6.947   2.404  16.349
  157DOPC   C3618929   7.195   2.341  16.318
  157DOPC   H6X18930   7.307   2.333  16.379
  157DOPC   H6Y18931   7.159   2.216  16.291
  157DOPC   C3718932   7.236   2.431  16.189
  157DOPC   H7X18933   7.313   2.532  16.218
  157DOPC   H7Y18934   7.309   2.354  16.122
  157DOPC   C3818935   7.091   2.501  16.113
  157DOPC   H8X18936   7.138   2.593  16.042
  157DOPC   H8Y18937   7.010   2.569  16.181
  157DOPC   C3918938   6.996   2.374  16.042
  157DOPC   H9X18939   6.942   2.280  16.106
  157DOPC  C31018940   6.977   2.363  15.909
  157DOPC  H10X18941   6.901   2.264  15.871
  157DOPC  C31118942   7.045   2.473  15.804
  157DOPC  H11X18943   7.142   2.552  15.842
  157DOPC  H11Y18944   6.949   2.551  15.763
  157DOPC  C31218945   7.115   2.375  15.688
  157DOPC  H12X18946   7.217   2.299  15.722
  157DOPC  H12Y18947   7.162   2.459  15.611
  157DOPC  C31318948   6.985   2.270  15.624
  157DOPC  H13X18949   6.970   2.161  15.684
  157DOPC  H13Y18950   6.870   2.336  15.625
  157DOPC  C31418951   7.021   2.219  15.482
  157DOPC  H14X18952   6.930   2.126  15.452
  157DOPC  H14Y18953   7.009   2.323  15.414
  157DOPC  C31518954   7.186   2.143  15.464
  157DOPC  H15X18955   7.202   2.040  15.533
  157DOPC  H15Y18956   7.282   2.233  15.486
  157DOPC  C31618957   7.198   2.087  15.321
  157DOPC  H16X18958   7.117   1.981  15.306
  157DOPC  H16Y18959   7.148   2.185  15.256
  157DOPC  C31718960   7.368   2.053  15.279
  157DOPC  H17X18961   7.454   2.120  15.342
  157DOPC  H17Y18962   7.393   1.922  15.292
  157DOPC  C31818963   7.393   2.104  15.135
  157DOPC  H18X18964   7.282   2.087  15.075
  157DOPC  H18Y18965   7.428   2.232  15.126
  157DOPC  H18Z18966   7.489   2.029  15.089
  158DOPC     N18967   5.010   8.516  16.935
  158DOPC   C1218968   4.896   8.519  16.816
  158DOPC  H12A18969   4.811   8.419  16.826
  158DOPC  H12B18970   4.962   8.501  16.725
  158DOPC   C1318971   5.098   8.360  16.942
  158DOPC  H13A18972   5.011   8.263  16.949
  158DOPC  H13B18973   5.174   8.340  16.857
  158DOPC  H13C18974   5.173   8.356  17.031
  158DOPC   C1418975   4.913   8.538  17.059
  158DOPC  H14A18976   4.986   8.542  17.148
  158DOPC  H14B18977   4.843   8.648  17.049
  158DOPC  H14C18978   4.822   8.444  17.065
  158DOPC   C1518979   5.130   8.651  16.925
  158DOPC  H15A18980   5.071   8.766  16.931
  158DOPC  H15B18981   5.200   8.646  16.833
  158DOPC  H15C18982   5.219   8.639  17.004
  158DOPC   C1118983   4.794   8.672  16.801
  158DOPC  H11A18984   4.873   8.779  16.797
  158DOPC  H11B18985   4.733   8.665  16.701
  158DOPC     P18986   4.517   8.600  16.903
  158DOPC   O1318987   4.418   8.633  17.024
  158DOPC   O1418988   4.566   8.432  16.875
  158DOPC   O1218989   4.681   8.696  16.908
  158DOPC   O1118990   4.424   8.676  16.779
  158DOPC    C118991   4.464   8.832  16.729
  158DOPC    HA18992   4.589   8.869  16.748
  158DOPC    HB18993   4.388   8.923  16.779
  158DOPC    C218994   4.440   8.842  16.576
  158DOPC    HS18995   4.308   8.846  16.563
  158DOPC   O2118996   4.514   8.707  16.507
  158DOPC   C2118997   4.420   8.642  16.414
  158DOPC   O2218998   4.273   8.652  16.416
  158DOPC   C2218999   4.517   8.570  16.299
  158DOPC   H2R19000   4.630   8.640  16.291
  158DOPC   H2S19001   4.447   8.590  16.206
  158DOPC    C319002   4.508   9.001  16.519
  158DOPC    HX19003   4.448   9.101  16.573
  158DOPC    HY19004   4.469   9.012  16.413
  158DOPC   O3119005   4.681   9.017  16.536
  158DOPC   C3119006   4.768   8.960  16.433
  158DOPC   O3219007   4.711   8.906  16.330
  158DOPC   C3219008   4.948   8.970  16.461
  158DOPC   H2X19009   4.997   9.074  16.406
  158DOPC   H2Y19010   4.967   8.989  16.569
  158DOPC   C2319011   4.559   8.392  16.316
  158DOPC   H3R19012   4.448   8.317  16.307
  158DOPC   H3S19013   4.606   8.372  16.420
  158DOPC   C2419014   4.688   8.336  16.217
  158DOPC   H4R19015   4.759   8.240  16.267
  158DOPC   H4S19016   4.771   8.436  16.193
  158DOPC   C2519017   4.620   8.263  16.088
  158DOPC   H5R19018   4.502   8.204  16.110
  158DOPC   H5S19019   4.703   8.168  16.051
  158DOPC   C2619020   4.597   8.386  15.974
  158DOPC   H6R19021   4.717   8.437  15.949
  158DOPC   H6S19022   4.519   8.485  16.007
  158DOPC   C2719023   4.524   8.304  15.851
  158DOPC   H7R19024   4.399   8.266  15.878
  158DOPC   H7S19025   4.594   8.192  15.828
  158DOPC   C2819026   4.516   8.407  15.724
  158DOPC   H8R19027   4.434   8.512  15.743
  158DOPC   H8S19028   4.459   8.334  15.644
  158DOPC   C2919029   4.676   8.467  15.679
  158DOPC   H9R19030   4.780   8.426  15.738
  158DOPC  C21019031   4.702   8.558  15.570
  158DOPC  H10R19032   4.822   8.600  15.547
  158DOPC  C21119033   4.573   8.616  15.475
  158DOPC  H11R19034   4.464   8.539  15.483
  158DOPC  H11S19035   4.616   8.603  15.370
  158DOPC  C21219036   4.523   8.790  15.498
  158DOPC  H12R19037   4.619   8.875  15.468
  158DOPC  H12S19038   4.501   8.810  15.607
  158DOPC  C21319039   4.366   8.824  15.423
  158DOPC  H13R19040   4.309   8.934  15.463
  158DOPC  H13S19041   4.280   8.725  15.447
  158DOPC  C21419042   4.382   8.832  15.269
  158DOPC  H14R19043   4.271   8.888  15.230
  158DOPC  H14S19044   4.387   8.707  15.230
  158DOPC  C21519045   4.529   8.922  15.211
  158DOPC  H15R19046   4.633   8.843  15.212
  158DOPC  H15S19047   4.568   9.026  15.271
  158DOPC  C21619048   4.495   8.982  15.069
  158DOPC  H16R19049   4.374   9.037  15.065
  158DOPC  H16S19050   4.496   8.878  14.998
  158DOPC  C21719051   4.619   9.106  15.022
  158DOPC  H17R19052   4.738   9.046  15.029
  158DOPC  H17S19053   4.620   9.211  15.090
  158DOPC  C21819054   4.589   9.162  14.879
  158DOPC  H18R19055   4.700   9.214  14.834
  158DOPC  H18S19056   4.494   9.256  14.877
  158DOPC  H18T19057   4.549   9.060  14.815
  158DOPC   C3319058   5.036   8.818  16.414
  158DOPC   H3X19059   5.003   8.789  16.309
  158DOPC   H3Y19060   5.000   8.714  16.479
  158DOPC   C3419061   5.220   8.837  16.423
  158DOPC   H4X19062   5.254   8.891  16.521
  158DOPC   H4Y19063   5.260   8.922  16.344
  158DOPC   C3519064   5.311   8.677  16.408
  158DOPC   H5X19065   5.287   8.600  16.496
  158DOPC   H5Y19066   5.442   8.705  16.409
  158DOPC   C3619067   5.272   8.586  16.279
  158DOPC   H6X19068   5.338   8.470  16.280
  158DOPC   H6Y19069   5.141   8.557  16.274
  158DOPC   C3719070   5.323   8.680  16.154
  158DOPC   H7X19071   5.260   8.796  16.148
  158DOPC   H7Y19072   5.454   8.707  16.167
  158DOPC   C3819073   5.304   8.584  16.024
  158DOPC   H8X19074   5.346   8.459  16.040
  158DOPC   H8Y19075   5.384   8.640  15.949
  158DOPC   C3919076   5.134   8.587  15.975
  158DOPC   H9X19077   5.040   8.616  16.050
  158DOPC  C31019078   5.090   8.555  15.849
  158DOPC  H10X19079   4.964   8.570  15.819
  158DOPC  C31119080   5.206   8.509  15.739
  158DOPC  H11X19081   5.147   8.420  15.672
  158DOPC  H11Y19082   5.314   8.448  15.780
  158DOPC  C31219083   5.261   8.653  15.653
  158DOPC  H12X19084   5.352   8.608  15.582
  158DOPC  H12Y19085   5.318   8.747  15.716
  158DOPC  C31319086   5.119   8.723  15.574
  158DOPC  H13X19087   5.050   8.617  15.540
  158DOPC  H13Y19088   5.042   8.796  15.642
  158DOPC  C31419089   5.164   8.820  15.449
  158DOPC  H14X19090   5.064   8.903  15.424
  158DOPC  H14Y19091   5.272   8.894  15.471
  158DOPC  C31519092   5.198   8.712  15.327
  158DOPC  H15X19093   5.284   8.617  15.358
  158DOPC  H15Y19094   5.258   8.784  15.248
  158DOPC  C31619095   5.050   8.629  15.265
  158DOPC  H16X19096   5.094   8.532  15.198
  158DOPC  H16Y19097   4.975   8.570  15.343
  158DOPC  C31719098   4.943   8.738  15.181
  158DOPC  H17X19099   4.883   8.828  15.247
  158DOPC  H17Y19100   5.018   8.807  15.109
  158DOPC  C31819101   4.816   8.645  15.102
  158DOPC  H18X19102   4.872   8.550  15.039
  158DOPC  H18Y19103   4.728   8.586  15.171
  158DOPC  H18Z19104   4.747   8.726  15.036
  159DOPC     N19105   7.990   2.449  17.096
  159DOPC   C1219106   8.131   2.392  17.011
  159DOPC  H12A19107   8.101   2.281  16.958
  159DOPC  H12B19108   8.230   2.360  17.076
  159DOPC   C1319109   7.952   2.328  17.200
  159DOPC  H13A19110   7.853   2.369  17.261
  159DOPC  H13B19111   7.924   2.210  17.159
  159DOPC  H13C19112   8.054   2.310  17.266
  159DOPC   C1419113   7.847   2.472  17.007
  159DOPC  H14A19114   7.813   2.359  16.958
  159DOPC  H14B19115   7.745   2.526  17.055
  159DOPC  H14C19116   7.882   2.546  16.922
  159DOPC   C1519117   8.035   2.605  17.157
  159DOPC  H15A19118   8.150   2.600  17.207
  159DOPC  H15B19119   7.944   2.650  17.224
  159DOPC  H15C19120   8.048   2.690  17.075
  159DOPC   C1119121   8.191   2.509  16.901
  159DOPC  H11A19122   8.227   2.626  16.945
  159DOPC  H11B19123   8.302   2.460  16.853
  159DOPC     P19124   8.026   2.388  16.707
  159DOPC   O1319125   7.855   2.347  16.727
  159DOPC   O1419126   8.142   2.256  16.733
  159DOPC   O1219127   8.066   2.534  16.806
  159DOPC   O1119128   8.054   2.472  16.566
  159DOPC    C119129   8.141   2.622  16.571
  159DOPC    HA19130   8.246   2.611  16.641
  159DOPC    HB19131   8.063   2.720  16.608
  159DOPC    C219132   8.225   2.680  16.441
  159DOPC    HS19133   8.302   2.783  16.473
  159DOPC   O2119134   8.114   2.729  16.339
  159DOPC   C2119135   8.189   2.809  16.242
  159DOPC   O2219136   8.323   2.868  16.250
  159DOPC   C2219137   8.080   2.819  16.121
  159DOPC   H2R19138   7.966   2.878  16.151
  159DOPC   H2S19139   8.051   2.694  16.093
  159DOPC    C319140   8.338   2.549  16.384
  159DOPC    HX19141   8.435   2.539  16.458
  159DOPC    HY19142   8.396   2.587  16.290
  159DOPC   O3119143   8.260   2.394  16.369
  159DOPC   C3119144   8.190   2.369  16.254
  159DOPC   O3219145   8.189   2.460  16.159
  159DOPC   C3219146   8.126   2.196  16.247
  159DOPC   H2X19147   8.197   2.122  16.317
  159DOPC   H2Y19148   7.999   2.196  16.280
  159DOPC   C2319149   8.155   2.906  16.000
  159DOPC   H3R19150   8.275   2.855  15.975
  159DOPC   H3S19151   8.174   3.035  16.026
  159DOPC   C2419152   8.046   2.896  15.877
  159DOPC   H4R19153   8.093   2.976  15.798
  159DOPC   H4S19154   7.924   2.936  15.905
  159DOPC   C2519155   8.034   2.724  15.821
  159DOPC   H5R19156   7.982   2.642  15.898
  159DOPC   H5S19157   8.158   2.680  15.800
  159DOPC   C2619158   7.928   2.714  15.696
  159DOPC   H6R19159   7.823   2.795  15.709
  159DOPC   H6S19160   7.882   2.590  15.685
  159DOPC   C2719161   8.022   2.758  15.569
  159DOPC   H7R19162   8.093   2.868  15.588
  159DOPC   H7S19163   7.936   2.783  15.486
  159DOPC   C2819164   8.132   2.618  15.529
  159DOPC   H8R19165   8.058   2.521  15.485
  159DOPC   H8S19166   8.185   2.567  15.621
  159DOPC   C2919167   8.264   2.662  15.432
  159DOPC   H9R19168   8.244   2.767  15.369
  159DOPC  C21019169   8.406   2.586  15.424
  159DOPC  H10R19170   8.490   2.620  15.345
  159DOPC  C21119171   8.458   2.446  15.509
  159DOPC  H11R19172   8.405   2.450  15.611
  159DOPC  H11S19173   8.590   2.450  15.523
  159DOPC  C21219174   8.410   2.286  15.444
  159DOPC  H12R19175   8.281   2.291  15.414
  159DOPC  H12S19176   8.426   2.188  15.518
  159DOPC  C21319177   8.512   2.246  15.324
  159DOPC  H13R19178   8.640   2.269  15.351
  159DOPC  H13S19179   8.477   2.332  15.244
  159DOPC  C21419180   8.500   2.070  15.279
  159DOPC  H14R19181   8.381   2.046  15.233
  159DOPC  H14S19182   8.513   1.990  15.367
  159DOPC  C21519183   8.634   2.035  15.180
  159DOPC  H15R19184   8.652   1.908  15.158
  159DOPC  H15S19185   8.748   2.074  15.228
  159DOPC  C21619186   8.615   2.134  15.053
  159DOPC  H16R19187   8.725   2.128  14.991
  159DOPC  H16S19188   8.597   2.258  15.088
  159DOPC  C21719189   8.472   2.118  14.960
  159DOPC  H17R19190   8.449   2.244  14.926
  159DOPC  H17S19191   8.363   2.075  15.011
  159DOPC  C21819192   8.514   2.026  14.835
  159DOPC  H18R19193   8.506   1.897  14.858
  159DOPC  H18S19194   8.639   2.045  14.801
  159DOPC  H18T19195   8.434   2.059  14.750
  159DOPC   C3319196   8.144   2.129  16.103
  159DOPC   H3X19197   8.082   2.206  16.029
  159DOPC   H3Y19198   8.090   2.008  16.096
  159DOPC   C3419199   8.324   2.113  16.070
  159DOPC   H4X19200   8.382   2.066  16.161
  159DOPC   H4Y19201   8.371   2.236  16.047
  159DOPC   C3519202   8.371   1.997  15.958
  159DOPC   H5X19203   8.394   1.883  16.008
  159DOPC   H5Y19204   8.489   2.020  15.912
  159DOPC   C3619205   8.254   2.003  15.839
  159DOPC   H6X19206   8.288   1.909  15.765
  159DOPC   H6Y19207   8.129   1.978  15.872
  159DOPC   C3719208   8.263   2.166  15.769
  159DOPC   H7X19209   8.251   2.267  15.840
  159DOPC   H7Y19210   8.386   2.172  15.725
  159DOPC   C3819211   8.148   2.191  15.652
  159DOPC   H8X19212   8.188   2.106  15.573
  159DOPC   H8Y19213   8.168   2.312  15.612
  159DOPC   C3919214   7.972   2.177  15.680
  159DOPC   H9X19215   7.922   2.258  15.756
  159DOPC  C31019216   7.874   2.080  15.611
  159DOPC  H10X19217   7.745   2.075  15.633
  159DOPC  C31119218   7.930   1.973  15.500
  159DOPC  H11X19219   7.825   1.895  15.479
  159DOPC  H11Y19220   8.032   1.895  15.533
  159DOPC  C31219221   7.981   2.057  15.369
  159DOPC  H12X19222   8.017   1.966  15.294
  159DOPC  H12Y19223   8.088   2.134  15.384
  159DOPC  C31319224   7.847   2.159  15.307
  159DOPC  H13X19225   7.741   2.080  15.292
  159DOPC  H13Y19226   7.813   2.255  15.378
  159DOPC  C31419227   7.894   2.232  15.172
  159DOPC  H14X19228   7.961   2.143  15.111
  159DOPC  H14Y19229   7.781   2.260  15.116
  159DOPC  C31519230   7.991   2.389  15.183
  159DOPC  H15X19231   8.036   2.417  15.081
  159DOPC  H15Y19232   8.098   2.374  15.248
  159DOPC  C31619233   7.886   2.528  15.235
  159DOPC  H16X19234   7.763   2.510  15.198
  159DOPC  H16Y19235   7.874   2.516  15.345
  159DOPC  C31719236   7.943   2.701  15.202
  159DOPC  H17X19237   7.844   2.784  15.231
  159DOPC  H17Y19238   8.042   2.729  15.270
  159DOPC  C31819239   7.999   2.743  15.060
  159DOPC  H18X19240   7.906   2.815  15.007
  159DOPC  H18Y19241   8.110   2.816  15.063
  159DOPC  H18Z19242   8.024   2.636  14.998
  160DOPC     N19243   2.252   8.270  16.938
  160DOPC   C1219244   2.192   8.102  16.970
  160DOPC  H12A19245   2.152   8.052  16.876
  160DOPC  H12B19246   2.093   8.111  17.040
  160DOPC   C1319247   2.389   8.250  16.843
  160DOPC  H13A19248   2.486   8.185  16.892
  160DOPC  H13B19249   2.356   8.170  16.761
  160DOPC  H13C19250   2.434   8.360  16.800
  160DOPC   C1419251   2.310   8.347  17.065
  160DOPC  H14A19252   2.407   8.275  17.104
  160DOPC  H14B19253   2.352   8.468  17.049
  160DOPC  H14C19254   2.214   8.351  17.139
  160DOPC   C1519255   2.124   8.374  16.877
  160DOPC  H15A19256   2.166   8.495  16.855
  160DOPC  H15B19257   2.024   8.389  16.948
  160DOPC  H15C19258   2.078   8.322  16.786
  160DOPC   C1119259   2.314   7.975  17.027
  160DOPC  H11A19260   2.368   8.023  17.120
  160DOPC  H11B19261   2.245   7.866  17.055
  160DOPC     P19262   2.405   7.836  16.804
  160DOPC   O1319263   2.345   7.676  16.847
  160DOPC   O1419264   2.548   7.835  16.718
  160DOPC   O1219265   2.440   7.934  16.936
  160DOPC   O1119266   2.258   7.933  16.739
  160DOPC    C119267   2.167   7.873  16.630
  160DOPC    HA19268   2.059   7.813  16.671
  160DOPC    HB19269   2.237   7.784  16.569
  160DOPC    C219270   2.107   8.005  16.530
  160DOPC    HS19271   2.092   7.946  16.430
  160DOPC   O2119272   2.214   8.141  16.525
  160DOPC   C2119273   2.326   8.129  16.433
  160DOPC   O2219274   2.353   8.012  16.364
  160DOPC   C2219275   2.396   8.298  16.412
  160DOPC   H2R19276   2.462   8.326  16.505
  160DOPC   H2S19277   2.294   8.382  16.401
  160DOPC    C319278   1.939   8.077  16.567
  160DOPC    HX19279   1.948   8.108  16.674
  160DOPC    HY19280   1.842   7.986  16.556
  160DOPC   O3119281   1.902   8.224  16.493
  160DOPC   C3119282   1.868   8.198  16.363
  160DOPC   O3219283   1.842   8.068  16.314
  160DOPC   C3219284   1.868   8.360  16.289
  160DOPC   H2X19285   1.751   8.418  16.312
  160DOPC   H2Y19286   1.966   8.436  16.332
  160DOPC   C2319287   2.512   8.315  16.292
  160DOPC   H3R19288   2.551   8.190  16.269
  160DOPC   H3S19289   2.623   8.380  16.318
  160DOPC   C2419290   2.444   8.372  16.160
  160DOPC   H4R19291   2.545   8.378  16.086
  160DOPC   H4S19292   2.384   8.491  16.160
  160DOPC   C2519293   2.328   8.243  16.119
  160DOPC   H5R19294   2.216   8.252  16.178
  160DOPC   H5S19295   2.377   8.122  16.141
  160DOPC   C2619296   2.298   8.240  15.971
  160DOPC   H6R19297   2.414   8.224  15.918
  160DOPC   H6S19298   2.249   8.359  15.941
  160DOPC   C2719299   2.184   8.102  15.938
  160DOPC   H7R19300   2.100   8.082  16.024
  160DOPC   H7S19301   2.252   7.988  15.923
  160DOPC   C2819302   2.087   8.143  15.815
  160DOPC   H8R19303   2.020   8.252  15.844
  160DOPC   H8S19304   1.996   8.051  15.789
  160DOPC   C2919305   2.215   8.171  15.712
  160DOPC   H9R19306   2.270   8.291  15.716
  160DOPC  C21019307   2.258   8.074  15.613
  160DOPC  H10R19308   2.359   8.110  15.549
  160DOPC  C21119309   2.189   7.914  15.577
  160DOPC  H11R19310   2.090   7.878  15.646
  160DOPC  H11S19311   2.284   7.820  15.583
  160DOPC  C21219312   2.125   7.928  15.433
  160DOPC  H12R19313   2.108   7.808  15.390
  160DOPC  H12S19314   2.215   7.988  15.368
  160DOPC  C21319315   1.964   8.021  15.424
  160DOPC  H13R19316   1.986   8.146  15.456
  160DOPC  H13S19317   1.876   7.968  15.494
  160DOPC  C21419318   1.895   8.027  15.282
  160DOPC  H14R19319   1.790   7.945  15.275
  160DOPC  H14S19320   1.988   7.987  15.211
  160DOPC  C21519321   1.842   8.195  15.237
  160DOPC  H15R19322   1.950   8.274  15.243
  160DOPC  H15S19323   1.751   8.243  15.307
  160DOPC  C21619324   1.778   8.197  15.093
  160DOPC  H16R19325   1.705   8.090  15.072
  160DOPC  H16S19326   1.877   8.168  15.024
  160DOPC  C21719327   1.687   8.351  15.052
  160DOPC  H17R19328   1.556   8.327  15.054
  160DOPC  H17S19329   1.722   8.376  14.947
  160DOPC  C21819330   1.720   8.508  15.126
  160DOPC  H18R19331   1.627   8.599  15.102
  160DOPC  H18S19332   1.836   8.556  15.091
  160DOPC  H18T19333   1.724   8.491  15.236
  160DOPC   C3319334   1.888   8.352  16.135
  160DOPC   H3X19335   1.818   8.250  16.093
  160DOPC   H3Y19336   2.014   8.334  16.106
  160DOPC   C3419337   1.831   8.510  16.070
  160DOPC   H4X19338   1.918   8.604  16.103
  160DOPC   H4Y19339   1.714   8.548  16.111
  160DOPC   C3519340   1.825   8.514  15.916
  160DOPC   H5X19341   1.951   8.509  15.884
  160DOPC   H5Y19342   1.777   8.634  15.886
  160DOPC   C3619343   1.724   8.388  15.839
  160DOPC   H6X19344   1.770   8.264  15.853
  160DOPC   H6Y19345   1.601   8.392  15.878
  160DOPC   C3719346   1.699   8.424  15.689
  160DOPC   H7X19347   1.588   8.359  15.657
  160DOPC   H7Y19348   1.676   8.554  15.673
  160DOPC   C3819349   1.835   8.364  15.598
  160DOPC   H8X19350   1.798   8.381  15.492
  160DOPC   H8Y19351   1.846   8.232  15.615
  160DOPC   C3919352   1.990   8.449  15.628
  160DOPC   H9X19353   2.038   8.424  15.727
  160DOPC  C31019354   2.093   8.526  15.549
  160DOPC  H10X19355   2.202   8.579  15.592
  160DOPC  C31119356   2.072   8.544  15.402
  160DOPC  H11X19357   2.048   8.669  15.376
  160DOPC  H11Y19358   1.968   8.473  15.368
  160DOPC  C31219359   2.219   8.480  15.326
  160DOPC  H12X19360   2.312   8.573  15.312
  160DOPC  H12Y19361   2.171   8.449  15.226
  160DOPC  C31319362   2.302   8.333  15.385
  160DOPC  H13X19363   2.347   8.357  15.487
  160DOPC  H13Y19364   2.208   8.238  15.389
  160DOPC  C31419365   2.440   8.273  15.298
  160DOPC  H14X19366   2.540   8.360  15.300
  160DOPC  H14Y19367   2.485   8.156  15.338
  160DOPC  C31519368   2.378   8.251  15.155
  160DOPC  H15X19369   2.375   8.371  15.107
  160DOPC  H15Y19370   2.254   8.203  15.159
  160DOPC  C31619371   2.482   8.142  15.070
  160DOPC  H16X19372   2.442   8.153  14.964
  160DOPC  H16Y19373   2.604   8.192  15.079
  160DOPC  C31719374   2.482   7.964  15.110
  160DOPC  H17X19375   2.570   7.902  15.046
  160DOPC  H17Y19376   2.521   7.951  15.215
  160DOPC  C31819377   2.320   7.882  15.093
  160DOPC  H18X19378   2.330   7.751  15.110
  160DOPC  H18Y19379   2.231   7.931  15.165
  160DOPC  H18Z19380   2.272   7.902  14.991
  161DOPC     N19381   4.601   0.328  17.081
  161DOPC   C1219382   4.552   0.408  16.949
  161DOPC  H12A19383   4.630   0.512  16.932
  161DOPC  H12B19384   4.432   0.456  16.957
  161DOPC   C1319385   4.781   0.335  17.089
  161DOPC  H13A19386   4.820   0.460  17.080
  161DOPC  H13B19387   4.829   0.290  17.182
  161DOPC  H13C19388   4.834   0.272  17.004
  161DOPC   C1419389   4.542   0.157  17.083
  161DOPC  H14A19390   4.600   0.091  17.003
  161DOPC  H14B19391   4.561   0.096  17.177
  161DOPC  H14C19392   4.414   0.156  17.065
  161DOPC   C1519393   4.535   0.420  17.196
  161DOPC  H15A19394   4.405   0.430  17.192
  161DOPC  H15B19395   4.583   0.542  17.197
  161DOPC  H15C19396   4.567   0.366  17.290
  161DOPC   C1119397   4.567   0.306  16.821
  161DOPC  H11A19398   4.495   0.194  16.830
  161DOPC  H11B19399   4.512   0.371  16.734
  161DOPC     P19400   4.842   0.406  16.731
  161DOPC   O1319401   5.012   0.362  16.746
  161DOPC   O1419402   4.786   0.559  16.790
  161DOPC   O1219403   4.732   0.266  16.796
  161DOPC   O1119404   4.800   0.389  16.574
  161DOPC    C119405   4.784   0.227  16.525
  161DOPC    HA19406   4.656   0.196  16.530
  161DOPC    HB19407   4.848   0.138  16.590
  161DOPC    C219408   4.848   0.186  16.380
  161DOPC    HS19409   4.949   0.101  16.397
  161DOPC   O2119410   4.903   0.318  16.297
  161DOPC   C2119411   4.928   0.277  16.168
  161DOPC   O2219412   5.012   0.168  16.129
  161DOPC   C2219413   4.814   0.371  16.074
  161DOPC   H2R19414   4.729   0.282  16.033
  161DOPC   H2S19415   4.886   0.418  15.990
  161DOPC    C319416   4.711   0.098  16.304
  161DOPC    HX19417   4.650   0.196  16.246
  161DOPC    HY19418   4.616   0.048  16.369
  161DOPC   O3119419   4.780  -0.024  16.220
  161DOPC   C3119420   4.674  -0.066  16.127
  161DOPC   O3219421   4.535  -0.023  16.128
  161DOPC   C3219422   4.751  -0.169  16.019
  161DOPC   H2X19423   4.868  -0.215  16.056
  161DOPC   H2Y19424   4.672  -0.274  16.002
  161DOPC   C2319425   4.717   0.508  16.139
  161DOPC   H3R19426   4.789   0.566  16.219
  161DOPC   H3S19427   4.607   0.460  16.187
  161DOPC   C2419428   4.672   0.641  16.041
  161DOPC   H4R19429   4.782   0.698  16.002
  161DOPC   H4S19430   4.601   0.731  16.098
  161DOPC   C2519431   4.576   0.589  15.918
  161DOPC   H5R19432   4.498   0.486  15.944
  161DOPC   H5S19433   4.660   0.542  15.843
  161DOPC   C2619434   4.470   0.727  15.866
  161DOPC   H6R19435   4.435   0.805  15.951
  161DOPC   H6S19436   4.352   0.678  15.832
  161DOPC   C2719437   4.538   0.821  15.745
  161DOPC   H7R19438   4.644   0.894  15.775
  161DOPC   H7S19439   4.446   0.907  15.708
  161DOPC   C2819440   4.588   0.707  15.633
  161DOPC   H8R19441   4.692   0.637  15.666
  161DOPC   H8S19442   4.626   0.772  15.542
  161DOPC   C2919443   4.448   0.599  15.610
  161DOPC   H9R19444   4.428   0.508  15.688
  161DOPC  C21019445   4.351   0.604  15.505
  161DOPC  H10R19446   4.242   0.530  15.507
  161DOPC  C21119447   4.372   0.721  15.393
  161DOPC  H11R19448   4.486   0.691  15.342
  161DOPC  H11S19449   4.385   0.846  15.431
  161DOPC  C21219450   4.235   0.713  15.291
  161DOPC  H12R19451   4.152   0.815  15.310
  161DOPC  H12S19452   4.162   0.602  15.301
  161DOPC  C21319453   4.297   0.720  15.147
  161DOPC  H13R19454   4.372   0.829  15.133
  161DOPC  H13S19455   4.189   0.733  15.083
  161DOPC  C21419456   4.391   0.571  15.101
  161DOPC  H14R19457   4.319   0.461  15.118
  161DOPC  H14S19458   4.502   0.559  15.160
  161DOPC  C21519459   4.438   0.577  14.953
  161DOPC  H15R19460   4.519   0.476  14.935
  161DOPC  H15S19461   4.505   0.690  14.933
  161DOPC  C21619462   4.297   0.563  14.854
  161DOPC  H16R19463   4.321   0.634  14.762
  161DOPC  H16S19464   4.190   0.617  14.903
  161DOPC  C21719465   4.252   0.390  14.815
  161DOPC  H17R19466   4.128   0.394  14.773
  161DOPC  H17S19467   4.248   0.314  14.907
  161DOPC  C21819468   4.361   0.311  14.712
  161DOPC  H18R19469   4.301   0.212  14.657
  161DOPC  H18S19470   4.464   0.257  14.764
  161DOPC  H18T19471   4.405   0.401  14.638
  161DOPC   C3319472   4.775  -0.071  15.890
  161DOPC   H3X19473   4.816  -0.155  15.810
  161DOPC   H3Y19474   4.872   0.018  15.907
  161DOPC   C3419475   4.621   0.017  15.841
  161DOPC   H4X19476   4.583   0.104  15.919
  161DOPC   H4Y19477   4.524  -0.073  15.831
  161DOPC   C3519478   4.637   0.110  15.709
  161DOPC   H5X19479   4.524   0.178  15.692
  161DOPC   H5Y19480   4.652   0.023  15.626
  161DOPC   C3619481   4.775   0.232  15.705
  161DOPC   H6X19482   4.758   0.326  15.782
  161DOPC   H6Y19483   4.885   0.164  15.730
  161DOPC   C3719484   4.808   0.305  15.567
  161DOPC   H7X19485   4.816   0.204  15.495
  161DOPC   H7Y19486   4.708   0.383  15.536
  161DOPC   C3819487   4.970   0.395  15.560
  161DOPC   H8X19488   5.012   0.385  15.455
  161DOPC   H8Y19489   5.062   0.330  15.621
  161DOPC   C3919490   4.967   0.564  15.609
  161DOPC   H9X19491   4.957   0.581  15.718
  161DOPC  C31019492   4.972   0.692  15.529
  161DOPC  H10X19493   4.948   0.811  15.570
  161DOPC  C31119494   4.984   0.680  15.379
  161DOPC  H11X19495   5.082   0.596  15.356
  161DOPC  H11Y19496   5.026   0.797  15.337
  161DOPC  C31219497   4.835   0.619  15.304
  161DOPC  H12X19498   4.744   0.715  15.293
  161DOPC  H12Y19499   4.776   0.520  15.358
  161DOPC  C31319500   4.882   0.562  15.164
  161DOPC  H13X19501   4.976   0.469  15.175
  161DOPC  H13Y19502   4.777   0.503  15.115
  161DOPC  C31419503   4.944   0.702  15.081
  161DOPC  H14X19504   4.847   0.793  15.077
  161DOPC  H14Y19505   5.050   0.756  15.134
  161DOPC  C31519506   5.002   0.662  14.940
  161DOPC  H15X19507   5.081   0.556  14.943
  161DOPC  H15Y19508   5.078   0.764  14.904
  161DOPC  C31619509   4.862   0.642  14.842
  161DOPC  H16X19510   4.752   0.628  14.904
  161DOPC  H16Y19511   4.842   0.754  14.784
  161DOPC  C31719512   4.876   0.496  14.751
  161DOPC  H17X19513   4.874   0.533  14.644
  161DOPC  H17Y19514   4.990   0.430  14.769
  161DOPC  C31819515   4.735   0.384  14.775
  161DOPC  H18X19516   4.714   0.367  14.883
  161DOPC  H18Y19517   4.630   0.444  14.729
  161DOPC  H18Z19518   4.747   0.263  14.733
  162DOPC     N19519   1.554   7.777  16.870
  162DOPC   C1219520   1.567   7.639  16.773
  162DOPC  H12A19521   1.681   7.577  16.790
  162DOPC  H12B19522   1.565   7.685  16.672
  162DOPC   C1319523   1.382   7.829  16.874
  162DOPC  H13A19524   1.343   7.873  16.778
  162DOPC  H13B19525   1.310   7.724  16.901
  162DOPC  H13C19526   1.363   7.919  16.951
  162DOPC   C1419527   1.657   7.919  16.841
  162DOPC  H14A19528   1.613   7.979  16.753
  162DOPC  H14B19529   1.655   8.003  16.924
  162DOPC  H14C19530   1.782   7.886  16.824
  162DOPC   C1519531   1.591   7.712  17.005
  162DOPC  H15A19532   1.560   7.796  17.084
  162DOPC  H15B19533   1.711   7.666  17.013
  162DOPC  H15C19534   1.512   7.609  17.022
  162DOPC   C1119535   1.439   7.504  16.782
  162DOPC  H11A19536   1.320   7.553  16.752
  162DOPC  H11B19537   1.465   7.405  16.709
  162DOPC     P19538   1.541   7.302  16.968
  162DOPC   O1319539   1.522   7.156  16.887
  162DOPC   O1419540   1.514   7.291  17.114
  162DOPC   O1219541   1.426   7.441  16.913
  162DOPC   O1119542   1.718   7.370  16.943
  162DOPC    C119543   1.854   7.266  16.915
  162DOPC    HA19544   1.817   7.142  16.889
  162DOPC    HB19545   1.926   7.254  17.008
  162DOPC    C219546   1.967   7.333  16.801
  162DOPC    HS19547   2.047   7.423  16.846
  162DOPC   O2119548   1.847   7.415  16.718
  162DOPC   C2119549   1.888   7.505  16.615
  162DOPC   O2219550   2.022   7.559  16.601
  162DOPC   C2219551   1.746   7.524  16.513
  162DOPC   H2R19552   1.628   7.508  16.560
  162DOPC   H2S19553   1.753   7.424  16.442
  162DOPC    C319554   2.089   7.199  16.723
  162DOPC    HX19555   2.148   7.130  16.804
  162DOPC    HY19556   2.178   7.280  16.678
  162DOPC   O3119557   2.041   7.079  16.623
  162DOPC   C3119558   2.105   6.950  16.557
  162DOPC   O3219559   2.248   6.929  16.543
  162DOPC   C3219560   1.973   6.823  16.493
  162DOPC   H2X19561   2.062   6.732  16.466
  162DOPC   H2Y19562   1.903   6.769  16.573
  162DOPC   C2319563   1.747   7.658  16.406
  162DOPC   H3R19564   1.860   7.645  16.346
  162DOPC   H3S19565   1.750   7.778  16.454
  162DOPC   C2419566   1.606   7.649  16.306
  162DOPC   H4R19567   1.489   7.654  16.361
  162DOPC   H4S19568   1.608   7.534  16.250
  162DOPC   C2519569   1.610   7.788  16.205
  162DOPC   H5R19570   1.722   7.780  16.144
  162DOPC   H5S19571   1.618   7.902  16.263
  162DOPC   C2619572   1.465   7.807  16.110
  162DOPC   H6R19573   1.494   7.909  16.043
  162DOPC   H6S19574   1.360   7.842  16.171
  162DOPC   C2719575   1.420   7.663  16.021
  162DOPC   H7R19576   1.313   7.696  15.960
  162DOPC   H7S19577   1.382   7.564  16.087
  162DOPC   C2819578   1.554   7.604  15.928
  162DOPC   H8R19579   1.513   7.490  15.882
  162DOPC   H8S19580   1.661   7.576  15.992
  162DOPC   C2919581   1.600   7.722  15.820
  162DOPC   H9R19582   1.524   7.831  15.810
  162DOPC  C21019583   1.726   7.702  15.738
  162DOPC  H10R19584   1.752   7.792  15.661
  162DOPC  C21119585   1.836   7.558  15.744
  162DOPC  H11R19586   1.792   7.464  15.814
  162DOPC  H11S19587   1.956   7.596  15.781
  162DOPC  C21219588   1.859   7.474  15.608
  162DOPC  H12R19589   1.741   7.434  15.566
  162DOPC  H12S19590   1.932   7.364  15.627
  162DOPC  C21319591   1.948   7.578  15.508
  162DOPC  H13R19592   2.034   7.652  15.565
  162DOPC  H13S19593   1.864   7.660  15.455
  162DOPC  C21419594   2.047   7.482  15.407
  162DOPC  H14R19595   2.146   7.417  15.460
  162DOPC  H14S19596   2.105   7.568  15.337
  162DOPC  C21519597   1.950   7.361  15.326
  162DOPC  H15R19598   1.834   7.417  15.297
  162DOPC  H15S19599   1.921   7.254  15.388
  162DOPC  C21619600   2.042   7.313  15.201
  162DOPC  H16R19601   2.129   7.217  15.228
  162DOPC  H16S19602   2.116   7.416  15.166
  162DOPC  C21719603   1.940   7.254  15.085
  162DOPC  H17R19604   1.853   7.348  15.055
  162DOPC  H17S19605   1.871   7.146  15.118
  162DOPC  C21819606   2.048   7.210  14.968
  162DOPC  H18R19607   2.125   7.313  14.938
  162DOPC  H18S19608   1.982   7.165  14.880
  162DOPC  H18T19609   2.129   7.112  15.003
  162DOPC   C3319610   1.864   6.816  16.356
  162DOPC   H3X19611   1.870   6.689  16.323
  162DOPC   H3Y19612   1.919   6.887  16.276
  162DOPC   C3419613   1.680   6.853  16.355
  162DOPC   H4X19614   1.667   6.947  16.425
  162DOPC   H4Y19615   1.614   6.763  16.414
  162DOPC   C3519616   1.588   6.948  16.240
  162DOPC   H5X19617   1.532   6.874  16.162
  162DOPC   H5Y19618   1.674   7.027  16.187
  162DOPC   C3619619   1.457   7.061  16.306
  162DOPC   H6X19620   1.424   7.001  16.401
  162DOPC   H6Y19621   1.522   7.172  16.331
  162DOPC   C3719622   1.292   7.114  16.245
  162DOPC   H7X19623   1.200   7.018  16.240
  162DOPC   H7Y19624   1.241   7.200  16.318
  162DOPC   C3819625   1.304   7.201  16.111
  162DOPC   H8X19626   1.406   7.142  16.059
  162DOPC   H8Y19627   1.342   7.326  16.132
  162DOPC   C3919628   1.154   7.204  16.026
  162DOPC   H9X19629   1.038   7.226  16.076
  162DOPC  C31019630   1.154   7.177  15.894
  162DOPC  H10X19631   1.042   7.183  15.837
  162DOPC  C31119632   1.302   7.140  15.812
  162DOPC  H11X19633   1.398   7.079  15.871
  162DOPC  H11Y19634   1.355   7.252  15.770
  162DOPC  C31219635   1.254   7.024  15.701
  162DOPC  H12X19636   1.157   7.076  15.639
  162DOPC  H12Y19637   1.205   6.912  15.747
  162DOPC  C31319638   1.394   6.979  15.610
  162DOPC  H13X19639   1.511   7.008  15.658
  162DOPC  H13Y19640   1.387   6.848  15.590
  162DOPC  C31419641   1.379   7.061  15.475
  162DOPC  H14X19642   1.289   6.990  15.416
  162DOPC  H14Y19643   1.331   7.183  15.491
  162DOPC  C31519644   1.535   7.076  15.396
  162DOPC  H15X19645   1.573   6.959  15.355
  162DOPC  H15Y19646   1.632   7.120  15.463
  162DOPC  C31619647   1.513   7.196  15.282
  162DOPC  H16X19648   1.519   7.320  15.327
  162DOPC  H16Y19649   1.614   7.187  15.210
  162DOPC  C31719650   1.352   7.182  15.208
  162DOPC  H17X19651   1.248   7.172  15.276
  162DOPC  H17Y19652   1.334   7.300  15.161
  162DOPC  C31819653   1.349   7.048  15.104
  162DOPC  H18X19654   1.240   7.056  15.041
  162DOPC  H18Y19655   1.456   7.054  15.038
  162DOPC  H18Z19656   1.349   6.928  15.153
  163DOPC     N19657   0.284   3.354  16.915
  163DOPC   C1219658   0.386   3.252  16.820
  163DOPC  H12A19659   0.310   3.209  16.740
  163DOPC  H12B19660   0.432   3.148  16.872
  163DOPC   C1319661   0.136   3.264  16.949
  163DOPC  H13A19662   0.061   3.328  17.021
  163DOPC  H13B19663   0.066   3.242  16.859
  163DOPC  H13C19664   0.167   3.148  16.990
  163DOPC   C1419665   0.246   3.508  16.847
  163DOPC  H14A19666   0.358   3.562  16.814
  163DOPC  H14B19667   0.176   3.487  16.757
  163DOPC  H14C19668   0.180   3.592  16.909
  163DOPC   C1519669   0.380   3.388  17.039
  163DOPC  H15A19670   0.317   3.460  17.110
  163DOPC  H15B19671   0.491   3.450  17.012
  163DOPC  H15C19672   0.422   3.277  17.087
  163DOPC   C1119673   0.534   3.332  16.751
  163DOPC  H11A19674   0.584   3.248  16.676
  163DOPC  H11B19675   0.496   3.440  16.694
  163DOPC     P19676   0.760   3.248  16.922
  163DOPC   O1319677   0.706   3.256  17.063
  163DOPC   O1419678   0.931   3.275  16.894
  163DOPC   O1219679   0.653   3.378  16.845
  163DOPC   O1119680   0.694   3.085  16.859
  163DOPC    C119681   0.800   2.962  16.817
  163DOPC    HA19682   0.791   2.860  16.888
  163DOPC    HB19683   0.930   2.999  16.813
  163DOPC    C219684   0.758   2.903  16.674
  163DOPC    HS19685   0.829   2.791  16.657
  163DOPC   O2119686   0.793   3.031  16.582
  163DOPC   C2119687   0.914   3.000  16.503
  163DOPC   O2219688   0.989   2.874  16.498
  163DOPC   C2219689   0.949   3.140  16.413
  163DOPC   H2R19690   1.080   3.140  16.393
  163DOPC   H2S19691   0.913   3.256  16.460
  163DOPC    C319692   0.581   2.855  16.656
  163DOPC    HX19693   0.503   2.953  16.693
  163DOPC    HY19694   0.558   2.748  16.720
  163DOPC   O3119695   0.552   2.813  16.518
  163DOPC   C3119696   0.500   2.933  16.441
  163DOPC   O3219697   0.457   3.064  16.481
  163DOPC   C3219698   0.505   2.885  16.293
  163DOPC   H2X19699   0.632   2.867  16.264
  163DOPC   H2Y19700   0.444   2.768  16.283
  163DOPC   C2319701   0.865   3.113  16.282
  163DOPC   H3R19702   0.733   3.121  16.295
  163DOPC   H3S19703   0.892   2.990  16.240
  163DOPC   C2419704   0.919   3.239  16.182
  163DOPC   H4R19705   1.052   3.232  16.167
  163DOPC   H4S19706   0.886   3.359  16.220
  163DOPC   C2519707   0.830   3.197  16.057
  163DOPC   H5R19708   0.698   3.210  16.076
  163DOPC   H5S19709   0.857   3.067  16.038
  163DOPC   C2619710   0.870   3.286  15.930
  163DOPC   H6R19711   1.000   3.275  15.907
  163DOPC   H6S19712   0.839   3.414  15.934
  163DOPC   C2719713   0.764   3.200  15.828
  163DOPC   H7R19714   0.638   3.242  15.837
  163DOPC   H7S19715   0.760   3.071  15.855
  163DOPC   C2819716   0.828   3.203  15.688
  163DOPC   H8R19717   0.809   3.080  15.651
  163DOPC   H8S19718   0.961   3.216  15.688
  163DOPC   C2919719   0.754   3.336  15.609
  163DOPC   H9R19720   0.853   3.413  15.575
  163DOPC  C21019721   0.602   3.386  15.583
  163DOPC  H10R19722   0.599   3.502  15.530
  163DOPC  C21119723   0.428   3.342  15.615
  163DOPC  H11R19724   0.382   3.407  15.705
  163DOPC  H11S19725   0.402   3.214  15.634
  163DOPC  C21219726   0.328   3.406  15.495
  163DOPC  H12R19727   0.401   3.397  15.402
  163DOPC  H12S19728   0.304   3.536  15.507
  163DOPC  C21319729   0.169   3.318  15.465
  163DOPC  H13R19730   0.077   3.356  15.539
  163DOPC  H13S19731   0.187   3.186  15.478
  163DOPC  C21419732   0.106   3.346  15.322
  163DOPC  H14R19733   0.064   3.472  15.315
  163DOPC  H14S19734  -0.004   3.270  15.308
  163DOPC  C21519735   0.224   3.313  15.205
  163DOPC  H15R19736   0.299   3.422  15.190
  163DOPC  H15S19737   0.150   3.300  15.113
  163DOPC  C21619738   0.340   3.168  15.218
  163DOPC  H16R19739   0.272   3.064  15.259
  163DOPC  H16S19740   0.434   3.193  15.292
  163DOPC  C21719741   0.424   3.119  15.085
  163DOPC  H17R19742   0.533   3.197  15.077
  163DOPC  H17S19743   0.344   3.146  14.999
  163DOPC  C21819744   0.479   2.945  15.072
  163DOPC  H18R19745   0.431   2.872  15.155
  163DOPC  H18S19746   0.611   2.940  15.068
  163DOPC  H18T19747   0.446   2.874  14.985
  163DOPC   C3319748   0.427   3.016  16.203
  163DOPC   H3X19749   0.481   3.134  16.229
  163DOPC   H3Y19750   0.296   3.024  16.223
  163DOPC   C3419751   0.450   2.993  16.052
  163DOPC   H4X19752   0.578   2.983  16.025
  163DOPC   H4Y19753   0.402   3.103  16.003
  163DOPC   C3519754   0.360   2.850  15.991
  163DOPC   H5X19755   0.343   2.886  15.884
  163DOPC   H5Y19756   0.239   2.837  16.036
  163DOPC   C3619757   0.452   2.692  15.994
  163DOPC   H6X19758   0.566   2.711  15.941
  163DOPC   H6Y19759   0.484   2.657  16.098
  163DOPC   C3719760   0.366   2.550  15.926
  163DOPC   H7X19761   0.451   2.447  15.917
  163DOPC   H7Y19762   0.270   2.508  15.994
  163DOPC   C3819763   0.290   2.593  15.788
  163DOPC   H8X19764   0.236   2.713  15.787
  163DOPC   H8Y19765   0.188   2.508  15.773
  163DOPC   C3919766   0.413   2.573  15.677
  163DOPC   H9X19767   0.455   2.449  15.679
  163DOPC  C31019768   0.467   2.665  15.575
  163DOPC  H10X19769   0.556   2.608  15.508
  163DOPC  C31119770   0.426   2.832  15.526
  163DOPC  H11X19771   0.328   2.878  15.592
  163DOPC  H11Y19772   0.372   2.819  15.425
  163DOPC  C31219773   0.542   2.981  15.517
  163DOPC  H12X19774   0.569   3.019  15.621
  163DOPC  H12Y19775   0.462   3.074  15.473
  163DOPC  C31319776   0.697   3.004  15.432
  163DOPC  H13X19777   0.701   3.131  15.399
  163DOPC  H13Y19778   0.814   2.986  15.483
  163DOPC  C31419779   0.720   2.900  15.310
  163DOPC  H14X19780   0.740   2.777  15.339
  163DOPC  H14Y19781   0.600   2.893  15.272
  163DOPC  C31519782   0.850   2.971  15.217
  163DOPC  H15X19783   0.948   3.023  15.280
  163DOPC  H15Y19784   0.798   3.077  15.164
  163DOPC  C31619785   0.932   2.850  15.122
  163DOPC  H16X19786   0.973   2.916  15.032
  163DOPC  H16Y19787   1.043   2.809  15.171
  163DOPC  C31719788   0.840   2.696  15.083
  163DOPC  H17X19789   0.794   2.638  15.174
  163DOPC  H17Y19790   0.736   2.728  15.019
  163DOPC  C31819791   0.946   2.573  15.011
  163DOPC  H18X19792   1.009   2.495  15.083
  163DOPC  H18Y19793   0.871   2.494  14.945
  163DOPC  H18Z19794   1.037   2.634  14.950
  164DOPC     N19795   1.385   1.600  17.003
  164DOPC   C1219796   1.492   1.572  16.880
  164DOPC  H12A19797   1.597   1.645  16.888
  164DOPC  H12B19798   1.424   1.608  16.792
  164DOPC   C1319799   1.471   1.554  17.129
  164DOPC  H13A19800   1.589   1.610  17.139
  164DOPC  H13B19801   1.400   1.582  17.217
  164DOPC  H13C19802   1.494   1.426  17.128
  164DOPC   C1419803   1.241   1.494  16.992
  164DOPC  H14A19804   1.174   1.522  16.902
  164DOPC  H14B19805   1.284   1.370  16.978
  164DOPC  H14C19806   1.168   1.496  17.081
  164DOPC   C1519807   1.325   1.765  17.012
  164DOPC  H15A19808   1.261   1.801  16.923
  164DOPC  H15B19809   1.420   1.848  17.038
  164DOPC  H15C19810   1.241   1.777  17.096
  164DOPC   C1119811   1.547   1.399  16.849
  164DOPC  H11A19812   1.619   1.403  16.755
  164DOPC  H11B19813   1.626   1.355  16.931
  164DOPC     P19814   1.428   1.118  16.791
  164DOPC   O1319815   1.272   1.068  16.735
  164DOPC   O1419816   1.484   1.036  16.913
  164DOPC   O1219817   1.411   1.300  16.830
  164DOPC   O1119818   1.561   1.122  16.677
  164DOPC    C119819   1.724   1.078  16.698
  164DOPC    HA19820   1.733   0.956  16.744
  164DOPC    HB19821   1.783   1.164  16.767
  164DOPC    C219822   1.825   1.076  16.565
  164DOPC    HS19823   1.946   1.033  16.593
  164DOPC   O2119824   1.834   1.236  16.511
  164DOPC   C2119825   1.932   1.254  16.409
  164DOPC   O2219826   2.027   1.156  16.367
  164DOPC   C2219827   1.897   1.414  16.346
  164DOPC   H2R19828   1.956   1.508  16.406
  164DOPC   H2S19829   1.765   1.433  16.345
  164DOPC    C319830   1.757   0.958  16.457
  164DOPC    HX19831   1.754   0.841  16.510
  164DOPC    HY19832   1.841   0.941  16.372
  164DOPC   O3119833   1.597   0.996  16.413
  164DOPC   C3119834   1.579   1.067  16.295
  164DOPC   O3219835   1.684   1.084  16.211
  164DOPC   C3219836   1.408   1.128  16.285
  164DOPC   H2X19837   1.326   1.026  16.265
  164DOPC   H2Y19838   1.375   1.178  16.384
  164DOPC   C2319839   1.957   1.411  16.203
  164DOPC   H3R19840   1.907   1.306  16.148
  164DOPC   H3S19841   2.090   1.398  16.199
  164DOPC   C2419842   1.903   1.562  16.132
  164DOPC   H4R19843   1.972   1.664  16.176
  164DOPC   H4S19844   1.775   1.586  16.149
  164DOPC   C2519845   1.938   1.546  15.984
  164DOPC   H5R19846   2.052   1.477  15.973
  164DOPC   H5S19847   1.957   1.666  15.940
  164DOPC   C2619848   1.806   1.460  15.903
  164DOPC   H6R19849   1.712   1.550  15.877
  164DOPC   H6S19850   1.748   1.363  15.962
  164DOPC   C2719851   1.886   1.393  15.777
  164DOPC   H7R19852   1.957   1.284  15.804
  164DOPC   H7S19853   1.976   1.486  15.750
  164DOPC   C2819854   1.780   1.364  15.654
  164DOPC   H8R19855   1.675   1.288  15.678
  164DOPC   H8S19856   1.854   1.302  15.577
  164DOPC   C2919857   1.739   1.531  15.605
  164DOPC   H9R19858   1.847   1.601  15.586
  164DOPC  C21019859   1.604   1.589  15.551
  164DOPC  H10R19860   1.603   1.714  15.515
  164DOPC  C21119861   1.456   1.495  15.525
  164DOPC  H11R19862   1.344   1.554  15.562
  164DOPC  H11S19863   1.459   1.373  15.571
  164DOPC  C21219864   1.451   1.488  15.372
  164DOPC  H12R19865   1.403   1.603  15.332
  164DOPC  H12S19866   1.360   1.397  15.347
  164DOPC  C21319867   1.609   1.454  15.296
  164DOPC  H13R19868   1.684   1.370  15.357
  164DOPC  H13S19869   1.682   1.565  15.285
  164DOPC  C21419870   1.579   1.374  15.160
  164DOPC  H14R19871   1.464   1.316  15.163
  164DOPC  H14S19872   1.666   1.277  15.147
  164DOPC  C21519873   1.532   1.471  15.039
  164DOPC  H15R19874   1.631   1.547  14.997
  164DOPC  H15S19875   1.442   1.558  15.076
  164DOPC  C21619876   1.459   1.364  14.926
  164DOPC  H16R19877   1.558   1.307  14.869
  164DOPC  H16S19878   1.399   1.457  14.863
  164DOPC  C21719879   1.327   1.234  14.940
  164DOPC  H17R19880   1.273   1.229  15.041
  164DOPC  H17S19881   1.382   1.112  14.923
  164DOPC  C21819882   1.196   1.259  14.833
  164DOPC  H18R19883   1.243   1.235  14.732
  164DOPC  H18S19884   1.153   1.385  14.832
  164DOPC  H18T19885   1.090   1.182  14.849
  164DOPC   C3319886   1.386   1.260  16.176
  164DOPC   H3X19887   1.494   1.338  16.171
  164DOPC   H3Y19888   1.286   1.338  16.211
  164DOPC   C3419889   1.338   1.196  16.037
  164DOPC   H4X19890   1.244   1.103  16.051
  164DOPC   H4Y19891   1.442   1.134  15.990
  164DOPC   C3519892   1.277   1.330  15.941
  164DOPC   H5X19893   1.368   1.350  15.862
  164DOPC   H5Y19894   1.273   1.442  16.002
  164DOPC   C3619895   1.114   1.300  15.866
  164DOPC   H6X19896   1.038   1.229  15.930
  164DOPC   H6Y19897   1.056   1.420  15.848
  164DOPC   C3719898   1.129   1.188  15.740
  164DOPC   H7X19899   1.226   1.254  15.689
  164DOPC   H7Y19900   1.177   1.074  15.778
  164DOPC   C3819901   0.998   1.138  15.638
  164DOPC   H8X19902   1.066   1.174  15.545
  164DOPC   H8Y19903   0.912   1.238  15.631
  164DOPC   C3919904   0.916   0.974  15.608
  164DOPC   H9X19905   0.803   0.976  15.673
  164DOPC  C31019906   0.930   0.811  15.554
  164DOPC  H10X19907   0.822   0.739  15.574
  164DOPC  C31119908   1.057   0.696  15.482
  164DOPC  H11X19909   0.961   0.614  15.456
  164DOPC  H11Y19910   1.122   0.628  15.565
  164DOPC  C31219911   1.162   0.623  15.357
  164DOPC  H12X19912   1.080   0.631  15.270
  164DOPC  H12Y19913   1.158   0.490  15.381
  164DOPC  C31319914   1.345   0.628  15.292
  164DOPC  H13X19915   1.375   0.498  15.287
  164DOPC  H13Y19916   1.333   0.674  15.189
  164DOPC  C31419917   1.513   0.707  15.335
  164DOPC  H14X19918   1.556   0.642  15.423
  164DOPC  H14Y19919   1.470   0.823  15.356
  164DOPC  C31519920   1.675   0.761  15.258
  164DOPC  H15X19921   1.775   0.677  15.272
  164DOPC  H15Y19922   1.715   0.865  15.322
  164DOPC  C31619923   1.680   0.839  15.116
  164DOPC  H16X19924   1.560   0.824  15.073
  164DOPC  H16Y19925   1.679   0.971  15.132
  164DOPC  C31719926   1.823   0.802  15.013
  164DOPC  H17X19927   1.780   0.737  14.925
  164DOPC  H17Y19928   1.858   0.912  14.961
  164DOPC  C31819929   1.970   0.697  15.044
  164DOPC  H18X19930   1.976   0.661  15.151
  164DOPC  H18Y19931   1.966   0.586  14.984
  164DOPC  H18Z19932   2.082   0.758  15.014
  165DOPC     N19933   7.364   0.902  17.082
  165DOPC   C1219934   7.343   0.748  17.001
  165DOPC  H12A19935   7.218   0.712  17.009
  165DOPC  H12B19936   7.420   0.654  17.041
  165DOPC   C1319937   7.465   1.018  17.007
  165DOPC  H13A19938   7.584   0.971  16.988
  165DOPC  H13B19939   7.411   1.034  16.907
  165DOPC  H13C19940   7.468   1.135  17.052
  165DOPC   C1419941   7.430   0.866  17.216
  165DOPC  H14A19942   7.549   0.814  17.208
  165DOPC  H14B19943   7.435   0.973  17.278
  165DOPC  H14C19944   7.352   0.782  17.267
  165DOPC   C1519945   7.204   0.984  17.091
  165DOPC  H15A19946   7.165   1.019  16.991
  165DOPC  H15B19947   7.208   1.092  17.152
  165DOPC  H15C19948   7.112   0.905  17.130
  165DOPC   C1119949   7.380   0.755  16.851
  165DOPC  H11A19950   7.511   0.764  16.836
  165DOPC  H11B19951   7.342   0.641  16.802
  165DOPC     P19952   7.164   0.878  16.693
  165DOPC   O1319953   7.108   1.040  16.658
  165DOPC   O1419954   7.046   0.770  16.756
  165DOPC   O1219955   7.310   0.892  16.791
  165DOPC   O1119956   7.247   0.797  16.569
  165DOPC    C119957   7.409   0.833  16.530
  165DOPC    HA19958   7.440   0.750  16.447
  165DOPC    HB19959   7.494   0.809  16.612
  165DOPC    C219960   7.432   1.007  16.479
  165DOPC    HS19961   7.400   1.091  16.562
  165DOPC   O2119962   7.327   1.022  16.369
  165DOPC   C2119963   7.264   1.163  16.348
  165DOPC   O2219964   7.301   1.289  16.402
  165DOPC   C2219965   7.142   1.146  16.236
  165DOPC   H2R19966   7.154   1.252  16.170
  165DOPC   H2S19967   7.021   1.148  16.282
  165DOPC    C319968   7.607   1.039  16.433
  165DOPC    HX19969   7.633   0.946  16.355
  165DOPC    HY19970   7.691   1.019  16.517
  165DOPC   O3119971   7.634   1.192  16.370
  165DOPC   C3119972   7.645   1.319  16.451
  165DOPC   O3219973   7.618   1.318  16.570
  165DOPC   C3219974   7.717   1.462  16.376
  165DOPC   H2X19975   7.646   1.571  16.398
  165DOPC   H2Y19976   7.835   1.480  16.427
  165DOPC   C2319977   7.166   0.990  16.155
  165DOPC   H3R19978   7.060   0.976  16.091
  165DOPC   H3S19979   7.169   0.881  16.220
  165DOPC   C2419980   7.319   0.997  16.069
  165DOPC   H4R19981   7.428   1.007  16.133
  165DOPC   H4S19982   7.312   1.111  16.012
  165DOPC   C2519983   7.336   0.853  15.975
  165DOPC   H5R19984   7.355   0.744  16.037
  165DOPC   H5S19985   7.445   0.869  15.912
  165DOPC   C2619986   7.189   0.826  15.881
  165DOPC   H6R19987   7.100   0.751  15.936
  165DOPC   H6S19988   7.234   0.750  15.797
  165DOPC   C2719989   7.104   0.976  15.820
  165DOPC   H7R19990   7.044   1.046  15.899
  165DOPC   H7S19991   7.010   0.932  15.749
  165DOPC   C2819992   7.224   1.080  15.740
  165DOPC   H8R19993   7.262   1.002  15.658
  165DOPC   H8S19994   7.321   1.082  15.814
  165DOPC   C2919995   7.226   1.253  15.689
  165DOPC   H9R19996   7.226   1.343  15.769
  165DOPC  C21019997   7.246   1.308  15.563
  165DOPC  H10R19998   7.247   1.439  15.549
  165DOPC  C21119999   7.267   1.216  15.434
  165DOPC  H11R20000   7.152   1.217  15.379
  165DOPC  H11S20001   7.295   1.086  15.451
  165DOPC  C21220002   7.394   1.288  15.339
  165DOPC  H12R20003   7.423   1.414  15.365
  165DOPC  H12S20004   7.346   1.289  15.236
  165DOPC  C21320005   7.548   1.187  15.338
  165DOPC  H13R20006   7.519   1.057  15.329
  165DOPC  H13S20007   7.608   1.208  15.435
  165DOPC  C21420008   7.666   1.238  15.231
  165DOPC  H14R20009   7.699   1.362  15.254
  165DOPC  H14S20010   7.602   1.244  15.134
  165DOPC  C21520011   7.818   1.133  15.228
  165DOPC  H15R20012   7.793   1.019  15.176
  165DOPC  H15S20013   7.853   1.104  15.333
  165DOPC  C21620014   7.963   1.214  15.164
  165DOPC  H16R20015   7.981   1.330  15.214
  165DOPC  H16S20016   7.943   1.246  15.058
  165DOPC  C21720017   8.119   1.120  15.178
  165DOPC  H17R20018   8.119   1.020  15.104
  165DOPC  H17S20019   8.125   1.067  15.280
  165DOPC  C21820020   8.266   1.225  15.156
  165DOPC  H18R20021   8.376   1.153  15.138
  165DOPC  H18S20022   8.286   1.306  15.243
  165DOPC  H18T20023   8.243   1.300  15.066
  165DOPC   C3320024   7.751   1.434  16.224
  165DOPC   H3X20025   7.802   1.314  16.206
  165DOPC   H3Y20026   7.840   1.525  16.199
  165DOPC   C3420027   7.614   1.472  16.125
  165DOPC   H4X20028   7.597   1.603  16.146
  165DOPC   H4Y20029   7.504   1.405  16.154
  165DOPC   C3520030   7.639   1.462  15.970
  165DOPC   H5X20031   7.760   1.504  15.942
  165DOPC   H5Y20032   7.560   1.553  15.924
  165DOPC   C3620033   7.592   1.302  15.900
  165DOPC   H6X20034   7.661   1.198  15.942
  165DOPC   H6Y20035   7.459   1.282  15.911
  165DOPC   C3720036   7.598   1.300  15.745
  165DOPC   H7X20037   7.694   1.355  15.692
  165DOPC   H7Y20038   7.513   1.390  15.708
  165DOPC   C3820039   7.571   1.130  15.682
  165DOPC   H8X20040   7.476   1.138  15.607
  165DOPC   H8Y20041   7.536   1.067  15.774
  165DOPC   C3920042   7.687   1.018  15.618
  165DOPC   H9X20043   7.800   1.069  15.581
  165DOPC  C31020044   7.652   0.864  15.592
  165DOPC  H10X20045   7.747   0.790  15.552
  165DOPC  C31120046   7.504   0.767  15.613
  165DOPC  H11X20047   7.398   0.839  15.586
  165DOPC  H11Y20048   7.490   0.721  15.717
  165DOPC  C31220049   7.511   0.625  15.515
  165DOPC  H12X20050   7.608   0.541  15.545
  165DOPC  H12Y20051   7.538   0.666  15.411
  165DOPC  C31320052   7.354   0.532  15.508
  165DOPC  H13X20053   7.374   0.430  15.441
  165DOPC  H13Y20054   7.325   0.481  15.609
  165DOPC  C31420055   7.208   0.625  15.456
  165DOPC  H14X20056   7.104   0.544  15.466
  165DOPC  H14Y20057   7.183   0.732  15.520
  165DOPC  C31520058   7.220   0.679  15.309
  165DOPC  H15X20059   7.279   0.582  15.250
  165DOPC  H15Y20060   7.296   0.788  15.299
  165DOPC  C31620061   7.051   0.709  15.252
  165DOPC  H16X20062   6.964   0.636  15.310
  165DOPC  H16Y20063   7.019   0.836  15.266
  165DOPC  C31720064   7.031   0.658  15.106
  165DOPC  H17X20065   7.054   0.527  15.098
  165DOPC  H17Y20066   6.904   0.677  15.078
  165DOPC  C31820067   7.134   0.749  15.007
  165DOPC  H18X20068   7.099   0.876  15.008
  165DOPC  H18Y20069   7.264   0.738  15.031
  165DOPC  H18Z20070   7.112   0.703  14.903
  166DOPC     N20071   8.768   3.148  16.856
  166DOPC   C1220072   8.812   3.035  16.971
  166DOPC  H12A20073   8.718   2.944  16.982
  166DOPC  H12B20074   8.815   3.097  17.065
  166DOPC   C1320075   8.629   3.251  16.892
  166DOPC  H13A20076   8.526   3.175  16.913
  166DOPC  H13B20077   8.651   3.320  16.981
  166DOPC  H13C20078   8.598   3.329  16.810
  166DOPC   C1420079   8.723   3.046  16.737
  166DOPC  H14A20080   8.687   3.114  16.650
  166DOPC  H14B20081   8.824   2.970  16.710
  166DOPC  H14C20082   8.627   2.962  16.761
  166DOPC   C1520083   8.912   3.246  16.818
  166DOPC  H15A20084   9.002   3.164  16.777
  166DOPC  H15B20085   8.965   3.302  16.905
  166DOPC  H15C20086   8.885   3.335  16.742
  166DOPC   C1120087   8.968   2.936  16.954
  166DOPC  H11A20088   9.071   3.010  16.922
  166DOPC  H11B20089   9.007   2.881  17.051
  166DOPC     P20090   8.844   2.660  16.903
  166DOPC   O1320091   8.696   2.713  16.972
  166DOPC   O1420092   8.947   2.546  16.977
  166DOPC   O1220093   8.940   2.815  16.857
  166DOPC   O1120094   8.807   2.580  16.762
  166DOPC    C120095   8.952   2.558  16.684
  166DOPC    HA20096   9.037   2.476  16.735
  166DOPC    HB20097   9.016   2.674  16.668
  166DOPC    C220098   8.916   2.485  16.546
  166DOPC    HS20099   9.029   2.479  16.487
  166DOPC   O2120100   8.797   2.579  16.475
  166DOPC   C2120101   8.854   2.720  16.437
  166DOPC   O2220102   8.988   2.772  16.454
  166DOPC   C2220103   8.726   2.813  16.360
  166DOPC   H2R20104   8.741   2.944  16.380
  166DOPC   H2S20105   8.608   2.774  16.397
  166DOPC    C320106   8.857   2.311  16.563
  166DOPC    HX20107   8.770   2.303  16.647
  166DOPC    HY20108   8.962   2.234  16.590
  166DOPC   O3120109   8.795   2.258  16.438
  166DOPC   C3120110   8.638   2.276  16.425
  166DOPC   O3220111   8.544   2.297  16.516
  166DOPC   C3220112   8.600   2.270  16.277
  166DOPC   H2X20113   8.573   2.146  16.250
  166DOPC   H2Y20114   8.494   2.342  16.258
  166DOPC   C2320115   8.738   2.779  16.208
  166DOPC   H3R20116   8.627   2.822  16.157
  166DOPC   H3S20117   8.740   2.648  16.196
  166DOPC   C2420118   8.886   2.849  16.137
  166DOPC   H4R20119   8.996   2.830  16.197
  166DOPC   H4S20120   8.870   2.981  16.124
  166DOPC   C2520121   8.912   2.776  15.998
  166DOPC   H5R20122   8.938   2.645  16.006
  166DOPC   H5S20123   9.023   2.828  15.952
  166DOPC   C2620124   8.770   2.804  15.904
  166DOPC   H6R20125   8.722   2.928  15.919
  166DOPC   H6S20126   8.671   2.718  15.926
  166DOPC   C2720127   8.820   2.786  15.758
  166DOPC   H7R20128   8.896   2.676  15.754
  166DOPC   H7S20129   8.896   2.890  15.729
  166DOPC   C2820130   8.678   2.770  15.661
  166DOPC   H8R20131   8.606   2.881  15.658
  166DOPC   H8S20132   8.598   2.671  15.694
  166DOPC   C2920133   8.755   2.730  15.530
  166DOPC   H9R20134   8.848   2.638  15.537
  166DOPC  C21020135   8.735   2.801  15.413
  166DOPC  H10R20136   8.795   2.746  15.326
  166DOPC  C21120137   8.626   2.942  15.386
  166DOPC  H11R20138   8.666   3.046  15.448
  166DOPC  H11S20139   8.501   2.914  15.417
  166DOPC  C21220140   8.629   2.996  15.238
  166DOPC  H12R20141   8.561   3.108  15.224
  166DOPC  H12S20142   8.576   2.903  15.173
  166DOPC  C21320143   8.801   3.034  15.197
  166DOPC  H13R20144   8.860   2.916  15.207
  166DOPC  H13S20145   8.857   3.119  15.269
  166DOPC  C21420146   8.830   3.091  15.053
  166DOPC  H14R20147   8.778   3.212  15.037
  166DOPC  H14S20148   8.767   3.007  14.985
  166DOPC  C21520149   9.011   3.092  15.022
  166DOPC  H15R20150   9.065   3.210  15.048
  166DOPC  H15S20151   9.029   3.074  14.912
  166DOPC  C21620152   9.101   2.959  15.097
  166DOPC  H16R20153   9.040   2.844  15.074
  166DOPC  H16S20154   9.096   2.978  15.208
  166DOPC  C21720155   9.276   2.941  15.064
  166DOPC  H17R20156   9.334   3.043  15.111
  166DOPC  H17S20157   9.300   2.953  14.956
  166DOPC  C21820158   9.340   2.782  15.118
  166DOPC  H18R20159   9.404   2.796  15.214
  166DOPC  H18S20160   9.419   2.720  15.044
  166DOPC  H18T20161   9.236   2.700  15.137
  166DOPC   C3320162   8.737   2.335  16.190
  166DOPC   H3X20163   8.825   2.238  16.168
  166DOPC   H3Y20164   8.808   2.429  16.243
  166DOPC   C3420165   8.669   2.406  16.061
  166DOPC   H4X20166   8.742   2.508  16.028
  166DOPC   H4Y20167   8.543   2.447  16.070
  166DOPC   C3520168   8.688   2.279  15.956
  166DOPC   H5X20169   8.624   2.171  15.988
  166DOPC   H5Y20170   8.816   2.248  15.964
  166DOPC   C3620171   8.645   2.330  15.814
  166DOPC   H6X20172   8.514   2.352  15.805
  166DOPC   H6Y20173   8.700   2.449  15.792
  166DOPC   C3720174   8.706   2.203  15.715
  166DOPC   H7X20175   8.636   2.090  15.726
  166DOPC   H7Y20176   8.689   2.246  15.611
  166DOPC   C3820177   8.886   2.166  15.737
  166DOPC   H8X20178   8.930   2.092  15.653
  166DOPC   H8Y20179   8.903   2.094  15.828
  166DOPC   C3920180   8.976   2.321  15.752
  166DOPC   H9X20181   8.998   2.364  15.854
  166DOPC  C31020182   9.017   2.412  15.650
  166DOPC  H10X20183   9.074   2.528  15.667
  166DOPC  C31120184   8.977   2.369  15.508
  166DOPC  H11X20185   8.856   2.411  15.478
  166DOPC  H11Y20186   8.978   2.238  15.489
  166DOPC  C31220187   9.104   2.453  15.427
  166DOPC  H12X20188   9.226   2.405  15.445
  166DOPC  H12Y20189   9.108   2.584  15.450
  166DOPC  C31320190   9.068   2.432  15.281
  166DOPC  H13X20191   8.950   2.491  15.266
  166DOPC  H13Y20192   9.160   2.506  15.228
  166DOPC  C31420193   9.068   2.260  15.228
  166DOPC  H14X20194   9.181   2.197  15.252
  166DOPC  H14Y20195   8.972   2.189  15.278
  166DOPC  C31520196   9.047   2.248  15.075
  166DOPC  H15X20197   8.953   2.155  15.055
  166DOPC  H15Y20198   9.157   2.202  15.026
  166DOPC  C31620199   8.995   2.407  15.013
  166DOPC  H16X20200   9.070   2.509  15.045
  166DOPC  H16Y20201   9.007   2.404  14.903
  166DOPC  C31720202   8.819   2.430  15.050
  166DOPC  H17X20203   8.754   2.370  14.968
  166DOPC  H17Y20204   8.798   2.362  15.144
  166DOPC  C31820205   8.746   2.594  15.074
  166DOPC  H18X20206   8.834   2.683  15.109
  166DOPC  H18Y20207   8.696   2.632  14.977
  166DOPC  H18Z20208   8.644   2.588  15.145
  167DOPC     N20209   7.816   1.416  16.866
  167DOPC   C1220210   7.966   1.410  16.779
  167DOPC  H12A20211   8.035   1.518  16.802
  167DOPC  H12B20212   7.928   1.416  16.675
  167DOPC   C1320213   7.724   1.564  16.829
  167DOPC  H13A20214   7.794   1.672  16.833
  167DOPC  H13B20215   7.669   1.549  16.731
  167DOPC  H13C20216   7.626   1.578  16.900
  167DOPC   C1420217   7.862   1.423  17.009
  167DOPC  H14A20218   7.759   1.423  17.075
  167DOPC  H14B20219   7.944   1.324  17.030
  167DOPC  H14C20220   7.934   1.529  17.031
  167DOPC   C1520221   7.706   1.276  16.848
  167DOPC  H15A20222   7.686   1.247  16.743
  167DOPC  H15B20223   7.586   1.303  16.884
  167DOPC  H15C20224   7.754   1.172  16.899
  167DOPC   C1120225   8.083   1.268  16.796
  167DOPC  H11A20226   8.026   1.159  16.761
  167DOPC  H11B20227   8.184   1.284  16.724
  167DOPC     P20228   8.299   1.319  16.978
  167DOPC   O1320229   8.358   1.234  17.097
  167DOPC   O1420230   8.290   1.496  16.976
  167DOPC   O1220231   8.137   1.244  16.929
  167DOPC   O1120232   8.418   1.258  16.865
  167DOPC    C120233   8.537   1.362  16.812
  167DOPC    HA20234   8.658   1.315  16.835
  167DOPC    HB20235   8.534   1.487  16.854
  167DOPC    C220236   8.520   1.378  16.659
  167DOPC    HS20237   8.618   1.460  16.632
  167DOPC   O2120238   8.363   1.435  16.624
  167DOPC   C2120239   8.369   1.568  16.558
  167DOPC   O2220240   8.472   1.670  16.565
  167DOPC   C2220241   8.238   1.567  16.456
  167DOPC   H2R20242   8.126   1.512  16.493
  167DOPC   H2S20243   8.288   1.489  16.376
  167DOPC    C320244   8.551   1.219  16.579
  167DOPC    HX20245   8.621   1.138  16.644
  167DOPC    HY20246   8.634   1.255  16.497
  167DOPC   O3120247   8.407   1.147  16.523
  167DOPC   C3120248   8.350   1.025  16.594
  167DOPC   O3220249   8.423   0.953  16.680
  167DOPC   C3220250   8.174   0.986  16.564
  167DOPC   H2X20251   8.174   0.875  16.505
  167DOPC   H2Y20252   8.120   0.950  16.660
  167DOPC   C2320253   8.212   1.739  16.405
  167DOPC   H3R20254   8.326   1.788  16.363
  167DOPC   H3S20255   8.177   1.820  16.488
  167DOPC   C2420256   8.083   1.738  16.297
  167DOPC   H4R20257   8.075   1.859  16.253
  167DOPC   H4S20258   7.967   1.712  16.347
  167DOPC   C2520259   8.111   1.608  16.190
  167DOPC   H5R20260   8.029   1.634  16.105
  167DOPC   H5S20261   8.075   1.489  16.231
  167DOPC   C2620262   8.280   1.582  16.135
  167DOPC   H6R20263   8.320   1.456  16.151
  167DOPC   H6S20264   8.370   1.662  16.185
  167DOPC   C2720265   8.286   1.624  15.989
  167DOPC   H7R20266   8.414   1.643  15.963
  167DOPC   H7S20267   8.214   1.736  15.979
  167DOPC   C2820268   8.213   1.510  15.890
  167DOPC   H8R20269   8.080   1.501  15.904
  167DOPC   H8S20270   8.263   1.386  15.901
  167DOPC   C2920271   8.257   1.592  15.761
  167DOPC   H9R20272   8.173   1.688  15.732
  167DOPC  C21020273   8.376   1.549  15.679
  167DOPC  H10R20274   8.404   1.626  15.592
  167DOPC  C21120275   8.483   1.408  15.708
  167DOPC  H11R20276   8.486   1.393  15.818
  167DOPC  H11S20277   8.604   1.451  15.685
  167DOPC  C21220278   8.454   1.237  15.634
  167DOPC  H12R20279   8.359   1.236  15.713
  167DOPC  H12S20280   8.576   1.208  15.669
  167DOPC  C21320281   8.428   1.048  15.659
  167DOPC  H13R20282   8.311   1.012  15.616
  167DOPC  H13S20283   8.419   1.019  15.767
  167DOPC  C21420284   8.561   0.934  15.606
  167DOPC  H14R20285   8.587   0.844  15.687
  167DOPC  H14S20286   8.668   1.003  15.590
  167DOPC  C21520287   8.539   0.838  15.476
  167DOPC  H15R20288   8.488   0.719  15.499
  167DOPC  H15S20289   8.662   0.814  15.435
  167DOPC  C21620290   8.436   0.912  15.364
  167DOPC  H16R20291   8.512   0.991  15.302
  167DOPC  H16S20292   8.336   0.984  15.406
  167DOPC  C21720293   8.365   0.781  15.275
  167DOPC  H17R20294   8.276   0.835  15.206
  167DOPC  H17S20295   8.299   0.692  15.338
  167DOPC  C21820296   8.491   0.692  15.193
  167DOPC  H18R20297   8.435   0.592  15.137
  167DOPC  H18S20298   8.586   0.642  15.259
  167DOPC  H18T20299   8.548   0.775  15.120
  167DOPC   C3320300   8.071   1.120  16.501
  167DOPC   H3X20301   8.138   1.232  16.483
  167DOPC   H3Y20302   7.964   1.148  16.564
  167DOPC   C3420303   8.004   1.056  16.372
  167DOPC   H4X20304   7.938   1.154  16.319
  167DOPC   H4Y20305   7.918   0.958  16.390
  167DOPC   C3520306   8.136   0.994  16.282
  167DOPC   H5X20307   8.183   0.875  16.313
  167DOPC   H5Y20308   8.240   1.076  16.281
  167DOPC   C3620309   8.059   0.983  16.148
  167DOPC   H6X20310   7.975   1.085  16.131
  167DOPC   H6Y20311   8.155   0.989  16.071
  167DOPC   C3720312   7.968   0.827  16.129
  167DOPC   H7X20313   8.034   0.738  16.192
  167DOPC   H7Y20314   7.842   0.827  16.166
  167DOPC   C3820315   7.986   0.787  15.980
  167DOPC   H8X20316   7.944   0.667  15.954
  167DOPC   H8Y20317   8.116   0.782  15.963
  167DOPC   C3920318   7.895   0.916  15.904
  167DOPC   H9X20319   7.766   0.884  15.909
  167DOPC  C31020320   7.932   1.051  15.834
  167DOPC  H10X20321   7.831   1.126  15.803
  167DOPC  C31120322   8.077   1.152  15.805
  167DOPC  H11X20323   8.195   1.098  15.831
  167DOPC  H11Y20324   8.060   1.252  15.874
  167DOPC  C31220325   8.065   1.228  15.661
  167DOPC  H12X20326   8.034   1.136  15.585
  167DOPC  H12Y20327   8.176   1.279  15.621
  167DOPC  C31320328   7.967   1.382  15.658
  167DOPC  H13X20329   7.903   1.394  15.753
  167DOPC  H13Y20330   8.035   1.493  15.663
  167DOPC  C31420331   7.884   1.422  15.527
  167DOPC  H14X20332   7.829   1.313  15.484
  167DOPC  H14Y20333   7.784   1.508  15.549
  167DOPC  C31520334   8.003   1.500  15.431
  167DOPC  H15X20335   8.075   1.402  15.387
  167DOPC  H15Y20336   8.089   1.579  15.484
  167DOPC  C31620337   7.918   1.606  15.329
  167DOPC  H16X20338   7.802   1.550  15.303
  167DOPC  H16Y20339   7.883   1.720  15.373
  167DOPC  C31720340   8.014   1.638  15.203
  167DOPC  H17X20341   8.066   1.760  15.202
  167DOPC  H17Y20342   8.117   1.553  15.204
  167DOPC  C31820343   7.913   1.612  15.077
  167DOPC  H18X20344   7.972   1.522  15.011
  167DOPC  H18Y20345   7.793   1.565  15.102
  167DOPC  H18Z20346   7.897   1.727  15.022
  168DOPC     N20347   2.518   9.019  16.974
  168DOPC   C1220348   2.483   9.095  16.838
  168DOPC  H12A20349   2.455   9.000  16.767
  168DOPC  H12B20350   2.590   9.154  16.801
  168DOPC   C1320351   2.689   8.971  16.986
  168DOPC  H13A20352   2.711   8.918  17.084
  168DOPC  H13B20353   2.723   8.885  16.910
  168DOPC  H13C20354   2.767   9.074  16.976
  168DOPC   C1420355   2.407   8.878  16.991
  168DOPC  H14A20356   2.419   8.795  16.907
  168DOPC  H14B20357   2.420   8.819  17.086
  168DOPC  H14C20358   2.284   8.921  16.981
  168DOPC   C1520359   2.486   9.137  17.083
  168DOPC  H15A20360   2.563   9.240  17.070
  168DOPC  H15B20361   2.512   9.086  17.181
  168DOPC  H15C20362   2.363   9.178  17.075
  168DOPC   C1120363   2.342   9.217  16.826
  168DOPC  H11A20364   2.376   9.329  16.879
  168DOPC  H11B20365   2.328   9.252  16.719
  168DOPC     P20366   2.087   9.046  16.791
  168DOPC   O1320367   2.032   9.140  16.675
  168DOPC   O1420368   1.969   8.962  16.877
  168DOPC   O1220369   2.196   9.157  16.882
  168DOPC   O1120370   2.216   8.915  16.744
  168DOPC    C120371   2.162   8.754  16.718
  168DOPC    HA20372   2.029   8.737  16.728
  168DOPC    HB20373   2.220   8.675  16.792
  168DOPC    C220374   2.203   8.689  16.577
  168DOPC    HS20375   2.179   8.557  16.576
  168DOPC   O2120376   2.363   8.725  16.535
  168DOPC   C2120377   2.465   8.629  16.583
  168DOPC   O2220378   2.444   8.533  16.674
  168DOPC   C2220379   2.611   8.636  16.491
  168DOPC   H2R20380   2.672   8.519  16.500
  168DOPC   H2S20381   2.688   8.734  16.529
  168DOPC    C320382   2.104   8.758  16.463
  168DOPC    HX20383   1.976   8.730  16.477
  168DOPC    HY20384   2.148   8.690  16.372
  168DOPC   O3120385   2.131   8.928  16.452
  168DOPC   C3120386   2.087   8.976  16.333
  168DOPC   O3220387   2.026   8.886  16.251
  168DOPC   C3220388   2.126   9.152  16.311
  168DOPC   H2X20389   2.183   9.202  16.402
  168DOPC   H2Y20390   2.213   9.157  16.227
  168DOPC   C2320391   2.570   8.674  16.343
  168DOPC   H3R20392   2.453   8.618  16.320
  168DOPC   H3S20393   2.664   8.615  16.279
  168DOPC   C2420394   2.558   8.851  16.305
  168DOPC   H4R20395   2.603   8.927  16.388
  168DOPC   H4S20396   2.429   8.875  16.293
  168DOPC   C2520397   2.645   8.898  16.174
  168DOPC   H5R20398   2.672   8.789  16.114
  168DOPC   H5S20399   2.764   8.952  16.200
  168DOPC   C2620400   2.548   9.014  16.087
  168DOPC   H6R20401   2.615   9.128  16.076
  168DOPC   H6S20402   2.434   9.046  16.139
  168DOPC   C2720403   2.504   8.951  15.947
  168DOPC   H7R20404   2.617   8.936  15.888
  168DOPC   H7S20405   2.435   9.047  15.896
  168DOPC   C2820406   2.411   8.791  15.942
  168DOPC   H8R20407   2.483   8.695  15.990
  168DOPC   H8S20408   2.398   8.756  15.835
  168DOPC   C2920409   2.250   8.803  16.009
  168DOPC   H9R20410   2.255   8.815  16.119
  168DOPC  C21020411   2.105   8.804  15.950
  168DOPC  H10R20412   1.997   8.825  16.011
  168DOPC  C21120413   2.077   8.795  15.802
  168DOPC  H11R20414   1.949   8.771  15.777
  168DOPC  H11S20415   2.149   8.698  15.759
  168DOPC  C21220416   2.122   8.957  15.743
  168DOPC  H12R20417   2.243   8.995  15.774
  168DOPC  H12S20418   2.033   9.042  15.785
  168DOPC  C21320419   2.122   8.966  15.591
  168DOPC  H13R20420   2.065   9.082  15.558
  168DOPC  H13S20421   2.047   8.867  15.550
  168DOPC  C21420422   2.292   8.963  15.533
  168DOPC  H14R20423   2.363   8.867  15.583
  168DOPC  H14S20424   2.353   9.079  15.553
  168DOPC  C21520425   2.294   8.929  15.385
  168DOPC  H15R20426   2.312   8.798  15.372
  168DOPC  H15S20427   2.396   8.992  15.335
  168DOPC  C21620428   2.140   8.971  15.313
  168DOPC  H16R20429   2.110   9.101  15.317
  168DOPC  H16S20430   2.033   8.916  15.359
  168DOPC  C21720431   2.155   8.900  15.174
  168DOPC  H17R20432   2.245   8.802  15.177
  168DOPC  H17S20433   2.203   8.989  15.103
  168DOPC  C21820434   1.998   8.822  15.135
  168DOPC  H18R20435   2.005   8.693  15.153
  168DOPC  H18S20436   1.962   8.849  15.031
  168DOPC  H18T20437   1.901   8.872  15.199
  168DOPC   C3320438   1.974   9.248  16.276
  168DOPC   H3X20439   1.895   9.250  16.366
  168DOPC   H3Y20440   1.908   9.188  16.193
  168DOPC   C3420441   2.006   9.424  16.236
  168DOPC   H4X20442   2.059   9.485  16.324
  168DOPC   H4Y20443   1.890   9.484  16.214
  168DOPC   C3520444   2.118   9.445  16.116
  168DOPC   H5X20445   2.242   9.406  16.145
  168DOPC   H5Y20446   2.124   9.577  16.093
  168DOPC   C3620447   2.072   9.359  15.987
  168DOPC   H6X20448   2.050   9.229  16.003
  168DOPC   H6Y20449   1.961   9.414  15.945
  168DOPC   C3720450   2.209   9.377  15.887
  168DOPC   H7X20451   2.262   9.498  15.895
  168DOPC   H7Y20452   2.306   9.289  15.912
  168DOPC   C3820453   2.165   9.358  15.740
  168DOPC   H8X20454   2.104   9.245  15.721
  168DOPC   H8Y20455   2.284   9.347  15.691
  168DOPC   C3920456   2.059   9.487  15.682
  168DOPC   H9X20457   1.934   9.490  15.718
  168DOPC  C31020458   2.107   9.588  15.586
  168DOPC  H10X20459   2.024   9.678  15.544
  168DOPC  C31120460   2.274   9.580  15.529
  168DOPC  H11X20461   2.366   9.587  15.609
  168DOPC  H11Y20462   2.297   9.683  15.461
  168DOPC  C31220463   2.302   9.430  15.445
  168DOPC  H12X20464   2.281   9.316  15.500
  168DOPC  H12Y20465   2.430   9.427  15.415
  168DOPC  C31320466   2.190   9.427  15.324
  168DOPC  H13X20467   2.071   9.377  15.355
  168DOPC  H13Y20468   2.170   9.552  15.288
  168DOPC  C31420469   2.263   9.331  15.212
  168DOPC  H14X20470   2.297   9.209  15.245
  168DOPC  H14Y20471   2.172   9.317  15.131
  168DOPC  C31520472   2.420   9.402  15.163
  168DOPC  H15X20473   2.520   9.347  15.222
  168DOPC  H15Y20474   2.425   9.533  15.180
  168DOPC  C31620475   2.441   9.360  15.017
  168DOPC  H16X20476   2.567   9.386  14.985
  168DOPC  H16Y20477   2.422   9.228  15.012
  168DOPC  C31720478   2.323   9.448  14.924
  168DOPC  H17X20479   2.353   9.419  14.818
  168DOPC  H17Y20480   2.198   9.406  14.941
  168DOPC  C31820481   2.327   9.630  14.935
  168DOPC  H18X20482   2.452   9.674  14.918
  168DOPC  H18Y20483   2.248   9.678  14.856
  168DOPC  H18Z20484   2.282   9.672  15.033
  169DOPC     N20485   0.683   1.339  17.016
  169DOPC   C1220486   0.613   1.501  16.978
  169DOPC  H12A20487   0.618   1.519  16.871
  169DOPC  H12B20488   0.682   1.596  17.025
  169DOPC   C1320489   0.614   1.216  16.924
  169DOPC  H13A20490   0.636   1.096  16.961
  169DOPC  H13B20491   0.484   1.235  16.915
  169DOPC  H13C20492   0.661   1.225  16.824
  169DOPC   C1420493   0.638   1.298  17.158
  169DOPC  H14A20494   0.696   1.190  17.193
  169DOPC  H14B20495   0.673   1.398  17.224
  169DOPC  H14C20496   0.509   1.285  17.165
  169DOPC   C1520497   0.860   1.340  17.007
  169DOPC  H15A20498   0.906   1.351  16.906
  169DOPC  H15B20499   0.910   1.231  17.049
  169DOPC  H15C20500   0.905   1.439  17.068
  169DOPC   C1120501   0.434   1.529  17.013
  169DOPC  H11A20502   0.408   1.502  17.120
  169DOPC  H11B20503   0.413   1.661  17.004
  169DOPC     P20504   0.265   1.524  16.800
  169DOPC   O1320505   0.192   1.678  16.842
  169DOPC   O1420506   0.173   1.412  16.717
  169DOPC   O1220507   0.332   1.433  16.929
  169DOPC   O1120508   0.430   1.562  16.733
  169DOPC    C120509   0.520   1.481  16.636
  169DOPC    HA20510   0.443   1.426  16.558
  169DOPC    HB20511   0.593   1.386  16.684
  169DOPC    C220512   0.629   1.609  16.575
  169DOPC    HS20513   0.659   1.702  16.652
  169DOPC   O2120514   0.545   1.678  16.466
  169DOPC   C2120515   0.445   1.796  16.482
  169DOPC   O2220516   0.416   1.874  16.582
  169DOPC   C2220517   0.396   1.836  16.339
  169DOPC   H2R20518   0.296   1.921  16.343
  169DOPC   H2S20519   0.358   1.723  16.291
  169DOPC    C320520   0.790   1.542  16.520
  169DOPC    HX20521   0.838   1.454  16.593
  169DOPC    HY20522   0.877   1.642  16.513
  169DOPC   O3120523   0.764   1.460  16.395
  169DOPC   C3120524   0.814   1.541  16.288
  169DOPC   O3220525   0.883   1.669  16.285
  169DOPC   C3220526   0.786   1.440  16.168
  169DOPC   H2X20527   0.680   1.362  16.179
  169DOPC   H2Y20528   0.774   1.512  16.075
  169DOPC   C2320529   0.548   1.907  16.274
  169DOPC   H3R20530   0.658   1.840  16.307
  169DOPC   H3S20531   0.563   2.028  16.317
  169DOPC   C2420532   0.563   1.903  16.122
  169DOPC   H4R20533   0.691   1.928  16.096
  169DOPC   H4S20534   0.492   2.000  16.074
  169DOPC   C2520535   0.521   1.741  16.061
  169DOPC   H5R20536   0.395   1.708  16.085
  169DOPC   H5S20537   0.596   1.651  16.107
  169DOPC   C2620538   0.539   1.744  15.910
  169DOPC   H6R20539   0.574   1.624  15.871
  169DOPC   H6S20540   0.635   1.826  15.876
  169DOPC   C2720541   0.376   1.788  15.855
  169DOPC   H7R20542   0.347   1.910  15.891
  169DOPC   H7S20543   0.284   1.711  15.903
  169DOPC   C2820544   0.367   1.764  15.704
  169DOPC   H8R20545   0.242   1.742  15.669
  169DOPC   H8S20546   0.440   1.660  15.673
  169DOPC   C2920547   0.426   1.921  15.656
  169DOPC   H9R20548   0.371   2.024  15.707
  169DOPC  C21020549   0.538   1.949  15.566
  169DOPC  H10R20550   0.553   2.072  15.532
  169DOPC  C21120551   0.630   1.826  15.492
  169DOPC  H11R20552   0.605   1.865  15.388
  169DOPC  H11S20553   0.581   1.703  15.505
  169DOPC  C21220554   0.812   1.820  15.510
  169DOPC  H12R20555   0.846   1.724  15.583
  169DOPC  H12S20556   0.862   1.936  15.549
  169DOPC  C21320557   0.884   1.781  15.374
  169DOPC  H13R20558   1.016   1.757  15.381
  169DOPC  H13S20559   0.868   1.884  15.305
  169DOPC  C21420560   0.792   1.637  15.317
  169DOPC  H14R20561   0.668   1.675  15.297
  169DOPC  H14S20562   0.790   1.536  15.390
  169DOPC  C21520563   0.851   1.580  15.183
  169DOPC  H15R20564   0.869   1.687  15.119
  169DOPC  H15S20565   0.764   1.512  15.123
  169DOPC  C21620566   0.990   1.470  15.211
  169DOPC  H16R20567   0.947   1.343  15.209
  169DOPC  H16S20568   1.034   1.492  15.315
  169DOPC  C21720569   1.124   1.504  15.116
  169DOPC  H17R20570   1.084   1.460  15.016
  169DOPC  H17S20571   1.228   1.429  15.149
  169DOPC  C21820572   1.176   1.680  15.108
  169DOPC  H18R20573   1.265   1.706  15.188
  169DOPC  H18S20574   1.080   1.770  15.119
  169DOPC  H18T20575   1.234   1.703  15.010
  169DOPC   C3320576   0.938   1.345  16.146
  169DOPC   H3X20577   1.043   1.424  16.123
  169DOPC   H3Y20578   0.899   1.280  16.058
  169DOPC   C3420579   0.979   1.219  16.251
  169DOPC   H4X20580   1.007   1.284  16.346
  169DOPC   H4Y20581   1.090   1.154  16.222
  169DOPC   C3520582   0.847   1.094  16.274
  169DOPC   H5X20583   0.730   1.153  16.291
  169DOPC   H5Y20584   0.878   1.034  16.371
  169DOPC   C3620585   0.834   0.961  16.168
  169DOPC   H6X20586   0.952   0.899  16.162
  169DOPC   H6Y20587   0.748   0.871  16.205
  169DOPC   C3720588   0.782   1.006  16.024
  169DOPC   H7X20589   0.886   1.054  15.967
  169DOPC   H7Y20590   0.758   0.889  15.976
  169DOPC   C3820591   0.636   1.120  16.009
  169DOPC   H8X20592   0.684   1.238  15.978
  169DOPC   H8Y20593   0.582   1.135  16.110
  169DOPC   C3920594   0.503   1.073  15.916
  169DOPC   H9X20595   0.466   0.948  15.921
  169DOPC  C31020596   0.432   1.164  15.824
  169DOPC  H10X20597   0.334   1.111  15.765
  169DOPC  C31120598   0.470   1.336  15.790
  169DOPC  H11X20599   0.498   1.404  15.882
  169DOPC  H11Y20600   0.365   1.394  15.743
  169DOPC  C31220601   0.610   1.349  15.690
  169DOPC  H12X20602   0.726   1.339  15.745
  169DOPC  H12Y20603   0.610   1.469  15.642
  169DOPC  C31320604   0.606   1.220  15.579
  169DOPC  H13X20605   0.706   1.241  15.507
  169DOPC  H13Y20606   0.625   1.103  15.627
  169DOPC  C31420607   0.445   1.206  15.505
  169DOPC  H14X20608   0.440   1.087  15.454
  169DOPC  H14Y20609   0.343   1.212  15.575
  169DOPC  C31520610   0.422   1.338  15.401
  169DOPC  H15X20611   0.464   1.454  15.442
  169DOPC  H15Y20612   0.292   1.349  15.382
  169DOPC  C31620613   0.510   1.296  15.272
  169DOPC  H16X20614   0.640   1.280  15.294
  169DOPC  H16Y20615   0.463   1.178  15.235
  169DOPC  C31720616   0.493   1.426  15.165
  169DOPC  H17X20617   0.535   1.537  15.211
  169DOPC  H17Y20618   0.566   1.404  15.076
  169DOPC  C31820619   0.329   1.471  15.123
  169DOPC  H18X20620   0.262   1.375  15.070
  169DOPC  H18Y20621   0.269   1.496  15.217
  169DOPC  H18Z20622   0.334   1.584  15.064
  170DOPC     N20623   8.344   8.471  16.782
  170DOPC   C1220624   8.270   8.423  16.917
  170DOPC  H12A20625   8.272   8.528  16.981
  170DOPC  H12B20626   8.347   8.335  16.964
  170DOPC   C1320627   8.520   8.503  16.797
  170DOPC  H13A20628   8.566   8.556  16.705
  170DOPC  H13B20629   8.546   8.585  16.878
  170DOPC  H13C20630   8.587   8.393  16.815
  170DOPC   C1420631   8.257   8.618  16.735
  170DOPC  H14A20632   8.128   8.596  16.736
  170DOPC  H14B20633   8.272   8.717  16.806
  170DOPC  H14C20634   8.292   8.658  16.637
  170DOPC   C1520635   8.324   8.338  16.683
  170DOPC  H15A20636   8.386   8.364  16.590
  170DOPC  H15B20637   8.198   8.318  16.664
  170DOPC  H15C20638   8.372   8.225  16.721
  170DOPC   C1120639   8.095   8.359  16.920
  170DOPC  H11A20640   8.081   8.261  16.847
  170DOPC  H11B20641   8.069   8.306  17.020
  170DOPC     P20642   7.949   8.617  16.999
  170DOPC   O1320643   8.099   8.712  17.015
  170DOPC   O1420644   7.889   8.525  17.115
  170DOPC   O1220645   7.984   8.484  16.888
  170DOPC   O1120646   7.806   8.711  16.933
  170DOPC    C120647   7.810   8.777  16.801
  170DOPC    HA20648   7.932   8.818  16.771
  170DOPC    HB20649   7.733   8.887  16.803
  170DOPC    C220650   7.736   8.662  16.694
  170DOPC    HS20651   7.618   8.622  16.733
  170DOPC   O2120652   7.840   8.530  16.661
  170DOPC   C2120653   7.777   8.387  16.646
  170DOPC   O2220654   7.643   8.345  16.681
  170DOPC   C2220655   7.908   8.279  16.584
  170DOPC   H2R20656   7.939   8.191  16.663
  170DOPC   H2S20657   8.015   8.352  16.560
  170DOPC    C320658   7.711   8.754  16.563
  170DOPC    HX20659   7.643   8.864  16.584
  170DOPC    HY20660   7.636   8.677  16.497
  170DOPC   O3120661   7.871   8.791  16.512
  170DOPC   C3120662   7.901   8.725  16.394
  170DOPC   O3220663   7.799   8.676  16.318
  170DOPC   C3220664   8.081   8.713  16.365
  170DOPC   H2X20665   8.122   8.596  16.405
  170DOPC   H2Y20666   8.092   8.708  16.254
  170DOPC   C2320667   7.860   8.185  16.456
  170DOPC   H3R20668   7.736   8.134  16.467
  170DOPC   H3S20669   7.944   8.081  16.445
  170DOPC   C2420670   7.870   8.285  16.327
  170DOPC   H4R20671   7.991   8.340  16.318
  170DOPC   H4S20672   7.780   8.383  16.334
  170DOPC   C2520673   7.835   8.185  16.201
  170DOPC   H5R20674   7.714   8.131  16.211
  170DOPC   H5S20675   7.922   8.084  16.194
  170DOPC   C2620676   7.841   8.281  16.071
  170DOPC   H6R20677   7.808   8.198  15.987
  170DOPC   H6S20678   7.966   8.324  16.052
  170DOPC   C2720679   7.726   8.426  16.066
  170DOPC   H7R20680   7.781   8.526  16.122
  170DOPC   H7S20681   7.612   8.395  16.117
  170DOPC   C2820682   7.688   8.483  15.922
  170DOPC   H8R20683   7.612   8.592  15.925
  170DOPC   H8S20684   7.615   8.387  15.873
  170DOPC   C2920685   7.841   8.512  15.845
  170DOPC   H9R20686   7.871   8.416  15.773
  170DOPC  C21020687   7.939   8.639  15.853
  170DOPC  H10R20688   8.056   8.632  15.800
  170DOPC  C21120689   7.925   8.785  15.940
  170DOPC  H11R20690   8.047   8.824  15.971
  170DOPC  H11S20691   7.864   8.754  16.035
  170DOPC  C21220692   7.835   8.930  15.879
  170DOPC  H12R20693   7.876   9.040  15.934
  170DOPC  H12S20694   7.706   8.912  15.905
  170DOPC  C21320695   7.838   8.959  15.724
  170DOPC  H13R20696   7.765   9.066  15.703
  170DOPC  H13S20697   7.775   8.858  15.675
  170DOPC  C21420698   8.011   8.976  15.668
  170DOPC  H14R20699   8.040   8.849  15.682
  170DOPC  H14S20700   8.072   9.059  15.738
  170DOPC  C21520701   8.081   9.014  15.524
  170DOPC  H15R20702   8.161   9.120  15.529
  170DOPC  H15S20703   7.994   9.036  15.445
  170DOPC  C21620704   8.171   8.878  15.455
  170DOPC  H16R20705   8.096   8.771  15.480
  170DOPC  H16S20706   8.292   8.866  15.497
  170DOPC  C21720707   8.186   8.885  15.301
  170DOPC  H17R20708   8.065   8.885  15.256
  170DOPC  H17S20709   8.248   8.772  15.267
  170DOPC  C21820710   8.281   9.026  15.246
  170DOPC  H18R20711   8.302   9.013  15.136
  170DOPC  H18S20712   8.401   9.037  15.295
  170DOPC  H18T20713   8.213   9.139  15.262
  170DOPC   C3320714   8.189   8.848  16.421
  170DOPC   H3X20715   8.166   8.866  16.529
  170DOPC   H3Y20716   8.161   8.963  16.369
  170DOPC   C3420717   8.368   8.809  16.401
  170DOPC   H4X20718   8.399   8.698  16.456
  170DOPC   H4Y20719   8.442   8.909  16.441
  170DOPC   C3520720   8.413   8.785  16.254
  170DOPC   H5X20721   8.348   8.682  16.208
  170DOPC   H5Y20722   8.544   8.755  16.251
  170DOPC   C3620723   8.389   8.934  16.167
  170DOPC   H6X20724   8.261   8.946  16.137
  170DOPC   H6Y20725   8.424   9.043  16.224
  170DOPC   C3720726   8.500   8.922  16.046
  170DOPC   H7X20727   8.622   8.940  16.085
  170DOPC   H7Y20728   8.497   8.797  16.004
  170DOPC   C3820729   8.473   9.048  15.940
  170DOPC   H8X20730   8.580   9.062  15.874
  170DOPC   H8Y20731   8.447   9.167  15.985
  170DOPC   C3920732   8.336   8.987  15.859
  170DOPC   H9X20733   8.218   9.030  15.891
  170DOPC  C31020734   8.350   8.881  15.759
  170DOPC  H10X20735   8.248   8.845  15.704
  170DOPC  C31120736   8.488   8.796  15.698
  170DOPC  H11X20737   8.591   8.821  15.762
  170DOPC  H11Y20738   8.513   8.846  15.597
  170DOPC  C31220739   8.454   8.614  15.685
  170DOPC  H12X20740   8.431   8.566  15.787
  170DOPC  H12Y20741   8.563   8.555  15.645
  170DOPC  C31320742   8.311   8.569  15.593
  170DOPC  H13X20743   8.201   8.626  15.632
  170DOPC  H13Y20744   8.336   8.617  15.492
  170DOPC  C31420745   8.268   8.390  15.576
  170DOPC  H14X20746   8.371   8.326  15.532
  170DOPC  H14Y20747   8.246   8.338  15.677
  170DOPC  C31520748   8.116   8.364  15.489
  170DOPC  H15X20749   8.010   8.405  15.548
  170DOPC  H15Y20750   8.101   8.233  15.471
  170DOPC  C31620751   8.112   8.453  15.354
  170DOPC  H16X20752   8.093   8.581  15.374
  170DOPC  H16Y20753   8.228   8.442  15.300
  170DOPC  C31720754   7.973   8.405  15.260
  170DOPC  H17X20755   7.864   8.378  15.319
  170DOPC  H17Y20756   7.945   8.510  15.195
  170DOPC  C31820757   8.012   8.266  15.167
  170DOPC  H18X20758   7.914   8.245  15.094
  170DOPC  H18Y20759   8.124   8.292  15.109
  170DOPC  H18Z20760   8.032   8.153  15.224
  171DOPC     N20761   4.673   3.442  13.076
  171DOPC   C1220762   4.553   3.550  13.147
  171DOPC  H12A20763   4.616   3.641  13.205
  171DOPC  H12B20764   4.481   3.480  13.215
  171DOPC   C1320765   4.586   3.346  12.971
  171DOPC  H13A20766   4.495   3.266  13.012
  171DOPC  H13B20767   4.524   3.432  12.907
  171DOPC  H13C20768   4.667   3.281  12.906
  171DOPC   C1420769   4.758   3.332  13.171
  171DOPC  H14A20770   4.674   3.252  13.219
  171DOPC  H14B20771   4.847   3.262  13.118
  171DOPC  H14C20772   4.820   3.400  13.247
  171DOPC   C1520773   4.793   3.548  13.009
  171DOPC  H15A20774   4.886   3.484  12.956
  171DOPC  H15B20775   4.848   3.629  13.081
  171DOPC  H15C20776   4.729   3.629  12.941
  171DOPC   C1120777   4.435   3.646  13.056
  171DOPC  H11A20778   4.368   3.564  12.988
  171DOPC  H11B20779   4.339   3.698  13.121
  171DOPC     P20780   4.535   3.936  13.044
  171DOPC   O1320781   4.375   4.014  13.043
  171DOPC   O1420782   4.674   4.020  12.982
  171DOPC   O1220783   4.519   3.763  12.980
  171DOPC   O1120784   4.578   3.887  13.192
  171DOPC    C120785   4.656   4.001  13.276
  171DOPC    HA20786   4.607   3.985  13.378
  171DOPC    HB20787   4.632   4.128  13.247
  171DOPC    C220788   4.841   3.974  13.282
  171DOPC    HS20789   4.889   3.992  13.179
  171DOPC   O2120790   4.874   3.816  13.328
  171DOPC   C2120791   5.026   3.767  13.324
  171DOPC   O2220792   5.140   3.838  13.276
  171DOPC   C2220793   5.035   3.600  13.387
  171DOPC   H2R20794   5.156   3.588  13.432
  171DOPC   H2S20795   5.022   3.509  13.307
  171DOPC    C320796   4.913   4.105  13.374
  171DOPC    HX20797   4.897   4.217  13.314
  171DOPC    HY20798   5.044   4.086  13.390
  171DOPC   O3120799   4.824   4.129  13.496
  171DOPC   C3120800   4.876   4.054  13.604
  171DOPC   O3220801   4.992   3.966  13.610
  171DOPC   C3220802   4.768   4.098  13.721
  171DOPC   H2X20803   4.828   4.060  13.814
  171DOPC   H2Y20804   4.756   4.231  13.723
  171DOPC   C2320805   4.907   3.578  13.496
  171DOPC   H3R20806   4.783   3.583  13.452
  171DOPC   H3S20807   4.915   3.683  13.566
  171DOPC   C2420808   4.922   3.427  13.581
  171DOPC   H4R20809   5.050   3.412  13.613
  171DOPC   H4S20810   4.888   3.319  13.522
  171DOPC   C2520811   4.817   3.443  13.705
  171DOPC   H5R20812   4.690   3.451  13.674
  171DOPC   H5S20813   4.849   3.556  13.759
  171DOPC   C2620814   4.836   3.302  13.803
  171DOPC   H6R20815   4.956   3.308  13.851
  171DOPC   H6S20816   4.831   3.187  13.746
  171DOPC   C2720817   4.704   3.299  13.910
  171DOPC   H7R20818   4.722   3.196  13.978
  171DOPC   H7S20819   4.590   3.278  13.856
  171DOPC   C2820820   4.685   3.455  13.992
  171DOPC   H8R20821   4.574   3.442  14.054
  171DOPC   H8S20822   4.660   3.556  13.922
  171DOPC   C2920823   4.826   3.486  14.083
  171DOPC   H9R20824   4.856   3.385  14.149
  171DOPC  C21020825   4.918   3.619  14.090
  171DOPC  H10R20826   5.016   3.623  14.163
  171DOPC  C21120827   4.900   3.772  14.008
  171DOPC  H11R20828   4.818   3.752  13.921
  171DOPC  H11S20829   5.017   3.808  13.964
  171DOPC  C21220830   4.831   3.913  14.090
  171DOPC  H12R20831   4.710   3.880  14.125
  171DOPC  H12S20832   4.816   4.018  14.022
  171DOPC  C21320833   4.934   3.968  14.210
  171DOPC  H13R20834   5.063   3.967  14.181
  171DOPC  H13S20835   4.918   3.883  14.294
  171DOPC  C21420836   4.890   4.140  14.256
  171DOPC  H14R20837   4.758   4.157  14.250
  171DOPC  H14S20838   4.942   4.225  14.182
  171DOPC  C21520839   4.946   4.183  14.398
  171DOPC  H15R20840   4.973   4.315  14.403
  171DOPC  H15S20841   5.058   4.117  14.424
  171DOPC  C21620842   4.817   4.152  14.502
  171DOPC  H16R20843   4.790   4.022  14.502
  171DOPC  H16S20844   4.709   4.220  14.468
  171DOPC  C21720845   4.853   4.207  14.645
  171DOPC  H17R20846   4.735   4.237  14.694
  171DOPC  H17S20847   4.926   4.319  14.643
  171DOPC  C21820848   4.933   4.079  14.731
  171DOPC  H18R20849   4.859   3.967  14.733
  171DOPC  H18S20850   4.950   4.121  14.835
  171DOPC  H18T20851   5.053   4.048  14.689
  171DOPC   C3320852   4.600   4.019  13.708
  171DOPC   H3X20853   4.594   3.911  13.772
  171DOPC   H3Y20854   4.580   3.976  13.604
  171DOPC   C3420855   4.462   4.136  13.738
  171DOPC   H4X20856   4.345   4.079  13.709
  171DOPC   H4Y20857   4.476   4.243  13.673
  171DOPC   C3520858   4.451   4.189  13.884
  171DOPC   H5X20859   4.355   4.282  13.894
  171DOPC   H5Y20860   4.566   4.246  13.915
  171DOPC   C3620861   4.410   4.050  13.978
  171DOPC   H6X20862   4.289   4.002  13.954
  171DOPC   H6Y20863   4.498   3.952  13.963
  171DOPC   C3720864   4.417   4.097  14.126
  171DOPC   H7X20865   4.535   4.157  14.142
  171DOPC   H7Y20866   4.322   4.187  14.151
  171DOPC   C3820867   4.400   3.947  14.215
  171DOPC   H8X20868   4.430   3.839  14.154
  171DOPC   H8Y20869   4.272   3.934  14.243
  171DOPC   C3920870   4.510   3.947  14.335
  171DOPC   H9X20871   4.632   3.904  14.318
  171DOPC  C31020872   4.470   4.001  14.456
  171DOPC  H10X20873   4.558   3.996  14.538
  171DOPC  C31120874   4.314   4.072  14.495
  171DOPC  H11X20875   4.240   4.111  14.408
  171DOPC  H11Y20876   4.338   4.178  14.558
  171DOPC  C31220877   4.220   3.956  14.584
  171DOPC  H12X20878   4.298   3.925  14.670
  171DOPC  H12Y20879   4.196   3.842  14.531
  171DOPC  C31320880   4.069   4.044  14.629
  171DOPC  H13X20881   4.106   4.169  14.657
  171DOPC  H13Y20882   3.984   4.052  14.544
  171DOPC  C31420883   3.984   3.976  14.751
  171DOPC  H14X20884   3.902   4.069  14.792
  171DOPC  H14Y20885   3.907   3.875  14.718
  171DOPC  C31520886   4.098   3.917  14.861
  171DOPC  H15X20887   4.165   3.809  14.826
  171DOPC  H15Y20888   4.022   3.875  14.946
  171DOPC  C31620889   4.216   4.044  14.914
  171DOPC  H16X20890   4.303   4.079  14.836
  171DOPC  H16Y20891   4.145   4.153  14.939
  171DOPC  C31720892   4.304   3.986  15.040
  171DOPC  H17X20893   4.338   4.093  15.100
  171DOPC  H17Y20894   4.219   3.914  15.100
  171DOPC  C31820895   4.453   3.886  15.015
  171DOPC  H18X20896   4.543   3.953  14.955
  171DOPC  H18Y20897   4.510   3.852  15.113
  171DOPC  H18Z20898   4.422   3.773  14.961
  172DOPC     N20899   3.818   5.302  12.930
  172DOPC   C1220900   3.797   5.272  13.080
  172DOPC  H12A20901   3.827   5.382  13.134
  172DOPC  H12B20902   3.880   5.182  13.114
  172DOPC   C1320903   3.730   5.184  12.842
  172DOPC  H13A20904   3.780   5.064  12.842
  172DOPC  H13B20905   3.606   5.173  12.873
  172DOPC  H13C20906   3.732   5.222  12.737
  172DOPC   C1420907   3.992   5.288  12.899
  172DOPC  H14A20908   4.036   5.168  12.920
  172DOPC  H14B20909   4.014   5.312  12.794
  172DOPC  H14C20910   4.064   5.371  12.957
  172DOPC   C1520911   3.755   5.466  12.898
  172DOPC  H15A20912   3.804   5.555  12.966
  172DOPC  H15B20913   3.626   5.465  12.918
  172DOPC  H15C20914   3.776   5.500  12.795
  172DOPC   C1120915   3.629   5.226  13.133
  172DOPC  H11A20916   3.588   5.113  13.084
  172DOPC  H11B20917   3.636   5.201  13.243
  172DOPC     P20918   3.490   5.498  13.204
  172DOPC   O1320919   3.462   5.442  13.343
  172DOPC   O1420920   3.365   5.598  13.138
  172DOPC   O1220921   3.518   5.351  13.105
  172DOPC   O1120922   3.652   5.598  13.200
  172DOPC    C120923   3.659   5.735  13.290
  172DOPC    HA20924   3.550   5.755  13.353
  172DOPC    HB20925   3.673   5.845  13.229
  172DOPC    C220926   3.804   5.722  13.386
  172DOPC    HS20927   3.898   5.650  13.333
  172DOPC   O2120928   3.756   5.652  13.511
  172DOPC   C2120929   3.808   5.503  13.536
  172DOPC   O2220930   3.895   5.425  13.463
  172DOPC   C2220931   3.760   5.452  13.677
  172DOPC   H2R20932   3.782   5.321  13.685
  172DOPC   H2S20933   3.629   5.473  13.691
  172DOPC    C320934   3.881   5.890  13.413
  172DOPC    HX20935   3.917   5.939  13.314
  172DOPC    HY20936   3.991   5.875  13.473
  172DOPC   O3120937   3.769   6.000  13.473
  172DOPC   C3120938   3.774   5.999  13.605
  172DOPC   O3220939   3.893   5.977  13.674
  172DOPC   C3220940   3.605   6.022  13.657
  172DOPC   H2X20941   3.602   6.122  13.730
  172DOPC   H2Y20942   3.523   6.048  13.572
  172DOPC   C2320943   3.862   5.538  13.784
  172DOPC   H3R20944   3.895   5.660  13.747
  172DOPC   H3S20945   3.971   5.466  13.801
  172DOPC   C2420946   3.779   5.564  13.918
  172DOPC   H4R20947   3.656   5.603  13.892
  172DOPC   H4S20948   3.838   5.666  13.971
  172DOPC   C2520949   3.780   5.418  14.013
  172DOPC   H5R20950   3.709   5.320  13.968
  172DOPC   H5S20951   3.716   5.449  14.108
  172DOPC   C2620952   3.946   5.357  14.057
  172DOPC   H6R20953   4.006   5.298  13.971
  172DOPC   H6S20954   3.925   5.260  14.133
  172DOPC   C2720955   4.063   5.480  14.119
  172DOPC   H7R20956   4.108   5.562  14.040
  172DOPC   H7S20957   4.168   5.414  14.160
  172DOPC   C2820958   3.995   5.585  14.233
  172DOPC   H8R20959   3.908   5.669  14.188
  172DOPC   H8S20960   4.093   5.660  14.276
  172DOPC   C2920961   3.917   5.480  14.338
  172DOPC   H9R20962   3.823   5.400  14.300
  172DOPC  C21020963   3.936   5.486  14.471
  172DOPC  H10R20964   3.864   5.402  14.531
  172DOPC  C21120965   4.039   5.599  14.551
  172DOPC  H11R20966   4.123   5.669  14.487
  172DOPC  H11S20967   4.114   5.531  14.622
  172DOPC  C21220968   3.935   5.719  14.629
  172DOPC  H12R20969   3.877   5.806  14.558
  172DOPC  H12S20970   4.012   5.790  14.698
  172DOPC  C21320971   3.799   5.641  14.711
  172DOPC  H13R20972   3.710   5.592  14.641
  172DOPC  H13S20973   3.736   5.735  14.767
  172DOPC  C21420974   3.847   5.498  14.799
  172DOPC  H14R20975   3.907   5.404  14.739
  172DOPC  H14S20976   3.736   5.444  14.840
  172DOPC  C21520977   3.956   5.545  14.915
  172DOPC  H15R20978   4.066   5.608  14.876
  172DOPC  H15S20979   3.996   5.435  14.968
  172DOPC  C21620980   3.866   5.652  15.013
  172DOPC  H16R20981   3.761   5.585  15.052
  172DOPC  H16S20982   3.824   5.761  14.960
  172DOPC  C21720983   3.967   5.712  15.128
  172DOPC  H17R20984   4.013   5.833  15.100
  172DOPC  H17S20985   4.068   5.627  15.145
  172DOPC  C21820986   3.872   5.731  15.255
  172DOPC  H18R20987   3.858   5.612  15.306
  172DOPC  H18S20988   3.755   5.780  15.226
  172DOPC  H18T20989   3.929   5.816  15.326
  172DOPC   C3320990   3.547   5.868  13.725
  172DOPC   H3X20991   3.616   5.852  13.819
  172DOPC   H3Y20992   3.569   5.759  13.663
  172DOPC   C3420993   3.367   5.879  13.749
  172DOPC   H4X20994   3.299   5.843  13.658
  172DOPC   H4Y20995   3.336   6.005  13.772
  172DOPC   C3520996   3.314   5.780  13.868
  172DOPC   H5X20997   3.353   5.653  13.855
  172DOPC   H5Y20998   3.181   5.790  13.875
  172DOPC   C3620999   3.374   5.845  14.000
  172DOPC   H6X21000   3.505   5.862  13.992
  172DOPC   H6Y21001   3.331   5.969  14.015
  172DOPC   C3721002   3.329   5.730  14.113
  172DOPC   H7X21003   3.300   5.790  14.209
  172DOPC   H7Y21004   3.221   5.659  14.085
  172DOPC   C3821005   3.473   5.622  14.132
  172DOPC   H8X21006   3.503   5.576  14.031
  172DOPC   H8Y21007   3.446   5.510  14.189
  172DOPC   C3921008   3.605   5.724  14.191
  172DOPC   H9X21009   3.685   5.786  14.120
  172DOPC  C31021010   3.632   5.736  14.321
  172DOPC  H10X21011   3.738   5.802  14.357
  172DOPC  C31121012   3.535   5.645  14.420
  172DOPC  H11X21013   3.617   5.558  14.468
  172DOPC  H11Y21014   3.440   5.568  14.377
  172DOPC  C31221015   3.454   5.752  14.523
  172DOPC  H12X21016   3.355   5.821  14.476
  172DOPC  H12Y21017   3.542   5.837  14.566
  172DOPC  C31321018   3.388   5.640  14.630
  172DOPC  H13X21019   3.283   5.575  14.586
  172DOPC  H13Y21020   3.476   5.544  14.654
  172DOPC  C31421021   3.336   5.718  14.761
  172DOPC  H14X21022   3.211   5.760  14.742
  172DOPC  H14Y21023   3.334   5.621  14.838
  172DOPC  C31521024   3.425   5.861  14.822
  172DOPC  H15X21025   3.330   5.941  14.861
  172DOPC  H15Y21026   3.494   5.930  14.748
  172DOPC  C31621027   3.524   5.819  14.945
  172DOPC  H16X21028   3.566   5.693  14.934
  172DOPC  H16Y21029   3.630   5.899  14.949
  172DOPC  C31721030   3.433   5.836  15.078
  172DOPC  H17X21031   3.328   5.753  15.077
  172DOPC  H17Y21032   3.515   5.792  15.158
  172DOPC  C31821033   3.379   6.005  15.116
  172DOPC  H18X21034   3.331   6.006  15.220
  172DOPC  H18Y21035   3.480   6.091  15.110
  172DOPC  H18Z21036   3.282   6.046  15.048
  173DOPC     N21037   2.492   3.607  12.880
  173DOPC   C1221038   2.627   3.553  12.973
  173DOPC  H12A21039   2.743   3.586  12.931
  173DOPC  H12B21040   2.629   3.424  12.976
  173DOPC   C1321041   2.528   3.550  12.741
  173DOPC  H13A21042   2.436   3.589  12.672
  173DOPC  H13B21043   2.644   3.594  12.707
  173DOPC  H13C21044   2.536   3.420  12.737
  173DOPC   C1421045   2.488   3.787  12.877
  173DOPC  H14A21046   2.478   3.830  12.980
  173DOPC  H14B21047   2.602   3.835  12.843
  173DOPC  H14C21048   2.392   3.834  12.817
  173DOPC   C1521049   2.334   3.546  12.929
  173DOPC  H15A21050   2.321   3.570  13.035
  173DOPC  H15B21051   2.327   3.416  12.916
  173DOPC  H15C21052   2.231   3.598  12.878
  173DOPC   C1121053   2.626   3.619  13.118
  173DOPC  H11A21054   2.510   3.583  13.166
  173DOPC  H11B21055   2.725   3.562  13.174
  173DOPC     P21056   2.635   3.886  13.256
  173DOPC   O1321057   2.620   4.061  13.224
  173DOPC   O1421058   2.764   3.832  13.347
  173DOPC   O1221059   2.648   3.790  13.119
  173DOPC   O1121060   2.464   3.828  13.309
  173DOPC    C121061   2.321   3.872  13.238
  173DOPC    HA21062   2.278   3.769  13.177
  173DOPC    HB21063   2.344   3.974  13.168
  173DOPC    C221064   2.176   3.930  13.327
  173DOPC    HS21065   2.084   3.980  13.259
  173DOPC   O2121066   2.231   4.049  13.419
  173DOPC   C2121067   2.135   4.163  13.462
  173DOPC   O2221068   2.014   4.210  13.407
  173DOPC   C2221069   2.226   4.254  13.573
  173DOPC   H2R21070   2.182   4.204  13.669
  173DOPC   H2S21071   2.191   4.381  13.569
  173DOPC    C321072   2.093   3.791  13.406
  173DOPC    HX21073   2.050   3.703  13.331
  173DOPC    HY21074   1.982   3.839  13.457
  173DOPC   O3121075   2.197   3.708  13.499
  173DOPC   C3121076   2.206   3.774  13.619
  173DOPC   O3221077   2.142   3.899  13.653
  173DOPC   C3221078   2.287   3.658  13.715
  173DOPC   H2X21079   2.286   3.535  13.671
  173DOPC   H2Y21080   2.414   3.697  13.727
  173DOPC   C2321081   2.412   4.237  13.572
  173DOPC   H3R21082   2.470   4.351  13.541
  173DOPC   H3S21083   2.460   4.142  13.504
  173DOPC   C2421084   2.472   4.192  13.711
  173DOPC   H4R21085   2.426   4.069  13.736
  173DOPC   H4S21086   2.420   4.277  13.784
  173DOPC   C2521087   2.656   4.189  13.723
  173DOPC   H5R21088   2.699   4.314  13.716
  173DOPC   H5S21089   2.707   4.121  13.637
  173DOPC   C2621090   2.712   4.109  13.854
  173DOPC   H6R21091   2.845   4.109  13.860
  173DOPC   H6S21092   2.674   3.982  13.845
  173DOPC   C2721093   2.639   4.184  13.980
  173DOPC   H7R21094   2.508   4.205  13.967
  173DOPC   H7S21095   2.694   4.302  14.000
  173DOPC   C2821096   2.656   4.087  14.108
  173DOPC   H8R21097   2.604   4.152  14.192
  173DOPC   H8S21098   2.784   4.073  14.131
  173DOPC   C2921099   2.564   3.936  14.084
  173DOPC   H9R21100   2.630   3.834  14.041
  173DOPC  C21021101   2.411   3.913  14.112
  173DOPC  H10R21102   2.363   3.797  14.090
  173DOPC  C21121103   2.285   4.019  14.173
  173DOPC  H11R21104   2.172   4.000  14.117
  173DOPC  H11S21105   2.314   4.148  14.168
  173DOPC  C21221106   2.263   3.956  14.318
  173DOPC  H12R21107   2.140   3.988  14.352
  173DOPC  H12S21108   2.350   4.018  14.387
  173DOPC  C21321109   2.290   3.774  14.333
  173DOPC  H13R21110   2.419   3.744  14.337
  173DOPC  H13S21111   2.236   3.713  14.245
  173DOPC  C21421112   2.202   3.697  14.450
  173DOPC  H14R21113   2.076   3.738  14.440
  173DOPC  H14S21114   2.254   3.740  14.545
  173DOPC  C21521115   2.204   3.512  14.440
  173DOPC  H15R21116   2.330   3.473  14.450
  173DOPC  H15S21117   2.161   3.478  14.339
  173DOPC  C21621118   2.100   3.425  14.543
  173DOPC  H16R21119   2.134   3.295  14.544
  173DOPC  H16S21120   1.973   3.431  14.512
  173DOPC  C21721121   2.122   3.492  14.683
  173DOPC  H17R21122   2.040   3.430  14.754
  173DOPC  H17S21123   2.093   3.620  14.691
  173DOPC  C21821124   2.294   3.482  14.728
  173DOPC  H18R21125   2.364   3.582  14.683
  173DOPC  H18S21126   2.352   3.368  14.698
  173DOPC  H18T21127   2.294   3.493  14.838
  173DOPC   C3321128   2.198   3.661  13.850
  173DOPC   H3X21129   2.076   3.610  13.841
  173DOPC   H3Y21130   2.185   3.788  13.883
  173DOPC   C3421131   2.292   3.576  13.961
  173DOPC   H4X21132   2.234   3.605  14.058
  173DOPC   H4Y21133   2.417   3.624  13.959
  173DOPC   C3521134   2.303   3.395  13.952
  173DOPC   H5X21135   2.338   3.365  13.849
  173DOPC   H5Y21136   2.184   3.338  13.973
  173DOPC   C3621137   2.431   3.325  14.046
  173DOPC   H6X21138   2.432   3.196  14.022
  173DOPC   H6Y21139   2.552   3.376  14.023
  173DOPC   C3721140   2.402   3.338  14.197
  173DOPC   H7X21141   2.436   3.461  14.233
  173DOPC   H7Y21142   2.272   3.319  14.214
  173DOPC   C3821143   2.497   3.209  14.275
  173DOPC   H8X21144   2.624   3.218  14.243
  173DOPC   H8Y21145   2.452   3.092  14.235
  173DOPC   C3921146   2.489   3.199  14.425
  173DOPC   H9X21147   2.389   3.128  14.465
  173DOPC  C31021148   2.590   3.270  14.513
  173DOPC  H10X21149   2.570   3.250  14.620
  173DOPC  C31121150   2.732   3.376  14.481
  173DOPC  H11X21151   2.764   3.371  14.373
  173DOPC  H11Y21152   2.840   3.334  14.537
  173DOPC  C31221153   2.701   3.553  14.518
  173DOPC  H12X21154   2.586   3.594  14.473
  173DOPC  H12Y21155   2.798   3.628  14.473
  173DOPC  C31321156   2.701   3.583  14.670
  173DOPC  H13X21157   2.616   3.500  14.720
  173DOPC  H13Y21158   2.822   3.553  14.708
  173DOPC  C31421159   2.660   3.756  14.714
  173DOPC  H14X21160   2.707   3.844  14.640
  173DOPC  H14Y21161   2.528   3.773  14.715
  173DOPC  C31521162   2.731   3.799  14.853
  173DOPC  H15X21163   2.695   3.923  14.880
  173DOPC  H15Y21164   2.863   3.800  14.851
  173DOPC  C31621165   2.689   3.680  14.965
  173DOPC  H16X21166   2.734   3.558  14.940
  173DOPC  H16Y21167   2.748   3.719  15.060
  173DOPC  C31721168   2.510   3.676  14.984
  173DOPC  H17X21169   2.459   3.636  14.889
  173DOPC  H17Y21170   2.473   3.587  15.059
  173DOPC  C31821171   2.440   3.838  15.014
  173DOPC  H18X21172   2.488   3.892  15.107
  173DOPC  H18Y21173   2.453   3.923  14.930
  173DOPC  H18Z21174   2.310   3.812  15.021
  174DOPC     N21175   5.861   2.946  13.025
  174DOPC   C1221176   5.941   2.816  12.940
  174DOPC  H12A21177   6.061   2.858  12.917
  174DOPC  H12B21178   5.880   2.803  12.844
  174DOPC   C1321179   5.803   3.078  12.936
  174DOPC  H13A21180   5.771   3.184  12.992
  174DOPC  H13B21181   5.899   3.114  12.867
  174DOPC  H13C21182   5.705   3.038  12.874
  174DOPC   C1421183   5.988   3.007  13.119
  174DOPC  H14A21184   6.055   2.904  13.157
  174DOPC  H14B21185   6.078   3.079  13.068
  174DOPC  H14C21186   5.944   3.072  13.204
  174DOPC   C1521187   5.724   2.875  13.101
  174DOPC  H15A21188   5.766   2.771  13.157
  174DOPC  H15B21189   5.629   2.834  13.036
  174DOPC  H15C21190   5.675   2.963  13.169
  174DOPC   C1121191   5.958   2.646  13.000
  174DOPC  H11A21192   5.838   2.592  13.016
  174DOPC  H11B21193   6.019   2.566  12.926
  174DOPC     P21194   6.227   2.629  13.131
  174DOPC   O1321195   6.295   2.785  13.091
  174DOPC   O1421196   6.277   2.491  13.049
  174DOPC   O1221197   6.038   2.648  13.126
  174DOPC   O1121198   6.264   2.602  13.284
  174DOPC    C121199   6.136   2.588  13.379
  174DOPC    HA21200   6.182   2.534  13.473
  174DOPC    HB21201   6.040   2.507  13.341
  174DOPC    C221202   6.059   2.754  13.415
  174DOPC    HS21203   6.043   2.821  13.320
  174DOPC   O2121204   6.162   2.840  13.505
  174DOPC   C2121205   6.126   2.994  13.514
  174DOPC   O2221206   6.026   3.064  13.444
  174DOPC   C2221207   6.222   3.072  13.626
  174DOPC   H2R21208   6.310   3.155  13.580
  174DOPC   H2S21209   6.289   2.977  13.681
  174DOPC    C321210   5.890   2.729  13.477
  174DOPC    HX21211   5.814   2.675  13.397
  174DOPC    HY21212   5.834   2.845  13.506
  174DOPC   O3121213   5.904   2.627  13.591
  174DOPC   C3121214   5.768   2.557  13.627
  174DOPC   O3221215   5.639   2.576  13.573
  174DOPC   C3221216   5.797   2.446  13.745
  174DOPC   H2X21217   5.699   2.464  13.818
  174DOPC   H2Y21218   5.786   2.322  13.706
  174DOPC   C2321219   6.108   3.162  13.722
  174DOPC   H3R21220   6.059   3.270  13.672
  174DOPC   H3S21221   6.180   3.204  13.809
  174DOPC   C2421222   5.969   3.056  13.771
  174DOPC   H4R21223   5.998   2.926  13.762
  174DOPC   H4S21224   5.864   3.079  13.704
  174DOPC   C2521225   5.918   3.091  13.915
  174DOPC   H5R21226   5.791   3.053  13.928
  174DOPC   H5S21227   5.924   3.223  13.931
  174DOPC   C2621228   6.019   3.005  14.022
  174DOPC   H6R21229   6.149   3.014  13.998
  174DOPC   H6S21230   5.987   2.875  14.023
  174DOPC   C2721231   5.984   3.079  14.159
  174DOPC   H7R21232   5.852   3.070  14.178
  174DOPC   H7S21233   6.014   3.210  14.150
  174DOPC   C2821234   6.073   3.013  14.283
  174DOPC   H8R21235   6.071   3.109  14.361
  174DOPC   H8S21236   6.202   2.996  14.257
  174DOPC   C2921237   6.000   2.861  14.336
  174DOPC   H9R21238   6.034   2.753  14.279
  174DOPC  C21021239   5.899   2.842  14.441
  174DOPC  H10R21240   5.855   2.719  14.460
  174DOPC  C21121241   5.832   2.964  14.536
  174DOPC  H11R21242   5.702   2.987  14.514
  174DOPC  H11S21243   5.892   3.083  14.524
  174DOPC  C21221244   5.849   2.917  14.685
  174DOPC  H12R21245   5.776   3.001  14.746
  174DOPC  H12S21246   5.977   2.934  14.712
  174DOPC  C21321247   5.806   2.746  14.731
  174DOPC  H13R21248   5.860   2.731  14.832
  174DOPC  H13S21249   5.861   2.651  14.668
  174DOPC  C21421250   5.627   2.713  14.751
  174DOPC  H14R21251   5.558   2.712  14.656
  174DOPC  H14S21252   5.578   2.814  14.813
  174DOPC  C21521253   5.599   2.555  14.826
  174DOPC  H15R21254   5.503   2.579  14.899
  174DOPC  H15S21255   5.710   2.524  14.882
  174DOPC  C21621256   5.544   2.416  14.736
  174DOPC  H16R21257   5.624   2.407  14.648
  174DOPC  H16S21258   5.422   2.448  14.699
  174DOPC  C21721259   5.537   2.250  14.804
  174DOPC  H17R21260   5.473   2.164  14.738
  174DOPC  H17S21261   5.466   2.260  14.897
  174DOPC  C21821262   5.694   2.167  14.832
  174DOPC  H18R21263   5.675   2.063  14.899
  174DOPC  H18S21264   5.773   2.250  14.884
  174DOPC  H18T21265   5.753   2.128  14.738
  174DOPC   C3321266   5.960   2.465  13.816
  174DOPC   H3X21267   5.984   2.593  13.841
  174DOPC   H3Y21268   6.058   2.424  13.747
  174DOPC   C3421269   5.965   2.370  13.946
  174DOPC   H4X21270   5.903   2.254  13.933
  174DOPC   H4Y21271   5.898   2.438  14.023
  174DOPC   C3521272   6.139   2.354  13.994
  174DOPC   H5X21273   6.222   2.366  13.906
  174DOPC   H5Y21274   6.164   2.236  14.039
  174DOPC   C3621275   6.174   2.489  14.095
  174DOPC   H6X21276   6.131   2.605  14.053
  174DOPC   H6Y21277   6.104   2.465  14.187
  174DOPC   C3721278   6.352   2.509  14.129
  174DOPC   H7X21279   6.401   2.392  14.162
  174DOPC   H7Y21280   6.416   2.548  14.038
  174DOPC   C3821281   6.378   2.633  14.242
  174DOPC   H8X21282   6.317   2.590  14.334
  174DOPC   H8Y21283   6.323   2.750  14.218
  174DOPC   C3921284   6.557   2.648  14.258
  174DOPC   H9X21285   6.616   2.729  14.186
  174DOPC  C31021286   6.644   2.579  14.355
  174DOPC  H10X21287   6.775   2.600  14.361
  174DOPC  C31121288   6.572   2.477  14.463
  174DOPC  H11X21289   6.662   2.396  14.511
  174DOPC  H11Y21290   6.478   2.398  14.421
  174DOPC  C31221291   6.498   2.590  14.567
  174DOPC  H12X21292   6.425   2.683  14.515
  174DOPC  H12Y21293   6.592   2.654  14.624
  174DOPC  C31321294   6.380   2.506  14.661
  174DOPC  H13X21295   6.313   2.412  14.607
  174DOPC  H13Y21296   6.448   2.446  14.743
  174DOPC  C31421297   6.260   2.629  14.713
  174DOPC  H14X21298   6.206   2.700  14.630
  174DOPC  H14Y21299   6.156   2.567  14.757
  174DOPC  C31521300   6.337   2.746  14.811
  174DOPC  H15X21301   6.232   2.788  14.869
  174DOPC  H15Y21302   6.392   2.850  14.760
  174DOPC  C31621303   6.458   2.676  14.911
  174DOPC  H16X21304   6.434   2.546  14.928
  174DOPC  H16Y21305   6.584   2.687  14.874
  174DOPC  C31721306   6.437   2.768  15.041
  174DOPC  H17X21307   6.461   2.897  15.025
  174DOPC  H17Y21308   6.307   2.759  15.068
  174DOPC  C31821309   6.532   2.704  15.159
  174DOPC  H18X21310   6.664   2.712  15.147
  174DOPC  H18Y21311   6.493   2.761  15.253
  174DOPC  H18Z21312   6.502   2.576  15.169
  175DOPC     N21313   3.793   6.821  13.052
  175DOPC   C1221314   3.763   7.000  13.031
  175DOPC  H12A21315   3.683   7.018  12.946
  175DOPC  H12B21316   3.875   7.056  13.004
  175DOPC   C1321317   3.908   6.766  12.946
  175DOPC  H13A21318   3.847   6.756  12.850
  175DOPC  H13B21319   4.007   6.848  12.935
  175DOPC  H13C21320   3.955   6.647  12.968
  175DOPC   C1421321   3.638   6.732  13.035
  175DOPC  H14A21322   3.654   6.604  13.044
  175DOPC  H14B21323   3.548   6.774  13.106
  175DOPC  H14C21324   3.589   6.752  12.935
  175DOPC   C1521325   3.858   6.784  13.189
  175DOPC  H15A21326   3.976   6.836  13.205
  175DOPC  H15B21327   3.871   6.656  13.205
  175DOPC  H15C21328   3.775   6.830  13.263
  175DOPC   C1121329   3.685   7.096  13.146
  175DOPC  H11A21330   3.751   7.078  13.242
  175DOPC  H11B21331   3.691   7.226  13.124
  175DOPC     P21332   3.378   7.142  13.101
  175DOPC   O1321333   3.389   7.150  12.954
  175DOPC   O1421334   3.371   7.300  13.169
  175DOPC   O1221335   3.524   7.043  13.162
  175DOPC   O1121336   3.229   7.038  13.144
  175DOPC    C121337   3.234   6.899  13.227
  175DOPC    HA21338   3.336   6.817  13.203
  175DOPC    HB21339   3.122   6.830  13.205
  175DOPC    C221340   3.230   6.936  13.380
  175DOPC    HS21341   3.138   7.030  13.397
  175DOPC   O2121342   3.388   6.986  13.424
  175DOPC   C2121343   3.395   7.048  13.545
  175DOPC   O2221344   3.284   7.063  13.623
  175DOPC   C2221345   3.570   7.094  13.571
  175DOPC   H2R21346   3.598   7.201  13.510
  175DOPC   H2S21347   3.646   6.992  13.536
  175DOPC    C321348   3.179   6.780  13.453
  175DOPC    HX21349   3.054   6.754  13.419
  175DOPC    HY21350   3.170   6.799  13.563
  175DOPC   O3121351   3.284   6.649  13.414
  175DOPC   C3121352   3.395   6.607  13.504
  175DOPC   O3221353   3.402   6.656  13.618
  175DOPC   C3221354   3.514   6.492  13.440
  175DOPC   H2X21355   3.450   6.424  13.362
  175DOPC   H2Y21356   3.606   6.563  13.389
  175DOPC   C2321357   3.608   7.126  13.720
  175DOPC   H3R21358   3.736   7.090  13.736
  175DOPC   H3S21359   3.535   7.048  13.787
  175DOPC   C2421360   3.595   7.303  13.759
  175DOPC   H4R21361   3.469   7.344  13.746
  175DOPC   H4S21362   3.672   7.374  13.689
  175DOPC   C2521363   3.655   7.333  13.902
  175DOPC   H5R21364   3.671   7.464  13.919
  175DOPC   H5S21365   3.773   7.273  13.910
  175DOPC   C2621366   3.550   7.264  14.013
  175DOPC   H6R21367   3.616   7.265  14.110
  175DOPC   H6S21368   3.522   7.136  13.991
  175DOPC   C2721369   3.395   7.360  14.030
  175DOPC   H7R21370   3.385   7.442  13.944
  175DOPC   H7S21371   3.401   7.434  14.122
  175DOPC   C2821372   3.245   7.253  14.029
  175DOPC   H8R21373   3.254   7.175  13.939
  175DOPC   H8S21374   3.136   7.325  14.014
  175DOPC   C2921375   3.226   7.163  14.157
  175DOPC   H9R21376   3.218   7.236  14.249
  175DOPC  C21021377   3.221   7.002  14.168
  175DOPC  H10R21378   3.210   6.948  14.267
  175DOPC  C21121379   3.233   6.883  14.055
  175DOPC  H11R21380   3.227   6.940  13.954
  175DOPC  H11S21381   3.128   6.800  14.056
  175DOPC  C21221382   3.394   6.794  14.068
  175DOPC  H12R21383   3.493   6.883  14.056
  175DOPC  H12S21384   3.404   6.708  13.983
  175DOPC  C21321385   3.413   6.704  14.202
  175DOPC  H13R21386   3.407   6.791  14.286
  175DOPC  H13S21387   3.534   6.648  14.205
  175DOPC  C21421388   3.280   6.578  14.220
  175DOPC  H14R21389   3.302   6.486  14.141
  175DOPC  H14S21390   3.161   6.632  14.200
  175DOPC  C21521391   3.269   6.498  14.357
  175DOPC  H15R21392   3.384   6.436  14.375
  175DOPC  H15S21393   3.174   6.406  14.349
  175DOPC  C21621394   3.215   6.604  14.475
  175DOPC  H16R21395   3.089   6.570  14.499
  175DOPC  H16S21396   3.215   6.732  14.445
  175DOPC  C21721397   3.313   6.592  14.605
  175DOPC  H17R21398   3.227   6.594  14.690
  175DOPC  H17S21399   3.388   6.702  14.613
  175DOPC  C21821400   3.425   6.445  14.623
  175DOPC  H18R21401   3.544   6.470  14.579
  175DOPC  H18S21402   3.374   6.336  14.575
  175DOPC  H18T21403   3.442   6.418  14.731
  175DOPC   C3321404   3.582   6.374  13.544
  175DOPC   H3X21405   3.631   6.270  13.488
  175DOPC   H3Y21406   3.487   6.329  13.612
  175DOPC   C3421407   3.714   6.440  13.634
  175DOPC   H4X21408   3.756   6.346  13.705
  175DOPC   H4Y21409   3.662   6.538  13.697
  175DOPC   C3521410   3.858   6.502  13.555
  175DOPC   H5X21411   3.822   6.583  13.473
  175DOPC   H5Y21412   3.923   6.397  13.510
  175DOPC   C3621413   3.970   6.595  13.644
  175DOPC   H6X21414   3.995   6.527  13.738
  175DOPC   H6Y21415   4.087   6.612  13.592
  175DOPC   C3721416   3.904   6.761  13.680
  175DOPC   H7X21417   3.880   6.832  13.587
  175DOPC   H7Y21418   3.790   6.754  13.738
  175DOPC   C3821419   4.032   6.839  13.765
  175DOPC   H8X21420   4.146   6.812  13.714
  175DOPC   H8Y21421   4.033   6.770  13.860
  175DOPC   C3921422   4.025   7.015  13.785
  175DOPC   H9X21423   4.022   7.090  13.694
  175DOPC  C31021424   4.032   7.086  13.905
  175DOPC  H10X21425   4.018   7.214  13.905
  175DOPC  C31121426   4.049   7.010  14.041
  175DOPC  H11X21427   4.164   7.049  14.088
  175DOPC  H11Y21428   4.048   6.877  14.039
  175DOPC  C31221429   3.911   7.067  14.131
  175DOPC  H12X21430   3.793   7.042  14.082
  175DOPC  H12Y21431   3.920   7.200  14.145
  175DOPC  C31321432   3.916   6.985  14.267
  175DOPC  H13X21433   3.888   6.854  14.256
  175DOPC  H13Y21434   4.040   6.995  14.306
  175DOPC  C31421435   3.803   7.063  14.369
  175DOPC  H14X21436   3.852   7.034  14.470
  175DOPC  H14Y21437   3.803   7.195  14.355
  175DOPC  C31521438   3.630   7.002  14.365
  175DOPC  H15X21439   3.634   6.869  14.365
  175DOPC  H15Y21440   3.572   7.040  14.269
  175DOPC  C31621441   3.528   7.060  14.483
  175DOPC  H16X21442   3.522   7.193  14.484
  175DOPC  H16Y21443   3.403   7.014  14.469
  175DOPC  C31721444   3.588   7.001  14.620
  175DOPC  H17X21445   3.611   6.869  14.615
  175DOPC  H17Y21446   3.704   7.060  14.645
  175DOPC  C31821447   3.468   7.034  14.732
  175DOPC  H18X21448   3.517   6.998  14.830
  175DOPC  H18Y21449   3.440   7.165  14.736
  175DOPC  H18Z21450   3.354   6.968  14.716
  176DOPC     N21451   3.575   2.210  13.024
  176DOPC   C1221452   3.520   2.129  13.152
  176DOPC  H12A21453   3.389   2.130  13.155
  176DOPC  H12B21454   3.563   2.200  13.236
  176DOPC   C1321455   3.733   2.144  12.978
  176DOPC  H13A21456   3.720   2.018  12.952
  176DOPC  H13B21457   3.781   2.209  12.893
  176DOPC  H13C21458   3.822   2.156  13.056
  176DOPC   C1421459   3.601   2.386  13.054
  176DOPC  H14A21460   3.496   2.446  13.093
  176DOPC  H14B21461   3.694   2.400  13.130
  176DOPC  H14C21462   3.647   2.453  12.969
  176DOPC   C1521463   3.454   2.179  12.916
  176DOPC  H15A21464   3.499   2.209  12.819
  176DOPC  H15B21465   3.338   2.236  12.937
  176DOPC  H15C21466   3.424   2.051  12.914
  176DOPC   C1121467   3.572   1.954  13.177
  176DOPC  H11A21468   3.706   1.945  13.181
  176DOPC  H11B21469   3.530   1.916  13.278
  176DOPC     P21470   3.334   1.794  13.076
  176DOPC   O1321471   3.326   1.639  13.004
  176DOPC   O1421472   3.230   1.928  13.031
  176DOPC   O1221473   3.516   1.849  13.074
  176DOPC   O1121474   3.301   1.759  13.232
  176DOPC    C121475   3.170   1.662  13.277
  176DOPC    HA21476   3.214   1.536  13.286
  176DOPC    HB21477   3.070   1.658  13.203
  176DOPC    C221478   3.094   1.710  13.416
  176DOPC    HS21479   2.968   1.745  13.397
  176DOPC   O2121480   3.175   1.837  13.486
  176DOPC   C2121481   3.176   1.981  13.434
  176DOPC   O2221482   3.115   2.022  13.329
  176DOPC   C2221483   3.253   2.102  13.531
  176DOPC   H2R21484   3.226   2.221  13.485
  176DOPC   H2S21485   3.384   2.089  13.531
  176DOPC    C321486   3.090   1.565  13.514
  176DOPC    HX21487   3.024   1.464  13.468
  176DOPC    HY21488   3.024   1.597  13.607
  176DOPC   O3121489   3.253   1.516  13.538
  176DOPC   C3121490   3.319   1.584  13.646
  176DOPC   O3221491   3.256   1.594  13.755
  176DOPC   C3221492   3.493   1.630  13.609
  176DOPC   H2X21493   3.557   1.614  13.705
  176DOPC   H2Y21494   3.536   1.544  13.532
  176DOPC   C2321495   3.178   2.105  13.673
  176DOPC   H3R21496   3.047   2.083  13.666
  176DOPC   H3S21497   3.194   2.227  13.717
  176DOPC   C2421498   3.246   1.984  13.773
  176DOPC   H4R21499   3.373   2.009  13.796
  176DOPC   H4S21500   3.236   1.864  13.727
  176DOPC   C2521501   3.150   1.984  13.902
  176DOPC   H5R21502   3.031   1.927  13.885
  176DOPC   H5S21503   3.133   2.113  13.928
  176DOPC   C2621504   3.230   1.906  14.023
  176DOPC   H6R21505   3.218   1.997  14.105
  176DOPC   H6S21506   3.360   1.888  14.003
  176DOPC   C2721507   3.152   1.747  14.069
  176DOPC   H7R21508   3.180   1.652  13.994
  176DOPC   H7S21509   3.020   1.763  14.071
  176DOPC   C2821510   3.205   1.691  14.209
  176DOPC   H8R21511   3.334   1.651  14.206
  176DOPC   H8S21512   3.134   1.582  14.235
  176DOPC   C2921513   3.184   1.823  14.311
  176DOPC   H9R21514   3.271   1.920  14.300
  176DOPC  C21021515   3.068   1.842  14.402
  176DOPC  H10R21516   3.071   1.948  14.468
  176DOPC  C21121517   2.929   1.732  14.424
  176DOPC  H11R21518   2.892   1.674  14.330
  176DOPC  H11S21519   2.825   1.801  14.460
  176DOPC  C21221520   2.962   1.607  14.532
  176DOPC  H12R21521   2.852   1.535  14.549
  176DOPC  H12S21522   2.986   1.676  14.624
  176DOPC  C21321523   3.096   1.484  14.506
  176DOPC  H13R21524   3.214   1.547  14.495
  176DOPC  H13S21525   3.077   1.414  14.413
  176DOPC  C21421526   3.104   1.369  14.625
  176DOPC  H14R21527   3.212   1.295  14.606
  176DOPC  H14S21528   3.000   1.288  14.626
  176DOPC  C21521529   3.115   1.459  14.760
  176DOPC  H15R21530   3.127   1.374  14.843
  176DOPC  H15S21531   3.001   1.523  14.780
  176DOPC  C21621532   3.260   1.573  14.756
  176DOPC  H16R21533   3.233   1.681  14.694
  176DOPC  H16S21534   3.354   1.506  14.702
  176DOPC  C21721535   3.331   1.631  14.890
  176DOPC  H17R21536   3.258   1.735  14.918
  176DOPC  H17S21537   3.454   1.679  14.870
  176DOPC  C21821538   3.337   1.511  15.007
  176DOPC  H18R21539   3.224   1.442  15.013
  176DOPC  H18S21540   3.350   1.577  15.102
  176DOPC  H18T21541   3.437   1.424  15.006
  176DOPC   C3321542   3.538   1.801  13.565
  176DOPC   H3X21543   3.478   1.880  13.638
  176DOPC   H3Y21544   3.488   1.828  13.464
  176DOPC   C3421545   3.720   1.830  13.572
  176DOPC   H4X21546   3.785   1.752  13.500
  176DOPC   H4Y21547   3.760   1.793  13.674
  176DOPC   C3521548   3.772   2.005  13.556
  176DOPC   H5X21549   3.733   2.056  13.458
  176DOPC   H5Y21550   3.906   2.015  13.562
  176DOPC   C3621551   3.703   2.104  13.670
  176DOPC   H6X21552   3.572   2.086  13.681
  176DOPC   H6Y21553   3.760   2.059  13.764
  176DOPC   C3721554   3.722   2.284  13.658
  176DOPC   H7X21555   3.848   2.320  13.637
  176DOPC   H7Y21556   3.646   2.329  13.576
  176DOPC   C3821557   3.665   2.354  13.790
  176DOPC   H8X21558   3.539   2.316  13.811
  176DOPC   H8Y21559   3.658   2.483  13.774
  176DOPC   C3921560   3.778   2.317  13.903
  176DOPC   H9X21561   3.902   2.356  13.887
  176DOPC  C31021562   3.740   2.243  14.018
  176DOPC  H10X21563   3.836   2.232  14.094
  176DOPC  C31121564   3.580   2.180  14.061
  176DOPC  H11X21565   3.502   2.152  13.974
  176DOPC  H11Y21566   3.515   2.274  14.119
  176DOPC  C31221567   3.594   2.027  14.146
  176DOPC  H12X21568   3.623   1.925  14.078
  176DOPC  H12Y21569   3.473   2.002  14.189
  176DOPC  C31321570   3.716   2.029  14.261
  176DOPC  H13X21571   3.839   2.033  14.218
  176DOPC  H13Y21572   3.700   2.137  14.325
  176DOPC  C31421573   3.704   1.877  14.347
  176DOPC  H14X21574   3.680   1.776  14.277
  176DOPC  H14Y21575   3.822   1.854  14.397
  176DOPC  C31521576   3.572   1.884  14.454
  176DOPC  H15X21577   3.557   1.764  14.501
  176DOPC  H15Y21578   3.458   1.915  14.405
  176DOPC  C31621579   3.604   2.010  14.562
  176DOPC  H16X21580   3.733   2.039  14.561
  176DOPC  H16Y21581   3.535   2.120  14.534
  176DOPC  C31721582   3.558   1.958  14.703
  176DOPC  H17X21583   3.532   2.068  14.763
  176DOPC  H17Y21584   3.445   1.885  14.700
  176DOPC  C31821585   3.694   1.867  14.773
  176DOPC  H18X21586   3.728   1.759  14.715
  176DOPC  H18Y21587   3.802   1.944  14.782
  176DOPC  H18Z21588   3.658   1.829  14.875
  177DOPC     N21589   5.869   7.174  12.885
  177DOPC   C1221590   5.942   7.100  13.010
  177DOPC  H12A21591   6.043   7.026  12.984
  177DOPC  H12B21592   5.852   7.022  13.057
  177DOPC   C1321593   5.710   7.241  12.925
  177DOPC  H13A21594   5.724   7.310  13.017
  177DOPC  H13B21595   5.651   7.315  12.851
  177DOPC  H13C21596   5.629   7.144  12.958
  177DOPC   C1421597   5.849   7.048  12.779
  177DOPC  H14A21598   5.956   6.977  12.765
  177DOPC  H14B21599   5.753   6.965  12.807
  177DOPC  H14C21600   5.815   7.099  12.684
  177DOPC   C1521601   5.978   7.306  12.838
  177DOPC  H15A21602   6.090   7.253  12.801
  177DOPC  H15B21603   6.010   7.384  12.921
  177DOPC  H15C21604   5.928   7.372  12.755
  177DOPC   C1121605   5.998   7.218  13.121
  177DOPC  H11A21606   6.074   7.154  13.195
  177DOPC  H11B21607   6.077   7.314  13.081
  177DOPC     P21608   5.746   7.178  13.270
  177DOPC   O1321609   5.626   7.111  13.178
  177DOPC   O1421610   5.687   7.268  13.387
  177DOPC   O1221611   5.862   7.290  13.183
  177DOPC   O1121612   5.858   7.033  13.314
  177DOPC    C121613   5.790   6.880  13.343
  177DOPC    HA21614   5.830   6.792  13.266
  177DOPC    HB21615   5.657   6.880  13.342
  177DOPC    C221616   5.846   6.818  13.482
  177DOPC    HS21617   5.791   6.700  13.504
  177DOPC   O2121618   5.803   6.931  13.585
  177DOPC   C2121619   5.648   6.937  13.613
  177DOPC   O2221620   5.545   6.848  13.568
  177DOPC   C2221621   5.620   7.064  13.721
  177DOPC   H2R21622   5.504   7.034  13.772
  177DOPC   H2S21623   5.605   7.180  13.668
  177DOPC    C321624   6.031   6.796  13.482
  177DOPC    HX21625   6.085   6.902  13.435
  177DOPC    HY21626   6.059   6.691  13.416
  177DOPC   O3121627   6.088   6.763  13.616
  177DOPC   C3121628   6.162   6.884  13.675
  177DOPC   O3221629   6.211   7.006  13.620
  177DOPC   C3221630   6.176   6.854  13.823
  177DOPC   H2X21631   6.055   6.857  13.868
  177DOPC   H2Y21632   6.228   6.733  13.838
  177DOPC   C2321633   5.758   7.076  13.824
  177DOPC   H3R21634   5.876   7.076  13.773
  177DOPC   H3S21635   5.754   6.971  13.892
  177DOPC   C2421636   5.752   7.232  13.904
  177DOPC   H4R21637   5.633   7.247  13.954
  177DOPC   H4S21638   5.767   7.334  13.833
  177DOPC   C2521639   5.886   7.237  14.008
  177DOPC   H5R21640   6.000   7.190  13.965
  177DOPC   H5S21641   5.851   7.153  14.090
  177DOPC   C2621642   5.917   7.406  14.062
  177DOPC   H6R21643   5.802   7.471  14.075
  177DOPC   H6S21644   5.987   7.475  13.986
  177DOPC   C2721645   6.008   7.404  14.196
  177DOPC   H7R21646   6.028   7.529  14.229
  177DOPC   H7S21647   6.128   7.349  14.177
  177DOPC   C2821648   5.928   7.307  14.309
  177DOPC   H8R21649   5.994   7.334  14.403
  177DOPC   H8S21650   5.947   7.177  14.290
  177DOPC   C2921651   5.752   7.343  14.318
  177DOPC   H9R21652   5.683   7.315  14.227
  177DOPC  C21021653   5.668   7.387  14.427
  177DOPC  H10R21654   5.538   7.406  14.417
  177DOPC  C21121655   5.731   7.412  14.566
  177DOPC  H11R21656   5.716   7.538  14.600
  177DOPC  H11S21657   5.862   7.384  14.575
  177DOPC  C21221658   5.636   7.300  14.655
  177DOPC  H12R21659   5.506   7.325  14.647
  177DOPC  H12S21660   5.670   7.326  14.760
  177DOPC  C21321661   5.668   7.121  14.625
  177DOPC  H13R21662   5.798   7.097  14.633
  177DOPC  H13S21663   5.630   7.093  14.520
  177DOPC  C21421664   5.572   7.013  14.720
  177DOPC  H14R21665   5.491   7.096  14.776
  177DOPC  H14S21666   5.653   6.962  14.796
  177DOPC  C21521667   5.462   6.889  14.651
  177DOPC  H15R21668   5.400   6.954  14.568
  177DOPC  H15S21669   5.368   6.853  14.722
  177DOPC  C21621670   5.537   6.734  14.590
  177DOPC  H16R21671   5.598   6.770  14.496
  177DOPC  H16S21672   5.440   6.648  14.564
  177DOPC  C21721673   5.662   6.648  14.676
  177DOPC  H17R21674   5.731   6.745  14.718
  177DOPC  H17S21675   5.744   6.572  14.617
  177DOPC  C21821676   5.603   6.559  14.798
  177DOPC  H18R21677   5.584   6.653  14.874
  177DOPC  H18S21678   5.692   6.476  14.842
  177DOPC  H18T21679   5.490   6.492  14.777
  177DOPC   C3321680   6.286   6.980  13.889
  177DOPC   H3X21681   6.227   7.100  13.887
  177DOPC   H3Y21682   6.401   6.992  13.833
  177DOPC   C3421683   6.320   6.930  14.032
  177DOPC   H4X21684   6.380   6.811  14.029
  177DOPC   H4Y21685   6.204   6.914  14.084
  177DOPC   C3521686   6.428   7.045  14.111
  177DOPC   H5X21687   6.373   7.166  14.117
  177DOPC   H5Y21688   6.545   7.057  14.057
  177DOPC   C3621689   6.460   6.980  14.251
  177DOPC   H6X21690   6.499   6.852  14.241
  177DOPC   H6Y21691   6.559   7.045  14.301
  177DOPC   C3721692   6.310   6.984  14.341
  177DOPC   H7X21693   6.307   7.098  14.398
  177DOPC   H7Y21694   6.199   6.988  14.280
  177DOPC   C3821695   6.299   6.835  14.432
  177DOPC   H8X21696   6.283   6.731  14.365
  177DOPC   H8Y21697   6.185   6.841  14.490
  177DOPC   C3921698   6.442   6.806  14.522
  177DOPC   H9X21699   6.485   6.682  14.519
  177DOPC  C31021700   6.518   6.908  14.604
  177DOPC  H10X21701   6.622   6.860  14.660
  177DOPC  C31121702   6.490   7.082  14.635
  177DOPC  H11X21703   6.395   7.139  14.572
  177DOPC  H11Y21704   6.601   7.152  14.618
  177DOPC  C31221705   6.436   7.109  14.780
  177DOPC  H12X21706   6.302   7.092  14.780
  177DOPC  H12Y21707   6.451   7.236  14.808
  177DOPC  C31321708   6.514   7.006  14.892
  177DOPC  H13X21709   6.601   6.916  14.857
  177DOPC  H13Y21710   6.590   7.096  14.943
  177DOPC  C31421711   6.378   6.954  14.990
  177DOPC  H14X21712   6.365   7.064  15.051
  177DOPC  H14Y21713   6.266   6.946  14.933
  177DOPC  C31521714   6.362   6.810  15.089
  177DOPC  H15X21715   6.256   6.834  15.149
  177DOPC  H15Y21716   6.444   6.823  15.172
  177DOPC  C31621717   6.378   6.631  15.049
  177DOPC  H16X21718   6.430   6.626  14.946
  177DOPC  H16Y21719   6.472   6.582  15.117
  177DOPC  C31721720   6.242   6.498  15.054
  177DOPC  H17X21721   6.187   6.492  14.953
  177DOPC  H17Y21722   6.323   6.398  15.074
  177DOPC  C31821723   6.119   6.437  15.158
  177DOPC  H18X21724   6.116   6.305  15.161
  177DOPC  H18Y21725   6.143   6.456  15.263
  177DOPC  H18Z21726   5.994   6.466  15.130
  178DOPC     N21727   2.612   6.913  12.873
  178DOPC   C1221728   2.489   6.946  12.984
  178DOPC  H12A21729   2.504   6.854  13.063
  178DOPC  H12B21730   2.368   6.929  12.949
  178DOPC   C1321731   2.779   6.925  12.932
  178DOPC  H13A21732   2.788   7.037  12.989
  178DOPC  H13B21733   2.804   6.832  13.004
  178DOPC  H13C21734   2.872   6.924  12.857
  178DOPC   C1421735   2.600   7.037  12.765
  178DOPC  H14A21736   2.687   7.018  12.686
  178DOPC  H14B21737   2.483   7.040  12.719
  178DOPC  H14C21738   2.622   7.154  12.808
  178DOPC   C1521739   2.588   6.751  12.813
  178DOPC  H15A21740   2.670   6.734  12.729
  178DOPC  H15B21741   2.467   6.736  12.775
  178DOPC  H15C21742   2.611   6.656  12.884
  178DOPC   C1121743   2.498   7.109  13.061
  178DOPC  H11A21744   2.492   7.211  12.990
  178DOPC  H11B21745   2.389   7.120  13.126
  178DOPC     P21746   2.648   7.006  13.268
  178DOPC   O1321747   2.818   6.966  13.296
  178DOPC   O1421748   2.539   6.869  13.245
  178DOPC   O1221749   2.640   7.121  13.140
  178DOPC   O1121750   2.578   7.110  13.386
  178DOPC    C121751   2.676   7.141  13.500
  178DOPC    HA21752   2.618   7.236  13.561
  178DOPC    HB21753   2.796   7.189  13.469
  178DOPC    C221754   2.699   6.991  13.589
  178DOPC    HS21755   2.730   6.887  13.523
  178DOPC   O2121756   2.552   6.961  13.661
  178DOPC   C2121757   2.532   6.814  13.703
  178DOPC   O2221758   2.632   6.706  13.696
  178DOPC   C2221759   2.360   6.793  13.755
  178DOPC   H2R21760   2.294   6.724  13.679
  178DOPC   H2S21761   2.303   6.912  13.765
  178DOPC    C321762   2.843   7.016  13.684
  178DOPC    HX21763   2.956   7.019  13.625
  178DOPC    HY21764   2.848   6.907  13.749
  178DOPC   O3121765   2.824   7.165  13.757
  178DOPC   C3121766   2.866   7.154  13.885
  178DOPC   O3221767   2.935   7.042  13.934
  178DOPC   C3221768   2.810   7.301  13.962
  178DOPC   H2X21769   2.879   7.300  14.058
  178DOPC   H2Y21770   2.839   7.412  13.906
  178DOPC   C2321771   2.358   6.703  13.889
  178DOPC   H3R21772   2.454   6.610  13.892
  178DOPC   H3S21773   2.243   6.637  13.900
  178DOPC   C2421774   2.381   6.811  14.012
  178DOPC   H4R21775   2.270   6.882  14.032
  178DOPC   H4S21776   2.480   6.896  13.992
  178DOPC   C2521777   2.423   6.710  14.135
  178DOPC   H5R21778   2.512   6.616  14.109
  178DOPC   H5S21779   2.311   6.647  14.168
  178DOPC   C2621780   2.490   6.810  14.251
  178DOPC   H6R21781   2.470   6.743  14.345
  178DOPC   H6S21782   2.419   6.922  14.261
  178DOPC   C2721783   2.671   6.846  14.244
  178DOPC   H7R21784   2.695   6.944  14.172
  178DOPC   H7S21785   2.736   6.738  14.209
  178DOPC   C2821786   2.731   6.893  14.385
  178DOPC   H8R21787   2.699   6.793  14.453
  178DOPC   H8S21788   2.657   6.995  14.419
  178DOPC   C2921789   2.908   6.919  14.406
  178DOPC   H9R21790   2.981   6.810  14.397
  178DOPC  C21021791   2.981   7.061  14.427
  178DOPC  H10R21792   3.112   7.064  14.440
  178DOPC  C21121793   2.899   7.222  14.431
  178DOPC  H11R21794   2.771   7.204  14.407
  178DOPC  H11S21795   2.946   7.297  14.348
  178DOPC  C21221796   2.908   7.322  14.559
  178DOPC  H12R21797   2.842   7.436  14.536
  178DOPC  H12S21798   3.032   7.357  14.584
  178DOPC  C21321799   2.825   7.247  14.681
  178DOPC  H13R21800   2.910   7.169  14.737
  178DOPC  H13S21801   2.724   7.170  14.647
  178DOPC  C21421802   2.758   7.378  14.774
  178DOPC  H14R21803   2.671   7.327  14.846
  178DOPC  H14S21804   2.690   7.465  14.712
  178DOPC  C21521805   2.893   7.466  14.846
  178DOPC  H15R21806   2.977   7.511  14.767
  178DOPC  H15S21807   2.962   7.384  14.912
  178DOPC  C21621808   2.839   7.615  14.924
  178DOPC  H16R21809   2.767   7.694  14.858
  178DOPC  H16S21810   2.951   7.680  14.954
  178DOPC  C21721811   2.746   7.579  15.052
  178DOPC  H17R21812   2.634   7.517  15.022
  178DOPC  H17S21813   2.710   7.693  15.101
  178DOPC  C21821814   2.839   7.480  15.154
  178DOPC  H18R21815   2.966   7.519  15.159
  178DOPC  H18S21816   2.837   7.351  15.125
  178DOPC  H18T21817   2.786   7.490  15.256
  178DOPC   C3321818   2.630   7.284  13.992
  178DOPC   H3X21819   2.609   7.163  14.035
  178DOPC   H3Y21820   2.558   7.294  13.899
  178DOPC   C3421821   2.569   7.405  14.095
  178DOPC   H4X21822   2.549   7.524  14.045
  178DOPC   H4Y21823   2.658   7.423  14.176
  178DOPC   C3521824   2.414   7.340  14.155
  178DOPC   H5X21825   2.345   7.274  14.077
  178DOPC   H5Y21826   2.336   7.440  14.186
  178DOPC   C3621827   2.447   7.230  14.276
  178DOPC   H6X21828   2.338   7.157  14.293
  178DOPC   H6Y21829   2.549   7.150  14.253
  178DOPC   C3721830   2.482   7.324  14.405
  178DOPC   H7X21831   2.606   7.367  14.411
  178DOPC   H7Y21832   2.416   7.436  14.389
  178DOPC   C3821833   2.435   7.240  14.538
  178DOPC   H8X21834   2.479   7.314  14.622
  178DOPC   H8Y21835   2.497   7.122  14.546
  178DOPC   C3921836   2.256   7.219  14.553
  178DOPC   H9X21837   2.196   7.331  14.578
  178DOPC  C31021838   2.165   7.090  14.565
  178DOPC  H10X21839   2.034   7.105  14.558
  178DOPC  C31121840   2.225   6.920  14.569
  178DOPC  H11X21841   2.344   6.908  14.520
  178DOPC  H11Y21842   2.140   6.839  14.518
  178DOPC  C31221843   2.240   6.877  14.718
  178DOPC  H12X21844   2.279   6.750  14.722
  178DOPC  H12Y21845   2.123   6.883  14.771
  178DOPC  C31321846   2.366   6.974  14.797
  178DOPC  H13X21847   2.483   6.961  14.743
  178DOPC  H13Y21848   2.336   7.104  14.800
  178DOPC  C31421849   2.386   6.914  14.940
  178DOPC  H14X21850   2.293   6.959  15.008
  178DOPC  H14Y21851   2.362   6.784  14.942
  178DOPC  C31521852   2.552   6.942  14.998
  178DOPC  H15X21853   2.647   6.911  14.923
  178DOPC  H15Y21854   2.558   6.848  15.078
  178DOPC  C31621855   2.591   7.106  15.063
  178DOPC  H16X21856   2.659   7.081  15.156
  178DOPC  H16Y21857   2.675   7.174  14.999
  178DOPC  C31721858   2.448   7.212  15.102
  178DOPC  H17X21859   2.400   7.277  15.013
  178DOPC  H17Y21860   2.352   7.130  15.138
  178DOPC  C31821861   2.479   7.331  15.217
  178DOPC  H18X21862   2.374   7.340  15.284
  178DOPC  H18Y21863   2.582   7.288  15.279
  178DOPC  H18Z21864   2.506   7.453  15.181
  179DOPC     N21865   7.102   6.247  12.874
  179DOPC   C1221866   7.070   6.160  13.005
  179DOPC  H12A21867   7.136   6.048  13.003
  179DOPC  H12B21868   6.944   6.126  13.014
  179DOPC   C1321869   7.279   6.266  12.859
  179DOPC  H13A21870   7.315   6.352  12.783
  179DOPC  H13B21871   7.330   6.305  12.955
  179DOPC  H13C21872   7.337   6.151  12.838
  179DOPC   C1421873   7.024   6.409  12.875
  179DOPC  H14A21874   7.070   6.475  12.961
  179DOPC  H14B21875   7.049   6.472  12.783
  179DOPC  H14C21876   6.895   6.400  12.885
  179DOPC   C1521877   7.046   6.151  12.757
  179DOPC  H15A21878   6.917   6.143  12.748
  179DOPC  H15B21879   7.094   6.030  12.764
  179DOPC  H15C21880   7.093   6.200  12.665
  179DOPC   C1121881   7.121   6.242  13.137
  179DOPC  H11A21882   7.061   6.360  13.149
  179DOPC  H11B21883   7.084   6.163  13.222
  179DOPC     P21884   7.391   6.305  13.266
  179DOPC   O1321885   7.554   6.342  13.216
  179DOPC   O1421886   7.370   6.179  13.369
  179DOPC   O1221887   7.289   6.262  13.138
  179DOPC   O1121888   7.309   6.467  13.316
  179DOPC    C121889   7.283   6.604  13.232
  179DOPC    HA21890   7.248   6.568  13.128
  179DOPC    HB21891   7.398   6.671  13.226
  179DOPC    C221892   7.153   6.725  13.286
  179DOPC    HS21893   7.199   6.848  13.264
  179DOPC   O2121894   7.128   6.704  13.425
  179DOPC   C2121895   7.242   6.760  13.503
  179DOPC   O2221896   7.348   6.854  13.469
  179DOPC   C2221897   7.208   6.703  13.646
  179DOPC   H2R21898   7.075   6.690  13.656
  179DOPC   H2S21899   7.249   6.799  13.716
  179DOPC    C321900   6.983   6.720  13.218
  179DOPC    HX21901   7.001   6.745  13.110
  179DOPC    HY21902   6.913   6.823  13.259
  179DOPC   O3121903   6.895   6.571  13.232
  179DOPC   C3121904   6.812   6.556  13.345
  179DOPC   O3221905   6.788   6.660  13.428
  179DOPC   C3221906   6.749   6.385  13.356
  179DOPC   H2X21907   6.617   6.385  13.344
  179DOPC   H2Y21908   6.802   6.308  13.277
  179DOPC   C2321909   7.283   6.541  13.682
  179DOPC   H3R21910   7.254   6.452  13.603
  179DOPC   H3S21911   7.235   6.499  13.780
  179DOPC   C2421912   7.463   6.550  13.694
  179DOPC   H4R21913   7.492   6.620  13.786
  179DOPC   H4S21914   7.504   6.613  13.603
  179DOPC   C2521915   7.542   6.386  13.708
  179DOPC   H5R21916   7.675   6.401  13.712
  179DOPC   H5S21917   7.511   6.311  13.620
  179DOPC   C2621918   7.484   6.308  13.837
  179DOPC   H6R21919   7.364   6.256  13.816
  179DOPC   H6S21920   7.464   6.402  13.915
  179DOPC   C2721921   7.603   6.186  13.895
  179DOPC   H7R21922   7.712   6.251  13.929
  179DOPC   H7S21923   7.639   6.101  13.814
  179DOPC   C2821924   7.530   6.097  14.013
  179DOPC   H8R21925   7.490   6.185  14.090
  179DOPC   H8S21926   7.618   6.013  14.059
  179DOPC   C2921927   7.388   6.008  13.958
  179DOPC   H9R21928   7.392   5.978  13.850
  179DOPC  C21021929   7.261   5.965  14.028
  179DOPC  H10R21930   7.164   5.908  13.974
  179DOPC  C21121931   7.238   6.000  14.174
  179DOPC  H11R21932   7.355   5.999  14.230
  179DOPC  H11S21933   7.163   5.905  14.220
  179DOPC  C21221934   7.162   6.164  14.196
  179DOPC  H12R21935   7.204   6.242  14.115
  179DOPC  H12S21936   7.214   6.211  14.290
  179DOPC  C21321937   6.978   6.160  14.216
  179DOPC  H13R21938   6.950   6.037  14.248
  179DOPC  H13S21939   6.908   6.162  14.124
  179DOPC  C21421940   6.904   6.257  14.330
  179DOPC  H14R21941   6.774   6.226  14.331
  179DOPC  H14S21942   6.910   6.388  14.311
  179DOPC  C21521943   6.982   6.216  14.467
  179DOPC  H15R21944   6.896   6.248  14.548
  179DOPC  H15S21945   7.087   6.295  14.477
  179DOPC  C21621946   7.036   6.038  14.486
  179DOPC  H16R21947   7.093   5.992  14.395
  179DOPC  H16S21948   6.931   5.960  14.505
  179DOPC  C21721949   7.172   6.011  14.588
  179DOPC  H17R21950   7.180   6.130  14.638
  179DOPC  H17S21951   7.288   5.990  14.535
  179DOPC  C21821952   7.139   5.884  14.695
  179DOPC  H18R21953   7.192   5.904  14.796
  179DOPC  H18S21954   7.170   5.761  14.668
  179DOPC  H18T21955   7.008   5.882  14.701
  179DOPC   C3321956   6.794   6.314  13.492
  179DOPC   H3X21957   6.746   6.191  13.502
  179DOPC   H3Y21958   6.732   6.386  13.570
  179DOPC   C3421959   6.977   6.316  13.514
  179DOPC   H4X21960   7.013   6.439  13.543
  179DOPC   H4Y21961   7.042   6.288  13.419
  179DOPC   C3521962   7.036   6.198  13.620
  179DOPC   H5X21963   7.158   6.232  13.654
  179DOPC   H5Y21964   7.048   6.076  13.578
  179DOPC   C3621965   6.924   6.194  13.741
  179DOPC   H6X21966   6.808   6.134  13.717
  179DOPC   H6Y21967   6.985   6.120  13.818
  179DOPC   C3721968   6.890   6.361  13.799
  179DOPC   H7X21969   6.996   6.440  13.784
  179DOPC   H7Y21970   6.785   6.422  13.755
  179DOPC   C3821971   6.864   6.340  13.947
  179DOPC   H8X21972   6.983   6.290  13.977
  179DOPC   H8Y21973   6.774   6.241  13.962
  179DOPC   C3921974   6.820   6.482  14.029
  179DOPC   H9X21975   6.692   6.502  14.049
  179DOPC  C31021976   6.926   6.583  14.082
  179DOPC  H10X21977   6.886   6.679  14.149
  179DOPC  C31121978   7.105   6.566  14.065
  179DOPC  H11X21979   7.145   6.617  13.969
  179DOPC  H11Y21980   7.142   6.442  14.059
  179DOPC  C31221981   7.195   6.646  14.180
  179DOPC  H12X21982   7.142   6.764  14.201
  179DOPC  H12Y21983   7.322   6.659  14.149
  179DOPC  C31321984   7.194   6.562  14.315
  179DOPC  H13X21985   7.073   6.568  14.362
  179DOPC  H13Y21986   7.228   6.436  14.304
  179DOPC  C31421987   7.320   6.640  14.402
  179DOPC  H14X21988   7.440   6.605  14.364
  179DOPC  H14Y21989   7.308   6.773  14.393
  179DOPC  C31521990   7.307   6.598  14.549
  179DOPC  H15X21991   7.284   6.468  14.565
  179DOPC  H15Y21992   7.200   6.664  14.588
  179DOPC  C31621993   7.462   6.649  14.617
  179DOPC  H16X21994   7.561   6.569  14.583
  179DOPC  H16Y21995   7.492   6.773  14.582
  179DOPC  C31721996   7.458   6.648  14.769
  179DOPC  H17X21997   7.468   6.523  14.805
  179DOPC  H17Y21998   7.568   6.709  14.805
  179DOPC  C31821999   7.310   6.726  14.833
  179DOPC  H18X22000   7.308   6.858  14.818
  179DOPC  H18Y22001   7.196   6.674  14.795
  179DOPC  H18Z22002   7.316   6.701  14.942
  180DOPC     N22003   7.739   3.892  12.881
  180DOPC   C1222004   7.604   3.911  12.982
  180DOPC  H12A22005   7.571   3.793  13.020
  180DOPC  H12B22006   7.501   3.959  12.930
  180DOPC   C1322007   7.838   3.750  12.920
  180DOPC  H13A22008   7.873   3.761  13.026
  180DOPC  H13B22009   7.772   3.638  12.912
  180DOPC  H13C22010   7.948   3.742  12.862
  180DOPC   C1422011   7.842   4.036  12.888
  180DOPC  H14A22012   7.951   4.022  12.830
  180DOPC  H14B22013   7.776   4.141  12.857
  180DOPC  H14C22014   7.873   4.054  12.994
  180DOPC   C1522015   7.673   3.877  12.742
  180DOPC  H15A22016   7.603   3.768  12.732
  180DOPC  H15B22017   7.769   3.881  12.671
  180DOPC  H15C22018   7.594   3.979  12.722
  180DOPC   C1122019   7.631   4.016  13.108
  180DOPC  H11A22020   7.651   4.142  13.076
  180DOPC  H11B22021   7.518   4.018  13.168
  180DOPC     P22022   7.742   3.799  13.267
  180DOPC   O1322023   7.902   3.720  13.274
  180DOPC   O1422024   7.612   3.706  13.203
  180DOPC   O1222025   7.764   3.962  13.186
  180DOPC   O1122026   7.685   3.857  13.408
  180DOPC    C122027   7.784   3.908  13.515
  180DOPC    HA22028   7.835   4.028  13.495
  180DOPC    HB22029   7.888   3.823  13.528
  180DOPC    C222030   7.680   3.906  13.644
  180DOPC    HS22031   7.751   3.950  13.730
  180DOPC   O2122032   7.650   3.734  13.655
  180DOPC   C2122033   7.763   3.636  13.707
  180DOPC   O2222034   7.889   3.678  13.757
  180DOPC   C2222035   7.700   3.458  13.695
  180DOPC   H2R22036   7.700   3.438  13.585
  180DOPC   H2S22037   7.574   3.461  13.728
  180DOPC    C322038   7.519   4.025  13.625
  180DOPC    HX22039   7.494   4.022  13.516
  180DOPC    HY22040   7.570   4.146  13.646
  180DOPC   O3122041   7.369   4.008  13.704
  180DOPC   C3122042   7.208   4.050  13.670
  180DOPC   O3222043   7.181   4.121  13.567
  180DOPC   C3222044   7.056   3.996  13.767
  180DOPC   H2X22045   7.084   4.040  13.866
  180DOPC   H2Y22046   6.956   4.075  13.733
  180DOPC   C2322047   7.780   3.306  13.763
  180DOPC   H3R22048   7.909   3.302  13.739
  180DOPC   H3S22049   7.723   3.200  13.713
  180DOPC   C2422050   7.757   3.276  13.915
  180DOPC   H4R22051   7.818   3.161  13.941
  180DOPC   H4S22052   7.627   3.259  13.939
  180DOPC   C2522053   7.830   3.410  13.999
  180DOPC   H5R22054   7.775   3.523  13.962
  180DOPC   H5S22055   7.961   3.416  13.979
  180DOPC   C2622056   7.805   3.409  14.151
  180DOPC   H6R22057   7.860   3.302  14.199
  180DOPC   H6S22058   7.673   3.408  14.169
  180DOPC   C2722059   7.876   3.562  14.215
  180DOPC   H7R22060   7.996   3.582  14.169
  180DOPC   H7S22061   7.896   3.546  14.324
  180DOPC   C2822062   7.768   3.709  14.197
  180DOPC   H8R22063   7.661   3.697  14.264
  180DOPC   H8S22064   7.721   3.713  14.093
  180DOPC   C2922065   7.864   3.858  14.230
  180DOPC   H9R22066   7.963   3.839  14.300
  180DOPC  C21022067   7.837   4.008  14.184
  180DOPC  H10R22068   7.916   4.106  14.215
  180DOPC  C21122069   7.704   4.055  14.091
  180DOPC  H11R22070   7.670   3.949  14.029
  180DOPC  H11S22071   7.746   4.147  14.019
  180DOPC  C21222072   7.555   4.120  14.168
  180DOPC  H12R22073   7.453   4.130  14.096
  180DOPC  H12S22074   7.584   4.243  14.203
  180DOPC  C21322075   7.502   4.019  14.291
  180DOPC  H13R22076   7.602   4.013  14.364
  180DOPC  H13S22077   7.477   3.894  14.258
  180DOPC  C21422078   7.355   4.086  14.363
  180DOPC  H14R22079   7.248   4.063  14.300
  180DOPC  H14S22080   7.369   4.218  14.374
  180DOPC  C21522081   7.308   4.013  14.499
  180DOPC  H15R22082   7.414   3.976  14.557
  180DOPC  H15S22083   7.232   3.905  14.479
  180DOPC  C21622084   7.198   4.128  14.575
  180DOPC  H16R22085   7.079   4.122  14.524
  180DOPC  H16S22086   7.246   4.253  14.566
  180DOPC  C21722087   7.159   4.090  14.720
  180DOPC  H17R22088   7.099   3.972  14.720
  180DOPC  H17S22089   7.069   4.178  14.757
  180DOPC  C21822090   7.303   4.092  14.814
  180DOPC  H18R22091   7.358   4.213  14.815
  180DOPC  H18S22092   7.396   4.004  14.780
  180DOPC  H18T22093   7.267   4.060  14.917
  180DOPC   C3322094   6.982   3.815  13.774
  180DOPC   H3X22095   7.090   3.752  13.797
  180DOPC   H3Y22096   6.938   3.774  13.676
  180DOPC   C3422097   6.893   3.714  13.887
  180DOPC   H4X22098   6.764   3.709  13.858
  180DOPC   H4Y22099   6.888   3.773  13.984
  180DOPC   C3522100   6.952   3.529  13.902
  180DOPC   H5X22101   6.991   3.490  13.802
  180DOPC   H5Y22102   6.841   3.462  13.926
  180DOPC   C3622103   7.084   3.479  14.011
  180DOPC   H6X22104   7.202   3.511  13.973
  180DOPC   H6Y22105   7.048   3.553  14.096
  180DOPC   C3722106   7.132   3.312  14.071
  180DOPC   H7X22107   7.036   3.282  14.143
  180DOPC   H7Y22108   7.136   3.220  13.992
  180DOPC   C3822109   7.297   3.298  14.148
  180DOPC   H8X22110   7.361   3.415  14.148
  180DOPC   H8Y22111   7.375   3.216  14.088
  180DOPC   C3922112   7.278   3.227  14.287
  180DOPC   H9X22113   7.152   3.214  14.317
  180DOPC  C31022114   7.391   3.175  14.375
  180DOPC  H10X22115   7.354   3.121  14.471
  180DOPC  C31122116   7.570   3.180  14.350
  180DOPC  H11X22117   7.597   3.306  14.328
  180DOPC  H11Y22118   7.595   3.108  14.259
  180DOPC  C31222119   7.699   3.128  14.455
  180DOPC  H12X22120   7.817   3.139  14.403
  180DOPC  H12Y22121   7.690   3.001  14.484
  180DOPC  C31322122   7.709   3.235  14.580
  180DOPC  H13X22123   7.592   3.240  14.633
  180DOPC  H13Y22124   7.799   3.184  14.650
  180DOPC  C31422125   7.764   3.402  14.538
  180DOPC  H14X22126   7.870   3.384  14.471
  180DOPC  H14Y22127   7.669   3.464  14.480
  180DOPC  C31522128   7.819   3.511  14.651
  180DOPC  H15X22129   7.885   3.611  14.600
  180DOPC  H15Y22130   7.906   3.448  14.717
  180DOPC  C31622131   7.680   3.580  14.732
  180DOPC  H16X22132   7.595   3.640  14.662
  180DOPC  H16Y22133   7.614   3.481  14.783
  180DOPC  C31722134   7.738   3.704  14.834
  180DOPC  H17X22135   7.630   3.766  14.876
  180DOPC  H17Y22136   7.796   3.640  14.919
  180DOPC  C31822137   7.855   3.828  14.777
  180DOPC  H18X22138   7.972   3.770  14.754
  180DOPC  H18Y22139   7.806   3.882  14.684
  180DOPC  H18Z22140   7.880   3.926  14.848
  181DOPC     N22141   0.853   4.590  12.975
  181DOPC   C1222142   1.012   4.682  12.961
  181DOPC  H12A22143   1.042   4.744  13.054
  181DOPC  H12B22144   1.002   4.776  12.887
  181DOPC   C1322145   0.864   4.498  13.104
  181DOPC  H13A22146   0.973   4.426  13.102
  181DOPC  H13B22147   0.882   4.578  13.188
  181DOPC  H13C22148   0.763   4.420  13.121
  181DOPC   C1422149   0.835   4.477  12.860
  181DOPC  H14A22150   0.734   4.398  12.872
  181DOPC  H14B22151   0.821   4.540  12.764
  181DOPC  H14C22152   0.943   4.406  12.850
  181DOPC   C1522153   0.712   4.699  12.984
  181DOPC  H15A22154   0.601   4.631  12.971
  181DOPC  H15B22155   0.708   4.788  12.905
  181DOPC  H15C22156   0.708   4.760  13.079
  181DOPC   C1122157   1.164   4.580  12.928
  181DOPC  H11A22158   1.146   4.512  12.834
  181DOPC  H11B22159   1.267   4.663  12.908
  181DOPC     P22160   1.294   4.542  13.161
  181DOPC   O1322161   1.261   4.717  13.167
  181DOPC   O1422162   1.458   4.477  13.150
  181DOPC   O1222163   1.201   4.471  13.034
  181DOPC   O1122164   1.201   4.441  13.277
  181DOPC    C122165   1.220   4.267  13.274
  181DOPC    HA22166   1.349   4.234  13.276
  181DOPC    HB22167   1.166   4.222  13.178
  181DOPC    C222168   1.139   4.157  13.386
  181DOPC    HS22169   1.093   4.048  13.336
  181DOPC   O2122170   1.007   4.238  13.447
  181DOPC   C2122171   0.917   4.158  13.535
  181DOPC   O2222172   0.932   4.018  13.567
  181DOPC   C2222173   0.794   4.272  13.594
  181DOPC   H2R22174   0.732   4.208  13.676
  181DOPC   H2S22175   0.706   4.291  13.515
  181DOPC    C322176   1.264   4.102  13.496
  181DOPC    HX22177   1.358   4.031  13.444
  181DOPC    HY22178   1.208   4.019  13.568
  181DOPC   O3122179   1.337   4.235  13.563
  181DOPC   C3122180   1.423   4.200  13.671
  181DOPC   O3222181   1.429   4.069  13.725
  181DOPC   C3222182   1.520   4.346  13.712
  181DOPC   H2X22183   1.454   4.415  13.789
  181DOPC   H2Y22184   1.633   4.301  13.759
  181DOPC   C2322185   0.881   4.424  13.642
  181DOPC   H3R22186   0.797   4.514  13.679
  181DOPC   H3S22187   0.953   4.482  13.561
  181DOPC   C2422188   0.989   4.390  13.761
  181DOPC   H4R22189   1.037   4.505  13.801
  181DOPC   H4S22190   1.092   4.319  13.721
  181DOPC   C2522191   0.905   4.297  13.875
  181DOPC   H5R22192   0.878   4.172  13.841
  181DOPC   H5S22193   0.790   4.356  13.903
  181DOPC   C2622194   1.013   4.285  13.997
  181DOPC   H6R22195   0.973   4.184  14.063
  181DOPC   H6S22196   1.007   4.397  14.055
  181DOPC   C2722197   1.186   4.258  13.951
  181DOPC   H7R22198   1.234   4.360  13.893
  181DOPC   H7S22199   1.184   4.147  13.887
  181DOPC   C2822200   1.298   4.240  14.067
  181DOPC   H8R22201   1.228   4.181  14.147
  181DOPC   H8S22202   1.328   4.362  14.106
  181DOPC   C2922203   1.444   4.146  14.021
  181DOPC   H9R22204   1.420   4.046  13.952
  181DOPC  C21022205   1.594   4.170  14.063
  181DOPC  H10R22206   1.696   4.100  14.022
  181DOPC  C21122207   1.630   4.296  14.164
  181DOPC  H11R22208   1.585   4.416  14.132
  181DOPC  H11S22209   1.760   4.309  14.184
  181DOPC  C21222210   1.542   4.242  14.292
  181DOPC  H12R22211   1.602   4.135  14.336
  181DOPC  H12S22212   1.412   4.218  14.283
  181DOPC  C21322213   1.547   4.381  14.383
  181DOPC  H13R22214   1.495   4.492  14.337
  181DOPC  H13S22215   1.678   4.397  14.377
  181DOPC  C21422216   1.477   4.363  14.524
  181DOPC  H14R22217   1.535   4.265  14.581
  181DOPC  H14S22218   1.346   4.338  14.522
  181DOPC  C21522219   1.511   4.520  14.593
  181DOPC  H15R22220   1.482   4.518  14.699
  181DOPC  H15S22221   1.432   4.619  14.556
  181DOPC  C21622222   1.687   4.565  14.565
  181DOPC  H16R22223   1.722   4.669  14.621
  181DOPC  H16S22224   1.687   4.614  14.462
  181DOPC  C21722225   1.819   4.429  14.572
  181DOPC  H17R22226   1.878   4.426  14.472
  181DOPC  H17S22227   1.763   4.310  14.585
  181DOPC  C21822228   1.949   4.439  14.679
  181DOPC  H18R22229   2.030   4.333  14.675
  181DOPC  H18S22230   1.890   4.451  14.778
  181DOPC  H18T22231   2.027   4.543  14.668
  181DOPC   C3322232   1.561   4.452  13.589
  181DOPC   H3X22233   1.590   4.378  13.500
  181DOPC   H3Y22234   1.672   4.514  13.616
  181DOPC   C3422235   1.435   4.579  13.550
  181DOPC   H4X22236   1.328   4.520  13.506
  181DOPC   H4Y22237   1.490   4.656  13.470
  181DOPC   C3522238   1.382   4.688  13.666
  181DOPC   H5X22239   1.492   4.735  13.717
  181DOPC   H5Y22240   1.313   4.618  13.740
  181DOPC   C3622241   1.279   4.831  13.621
  181DOPC   H6X22242   1.339   4.891  13.535
  181DOPC   H6Y22243   1.162   4.783  13.584
  181DOPC   C3722244   1.249   4.958  13.731
  181DOPC   H7X22245   1.356   5.039  13.734
  181DOPC   H7Y22246   1.144   5.033  13.700
  181DOPC   C3822247   1.220   4.890  13.873
  181DOPC   H8X22248   1.326   4.814  13.901
  181DOPC   H8Y22249   1.115   4.810  13.869
  181DOPC   C3922250   1.196   5.020  13.976
  181DOPC   H9X22251   1.145   5.131  13.937
  181DOPC  C31022252   1.223   5.008  14.109
  181DOPC  H10X22253   1.194   5.113  14.171
  181DOPC  C31122254   1.283   4.864  14.186
  181DOPC  H11X22255   1.384   4.902  14.252
  181DOPC  H11Y22256   1.332   4.769  14.119
  181DOPC  C31222257   1.153   4.784  14.276
  181DOPC  H12X22258   1.070   4.877  14.315
  181DOPC  H12Y22259   1.214   4.729  14.364
  181DOPC  C31322260   1.060   4.650  14.204
  181DOPC  H13X22261   1.000   4.697  14.114
  181DOPC  H13Y22262   1.150   4.561  14.167
  181DOPC  C31422263   0.936   4.558  14.290
  181DOPC  H14X22264   0.858   4.639  14.347
  181DOPC  H14Y22265   0.856   4.488  14.222
  181DOPC  C31522266   1.018   4.442  14.388
  181DOPC  H15X22267   1.093   4.517  14.456
  181DOPC  H15Y22268   1.099   4.361  14.332
  181DOPC  C31622269   0.899   4.343  14.471
  181DOPC  H16X22270   0.797   4.418  14.504
  181DOPC  H16Y22271   0.850   4.244  14.407
  181DOPC  C31722272   0.978   4.268  14.595
  181DOPC  H17X22273   0.887   4.193  14.646
  181DOPC  H17Y22274   1.076   4.188  14.561
  181DOPC  C31822275   1.046   4.390  14.695
  181DOPC  H18X22276   1.160   4.444  14.658
  181DOPC  H18Y22277   0.960   4.489  14.712
  181DOPC  H18Z22278   1.073   4.332  14.793
  182DOPC     N22279   3.067   1.099  13.206
  182DOPC   C1222280   3.043   1.213  13.088
  182DOPC  H12A22281   3.043   1.144  12.996
  182DOPC  H12B22282   3.149   1.290  13.081
  182DOPC   C1322283   3.101   1.195  13.329
  182DOPC  H13A22284   3.119   1.117  13.414
  182DOPC  H13B22285   3.210   1.264  13.316
  182DOPC  H13C22286   3.001   1.276  13.349
  182DOPC   C1422287   3.211   0.998  13.174
  182DOPC  H14A22288   3.311   1.074  13.140
  182DOPC  H14B22289   3.253   0.930  13.259
  182DOPC  H14C22290   3.186   0.914  13.093
  182DOPC   C1522291   2.921   0.997  13.224
  182DOPC  H15A22292   2.814   1.074  13.230
  182DOPC  H15B22293   2.929   0.923  13.313
  182DOPC  H15C22294   2.903   0.923  13.137
  182DOPC   C1122295   2.892   1.324  13.085
  182DOPC  H11A22296   2.890   1.394  13.179
  182DOPC  H11B22297   2.908   1.411  13.002
  182DOPC     P22298   2.646   1.231  12.939
  182DOPC   O1322299   2.749   1.212  12.821
  182DOPC   O1422300   2.533   1.369  12.940
  182DOPC   O1222301   2.748   1.234  13.075
  182DOPC   O1122302   2.545   1.070  12.943
  182DOPC    C122303   2.477   0.997  13.056
  182DOPC    HA22304   2.572   0.940  13.118
  182DOPC    HB22305   2.395   0.900  13.023
  182DOPC    C222306   2.381   1.117  13.142
  182DOPC    HS22307   2.344   1.220  13.078
  182DOPC   O2122308   2.491   1.164  13.245
  182DOPC   C2122309   2.465   1.307  13.293
  182DOPC   O2222310   2.347   1.391  13.275
  182DOPC   C2222311   2.615   1.357  13.371
  182DOPC   H2R22312   2.689   1.430  13.302
  182DOPC   H2S22313   2.684   1.249  13.401
  182DOPC    C322314   2.226   1.043  13.198
  182DOPC    HX22315   2.140   1.024  13.115
  182DOPC    HY22316   2.168   1.133  13.265
  182DOPC   O3122317   2.263   0.890  13.260
  182DOPC   C3122318   2.294   0.910  13.390
  182DOPC   O3222319   2.262   1.028  13.455
  182DOPC   C3222320   2.401   0.778  13.443
  182DOPC   H2X22321   2.328   0.701  13.510
  182DOPC   H2Y22322   2.446   0.703  13.358
  182DOPC   C2322323   2.570   1.458  13.494
  182DOPC   H3R22324   2.489   1.556  13.459
  182DOPC   H3S22325   2.678   1.516  13.538
  182DOPC   C2422326   2.483   1.363  13.602
  182DOPC   H4R22327   2.374   1.304  13.559
  182DOPC   H4S22328   2.440   1.452  13.674
  182DOPC   C2522329   2.580   1.237  13.679
  182DOPC   H5R22330   2.692   1.206  13.624
  182DOPC   H5S22331   2.504   1.128  13.686
  182DOPC   C2622332   2.621   1.286  13.824
  182DOPC   H6R22333   2.509   1.325  13.876
  182DOPC   H6S22334   2.705   1.390  13.822
  182DOPC   C2722335   2.695   1.146  13.901
  182DOPC   H7R22336   2.809   1.117  13.849
  182DOPC   H7S22337   2.615   1.040  13.894
  182DOPC   C2822338   2.731   1.175  14.049
  182DOPC   H8R22339   2.803   1.076  14.093
  182DOPC   H8S22340   2.617   1.175  14.106
  182DOPC   C2922341   2.820   1.328  14.070
  182DOPC   H9R22342   2.897   1.368  13.988
  182DOPC  C21022343   2.819   1.406  14.186
  182DOPC  H10R22344   2.891   1.517  14.193
  182DOPC  C21122345   2.730   1.352  14.310
  182DOPC  H11R22346   2.818   1.345  14.393
  182DOPC  H11S22347   2.682   1.229  14.300
  182DOPC  C21222348   2.591   1.457  14.359
  182DOPC  H12R22349   2.486   1.447  14.291
  182DOPC  H12S22350   2.628   1.584  14.362
  182DOPC  C21322351   2.545   1.417  14.504
  182DOPC  H13R22352   2.437   1.484  14.529
  182DOPC  H13S22353   2.635   1.468  14.574
  182DOPC  C21422354   2.530   1.238  14.540
  182DOPC  H14R22355   2.641   1.172  14.513
  182DOPC  H14S22356   2.430   1.181  14.484
  182DOPC  C21522357   2.502   1.217  14.690
  182DOPC  H15R22358   2.429   1.316  14.731
  182DOPC  H15S22359   2.621   1.223  14.739
  182DOPC  C21622360   2.417   1.062  14.727
  182DOPC  H16R22361   2.468   0.966  14.662
  182DOPC  H16S22362   2.287   1.072  14.703
  182DOPC  C21722363   2.443   1.018  14.875
  182DOPC  H17R22364   2.562   1.062  14.905
  182DOPC  H17S22365   2.443   0.887  14.894
  182DOPC  C21822366   2.328   1.100  14.968
  182DOPC  H18R22367   2.329   1.231  14.947
  182DOPC  H18S22368   2.366   1.080  15.073
  182DOPC  H18T22369   2.204   1.054  14.957
  182DOPC   C3322370   2.539   0.853  13.523
  182DOPC   H3X22371   2.512   0.835  13.631
  182DOPC   H3Y22372   2.546   0.985  13.506
  182DOPC   C3422373   2.702   0.786  13.484
  182DOPC   H4X22374   2.723   0.811  13.376
  182DOPC   H4Y22375   2.701   0.654  13.497
  182DOPC   C3522376   2.838   0.859  13.568
  182DOPC   H5X22377   2.842   0.992  13.555
  182DOPC   H5Y22378   2.956   0.810  13.534
  182DOPC   C3622379   2.813   0.816  13.715
  182DOPC   H6X22380   2.707   0.882  13.754
  182DOPC   H6Y22381   2.780   0.686  13.717
  182DOPC   C3722382   2.954   0.844  13.810
  182DOPC   H7X22383   3.064   0.782  13.771
  182DOPC   H7Y22384   2.989   0.972  13.813
  182DOPC   C3822385   2.916   0.785  13.953
  182DOPC   H8X22386   2.839   0.876  13.999
  182DOPC   H8Y22387   3.030   0.785  14.010
  182DOPC   C3922388   2.832   0.624  13.969
  182DOPC   H9X22389   2.885   0.527  13.909
  182DOPC  C31022390   2.702   0.588  14.044
  182DOPC  H10X22391   2.670   0.460  14.055
  182DOPC  C31122392   2.608   0.700  14.133
  182DOPC  H11X22393   2.477   0.673  14.127
  182DOPC  H11Y22394   2.623   0.828  14.105
  182DOPC  C31222395   2.665   0.682  14.278
  182DOPC  H12X22396   2.682   0.552  14.304
  182DOPC  H12Y22397   2.574   0.730  14.349
  182DOPC  C31322398   2.821   0.776  14.297
  182DOPC  H13X22399   2.909   0.736  14.221
  182DOPC  H13Y22400   2.795   0.905  14.275
  182DOPC  C31422401   2.893   0.766  14.437
  182DOPC  H14X22402   2.863   0.650  14.486
  182DOPC  H14Y22403   3.026   0.775  14.432
  182DOPC  C31522404   2.828   0.893  14.532
  182DOPC  H15X22405   2.695   0.878  14.537
  182DOPC  H15Y22406   2.854   1.014  14.491
  182DOPC  C31622407   2.902   0.875  14.672
  182DOPC  H16X22408   2.878   0.751  14.709
  182DOPC  H16Y22409   3.032   0.896  14.670
  182DOPC  C31722410   2.824   0.991  14.770
  182DOPC  H17X22411   2.854   1.117  14.745
  182DOPC  H17Y22412   2.695   0.973  14.748
  182DOPC  C31822413   2.849   0.958  14.919
  182DOPC  H18X22414   2.796   1.056  14.980
  182DOPC  H18Y22415   2.791   0.842  14.948
  182DOPC  H18Z22416   2.977   0.947  14.944
  183DOPC     N22417   8.024   6.217  13.056
  183DOPC   C1222418   8.054   6.372  12.977
  183DOPC  H12A22419   7.945   6.439  12.965
  183DOPC  H12B22420   8.096   6.340  12.878
  183DOPC   C1322421   7.970   6.246  13.197
  183DOPC  H13A22422   7.859   6.314  13.204
  183DOPC  H13B22423   7.950   6.136  13.251
  183DOPC  H13C22424   8.060   6.318  13.250
  183DOPC   C1422425   8.183   6.137  13.060
  183DOPC  H14A22426   8.237   6.136  12.962
  183DOPC  H14B22427   8.266   6.210  13.120
  183DOPC  H14C22428   8.178   6.019  13.103
  183DOPC   C1522429   7.908   6.115  12.983
  183DOPC  H15A22430   7.957   6.078  12.886
  183DOPC  H15B22431   7.799   6.184  12.962
  183DOPC  H15C22432   7.876   6.008  13.038
  183DOPC   C1122433   8.183   6.487  13.032
  183DOPC  H11A22434   8.200   6.594  12.967
  183DOPC  H11B22435   8.136   6.538  13.125
  183DOPC     P22436   8.491   6.437  12.985
  183DOPC   O1322437   8.453   6.476  12.844
  183DOPC   O1422438   8.586   6.288  13.007
  183DOPC   O1222439   8.330   6.412  13.061
  183DOPC   O1122440   8.564   6.583  13.062
  183DOPC    C122441   8.669   6.560  13.173
  183DOPC    HA22442   8.726   6.679  13.189
  183DOPC    HB22443   8.770   6.479  13.150
  183DOPC    C222444   8.591   6.524  13.314
  183DOPC    HS22445   8.686   6.512  13.392
  183DOPC   O2122446   8.479   6.391  13.324
  183DOPC   C2122447   8.552   6.262  13.373
  183DOPC   O2222448   8.693   6.229  13.357
  183DOPC   C2222449   8.448   6.164  13.469
  183DOPC   H2R22450   8.423   6.047  13.422
  183DOPC   H2S22451   8.333   6.227  13.486
  183DOPC    C322452   8.512   6.686  13.347
  183DOPC    HX22453   8.425   6.696  13.264
  183DOPC    HY22454   8.597   6.786  13.329
  183DOPC   O3122455   8.454   6.716  13.480
  183DOPC   C3122456   8.345   6.638  13.545
  183DOPC   O3222457   8.286   6.508  13.520
  183DOPC   C3222458   8.299   6.734  13.668
  183DOPC   H2X22459   8.370   6.847  13.674
  183DOPC   H2Y22460   8.170   6.766  13.666
  183DOPC   C2322461   8.540   6.139  13.603
  183DOPC   H3R22462   8.570   6.257  13.648
  183DOPC   H3S22463   8.657   6.077  13.580
  183DOPC   C2422464   8.454   6.037  13.709
  183DOPC   H4R22465   8.540   6.002  13.789
  183DOPC   H4S22466   8.416   5.923  13.661
  183DOPC   C2522467   8.308   6.116  13.774
  183DOPC   H5R22468   8.230   6.019  13.813
  183DOPC   H5S22469   8.238   6.185  13.698
  183DOPC   C2622470   8.346   6.227  13.893
  183DOPC   H6R22471   8.420   6.329  13.857
  183DOPC   H6S22472   8.420   6.162  13.967
  183DOPC   C2722473   8.191   6.289  13.960
  183DOPC   H7R22474   8.119   6.354  13.883
  183DOPC   H7S22475   8.221   6.376  14.040
  183DOPC   C2822476   8.083   6.157  14.020
  183DOPC   H8R22477   8.027   6.086  13.937
  183DOPC   H8S22478   7.981   6.217  14.072
  183DOPC   C2922479   8.174   6.048  14.113
  183DOPC   H9R22480   8.234   5.945  14.065
  183DOPC  C21022481   8.196   6.073  14.244
  183DOPC  H10R22482   8.270   5.989  14.302
  183DOPC  C21122483   8.131   6.215  14.320
  183DOPC  H11R22484   8.034   6.179  14.391
  183DOPC  H11S22485   8.078   6.306  14.252
  183DOPC  C21222486   8.264   6.300  14.399
  183DOPC  H12R22487   8.378   6.301  14.342
  183DOPC  H12S22488   8.286   6.235  14.495
  183DOPC  C21322489   8.220   6.475  14.427
  183DOPC  H13R22490   8.089   6.488  14.448
  183DOPC  H13S22491   8.245   6.544  14.334
  183DOPC  C21422492   8.317   6.546  14.542
  183DOPC  H14R22493   8.323   6.678  14.526
  183DOPC  H14S22494   8.443   6.503  14.536
  183DOPC  C21522495   8.251   6.522  14.685
  183DOPC  H15R22496   8.263   6.644  14.729
  183DOPC  H15S22497   8.329   6.439  14.743
  183DOPC  C21622498   8.072   6.490  14.708
  183DOPC  H16R22499   8.035   6.373  14.664
  183DOPC  H16S22500   8.006   6.587  14.655
  183DOPC  C21722501   8.021   6.498  14.857
  183DOPC  H17R22502   7.888   6.498  14.863
  183DOPC  H17S22503   8.063   6.614  14.901
  183DOPC  C21822504   8.086   6.367  14.949
  183DOPC  H18R22505   8.219   6.370  14.946
  183DOPC  H18S22506   8.044   6.246  14.920
  183DOPC  H18T22507   8.046   6.391  15.054
  183DOPC   C3322508   8.340   6.622  13.782
  183DOPC   H3X22509   8.466   6.578  13.768
  183DOPC   H3Y22510   8.261   6.515  13.778
  183DOPC   C3422511   8.329   6.701  13.917
  183DOPC   H4X22512   8.209   6.671  13.959
  183DOPC   H4Y22513   8.339   6.834  13.908
  183DOPC   C3522514   8.461   6.637  14.006
  183DOPC   H5X22515   8.575   6.619  13.949
  183DOPC   H5Y22516   8.425   6.517  14.044
  183DOPC   C3622517   8.500   6.748  14.121
  183DOPC   H6X22518   8.567   6.854  14.087
  183DOPC   H6Y22519   8.388   6.788  14.172
  183DOPC   C3722520   8.598   6.648  14.217
  183DOPC   H7X22521   8.533   6.533  14.237
  183DOPC   H7Y22522   8.714   6.618  14.167
  183DOPC   C3822523   8.624   6.736  14.347
  183DOPC   H8X22524   8.508   6.762  14.397
  183DOPC   H8Y22525   8.688   6.850  14.323
  183DOPC   C3922526   8.730   6.628  14.427
  183DOPC   H9X22527   8.712   6.499  14.407
  183DOPC  C31022528   8.808   6.672  14.537
  183DOPC  H10X22529   8.891   6.587  14.584
  183DOPC  C31122530   8.800   6.835  14.597
  183DOPC  H11X22531   8.671   6.856  14.618
  183DOPC  H11Y22532   8.842   6.925  14.523
  183DOPC  C31222533   8.888   6.864  14.731
  183DOPC  H12X22534   8.884   6.994  14.754
  183DOPC  H12Y22535   9.014   6.827  14.718
  183DOPC  C31322536   8.825   6.770  14.850
  183DOPC  H13X22537   8.693   6.761  14.844
  183DOPC  H13Y22538   8.873   6.648  14.834
  183DOPC  C31422539   8.880   6.818  14.993
  183DOPC  H14X22540   8.806   6.744  15.062
  183DOPC  H14Y22541   9.007   6.776  15.001
  183DOPC  C31522542   8.881   6.991  15.050
  183DOPC  H15X22543   8.989   7.051  15.011
  183DOPC  H15Y22544   8.898   6.982  15.160
  183DOPC  C31622545   8.741   7.108  15.025
  183DOPC  H16X22546   8.779   7.228  15.062
  183DOPC  H16Y22547   8.722   7.117  14.917
  183DOPC  C31722548   8.586   7.066  15.101
  183DOPC  H17X22549   8.582   6.935  15.113
  183DOPC  H17Y22550   8.600   7.116  15.203
  183DOPC  C31822551   8.426   7.129  15.045
  183DOPC  H18X22552   8.321   7.067  15.086
  183DOPC  H18Y22553   8.406   7.255  15.072
  183DOPC  H18Z22554   8.417   7.115  14.936
  184DOPC     N22555   5.538   0.554  13.174
  184DOPC   C1222556   5.513   0.648  13.045
  184DOPC  H12A22557   5.393   0.692  13.043
  184DOPC  H12B22558   5.528   0.569  12.959
  184DOPC   C1322559   5.695   0.468  13.167
  184DOPC  H13A22560   5.701   0.390  13.080
  184DOPC  H13B22561   5.792   0.553  13.150
  184DOPC  H13C22562   5.729   0.403  13.256
  184DOPC   C1422563   5.407   0.434  13.196
  184DOPC  H14A22564   5.292   0.492  13.203
  184DOPC  H14B22565   5.405   0.346  13.116
  184DOPC  H14C22566   5.428   0.372  13.290
  184DOPC   C1522567   5.542   0.666  13.292
  184DOPC  H15A22568   5.443   0.750  13.290
  184DOPC  H15B22569   5.653   0.736  13.291
  184DOPC  H15C22570   5.538   0.601  13.386
  184DOPC   C1122571   5.628   0.788  13.017
  184DOPC  H11A22572   5.576   0.872  12.942
  184DOPC  H11B22573   5.651   0.860  13.109
  184DOPC     P22574   5.945   0.755  13.011
  184DOPC   O1322575   6.052   0.784  12.895
  184DOPC   O1422576   5.993   0.624  13.103
  184DOPC   O1222577   5.768   0.719  12.962
  184DOPC   O1122578   5.920   0.916  13.090
  184DOPC    C122579   6.036   0.986  13.176
  184DOPC    HA22580   6.048   1.116  13.152
  184DOPC    HB22581   6.158   0.934  13.162
  184DOPC    C222582   5.988   0.971  13.326
  184DOPC    HS22583   6.095   1.004  13.387
  184DOPC   O2122584   5.928   0.814  13.355
  184DOPC   C2122585   6.036   0.713  13.403
  184DOPC   O2222586   6.176   0.744  13.424
  184DOPC   C2222587   5.956   0.556  13.442
  184DOPC   H2R22588   6.014   0.462  13.380
  184DOPC   H2S22589   5.827   0.560  13.416
  184DOPC    C322590   5.854   1.088  13.367
  184DOPC    HX22591   5.747   1.061  13.305
  184DOPC    HY22592   5.891   1.213  13.342
  184DOPC   O3122593   5.814   1.066  13.508
  184DOPC   C3122594   5.887   1.166  13.592
  184DOPC   O3222595   5.966   1.282  13.559
  184DOPC   C3222596   5.860   1.115  13.737
  184DOPC   H2X22597   5.740   1.062  13.746
  184DOPC   H2Y22598   5.951   1.024  13.762
  184DOPC   C2322599   5.977   0.517  13.592
  184DOPC   H3R22600   6.107   0.522  13.618
  184DOPC   H3S22601   5.935   0.392  13.610
  184DOPC   C2422602   5.882   0.630  13.685
  184DOPC   H4R22603   5.752   0.614  13.664
  184DOPC   H4S22604   5.914   0.757  13.663
  184DOPC   C2522605   5.915   0.595  13.834
  184DOPC   H5R22606   5.938   0.464  13.846
  184DOPC   H5S22607   5.806   0.624  13.894
  184DOPC   C2622608   6.056   0.692  13.889
  184DOPC   H6R22609   6.018   0.820  13.902
  184DOPC   H6S22610   6.155   0.691  13.813
  184DOPC   C2722611   6.125   0.626  14.021
  184DOPC   H7R22612   6.240   0.690  14.042
  184DOPC   H7S22613   6.154   0.497  14.007
  184DOPC   C2822614   6.013   0.643  14.143
  184DOPC   H8R22615   6.068   0.582  14.230
  184DOPC   H8S22616   5.899   0.578  14.122
  184DOPC   C2922617   5.987   0.817  14.177
  184DOPC   H9R22618   6.097   0.888  14.194
  184DOPC  C21022619   5.844   0.892  14.185
  184DOPC  H10R22620   5.842   1.020  14.212
  184DOPC  C21122621   5.682   0.817  14.162
  184DOPC  H11R22622   5.687   0.703  14.105
  184DOPC  H11S22623   5.605   0.901  14.103
  184DOPC  C21222624   5.598   0.786  14.297
  184DOPC  H12R22625   5.669   0.702  14.360
  184DOPC  H12S22626   5.479   0.728  14.278
  184DOPC  C21322627   5.572   0.946  14.369
  184DOPC  H13R22628   5.510   1.025  14.296
  184DOPC  H13S22629   5.689   1.001  14.397
  184DOPC  C21422630   5.470   0.940  14.495
  184DOPC  H14R22631   5.359   0.870  14.476
  184DOPC  H14S22632   5.434   1.066  14.521
  184DOPC  C21522633   5.560   0.871  14.615
  184DOPC  H15R22634   5.664   0.947  14.638
  184DOPC  H15S22635   5.605   0.750  14.588
  184DOPC  C21622636   5.452   0.859  14.738
  184DOPC  H16R22637   5.348   0.779  14.714
  184DOPC  H16S22638   5.401   0.979  14.765
  184DOPC  C21722639   5.540   0.794  14.860
  184DOPC  H17R22640   5.616   0.890  14.902
  184DOPC  H17S22641   5.623   0.697  14.830
  184DOPC  C21822642   5.423   0.731  14.964
  184DOPC  H18R22643   5.351   0.630  14.923
  184DOPC  H18S22644   5.339   0.827  14.996
  184DOPC  H18T22645   5.490   0.689  15.053
  184DOPC   C3322646   5.876   1.261  13.832
  184DOPC   H3X22647   5.806   1.363  13.790
  184DOPC   H3Y22648   6.004   1.300  13.837
  184DOPC   C3422649   5.818   1.234  13.975
  184DOPC   H4X22650   5.914   1.171  14.033
  184DOPC   H4Y22651   5.708   1.157  13.976
  184DOPC   C3522652   5.780   1.396  14.040
  184DOPC   H5X22653   5.683   1.458  13.982
  184DOPC   H5Y22654   5.890   1.472  14.034
  184DOPC   C3622655   5.729   1.384  14.186
  184DOPC   H6X22656   5.802   1.291  14.239
  184DOPC   H6Y22657   5.756   1.501  14.233
  184DOPC   C3722658   5.549   1.349  14.203
  184DOPC   H7X22659   5.479   1.445  14.152
  184DOPC   H7Y22660   5.520   1.235  14.151
  184DOPC   C3822661   5.498   1.338  14.350
  184DOPC   H8X22662   5.562   1.237  14.396
  184DOPC   H8Y22663   5.368   1.309  14.355
  184DOPC   C3922664   5.537   1.486  14.430
  184DOPC   H9X22665   5.452   1.585  14.415
  184DOPC  C31022666   5.668   1.508  14.508
  184DOPC  H10X22667   5.680   1.628  14.554
  184DOPC  C31122668   5.807   1.396  14.538
  184DOPC  H11X22669   5.912   1.445  14.484
  184DOPC  H11Y22670   5.786   1.277  14.491
  184DOPC  C31222671   5.869   1.363  14.683
  184DOPC  H12X22672   5.819   1.450  14.756
  184DOPC  H12Y22673   6.001   1.385  14.685
  184DOPC  C31322674   5.837   1.190  14.729
  184DOPC  H13X22675   5.708   1.178  14.759
  184DOPC  H13Y22676   5.857   1.110  14.641
  184DOPC  C31422677   5.945   1.122  14.841
  184DOPC  H14X22678   5.904   0.996  14.857
  184DOPC  H14Y22679   6.072   1.118  14.810
  184DOPC  C31522680   5.929   1.213  14.973
  184DOPC  H15X22681   5.798   1.231  14.990
  184DOPC  H15Y22682   5.984   1.333  14.963
  184DOPC  C31622683   6.002   1.130  15.097
  184DOPC  H16X22684   6.133   1.156  15.102
  184DOPC  H16Y22685   5.946   1.187  15.187
  184DOPC  C31722686   5.980   0.948  15.109
  184DOPC  H17X22687   5.852   0.916  15.091
  184DOPC  H17Y22688   6.053   0.888  15.030
  184DOPC  C31822689   6.035   0.890  15.247
  184DOPC  H18X22690   6.168   0.876  15.246
  184DOPC  H18Y22691   6.004   0.982  15.324
  184DOPC  H18Z22692   5.981   0.774  15.276
  185DOPC     N22693   7.573   7.247  13.133
  185DOPC   C1222694   7.660   7.094  13.182
  185DOPC  H12A22695   7.590   7.037  13.260
  185DOPC  H12B22696   7.774   7.127  13.227
  185DOPC   C1322697   7.426   7.195  13.058
  185DOPC  H13A22698   7.462   7.116  12.976
  185DOPC  H13B22699   7.340   7.134  13.122
  185DOPC  H13C22700   7.367   7.298  13.013
  185DOPC   C1422701   7.687   7.325  13.037
  185DOPC  H14A22702   7.801   7.355  13.083
  185DOPC  H14B22703   7.721   7.237  12.960
  185DOPC  H14C22704   7.640   7.429  12.988
  185DOPC   C1522705   7.526   7.363  13.241
  185DOPC  H15A22706   7.630   7.410  13.295
  185DOPC  H15B22707   7.445   7.314  13.315
  185DOPC  H15C22708   7.465   7.468  13.198
  185DOPC   C1122709   7.699   6.964  13.074
  185DOPC  H11A22710   7.742   6.853  13.126
  185DOPC  H11B22711   7.586   6.929  13.024
  185DOPC     P22712   7.994   6.958  12.971
  185DOPC   O1322713   8.099   7.092  12.929
  185DOPC   O1422714   8.006   6.800  12.902
  185DOPC   O1222715   7.812   7.015  12.974
  185DOPC   O1122716   8.017   6.928  13.123
  185DOPC    C122717   8.171   6.876  13.165
  185DOPC    HA22718   8.269   6.964  13.141
  185DOPC    HB22719   8.206   6.764  13.114
  185DOPC    C222720   8.170   6.841  13.316
  185DOPC    HS22721   8.232   6.730  13.336
  185DOPC   O2122722   8.009   6.822  13.364
  185DOPC   C2122723   7.957   6.671  13.346
  185DOPC   O2222724   8.035   6.552  13.323
  185DOPC   C2222725   7.787   6.660  13.386
  185DOPC   H2R22726   7.742   6.536  13.366
  185DOPC   H2S22727   7.714   6.748  13.330
  185DOPC    C322728   8.261   6.982  13.385
  185DOPC    HX22729   8.383   6.985  13.342
  185DOPC    HY22730   8.280   6.961  13.493
  185DOPC   O3122731   8.188   7.133  13.356
  185DOPC   C3122732   8.083   7.174  13.446
  185DOPC   O3222733   8.056   7.104  13.551
  185DOPC   C3222734   8.000   7.327  13.405
  185DOPC   H2X22735   8.088   7.397  13.343
  185DOPC   H2Y22736   7.895   7.301  13.343
  185DOPC   C2322737   7.800   6.692  13.534
  185DOPC   H3R22738   7.921   6.680  13.580
  185DOPC   H3S22739   7.730   6.601  13.588
  185DOPC   C2422740   7.742   6.860  13.564
  185DOPC   H4R22741   7.628   6.889  13.511
  185DOPC   H4S22742   7.832   6.950  13.531
  185DOPC   C2522743   7.720   6.863  13.712
  185DOPC   H5R22744   7.814   6.794  13.765
  185DOPC   H5S22745   7.602   6.806  13.730
  185DOPC   C2622746   7.706   7.028  13.766
  185DOPC   H6R22747   7.640   7.105  13.694
  185DOPC   H6S22748   7.829   7.078  13.782
  185DOPC   C2722749   7.608   7.018  13.894
  185DOPC   H7R22750   7.490   6.961  13.871
  185DOPC   H7S22751   7.588   7.145  13.921
  185DOPC   C2822752   7.690   6.926  14.007
  185DOPC   H8R22753   7.727   6.804  13.974
  185DOPC   H8S22754   7.607   6.910  14.093
  185DOPC   C2922755   7.829   7.036  14.037
  185DOPC   H9R22756   7.802   7.164  14.022
  185DOPC  C21022757   7.973   6.995  14.081
  185DOPC  H10R22758   8.066   7.087  14.091
  185DOPC  C21122759   8.021   6.826  14.111
  185DOPC  H11R22760   8.154   6.817  14.117
  185DOPC  H11S22761   7.978   6.740  14.033
  185DOPC  C21222762   7.954   6.785  14.249
  185DOPC  H12R22763   7.958   6.653  14.267
  185DOPC  H12S22764   7.826   6.823  14.259
  185DOPC  C21322765   8.058   6.869  14.353
  185DOPC  H13R22766   8.095   6.990  14.316
  185DOPC  H13S22767   8.171   6.800  14.367
  185DOPC  C21422768   7.978   6.898  14.487
  185DOPC  H14R22769   7.933   6.784  14.531
  185DOPC  H14S22770   7.873   6.980  14.474
  185DOPC  C21522771   8.106   6.977  14.573
  185DOPC  H15R22772   8.150   7.079  14.511
  185DOPC  H15S22773   8.208   6.894  14.590
  185DOPC  C21622774   8.048   7.045  14.705
  185DOPC  H16R22775   7.936   7.114  14.688
  185DOPC  H16S22776   8.140   7.127  14.747
  185DOPC  C21722777   8.022   6.917  14.808
  185DOPC  H17R22778   8.063   6.960  14.908
  185DOPC  H17S22779   8.095   6.810  14.783
  185DOPC  C21822780   7.846   6.878  14.813
  185DOPC  H18R22781   7.798   6.850  14.713
  185DOPC  H18S22782   7.784   6.990  14.847
  185DOPC  H18T22783   7.819   6.779  14.883
  185DOPC   C3322784   7.960   7.422  13.533
  185DOPC   H3X22785   7.961   7.548  13.503
  185DOPC   H3Y22786   8.057   7.412  13.609
  185DOPC   C3422787   7.799   7.373  13.599
  185DOPC   H4X22788   7.826   7.262  13.655
  185DOPC   H4Y22789   7.705   7.346  13.523
  185DOPC   C3522790   7.735   7.496  13.700
  185DOPC   H5X22791   7.622   7.555  13.665
  185DOPC   H5Y22792   7.830   7.589  13.701
  185DOPC   C3622793   7.714   7.441  13.845
  185DOPC   H6X22794   7.601   7.373  13.851
  185DOPC   H6Y22795   7.812   7.357  13.869
  185DOPC   C3722796   7.699   7.585  13.942
  185DOPC   H7X22797   7.706   7.698  13.884
  185DOPC   H7Y22798   7.574   7.588  13.981
  185DOPC   C3822799   7.816   7.596  14.062
  185DOPC   H8X22800   7.736   7.618  14.150
  185DOPC   H8Y22801   7.888   7.706  14.060
  185DOPC   C3922802   7.930   7.459  14.081
  185DOPC   H9X22803   7.997   7.415  13.994
  185DOPC  C31022804   7.958   7.398  14.202
  185DOPC  H10X22805   8.033   7.291  14.216
  185DOPC  C31122806   7.878   7.468  14.322
  185DOPC  H11X22807   7.746   7.451  14.317
  185DOPC  H11Y22808   7.900   7.598  14.328
  185DOPC  C31222809   7.944   7.391  14.447
  185DOPC  H12X22810   7.932   7.258  14.444
  185DOPC  H12Y22811   7.866   7.430  14.532
  185DOPC  C31322812   8.118   7.441  14.475
  185DOPC  H13X22813   8.200   7.381  14.402
  185DOPC  H13Y22814   8.135   7.573  14.465
  185DOPC  C31422815   8.154   7.388  14.617
  185DOPC  H14X22816   8.040   7.343  14.656
  185DOPC  H14Y22817   8.230   7.283  14.612
  185DOPC  C31522818   8.224   7.502  14.721
  185DOPC  H15X22819   8.185   7.627  14.700
  185DOPC  H15Y22820   8.357   7.501  14.712
  185DOPC  C31622821   8.180   7.447  14.866
  185DOPC  H16X22822   8.251   7.337  14.883
  185DOPC  H16Y22823   8.222   7.540  14.938
  185DOPC  C31722824   8.008   7.404  14.905
  185DOPC  H17X22825   7.938   7.516  14.919
  185DOPC  H17Y22826   7.942   7.334  14.828
  185DOPC  C31822827   8.004   7.303  15.033
  185DOPC  H18X22828   8.060   7.184  15.015
  185DOPC  H18Y22829   8.074   7.363  15.114
  185DOPC  H18Z22830   7.879   7.283  15.068
  186DOPC     N22831   0.596   3.569  12.931
  186DOPC   C1222832   0.522   3.726  12.889
  186DOPC  H12A22833   0.416   3.697  12.829
  186DOPC  H12B22834   0.607   3.791  12.826
  186DOPC   C1322835   0.468   3.469  12.992
  186DOPC  H13A22836   0.517   3.356  13.027
  186DOPC  H13B22837   0.414   3.533  13.076
  186DOPC  H13C22838   0.373   3.442  12.921
  186DOPC   C1422839   0.728   3.599  13.031
  186DOPC  H14A22840   0.820   3.679  12.989
  186DOPC  H14B22841   0.680   3.653  13.121
  186DOPC  H14C22842   0.792   3.490  13.057
  186DOPC   C1522843   0.661   3.479  12.814
  186DOPC  H15A22844   0.721   3.368  12.846
  186DOPC  H15B22845   0.746   3.551  12.759
  186DOPC  H15C22846   0.566   3.437  12.749
  186DOPC   C1122847   0.464   3.841  13.001
  186DOPC  H11A22848   0.564   3.858  13.075
  186DOPC  H11B22849   0.442   3.960  12.956
  186DOPC     P22850   0.275   3.839  13.213
  186DOPC   O1322851   0.194   3.997  13.196
  186DOPC   O1422852   0.420   3.841  13.295
  186DOPC   O1222853   0.320   3.782  13.063
  186DOPC   O1122854   0.154   3.709  13.265
  186DOPC    C122855   0.013   3.649  13.200
  186DOPC    HA22856   0.044   3.594  13.102
  186DOPC    HB22857  -0.072   3.750  13.180
  186DOPC    C222858  -0.088   3.527  13.287
  186DOPC    HS22859  -0.215   3.533  13.251
  186DOPC   O2122860  -0.068   3.575  13.427
  186DOPC   C2122861  -0.197   3.641  13.486
  186DOPC   O2222862  -0.332   3.632  13.441
  186DOPC   C2222863  -0.155   3.724  13.622
  186DOPC   H2R22864  -0.220   3.658  13.702
  186DOPC   H2S22865  -0.205   3.846  13.620
  186DOPC    C322866  -0.040   3.342  13.262
  186DOPC    HX22867  -0.022   3.332  13.152
  186DOPC    HY22868  -0.148   3.266  13.281
  186DOPC   O3122869   0.103   3.272  13.319
  186DOPC   C3122870   0.091   3.130  13.382
  186DOPC   O3222871  -0.032   3.067  13.420
  186DOPC   C3222872   0.258   3.046  13.394
  186DOPC   H2X22873   0.230   2.929  13.350
  186DOPC   H2Y22874   0.323   3.101  13.312
  186DOPC   C2322875   0.026   3.737  13.658
  186DOPC   H3R22876   0.083   3.838  13.603
  186DOPC   H3S22877   0.085   3.635  13.612
  186DOPC   C2422878   0.083   3.737  13.806
  186DOPC   H4R22879   0.049   3.628  13.861
  186DOPC   H4S22880   0.024   3.830  13.865
  186DOPC   C2522881   0.268   3.743  13.811
  186DOPC   H5R22882   0.312   3.866  13.788
  186DOPC   H5S22883   0.317   3.667  13.730
  186DOPC   C2622884   0.340   3.680  13.943
  186DOPC   H6R22885   0.466   3.644  13.926
  186DOPC   H6S22886   0.274   3.572  13.977
  186DOPC   C2722887   0.334   3.816  14.047
  186DOPC   H7R22888   0.206   3.840  14.071
  186DOPC   H7S22889   0.386   3.922  13.995
  186DOPC   C2822890   0.433   3.793  14.175
  186DOPC   H8R22891   0.563   3.791  14.148
  186DOPC   H8S22892   0.404   3.673  14.218
  186DOPC   C2922893   0.396   3.930  14.270
  186DOPC   H9R22894   0.446   4.046  14.241
  186DOPC  C21022895   0.304   3.920  14.381
  186DOPC  H10R22896   0.280   4.028  14.441
  186DOPC  C21122897   0.224   3.767  14.426
  186DOPC  H11R22898   0.319   3.673  14.416
  186DOPC  H11S22899   0.125   3.736  14.356
  186DOPC  C21222900   0.163   3.740  14.570
  186DOPC  H12R22901   0.265   3.762  14.641
  186DOPC  H12S22902   0.132   3.611  14.580
  186DOPC  C21322903   0.016   3.838  14.614
  186DOPC  H13R22904  -0.012   3.925  14.532
  186DOPC  H13S22905   0.049   3.910  14.703
  186DOPC  C21422906  -0.142   3.745  14.645
  186DOPC  H14R22907  -0.188   3.691  14.551
  186DOPC  H14S22908  -0.230   3.838  14.677
  186DOPC  C21522909  -0.145   3.612  14.754
  186DOPC  H15R22910  -0.143   3.494  14.702
  186DOPC  H15S22911  -0.264   3.617  14.804
  186DOPC  C21622912  -0.018   3.617  14.864
  186DOPC  H16R22913   0.101   3.643  14.820
  186DOPC  H16S22914  -0.011   3.498  14.914
  186DOPC  C21722915  -0.054   3.743  14.971
  186DOPC  H17R22916  -0.179   3.724  15.008
  186DOPC  H17S22917  -0.049   3.863  14.922
  186DOPC  C21822918   0.061   3.740  15.091
  186DOPC  H18R22919   0.024   3.829  15.167
  186DOPC  H18S22920   0.185   3.769  15.059
  186DOPC  H18T22921   0.061   3.620  15.138
  186DOPC   C3322922   0.361   3.029  13.532
  186DOPC   H3X22923   0.264   3.023  13.606
  186DOPC   H3Y22924   0.379   3.149  13.486
  186DOPC   C3422925   0.511   3.118  13.605
  186DOPC   H4X22926   0.486   3.246  13.628
  186DOPC   H4Y22927   0.613   3.122  13.534
  186DOPC   C3522928   0.575   3.082  13.747
  186DOPC   H5X22929   0.688   3.155  13.755
  186DOPC   H5Y22930   0.612   2.957  13.765
  186DOPC   C3622931   0.476   3.152  13.862
  186DOPC   H6X22932   0.541   3.132  13.959
  186DOPC   H6Y22933   0.464   3.284  13.850
  186DOPC   C3722934   0.310   3.079  13.873
  186DOPC   H7X22935   0.236   3.114  13.785
  186DOPC   H7Y22936   0.320   2.946  13.875
  186DOPC   C3822937   0.226   3.142  13.997
  186DOPC   H8X22938   0.205   3.272  13.990
  186DOPC   H8Y22939   0.310   3.125  14.081
  186DOPC   C3922940   0.071   3.055  14.020
  186DOPC   H9X22941  -0.035   3.101  13.967
  186DOPC  C31022942   0.048   2.940  14.109
  186DOPC  H10X22943  -0.071   2.887  14.113
  186DOPC  C31122944   0.172   2.873  14.203
  186DOPC  H11X22945   0.289   2.922  14.180
  186DOPC  H11Y22946   0.191   2.743  14.180
  186DOPC  C31222947   0.127   2.887  14.353
  186DOPC  H12X22948   0.230   2.849  14.415
  186DOPC  H12Y22949   0.030   2.798  14.361
  186DOPC  C31322950   0.061   3.048  14.411
  186DOPC  H13X22951   0.146   3.128  14.359
  186DOPC  H13Y22952  -0.064   3.071  14.378
  186DOPC  C31422953   0.086   3.098  14.561
  186DOPC  H14X22954   0.004   3.044  14.634
  186DOPC  H14Y22955   0.194   3.028  14.568
  186DOPC  C31522956   0.125   3.281  14.600
  186DOPC  H15X22957   0.024   3.340  14.650
  186DOPC  H15Y22958   0.139   3.338  14.502
  186DOPC  C31622959   0.289   3.342  14.660
  186DOPC  H16X22960   0.367   3.238  14.668
  186DOPC  H16Y22961   0.344   3.430  14.589
  186DOPC  C31722962   0.322   3.406  14.801
  186DOPC  H17X22963   0.307   3.538  14.806
  186DOPC  H17Y22964   0.241   3.347  14.874
  186DOPC  C31822965   0.500   3.365  14.829
  186DOPC  H18X22966   0.511   3.236  14.854
  186DOPC  H18Y22967   0.574   3.386  14.737
  186DOPC  H18Z22968   0.556   3.436  14.910
  187DOPC     N22969   6.959   1.436  12.984
  187DOPC   C1222970   7.132   1.436  13.034
  187DOPC  H12A22971   7.187   1.554  13.033
  187DOPC  H12B22972   7.205   1.369  12.963
  187DOPC   C1322973   6.893   1.601  12.978
  187DOPC  H13A22974   6.979   1.675  12.925
  187DOPC  H13B22975   6.778   1.606  12.928
  187DOPC  H13C22976   6.881   1.651  13.078
  187DOPC   C1422977   6.856   1.324  13.065
  187DOPC  H14A22978   6.913   1.205  13.063
  187DOPC  H14B22979   6.850   1.352  13.170
  187DOPC  H14C22980   6.737   1.306  13.025
  187DOPC   C1522981   6.965   1.357  12.850
  187DOPC  H15A22982   7.027   1.427  12.776
  187DOPC  H15B22983   6.847   1.320  12.814
  187DOPC  H15C22984   7.028   1.243  12.865
  187DOPC   C1122985   7.164   1.346  13.162
  187DOPC  H11A22986   7.283   1.385  13.205
  187DOPC  H11B22987   7.074   1.366  13.242
  187DOPC     P22988   7.321   1.086  13.117
  187DOPC   O1322989   7.448   1.187  13.056
  187DOPC   O1422990   7.282   0.929  13.057
  187DOPC   O1222991   7.163   1.186  13.116
  187DOPC   O1122992   7.328   1.084  13.275
  187DOPC    C122993   7.200   0.996  13.339
  187DOPC    HA22994   7.204   0.868  13.306
  187DOPC    HB22995   7.080   1.045  13.313
  187DOPC    C222996   7.223   0.995  13.493
  187DOPC    HS22997   7.127   0.918  13.538
  187DOPC   O2122998   7.222   1.153  13.553
  187DOPC   C2122999   7.076   1.213  13.558
  187DOPC   O2223000   6.955   1.151  13.516
  187DOPC   C2223001   7.078   1.372  13.637
  187DOPC   H2R23002   7.082   1.470  13.562
  187DOPC   H2S23003   7.186   1.378  13.701
  187DOPC    C323004   7.384   0.912  13.523
  187DOPC    HX23005   7.469   0.956  13.446
  187DOPC    HY23006   7.368   0.781  13.505
  187DOPC   O3123007   7.435   0.943  13.659
  187DOPC   C3123008   7.576   1.018  13.668
  187DOPC   O3223009   7.669   1.040  13.577
  187DOPC   C3223010   7.603   1.074  13.809
  187DOPC   H2X23011   7.634   1.204  13.804
  187DOPC   H2Y23012   7.492   1.061  13.869
  187DOPC   C2323013   6.923   1.392  13.722
  187DOPC   H3R23014   6.816   1.362  13.659
  187DOPC   H3S23015   6.908   1.519  13.752
  187DOPC   C2423016   6.918   1.286  13.848
  187DOPC   H4R23017   6.959   1.163  13.823
  187DOPC   H4S23018   6.790   1.277  13.880
  187DOPC   C2523019   7.014   1.351  13.967
  187DOPC   H5R23020   6.979   1.480  13.981
  187DOPC   H5S23021   7.144   1.349  13.943
  187DOPC   C2623022   6.980   1.265  14.101
  187DOPC   H6R23023   6.848   1.270  14.120
  187DOPC   H6S23024   7.034   1.333  14.183
  187DOPC   C2723025   7.033   1.087  14.111
  187DOPC   H7R23026   7.079   1.049  14.012
  187DOPC   H7S23027   6.924   1.015  14.133
  187DOPC   C2823028   7.162   1.040  14.218
  187DOPC   H8R23029   7.276   1.097  14.184
  187DOPC   H8S23030   7.181   0.908  14.207
  187DOPC   C2923031   7.139   1.084  14.364
  187DOPC   H9R23032   7.122   1.212  14.380
  187DOPC  C21023033   7.134   0.991  14.475
  187DOPC  H10R23034   7.115   1.055  14.571
  187DOPC  C21123035   7.150   0.812  14.496
  187DOPC  H11R23036   7.151   0.745  14.400
  187DOPC  H11S23037   7.040   0.772  14.551
  187DOPC  C21223038   7.286   0.752  14.586
  187DOPC  H12R23039   7.399   0.739  14.529
  187DOPC  H12S23040   7.255   0.630  14.622
  187DOPC  C21323041   7.322   0.857  14.708
  187DOPC  H13R23042   7.211   0.881  14.766
  187DOPC  H13S23043   7.367   0.976  14.674
  187DOPC  C21423044   7.450   0.770  14.792
  187DOPC  H14R23045   7.542   0.726  14.719
  187DOPC  H14S23046   7.397   0.665  14.843
  187DOPC  C21523047   7.540   0.876  14.891
  187DOPC  H15R23048   7.608   0.803  14.964
  187DOPC  H15S23049   7.454   0.948  14.949
  187DOPC  C21623050   7.654   0.985  14.815
  187DOPC  H16R23051   7.584   1.051  14.738
  187DOPC  H16S23052   7.744   0.907  14.766
  187DOPC  C21723053   7.739   1.108  14.901
  187DOPC  H17R23054   7.860   1.063  14.929
  187DOPC  H17S23055   7.666   1.108  14.993
  187DOPC  C21823056   7.745   1.280  14.847
  187DOPC  H18R23057   7.727   1.367  14.929
  187DOPC  H18S23058   7.651   1.301  14.770
  187DOPC  H18T23059   7.864   1.306  14.801
  187DOPC   C3323060   7.741   0.976  13.868
  187DOPC   H3X23061   7.855   0.990  13.816
  187DOPC   H3Y23062   7.714   0.847  13.853
  187DOPC   C3423063   7.769   1.003  14.015
  187DOPC   H4X23064   7.862   0.922  14.056
  187DOPC   H4Y23065   7.654   0.973  14.064
  187DOPC   C3523066   7.807   1.171  14.058
  187DOPC   H5X23067   7.782   1.262  13.980
  187DOPC   H5Y23068   7.936   1.178  14.087
  187DOPC   C3623069   7.714   1.202  14.184
  187DOPC   H6X23070   7.591   1.151  14.181
  187DOPC   H6Y23071   7.780   1.141  14.265
  187DOPC   C3723072   7.696   1.379  14.208
  187DOPC   H7X23073   7.687   1.393  14.317
  187DOPC   H7Y23074   7.808   1.439  14.177
  187DOPC   C3823075   7.552   1.438  14.124
  187DOPC   H8X23076   7.565   1.379  14.025
  187DOPC   H8Y23077   7.567   1.566  14.100
  187DOPC   C3923078   7.381   1.412  14.171
  187DOPC   H9X23079   7.303   1.368  14.091
  187DOPC  C31023080   7.314   1.433  14.293
  187DOPC  H10X23081   7.183   1.426  14.303
  187DOPC  C31123082   7.391   1.488  14.420
  187DOPC  H11X23083   7.345   1.609  14.446
  187DOPC  H11Y23084   7.517   1.502  14.394
  187DOPC  C31223085   7.402   1.387  14.549
  187DOPC  H12X23086   7.508   1.432  14.606
  187DOPC  H12Y23087   7.426   1.258  14.530
  187DOPC  C31323088   7.260   1.412  14.642
  187DOPC  H13X23089   7.199   1.528  14.617
  187DOPC  H13Y23090   7.171   1.314  14.627
  187DOPC  C31423091   7.312   1.416  14.789
  187DOPC  H14X23092   7.204   1.375  14.842
  187DOPC  H14Y23093   7.403   1.322  14.808
  187DOPC  C31523094   7.370   1.576  14.848
  187DOPC  H15X23095   7.283   1.674  14.827
  187DOPC  H15Y23096   7.484   1.609  14.800
  187DOPC  C31623097   7.400   1.558  15.000
  187DOPC  H16X23098   7.324   1.459  15.034
  187DOPC  H16Y23099   7.525   1.518  15.019
  187DOPC  C31723100   7.354   1.694  15.093
  187DOPC  H17X23101   7.350   1.645  15.197
  187DOPC  H17Y23102   7.448   1.787  15.092
  187DOPC  C31823103   7.189   1.766  15.062
  187DOPC  H18X23104   7.133   1.816  15.154
  187DOPC  H18Y23105   7.199   1.864  14.986
  187DOPC  H18Z23106   7.110   1.674  15.020
  188DOPC     N23107   1.699   0.898  12.885
  188DOPC   C1223108   1.681   0.805  13.015
  188DOPC  H12A23109   1.745   0.694  13.013
  188DOPC  H12B23110   1.554   0.782  13.029
  188DOPC   C1323111   1.853   0.992  12.891
  188DOPC  H13A23112   1.957   0.919  12.881
  188DOPC  H13B23113   1.856   1.085  12.816
  188DOPC  H13C23114   1.861   1.056  12.988
  188DOPC   C1423115   1.565   1.019  12.879
  188DOPC  H14A23116   1.448   0.964  12.871
  188DOPC  H14B23117   1.566   1.090  12.972
  188DOPC  H14C23118   1.580   1.100  12.796
  188DOPC   C1523119   1.691   0.799  12.761
  188DOPC  H15A23120   1.800   0.731  12.747
  188DOPC  H15B23121   1.681   0.877  12.673
  188DOPC  H15C23122   1.588   0.720  12.758
  188DOPC   C1123123   1.734   0.895  13.143
  188DOPC  H11A23124   1.691   0.827  13.231
  188DOPC  H11B23125   1.868   0.900  13.150
  188DOPC     P23126   1.735   1.192  13.227
  188DOPC   O1323127   1.645   1.336  13.184
  188DOPC   O1423128   1.910   1.192  13.205
  188DOPC   O1223129   1.666   1.050  13.143
  188DOPC   O1123130   1.688   1.133  13.374
  188DOPC    C123131   1.522   1.102  13.405
  188DOPC    HA23132   1.483   0.986  13.361
  188DOPC    HB23133   1.442   1.196  13.362
  188DOPC    C223134   1.481   1.098  13.560
  188DOPC    HS23135   1.348   1.109  13.566
  188DOPC   O2123136   1.552   1.220  13.643
  188DOPC   C2123137   1.613   1.354  13.598
  188DOPC   O2223138   1.607   1.410  13.487
  188DOPC   C2223139   1.691   1.444  13.712
  188DOPC   H2R23140   1.691   1.572  13.684
  188DOPC   H2S23141   1.818   1.403  13.713
  188DOPC    C323142   1.523   0.938  13.634
  188DOPC    HX23143   1.469   0.832  13.585
  188DOPC    HY23144   1.466   0.946  13.735
  188DOPC   O3123145   1.694   0.925  13.656
  188DOPC   C3123146   1.766   0.880  13.544
  188DOPC   O3223147   1.698   0.799  13.458
  188DOPC   C3223148   1.936   0.948  13.541
  188DOPC   H2X23149   1.992   0.887  13.455
  188DOPC   H2Y23150   1.928   1.078  13.515
  188DOPC   C2323151   1.612   1.416  13.850
  188DOPC   H3R23152   1.500   1.345  13.847
  188DOPC   H3S23153   1.585   1.536  13.894
  188DOPC   C2423154   1.739   1.342  13.939
  188DOPC   H4R23155   1.820   1.440  13.938
  188DOPC   H4S23156   1.800   1.240  13.890
  188DOPC   C2523157   1.714   1.321  14.088
  188DOPC   H5R23158   1.651   1.429  14.127
  188DOPC   H5S23159   1.831   1.310  14.139
  188DOPC   C2623160   1.626   1.169  14.118
  188DOPC   H6R23161   1.506   1.200  14.078
  188DOPC   H6S23162   1.619   1.148  14.227
  188DOPC   C2723163   1.702   1.025  14.046
  188DOPC   H7R23164   1.832   1.046  14.061
  188DOPC   H7S23165   1.680   1.027  13.936
  188DOPC   C2823166   1.656   0.858  14.099
  188DOPC   H8R23167   1.598   0.784  14.019
  188DOPC   H8S23168   1.567   0.870  14.181
  188DOPC   C2923169   1.804   0.780  14.154
  188DOPC   H9R23170   1.874   0.702  14.087
  188DOPC  C21023171   1.859   0.815  14.276
  188DOPC  H10R23172   1.976   0.762  14.303
  188DOPC  C21123173   1.790   0.931  14.379
  188DOPC  H11R23174   1.794   1.054  14.337
  188DOPC  H11S23175   1.877   0.934  14.464
  188DOPC  C21223176   1.627   0.902  14.451
  188DOPC  H12R23177   1.570   0.792  14.414
  188DOPC  H12S23178   1.554   1.007  14.419
  188DOPC  C21323179   1.628   0.898  14.608
  188DOPC  H13R23180   1.536   0.984  14.643
  188DOPC  H13S23181   1.745   0.946  14.643
  188DOPC  C21423182   1.596   0.734  14.682
  188DOPC  H14R23183   1.710   0.671  14.695
  188DOPC  H14S23184   1.514   0.656  14.624
  188DOPC  C21523185   1.529   0.751  14.826
  188DOPC  H15R23186   1.410   0.803  14.819
  188DOPC  H15S23187   1.590   0.854  14.873
  188DOPC  C21623188   1.499   0.601  14.920
  188DOPC  H16R23189   1.423   0.518  14.862
  188DOPC  H16S23190   1.422   0.653  14.999
  188DOPC  C21723191   1.624   0.494  14.997
  188DOPC  H17R23192   1.714   0.562  15.049
  188DOPC  H17S23193   1.694   0.410  14.936
  188DOPC  C21823194   1.570   0.406  15.122
  188DOPC  H18R23195   1.655   0.312  15.145
  188DOPC  H18S23196   1.448   0.352  15.118
  188DOPC  H18T23197   1.592   0.481  15.210
  188DOPC   C3323198   2.035   0.924  13.672
  188DOPC   H3X23199   2.161   0.896  13.644
  188DOPC   H3Y23200   1.992   0.820  13.729
  188DOPC   C3423201   2.042   1.068  13.769
  188DOPC   H4X23202   1.938   1.060  13.837
  188DOPC   H4Y23203   2.028   1.181  13.709
  188DOPC   C3523204   2.197   1.084  13.851
  188DOPC   H5X23205   2.228   1.214  13.853
  188DOPC   H5Y23206   2.302   1.024  13.803
  188DOPC   C3623207   2.186   1.032  13.999
  188DOPC   H6X23208   2.064   1.054  14.038
  188DOPC   H6Y23209   2.213   0.901  14.008
  188DOPC   C3723210   2.300   1.134  14.083
  188DOPC   H7X23211   2.410   1.146  14.021
  188DOPC   H7Y23212   2.249   1.256  14.095
  188DOPC   C3823213   2.346   1.076  14.224
  188DOPC   H8X23214   2.425   1.171  14.268
  188DOPC   H8Y23215   2.420   0.966  14.217
  188DOPC   C3923216   2.204   1.049  14.313
  188DOPC   H9X23217   2.162   0.924  14.312
  188DOPC  C31023218   2.120   1.156  14.386
  188DOPC  H10X23219   2.020   1.111  14.442
  188DOPC  C31123220   2.141   1.334  14.403
  188DOPC  H11X23221   2.030   1.393  14.363
  188DOPC  H11Y23222   2.244   1.374  14.341
  188DOPC  C31223223   2.156   1.411  14.543
  188DOPC  H12X23224   2.209   1.534  14.533
  188DOPC  H12Y23225   2.237   1.336  14.606
  188DOPC  C31323226   2.002   1.439  14.620
  188DOPC  H13X23227   2.032   1.487  14.721
  188DOPC  H13Y23228   1.930   1.532  14.568
  188DOPC  C31423229   1.915   1.279  14.633
  188DOPC  H14X23230   1.837   1.260  14.545
  188DOPC  H14Y23231   2.008   1.183  14.632
  188DOPC  C31523232   1.832   1.254  14.766
  188DOPC  H15X23233   1.729   1.171  14.753
  188DOPC  H15Y23234   1.786   1.370  14.804
  188DOPC  C31623235   1.951   1.182  14.867
  188DOPC  H16X23236   1.979   1.057  14.834
  188DOPC  H16Y23237   2.064   1.252  14.858
  188DOPC  C31723238   1.876   1.192  15.007
  188DOPC  H17X23239   1.862   1.322  15.026
  188DOPC  H17Y23240   1.753   1.140  14.996
  188DOPC  C31823241   1.946   1.121  15.137
  188DOPC  H18X23242   1.896   1.182  15.227
  188DOPC  H18Y23243   1.921   0.995  15.158
  188DOPC  H18Z23244   2.077   1.127  15.137
  189DOPC     N23245   4.423   0.288  13.007
  189DOPC   C1223246   4.357   0.142  13.081
  189DOPC  H12A23247   4.454   0.056  13.094
  189DOPC  H12B23248   4.271   0.082  13.015
  189DOPC   C1323249   4.576   0.244  12.937
  189DOPC  H13A23250   4.568   0.131  12.883
  189DOPC  H13B23251   4.612   0.336  12.866
  189DOPC  H13C23252   4.673   0.232  13.008
  189DOPC   C1423253   4.456   0.428  13.096
  189DOPC  H14A23254   4.349   0.456  13.154
  189DOPC  H14B23255   4.558   0.407  13.159
  189DOPC  H14C23256   4.483   0.533  13.034
  189DOPC   C1523257   4.302   0.337  12.906
  189DOPC  H15A23258   4.288   0.240  12.835
  189DOPC  H15B23259   4.333   0.448  12.856
  189DOPC  H15C23260   4.186   0.352  12.954
  189DOPC   C1123261   4.267   0.170  13.214
  189DOPC  H11A23262   4.242   0.053  13.263
  189DOPC  H11B23263   4.346   0.238  13.284
  189DOPC     P23264   3.968   0.170  13.134
  189DOPC   O1323265   4.022   0.023  13.067
  189DOPC   O1423266   3.870   0.287  13.057
  189DOPC   O1223267   4.123   0.259  13.194
  189DOPC   O1123268   3.872   0.130  13.266
  189DOPC    C123269   3.797   0.264  13.330
  189DOPC    HA23270   3.673   0.280  13.291
  189DOPC    HB23271   3.860   0.380  13.310
  189DOPC    C223272   3.792   0.242  13.484
  189DOPC    HS23273   3.749   0.358  13.529
  189DOPC   O2123274   3.948   0.198  13.537
  189DOPC   C2123275   4.048   0.322  13.535
  189DOPC   O2223276   4.012   0.456  13.501
  189DOPC   C2223277   4.216   0.281  13.584
  189DOPC   H2R23278   4.284   0.235  13.497
  189DOPC   H2S23279   4.210   0.187  13.662
  189DOPC    C323280   3.666   0.115  13.525
  189DOPC    HX23281   3.689   0.002  13.470
  189DOPC    HY23282   3.544   0.157  13.497
  189DOPC   O3123283   3.686   0.088  13.666
  189DOPC   C3123284   3.577   0.140  13.749
  189DOPC   O3223285   3.446   0.197  13.719
  189DOPC   C3223286   3.635   0.108  13.891
  189DOPC   H2X23287   3.766   0.085  13.891
  189DOPC   H2Y23288   3.611   0.217  13.952
  189DOPC   C2323289   4.296   0.434  13.638
  189DOPC   H3R23290   4.273   0.538  13.570
  189DOPC   H3S23291   4.429   0.420  13.642
  189DOPC   C2423292   4.236   0.476  13.778
  189DOPC   H4R23293   4.103   0.461  13.787
  189DOPC   H4S23294   4.260   0.605  13.797
  189DOPC   C2523295   4.324   0.388  13.890
  189DOPC   H5R23296   4.447   0.360  13.857
  189DOPC   H5S23297   4.262   0.272  13.913
  189DOPC   C2623298   4.336   0.494  14.014
  189DOPC   H6R23299   4.411   0.601  13.989
  189DOPC   H6S23300   4.399   0.431  14.095
  189DOPC   C2723301   4.171   0.556  14.062
  189DOPC   H7R23302   4.104   0.611  13.978
  189DOPC   H7S23303   4.192   0.653  14.137
  189DOPC   C2823304   4.060   0.428  14.122
  189DOPC   H8R23305   4.020   0.343  14.043
  189DOPC   H8S23306   3.950   0.491  14.159
  189DOPC   C2923307   4.147   0.342  14.233
  189DOPC   H9R23308   4.217   0.236  14.201
  189DOPC  C21023309   4.147   0.385  14.363
  189DOPC  H10R23310   4.216   0.312  14.434
  189DOPC  C21123311   4.061   0.527  14.422
  189DOPC  H11R23312   4.058   0.631  14.351
  189DOPC  H11S23313   4.122   0.569  14.514
  189DOPC  C21223314   3.886   0.482  14.455
  189DOPC  H12R23315   3.821   0.451  14.362
  189DOPC  H12S23316   3.824   0.590  14.499
  189DOPC  C21323317   3.870   0.342  14.554
  189DOPC  H13R23318   3.929   0.376  14.650
  189DOPC  H13S23319   3.934   0.236  14.514
  189DOPC  C21423320   3.696   0.295  14.581
  189DOPC  H14R23321   3.637   0.262  14.484
  189DOPC  H14S23322   3.630   0.402  14.621
  189DOPC  C21523323   3.679   0.155  14.679
  189DOPC  H15R23324   3.548   0.143  14.701
  189DOPC  H15S23325   3.743   0.182  14.774
  189DOPC  C21623326   3.736  -0.006  14.621
  189DOPC  H16R23327   3.862   0.001  14.585
  189DOPC  H16S23328   3.658  -0.028  14.533
  189DOPC  C21723329   3.718  -0.151  14.714
  189DOPC  H17R23330   3.636  -0.116  14.797
  189DOPC  H17S23331   3.834  -0.181  14.762
  189DOPC  C21823332   3.647  -0.302  14.649
  189DOPC  H18R23333   3.743  -0.378  14.606
  189DOPC  H18S23334   3.558  -0.272  14.569
  189DOPC  H18T23335   3.584  -0.376  14.725
  189DOPC   C3323336   3.539  -0.036  13.945
  189DOPC   H3X23337   3.580  -0.149  13.895
  189DOPC   H3Y23338   3.412  -0.017  13.918
  189DOPC   C3423339   3.542  -0.058  14.097
  189DOPC   H4X23340   3.437  -0.131  14.126
  189DOPC   H4Y23341   3.534   0.060  14.148
  189DOPC   C3523342   3.692  -0.146  14.142
  189DOPC   H5X23343   3.799  -0.076  14.111
  189DOPC   H5Y23344   3.700  -0.266  14.092
  189DOPC   C3623345   3.696  -0.169  14.293
  189DOPC   H6X23346   3.707  -0.048  14.339
  189DOPC   H6Y23347   3.581  -0.223  14.326
  189DOPC   C3723348   3.835  -0.276  14.338
  189DOPC   H7X23349   3.839  -0.283  14.448
  189DOPC   H7Y23350   3.812  -0.398  14.298
  189DOPC   C3823351   4.003  -0.222  14.294
  189DOPC   H8X23352   3.998  -0.193  14.188
  189DOPC   H8Y23353   4.081  -0.330  14.305
  189DOPC   C3923354   4.079  -0.074  14.350
  189DOPC   H9X23355   4.006   0.036  14.344
  189DOPC  C31023356   4.222  -0.073  14.412
  189DOPC  H10X23357   4.262   0.040  14.459
  189DOPC  C31123358   4.327  -0.220  14.435
  189DOPC  H11X23359   4.448  -0.179  14.467
  189DOPC  H11Y23360   4.342  -0.295  14.345
  189DOPC  C31223361   4.255  -0.324  14.549
  189DOPC  H12X23362   4.344  -0.410  14.589
  189DOPC  H12Y23363   4.150  -0.394  14.516
  189DOPC  C31323364   4.204  -0.210  14.660
  189DOPC  H13X23365   4.301  -0.118  14.670
  189DOPC  H13Y23366   4.091  -0.150  14.626
  189DOPC  C31423367   4.169  -0.270  14.798
  189DOPC  H14X23368   4.062  -0.350  14.801
  189DOPC  H14Y23369   4.272  -0.332  14.846
  189DOPC  C31523370   4.138  -0.110  14.865
  189DOPC  H15X23371   4.056  -0.034  14.803
  189DOPC  H15Y23372   4.253  -0.044  14.872
  189DOPC  C31623373   4.062  -0.121  15.001
  189DOPC  H16X23374   3.934  -0.154  14.989
  189DOPC  H16Y23375   4.122  -0.216  15.061
  189DOPC  C31723376   4.080   0.043  15.066
  189DOPC  H17X23377   4.074   0.025  15.175
  189DOPC  H17Y23378   4.200   0.095  15.046
  189DOPC  C31823379   3.948   0.158  15.021
  189DOPC  H18X23380   3.830   0.095  15.018
  189DOPC  H18Y23381   3.937   0.260  15.092
  189DOPC  H18Z23382   3.973   0.205  14.920
  190DOPC     N23383   2.603   8.548  13.236
  190DOPC   C1223384   2.754   8.606  13.166
  190DOPC  H12A23385   2.857   8.554  13.215
  190DOPC  H12B23386   2.761   8.736  13.178
  190DOPC   C1323387   2.569   8.376  13.198
  190DOPC  H13A23388   2.452   8.335  13.231
  190DOPC  H13B23389   2.567   8.363  13.090
  190DOPC  H13C23390   2.658   8.293  13.235
  190DOPC   C1423391   2.467   8.648  13.187
  190DOPC  H14A23392   2.477   8.774  13.212
  190DOPC  H14B23393   2.464   8.641  13.078
  190DOPC  H14C23394   2.348   8.604  13.216
  190DOPC   C1523395   2.615   8.562  13.384
  190DOPC  H15A23396   2.712   8.489  13.422
  190DOPC  H15B23397   2.507   8.514  13.429
  190DOPC  H15C23398   2.629   8.686  13.416
  190DOPC   C1123399   2.768   8.574  13.013
  190DOPC  H11A23400   2.894   8.600  12.983
  190DOPC  H11B23401   2.754   8.443  12.993
  190DOPC     P23402   2.700   8.845  12.899
  190DOPC   O1323403   2.590   8.918  12.801
  190DOPC   O1423404   2.874   8.851  12.870
  190DOPC   O1223405   2.656   8.664  12.933
  190DOPC   O1123406   2.669   8.924  13.037
  190DOPC    C123407   2.628   9.090  13.040
  190DOPC    HA23408   2.518   9.118  12.981
  190DOPC    HB23409   2.732   9.163  13.005
  190DOPC    C223410   2.599   9.143  13.184
  190DOPC    HS23411   2.624   9.274  13.196
  190DOPC   O2123412   2.696   9.047  13.270
  190DOPC   C2123413   2.839   9.100  13.289
  190DOPC   O2223414   2.920   9.187  13.218
  190DOPC   C2223415   2.880   9.036  13.426
  190DOPC   H2R23416   2.836   8.911  13.437
  190DOPC   H2S23417   2.816   9.113  13.500
  190DOPC    C323418   2.424   9.116  13.227
  190DOPC    HX23419   2.383   9.000  13.184
  190DOPC    HY23420   2.346   9.211  13.185
  190DOPC   O3123421   2.404   9.106  13.367
  190DOPC   C3123422   2.488   9.190  13.454
  190DOPC   O3223423   2.592   9.290  13.437
  190DOPC   C3223424   2.443   9.112  13.585
  190DOPC   H2X23425   2.310   9.119  13.588
  190DOPC   H2Y23426   2.479   8.983  13.579
  190DOPC   C2323427   3.058   9.042  13.457
  190DOPC   H3R23428   3.112   9.161  13.439
  190DOPC   H3S23429   3.121   8.956  13.392
  190DOPC   C2423430   3.074   8.990  13.602
  190DOPC   H4R23431   3.194   8.940  13.615
  190DOPC   H4S23432   2.983   8.898  13.627
  190DOPC   C2523433   3.066   9.121  13.707
  190DOPC   H5R23434   2.941   9.164  13.720
  190DOPC   H5S23435   3.145   9.223  13.678
  190DOPC   C2623436   3.133   9.047  13.834
  190DOPC   H6R23437   3.264   9.026  13.819
  190DOPC   H6S23438   3.077   8.928  13.849
  190DOPC   C2723439   3.109   9.150  13.956
  190DOPC   H7R23440   3.175   9.262  13.931
  190DOPC   H7S23441   3.169   9.097  14.045
  190DOPC   C2823442   2.935   9.202  13.990
  190DOPC   H8R23443   2.905   9.300  13.921
  190DOPC   H8S23444   2.945   9.257  14.091
  190DOPC   C2923445   2.791   9.096  13.988
  190DOPC   H9R23446   2.752   9.059  13.888
  190DOPC  C21023447   2.725   9.026  14.097
  190DOPC  H10R23448   2.618   8.951  14.087
  190DOPC  C21123449   2.795   9.046  14.234
  190DOPC  H11R23450   2.927   9.059  14.218
  190DOPC  H11S23451   2.780   8.929  14.286
  190DOPC  C21223452   2.764   9.170  14.346
  190DOPC  H12R23453   2.749   9.295  14.313
  190DOPC  H12S23454   2.876   9.152  14.403
  190DOPC  C21323455   2.622   9.130  14.434
  190DOPC  H13R23456   2.641   9.000  14.449
  190DOPC  H13S23457   2.512   9.160  14.376
  190DOPC  C21423458   2.605   9.179  14.580
  190DOPC  H14R23459   2.648   9.296  14.612
  190DOPC  H14S23460   2.664   9.084  14.642
  190DOPC  C21523461   2.428   9.178  14.610
  190DOPC  H15R23462   2.363   9.098  14.538
  190DOPC  H15S23463   2.376   9.300  14.598
  190DOPC  C21623464   2.394   9.121  14.750
  190DOPC  H16R23465   2.449   9.204  14.819
  190DOPC  H16S23466   2.455   9.011  14.783
  190DOPC  C21723467   2.214   9.108  14.760
  190DOPC  H17R23468   2.164   9.102  14.656
  190DOPC  H17S23469   2.164   9.218  14.802
  190DOPC  C21823470   2.160   8.954  14.825
  190DOPC  H18R23471   2.244   8.909  14.901
  190DOPC  H18S23472   2.140   8.879  14.737
  190DOPC  H18T23473   2.040   8.947  14.869
  190DOPC   C3323474   2.519   9.185  13.711
  190DOPC   H3X23475   2.492   9.316  13.716
  190DOPC   H3Y23476   2.652   9.176  13.707
  190DOPC   C3423477   2.455   9.097  13.835
  190DOPC   H4X23478   2.467   9.179  13.923
  190DOPC   H4Y23479   2.530   8.989  13.853
  190DOPC   C3523480   2.281   9.034  13.824
  190DOPC   H5X23481   2.280   8.924  13.761
  190DOPC   H5Y23482   2.208   9.128  13.774
  190DOPC   C3623483   2.203   9.000  13.961
  190DOPC   H6X23484   2.296   9.035  14.035
  190DOPC   H6Y23485   2.102   9.088  13.970
  190DOPC   C3723486   2.153   8.826  13.999
  190DOPC   H7X23487   2.068   8.782  13.921
  190DOPC   H7Y23488   2.266   8.754  13.990
  190DOPC   C3823489   2.108   8.803  14.162
  190DOPC   H8X23490   2.018   8.882  14.120
  190DOPC   H8Y23491   2.191   8.898  14.187
  190DOPC   C3923492   2.032   8.783  14.303
  190DOPC   H9X23493   1.955   8.887  14.317
  190DOPC  C31023494   2.026   8.641  14.375
  190DOPC  H10X23495   1.955   8.630  14.470
  190DOPC  C31123496   2.099   8.468  14.332
  190DOPC  H11X23497   2.138   8.408  14.231
  190DOPC  H11Y23498   2.011   8.377  14.355
  190DOPC  C31223499   2.201   8.389  14.462
  190DOPC  H12X23500   2.143   8.286  14.514
  190DOPC  H12Y23501   2.182   8.471  14.547
  190DOPC  C31323502   2.388   8.328  14.466
  190DOPC  H13X23503   2.402   8.210  14.417
  190DOPC  H13Y23504   2.461   8.411  14.408
  190DOPC  C31423505   2.485   8.323  14.604
  190DOPC  H14X23506   2.418   8.413  14.656
  190DOPC  H14Y23507   2.472   8.208  14.659
  190DOPC  C31523508   2.660   8.398  14.627
  190DOPC  H15X23509   2.683   8.489  14.549
  190DOPC  H15Y23510   2.748   8.299  14.612
  190DOPC  C31623511   2.684   8.465  14.774
  190DOPC  H16X23512   2.572   8.518  14.802
  190DOPC  H16Y23513   2.695   8.364  14.843
  190DOPC  C31723514   2.792   8.606  14.826
  190DOPC  H17X23515   2.920   8.588  14.799
  190DOPC  H17Y23516   2.754   8.722  14.781
  190DOPC  C31823517   2.777   8.630  14.981
  190DOPC  H18X23518   2.788   8.514  15.035
  190DOPC  H18Y23519   2.874   8.710  15.021
  190DOPC  H18Z23520   2.660   8.684  15.009
  191DOPC     N23521   5.951   8.720  13.192
  191DOPC   C1223522   5.899   8.887  13.147
  191DOPC  H12A23523   5.960   8.974  13.212
  191DOPC  H12B23524   5.772   8.902  13.162
  191DOPC   C1323525   5.921   8.694  13.337
  191DOPC  H13A23526   5.792   8.688  13.356
  191DOPC  H13B23527   5.972   8.582  13.369
  191DOPC  H13C23528   5.970   8.791  13.397
  191DOPC   C1423529   6.124   8.708  13.160
  191DOPC  H14A23530   6.140   8.738  13.054
  191DOPC  H14B23531   6.196   8.796  13.214
  191DOPC  H14C23532   6.168   8.588  13.177
  191DOPC   C1523533   5.863   8.593  13.113
  191DOPC  H15A23534   5.737   8.585  13.139
  191DOPC  H15B23535   5.912   8.473  13.130
  191DOPC  H15C23536   5.872   8.617  13.007
  191DOPC   C1123537   5.939   8.938  12.999
  191DOPC  H11A23538   5.880   8.854  12.928
  191DOPC  H11B23539   5.881   9.056  12.981
  191DOPC     P23540   6.203   9.101  12.998
  191DOPC   O1323541   6.149   9.227  12.904
  191DOPC   O1423542   6.377   9.073  13.010
  191DOPC   O1223543   6.107   8.941  12.968
  191DOPC   O1123544   6.137   9.143  13.142
  191DOPC    C123545   6.206   9.274  13.215
  191DOPC    HA23546   6.191   9.389  13.160
  191DOPC    HB23547   6.336   9.254  13.232
  191DOPC    C223548   6.118   9.290  13.351
  191DOPC    HS23549   6.162   9.398  13.404
  191DOPC   O2123550   6.137   9.150  13.433
  191DOPC   C2123551   6.280   9.121  13.481
  191DOPC   O2223552   6.400   9.204  13.466
  191DOPC   C2223553   6.272   8.963  13.559
  191DOPC   H2R23554   6.340   8.873  13.500
  191DOPC   H2S23555   6.145   8.923  13.567
  191DOPC    C323556   5.935   9.314  13.324
  191DOPC    HX23557   5.891   9.223  13.252
  191DOPC    HY23558   5.920   9.432  13.274
  191DOPC   O3123559   5.845   9.314  13.447
  191DOPC   C3123560   5.797   9.170  13.490
  191DOPC   O3223561   5.806   9.046  13.426
  191DOPC   C3223562   5.731   9.192  13.632
  191DOPC   H2X23563   5.832   9.234  13.696
  191DOPC   H2Y23564   5.642   9.290  13.626
  191DOPC   C2323565   6.343   8.972  13.702
  191DOPC   H3R23566   6.458   9.040  13.703
  191DOPC   H3S23567   6.370   8.848  13.736
  191DOPC   C2423568   6.226   9.047  13.803
  191DOPC   H4R23569   6.112   8.977  13.798
  191DOPC   H4S23570   6.198   9.173  13.775
  191DOPC   C2523571   6.288   9.042  13.947
  191DOPC   H5R23572   6.403   9.110  13.953
  191DOPC   H5S23573   6.316   8.916  13.975
  191DOPC   C2623574   6.172   9.113  14.051
  191DOPC   H6R23575   6.157   9.244  14.034
  191DOPC   H6S23576   6.224   9.097  14.152
  191DOPC   C2723577   6.004   9.035  14.048
  191DOPC   H7R23578   6.019   8.902  14.051
  191DOPC   H7S23579   5.940   9.065  13.954
  191DOPC   C2823580   5.899   9.083  14.169
  191DOPC   H8R23581   5.965   9.047  14.261
  191DOPC   H8S23582   5.788   9.008  14.167
  191DOPC   C2923583   5.855   9.258  14.167
  191DOPC   H9R23584   5.819   9.306  14.069
  191DOPC  C21023585   5.860   9.359  14.272
  191DOPC  H10R23586   5.828   9.486  14.256
  191DOPC  C21123587   5.909   9.316  14.412
  191DOPC  H11R23588   5.911   9.184  14.428
  191DOPC  H11S23589   5.820   9.362  14.485
  191DOPC  C21223590   6.076   9.383  14.445
  191DOPC  H12R23591   6.071   9.516  14.451
  191DOPC  H12S23592   6.161   9.349  14.363
  191DOPC  C21323593   6.143   9.314  14.576
  191DOPC  H13R23594   6.274   9.341  14.583
  191DOPC  H13S23595   6.128   9.181  14.576
  191DOPC  C21423596   6.060   9.384  14.700
  191DOPC  H14R23597   5.928   9.365  14.690
  191DOPC  H14S23598   6.082   9.515  14.705
  191DOPC  C21523599   6.118   9.305  14.829
  191DOPC  H15R23600   6.251   9.316  14.837
  191DOPC  H15S23601   6.088   9.174  14.825
  191DOPC  C21623602   6.040   9.376  14.955
  191DOPC  H16R23603   6.073   9.504  14.966
  191DOPC  H16S23604   6.085   9.310  15.044
  191DOPC  C21723605   5.856   9.360  14.951
  191DOPC  H17R23606   5.826   9.235  14.920
  191DOPC  H17S23607   5.806   9.443  14.875
  191DOPC  C21823608   5.778   9.394  15.085
  191DOPC  H18R23609   5.839   9.330  15.168
  191DOPC  H18S23610   5.651   9.354  15.083
  191DOPC  H18T23611   5.782   9.524  15.106
  191DOPC   C3323612   5.653   9.043  13.698
  191DOPC   H3X23613   5.748   8.962  13.735
  191DOPC   H3Y23614   5.578   8.975  13.626
  191DOPC   C3423615   5.548   9.096  13.817
  191DOPC   H4X23616   5.428   9.136  13.782
  191DOPC   H4Y23617   5.609   9.200  13.866
  191DOPC   C3523618   5.524   8.970  13.926
  191DOPC   H5X23619   5.454   9.025  14.009
  191DOPC   H5Y23620   5.646   8.944  13.965
  191DOPC   C3623621   5.438   8.816  13.881
  191DOPC   H6X23622   5.316   8.848  13.844
  191DOPC   H6Y23623   5.506   8.762  13.796
  191DOPC   C3723624   5.425   8.692  13.993
  191DOPC   H7X23625   5.346   8.742  14.073
  191DOPC   H7Y23626   5.364   8.582  13.954
  191DOPC   C3823627   5.588   8.645  14.054
  191DOPC   H8X23628   5.656   8.755  14.082
  191DOPC   H8Y23629   5.663   8.585  13.976
  191DOPC   C3923630   5.576   8.543  14.177
  191DOPC   H9X23631   5.581   8.412  14.159
  191DOPC  C31023632   5.558   8.600  14.302
  191DOPC  H10X23633   5.554   8.516  14.387
  191DOPC  C31123634   5.549   8.777  14.337
  191DOPC  H11X23635   5.507   8.848  14.249
  191DOPC  H11Y23636   5.670   8.824  14.362
  191DOPC  C31223637   5.432   8.813  14.452
  191DOPC  H12X23638   5.318   8.747  14.435
  191DOPC  H12Y23639   5.402   8.944  14.451
  191DOPC  C31323640   5.497   8.771  14.592
  191DOPC  H13X23641   5.389   8.749  14.657
  191DOPC  H13Y23642   5.567   8.657  14.591
  191DOPC  C31423643   5.592   8.906  14.659
  191DOPC  H14X23644   5.537   9.024  14.633
  191DOPC  H14Y23645   5.580   8.892  14.769
  191DOPC  C31523646   5.773   8.914  14.626
  191DOPC  H15X23647   5.819   9.023  14.677
  191DOPC  H15Y23648   5.794   8.932  14.518
  191DOPC  C31623649   5.870   8.768  14.676
  191DOPC  H16X23650   5.804   8.708  14.758
  191DOPC  H16Y23651   5.885   8.677  14.595
  191DOPC  C31723652   6.036   8.822  14.729
  191DOPC  H17X23653   6.114   8.857  14.644
  191DOPC  H17Y23654   6.016   8.932  14.791
  191DOPC  C31823655   6.122   8.701  14.818
  191DOPC  H18X23656   6.167   8.597  14.759
  191DOPC  H18Y23657   6.227   8.758  14.869
  191DOPC  H18Z23658   6.040   8.657  14.897
  192DOPC     N23659   9.266   6.116  12.917
  192DOPC   C1223660   9.338   6.041  13.042
  192DOPC  H12A23661   9.348   5.912  13.026
  192DOPC  H12B23662   9.252   6.055  13.123
  192DOPC   C1323663   9.145   6.242  12.957
  192DOPC  H13A23664   9.203   6.330  13.023
  192DOPC  H13B23665   9.094   6.306  12.872
  192DOPC  H13C23666   9.048   6.198  13.018
  192DOPC   C1423667   9.193   5.987  12.835
  192DOPC  H14A23668   9.122   6.034  12.754
  192DOPC  H14B23669   9.287   5.904  12.800
  192DOPC  H14C23670   9.114   5.912  12.895
  192DOPC   C1523671   9.397   6.197  12.840
  192DOPC  H15A23672   9.487   6.110  12.811
  192DOPC  H15B23673   9.457   6.280  12.908
  192DOPC  H15C23674   9.353   6.262  12.755
  192DOPC   C1123675   9.505   6.101  13.093
  192DOPC  H11A23676   9.529   6.044  13.193
  192DOPC  H11B23677   9.600   6.052  13.026
  192DOPC     P23678   9.472   6.370  13.229
  192DOPC   O1323679   9.493   6.541  13.195
  192DOPC   O1423680   9.558   6.302  13.345
  192DOPC   O1223681   9.517   6.272  13.098
  192DOPC   O1123682   9.287   6.341  13.233
  192DOPC    C123683   9.209   6.216  13.303
  192DOPC    HA23684   9.274   6.101  13.293
  192DOPC    HB23685   9.086   6.203  13.257
  192DOPC    C223686   9.179   6.242  13.454
  192DOPC    HS23687   9.091   6.340  13.468
  192DOPC   O2123688   9.320   6.272  13.534
  192DOPC   C2123689   9.352   6.430  13.544
  192DOPC   O2223690   9.286   6.533  13.479
  192DOPC   C2223691   9.470   6.473  13.654
  192DOPC   H2R23692   9.592   6.438  13.620
  192DOPC   H2S23693   9.439   6.403  13.744
  192DOPC    C323694   9.090   6.090  13.501
  192DOPC    HX23695   9.161   5.981  13.476
  192DOPC    HY23696   8.977   6.082  13.443
  192DOPC   O3123697   9.050   6.106  13.641
  192DOPC   C3123698   9.174   6.062  13.715
  192DOPC   O3223699   9.298   6.000  13.673
  192DOPC   C3223700   9.133   6.090  13.861
  192DOPC   H2X23701   9.074   6.210  13.869
  192DOPC   H2Y23702   9.047   5.999  13.895
  192DOPC   C2323703   9.460   6.656  13.682
  192DOPC   H3R23704   9.346   6.682  13.735
  192DOPC   H3S23705   9.452   6.725  13.586
  192DOPC   C2423706   9.599   6.732  13.761
  192DOPC   H4R23707   9.565   6.857  13.788
  192DOPC   H4S23708   9.706   6.740  13.695
  192DOPC   C2523709   9.649   6.642  13.888
  192DOPC   H5R23710   9.738   6.714  13.945
  192DOPC   H5S23711   9.709   6.529  13.855
  192DOPC   C2623712   9.510   6.598  13.980
  192DOPC   H6R23713   9.407   6.553  13.920
  192DOPC   H6S23714   9.466   6.702  14.037
  192DOPC   C2723715   9.558   6.460  14.074
  192DOPC   H7R23716   9.637   6.505  14.155
  192DOPC   H7S23717   9.629   6.371  14.016
  192DOPC   C2823718   9.409   6.373  14.128
  192DOPC   H8R23719   9.440   6.246  14.148
  192DOPC   H8S23720   9.314   6.376  14.049
  192DOPC   C2923721   9.347   6.451  14.251
  192DOPC   H9R23722   9.425   6.546  14.291
  192DOPC  C21023723   9.215   6.410  14.320
  192DOPC  H10R23724   9.185   6.482  14.408
  192DOPC  C21123725   9.100   6.275  14.288
  192DOPC  H11R23726   9.077   6.210  14.382
  192DOPC  H11S23727   9.150   6.188  14.216
  192DOPC  C21223728   8.935   6.335  14.240
  192DOPC  H12R23729   8.950   6.416  14.154
  192DOPC  H12S23730   8.891   6.404  14.325
  192DOPC  C21323731   8.808   6.208  14.203
  192DOPC  H13R23732   8.840   6.155  14.104
  192DOPC  H13S23733   8.692   6.270  14.190
  192DOPC  C21423734   8.783   6.070  14.302
  192DOPC  H14R23735   8.897   6.001  14.311
  192DOPC  H14S23736   8.692   5.986  14.260
  192DOPC  C21523737   8.726   6.120  14.442
  192DOPC  H15R23738   8.602   6.169  14.436
  192DOPC  H15S23739   8.806   6.217  14.479
  192DOPC  C21623740   8.729   5.983  14.545
  192DOPC  H16R23741   8.854   5.935  14.546
  192DOPC  H16S23742   8.645   5.888  14.512
  192DOPC  C21723743   8.686   6.040  14.686
  192DOPC  H17R23744   8.567   6.101  14.682
  192DOPC  H17S23745   8.783   6.125  14.712
  192DOPC  C21823746   8.683   5.924  14.804
  192DOPC  H18R23747   8.642   5.986  14.897
  192DOPC  H18S23748   8.809   5.886  14.822
  192DOPC  H18T23749   8.605   5.819  14.787
  192DOPC   C3323750   9.286   6.088  13.948
  192DOPC   H3X23751   9.248   6.110  14.052
  192DOPC   H3Y23752   9.368   6.184  13.914
  192DOPC   C3423753   9.378   5.929  13.948
  192DOPC   H4X23754   9.457   5.923  13.858
  192DOPC   H4Y23755   9.293   5.827  13.943
  192DOPC   C3523756   9.485   5.903  14.071
  192DOPC   H5X23757   9.414   5.903  14.164
  192DOPC   H5Y23758   9.571   6.005  14.079
  192DOPC   C3623759   9.577   5.746  14.057
  192DOPC   H6X23760   9.638   5.747  13.958
  192DOPC   H6Y23761   9.676   5.747  14.132
  192DOPC   C3723762   9.478   5.588  14.065
  192DOPC   H7X23763   9.444   5.562  13.959
  192DOPC   H7Y23764   9.556   5.488  14.097
  192DOPC   C3823765   9.316   5.586  14.146
  192DOPC   H8X23766   9.245   5.489  14.097
  192DOPC   H8Y23767   9.251   5.699  14.123
  192DOPC   C3923768   9.301   5.548  14.293
  192DOPC   H9X23769   9.320   5.419  14.315
  192DOPC  C31023770   9.257   5.644  14.396
  192DOPC  H10X23771   9.253   5.590  14.497
  192DOPC  C31123772   9.206   5.819  14.390
  192DOPC  H11X23773   9.077   5.818  14.415
  192DOPC  H11Y23774   9.214   5.867  14.287
  192DOPC  C31223775   9.271   5.950  14.485
  192DOPC  H12X23776   9.286   5.906  14.589
  192DOPC  H12Y23777   9.174   6.041  14.494
  192DOPC  C31323778   9.420   6.040  14.436
  192DOPC  H13X23779   9.523   5.957  14.428
  192DOPC  H13Y23780   9.396   6.085  14.333
  192DOPC  C31423781   9.458   6.182  14.527
  192DOPC  H14X23782   9.355   6.266  14.525
  192DOPC  H14Y23783   9.470   6.142  14.632
  192DOPC  C31523784   9.613   6.271  14.488
  192DOPC  H15X23785   9.630   6.258  14.378
  192DOPC  H15Y23786   9.716   6.212  14.538
  192DOPC  C31623787   9.616   6.452  14.521
  192DOPC  H16X23788   9.738   6.500  14.502
  192DOPC  H16Y23789   9.536   6.516  14.452
  192DOPC  C31723790   9.558   6.502  14.661
  192DOPC  H17X23791   9.535   6.634  14.659
  192DOPC  H17Y23792   9.442   6.443  14.683
  192DOPC  C31823793   9.680   6.464  14.770
  192DOPC  H18X23794   9.637   6.510  14.868
  192DOPC  H18Y23795   9.701   6.334  14.777
  192DOPC  H18Z23796   9.797   6.524  14.746
  193DOPC     N23797   8.822   1.952  12.969
  193DOPC   C1223798   8.740   1.963  13.103
  193DOPC  H12A23799   8.729   1.843  13.145
  193DOPC  H12B23800   8.617   2.006  13.088
  193DOPC   C1323801   8.774   1.801  12.898
  193DOPC  H13A23802   8.818   1.805  12.795
  193DOPC  H13B23803   8.822   1.694  12.945
  193DOPC  H13C23804   8.645   1.790  12.895
  193DOPC   C1423805   9.000   1.961  12.989
  193DOPC  H14A23806   9.026   2.074  13.039
  193DOPC  H14B23807   9.043   1.865  13.052
  193DOPC  H14C23808   9.064   1.955  12.895
  193DOPC   C1523809   8.771   2.093  12.887
  193DOPC  H15A23810   8.834   2.100  12.794
  193DOPC  H15B23811   8.788   2.204  12.943
  193DOPC  H15C23812   8.642   2.089  12.869
  193DOPC   C1123813   8.818   2.076  13.208
  193DOPC  H11A23814   8.746   2.060  13.297
  193DOPC  H11B23815   8.940   2.036  13.236
  193DOPC     P23816   8.651   2.336  13.157
  193DOPC   O1323817   8.518   2.220  13.150
  193DOPC   O1423818   8.676   2.437  13.037
  193DOPC   O1223819   8.818   2.242  13.171
  193DOPC   O1123820   8.642   2.450  13.285
  193DOPC    C123821   8.507   2.472  13.372
  193DOPC    HA23822   8.393   2.448  13.318
  193DOPC    HB23823   8.504   2.598  13.406
  193DOPC    C223824   8.513   2.362  13.497
  193DOPC    HS23825   8.612   2.401  13.563
  193DOPC   O2123826   8.536   2.206  13.447
  193DOPC   C2123827   8.626   2.107  13.508
  193DOPC   O2223828   8.734   2.134  13.587
  193DOPC   C2223829   8.564   1.943  13.461
  193DOPC   H2R23830   8.669   1.873  13.422
  193DOPC   H2S23831   8.474   1.956  13.380
  193DOPC    C323832   8.352   2.357  13.578
  193DOPC    HX23833   8.293   2.244  13.544
  193DOPC    HY23834   8.278   2.458  13.543
  193DOPC   O3123835   8.360   2.345  13.723
  193DOPC   C3123836   8.216   2.362  13.781
  193DOPC   O3223837   8.102   2.431  13.732
  193DOPC   C3223838   8.198   2.269  13.910
  193DOPC   H2X23839   8.065   2.263  13.922
  193DOPC   H2Y23840   8.243   2.147  13.897
  193DOPC   C2323841   8.498   1.854  13.581
  193DOPC   H3R23842   8.597   1.866  13.656
  193DOPC   H3S23843   8.489   1.726  13.555
  193DOPC   C2423844   8.336   1.916  13.636
  193DOPC   H4R23845   8.238   1.904  13.561
  193DOPC   H4S23846   8.351   2.046  13.658
  193DOPC   C2523847   8.290   1.837  13.769
  193DOPC   H5R23848   8.228   1.721  13.751
  193DOPC   H5S23849   8.203   1.914  13.822
  193DOPC   C2623850   8.443   1.812  13.851
  193DOPC   H6R23851   8.504   1.928  13.861
  193DOPC   H6S23852   8.525   1.727  13.798
  193DOPC   C2723853   8.432   1.729  13.985
  193DOPC   H7R23854   8.550   1.732  14.037
  193DOPC   H7S23855   8.405   1.603  13.959
  193DOPC   C2823856   8.297   1.780  14.075
  193DOPC   H8R23857   8.268   1.679  14.144
  193DOPC   H8S23858   8.188   1.793  14.013
  193DOPC   C2923859   8.340   1.928  14.149
  193DOPC   H9R23860   8.302   2.041  14.103
  193DOPC  C21023861   8.389   1.928  14.276
  193DOPC  H10R23862   8.418   2.042  14.327
  193DOPC  C21123863   8.405   1.777  14.355
  193DOPC  H11R23864   8.500   1.796  14.426
  193DOPC  H11S23865   8.446   1.673  14.295
  193DOPC  C21223866   8.260   1.735  14.440
  193DOPC  H12R23867   8.291   1.624  14.496
  193DOPC  H12S23868   8.153   1.709  14.378
  193DOPC  C21323869   8.226   1.868  14.542
  193DOPC  H13R23870   8.147   1.961  14.500
  193DOPC  H13S23871   8.340   1.931  14.568
  193DOPC  C21423872   8.156   1.799  14.670
  193DOPC  H14R23873   8.063   1.708  14.648
  193DOPC  H14S23874   8.100   1.897  14.729
  193DOPC  C21523875   8.287   1.723  14.754
  193DOPC  H15R23876   8.402   1.777  14.728
  193DOPC  H15S23877   8.311   1.603  14.716
  193DOPC  C21623878   8.238   1.724  14.901
  193DOPC  H16R23879   8.116   1.674  14.899
  193DOPC  H16S23880   8.230   1.850  14.936
  193DOPC  C21723881   8.335   1.626  15.002
  193DOPC  H17R23882   8.311   1.499  14.987
  193DOPC  H17S23883   8.293   1.657  15.104
  193DOPC  C21823884   8.515   1.652  15.005
  193DOPC  H18R23885   8.536   1.774  15.042
  193DOPC  H18S23886   8.568   1.643  14.903
  193DOPC  H18T23887   8.574   1.564  15.072
  193DOPC   C3323888   8.263   2.352  14.036
  193DOPC   H3X23889   8.221   2.278  14.121
  193DOPC   H3Y23890   8.207   2.472  14.051
  193DOPC   C3423891   8.447   2.360  14.047
  193DOPC   H4X23892   8.478   2.358  14.156
  193DOPC   H4Y23893   8.496   2.472  14.005
  193DOPC   C3523894   8.537   2.227  13.974
  193DOPC   H5X23895   8.543   2.248  13.865
  193DOPC   H5Y23896   8.472   2.113  13.988
  193DOPC   C3623897   8.708   2.204  14.023
  193DOPC   H6X23898   8.786   2.293  13.973
  193DOPC   H6Y23899   8.714   2.222  14.133
  193DOPC   C3723900   8.765   2.034  13.992
  193DOPC   H7X23901   8.686   1.952  14.051
  193DOPC   H7Y23902   8.747   2.008  13.884
  193DOPC   C3823903   8.941   2.008  14.028
  193DOPC   H8X23904   8.969   2.078  14.118
  193DOPC   H8Y23905   9.018   2.053  13.945
  193DOPC   C3923906   8.966   1.830  14.048
  193DOPC   H9X23907   8.969   1.758  13.956
  193DOPC  C31023908   8.975   1.756  14.167
  193DOPC  H10X23909   8.971   1.624  14.167
  193DOPC  C31123910   8.963   1.829  14.304
  193DOPC  H11X23911   8.975   1.961  14.301
  193DOPC  H11Y23912   9.062   1.786  14.368
  193DOPC  C31223913   8.797   1.787  14.366
  193DOPC  H12X23914   8.762   1.661  14.344
  193DOPC  H12Y23915   8.711   1.864  14.309
  193DOPC  C31323916   8.776   1.819  14.518
  193DOPC  H13X23917   8.651   1.826  14.553
  193DOPC  H13Y23918   8.818   1.720  14.579
  193DOPC  C31423919   8.848   1.976  14.563
  193DOPC  H14X23920   8.827   1.990  14.672
  193DOPC  H14Y23921   8.980   1.979  14.545
  193DOPC  C31523922   8.765   2.112  14.488
  193DOPC  H15X23923   8.634   2.113  14.510
  193DOPC  H15Y23924   8.776   2.096  14.377
  193DOPC  C31623925   8.842   2.272  14.518
  193DOPC  H16X23926   8.966   2.267  14.480
  193DOPC  H16Y23927   8.768   2.360  14.461
  193DOPC  C31723928   8.834   2.324  14.664
  193DOPC  H17X23929   8.886   2.233  14.733
  193DOPC  H17Y23930   8.910   2.434  14.674
  193DOPC  C31823931   8.662   2.366  14.698
  193DOPC  H18X23932   8.615   2.455  14.625
  193DOPC  H18Y23933   8.586   2.260  14.690
  193DOPC  H18Z23934   8.647   2.419  14.799
  194DOPC     N23935   2.082   0.451  12.858
  194DOPC   C1223936   2.179   0.316  12.920
  194DOPC  H12A23937   2.303   0.361  12.928
  194DOPC  H12B23938   2.186   0.215  12.853
  194DOPC   C1323939   1.907   0.424  12.880
  194DOPC  H13A23940   1.836   0.522  12.842
  194DOPC  H13B23941   1.867   0.316  12.829
  194DOPC  H13C23942   1.886   0.408  12.987
  194DOPC   C1423943   2.126   0.472  12.713
  194DOPC  H14A23944   2.252   0.509  12.708
  194DOPC  H14B23945   2.118   0.362  12.656
  194DOPC  H14C23946   2.057   0.563  12.663
  194DOPC   C1523947   2.138   0.599  12.930
  194DOPC  H15A23948   2.268   0.611  12.913
  194DOPC  H15B23949   2.125   0.583  13.038
  194DOPC  H15C23950   2.081   0.704  12.894
  194DOPC   C1123951   2.135   0.259  13.062
  194DOPC  H11A23952   2.015   0.203  13.064
  194DOPC  H11B23953   2.225   0.164  13.087
  194DOPC     P23954   2.174   0.354  13.308
  194DOPC   O1323955   2.214   0.506  13.374
  194DOPC   O1423956   2.290   0.221  13.323
  194DOPC   O1223957   2.144   0.390  13.154
  194DOPC   O1123958   2.000   0.293  13.343
  194DOPC    C123959   1.862   0.365  13.282
  194DOPC    HA23960   1.830   0.299  13.190
  194DOPC    HB23961   1.884   0.492  13.254
  194DOPC    C223962   1.718   0.360  13.379
  194DOPC    HS23963   1.632   0.455  13.350
  194DOPC   O2123964   1.764   0.388  13.515
  194DOPC   C2123965   1.864   0.506  13.544
  194DOPC   O2223966   1.927   0.598  13.466
  194DOPC   C2223967   1.872   0.530  13.695
  194DOPC   H2R23968   1.800   0.440  13.746
  194DOPC   H2S23969   1.819   0.649  13.719
  194DOPC    C323970   1.632   0.193  13.365
  194DOPC    HX23971   1.558   0.202  13.274
  194DOPC    HY23972   1.542   0.178  13.446
  194DOPC   O3123973   1.742   0.059  13.351
  194DOPC   C3123974   1.790   0.007  13.472
  194DOPC   O3223975   1.724   0.047  13.575
  194DOPC   C3223976   1.933  -0.103  13.475
  194DOPC   H2X23977   1.920  -0.206  13.406
  194DOPC   H2Y23978   2.040  -0.030  13.448
  194DOPC   C2323979   2.044   0.509  13.745
  194DOPC   H3R23980   2.053   0.552  13.850
  194DOPC   H3S23981   2.130   0.577  13.682
  194DOPC   C2423982   2.082   0.329  13.740
  194DOPC   H4R23983   2.065   0.287  13.634
  194DOPC   H4S23984   1.993   0.262  13.801
  194DOPC   C2523985   2.254   0.286  13.779
  194DOPC   H5R23986   2.336   0.349  13.710
  194DOPC   H5S23987   2.262   0.155  13.758
  194DOPC   C2623988   2.300   0.313  13.926
  194DOPC   H6R23989   2.311   0.445  13.945
  194DOPC   H6S23990   2.422   0.260  13.942
  194DOPC   C2723991   2.184   0.236  14.027
  194DOPC   H7R23992   2.104   0.156  13.968
  194DOPC   H7S23993   2.107   0.330  14.072
  194DOPC   C2823994   2.260   0.126  14.134
  194DOPC   H8R23995   2.368   0.066  14.093
  194DOPC   H8S23996   2.171   0.026  14.148
  194DOPC   C2923997   2.299   0.193  14.270
  194DOPC   H9R23998   2.407   0.269  14.276
  194DOPC  C21023999   2.198   0.190  14.375
  194DOPC  H10R24000   2.228   0.252  14.468
  194DOPC  C21124001   2.032   0.118  14.370
  194DOPC  H11R24002   1.984   0.106  14.473
  194DOPC  H11S24003   2.030  -0.005  14.326
  194DOPC  C21224004   1.924   0.232  14.286
  194DOPC  H12R24005   1.798   0.211  14.319
  194DOPC  H12S24006   1.927   0.197  14.180
  194DOPC  C21324007   1.963   0.415  14.299
  194DOPC  H13R24008   1.915   0.491  14.219
  194DOPC  H13S24009   2.092   0.444  14.297
  194DOPC  C21424010   1.892   0.456  14.433
  194DOPC  H14R24011   1.949   0.361  14.494
  194DOPC  H14S24012   1.759   0.436  14.428
  194DOPC  C21524013   1.926   0.602  14.518
  194DOPC  H15R24014   1.894   0.566  14.621
  194DOPC  H15S24015   1.834   0.691  14.500
  194DOPC  C21624016   2.098   0.666  14.519
  194DOPC  H16R24017   2.089   0.799  14.532
  194DOPC  H16S24018   2.161   0.644  14.424
  194DOPC  C21724019   2.185   0.602  14.642
  194DOPC  H17R24020   2.257   0.493  14.621
  194DOPC  H17S24021   2.093   0.568  14.717
  194DOPC  C21824022   2.279   0.730  14.714
  194DOPC  H18R24023   2.291   0.702  14.822
  194DOPC  H18S24024   2.212   0.845  14.709
  194DOPC  H18T24025   2.400   0.744  14.670
  194DOPC   C3324026   1.950  -0.162  13.623
  194DOPC   H3X24027   1.946  -0.059  13.693
  194DOPC   H3Y24028   2.068  -0.220  13.636
  194DOPC   C3424029   1.822  -0.284  13.665
  194DOPC   H4X24030   1.860  -0.403  13.624
  194DOPC   H4Y24031   1.704  -0.254  13.617
  194DOPC   C3524032   1.795  -0.292  13.817
  194DOPC   H5X24033   1.909  -0.259  13.866
  194DOPC   H5Y24034   1.759  -0.415  13.847
  194DOPC   C3624035   1.670  -0.173  13.871
  194DOPC   H6X24036   1.714  -0.049  13.854
  194DOPC   H6Y24037   1.567  -0.187  13.806
  194DOPC   C3724038   1.602  -0.196  14.013
  194DOPC   H7X24039   1.535  -0.089  14.048
  194DOPC   H7Y24040   1.517  -0.298  14.008
  194DOPC   C3824041   1.729  -0.238  14.116
  194DOPC   H8X24042   1.792  -0.130  14.154
  194DOPC   H8Y24043   1.811  -0.314  14.057
  194DOPC   C3924044   1.667  -0.347  14.221
  194DOPC   H9X24045   1.608  -0.454  14.177
  194DOPC  C31024046   1.681  -0.331  14.355
  194DOPC  H10X24047   1.638  -0.431  14.418
  194DOPC  C31124048   1.768  -0.197  14.431
  194DOPC  H11X24049   1.757  -0.082  14.376
  194DOPC  H11Y24050   1.900  -0.208  14.447
  194DOPC  C31224051   1.714  -0.187  14.575
  194DOPC  H12X24052   1.656  -0.302  14.602
  194DOPC  H12Y24053   1.624  -0.091  14.572
  194DOPC  C31324054   1.844  -0.154  14.680
  194DOPC  H13X24055   1.919  -0.264  14.678
  194DOPC  H13Y24056   1.918  -0.049  14.649
  194DOPC  C31424057   1.783  -0.127  14.826
  194DOPC  H14X24058   1.676  -0.050  14.812
  194DOPC  H14Y24059   1.742  -0.245  14.865
  194DOPC  C31524060   1.885  -0.043  14.938
  194DOPC  H15X24061   1.876   0.088  14.929
  194DOPC  H15Y24062   2.015  -0.060  14.942
  194DOPC  C31624063   1.838  -0.088  15.082
  194DOPC  H16X24064   1.768  -0.200  15.081
  194DOPC  H16Y24065   1.948  -0.097  15.145
  194DOPC  C31724066   1.746   0.046  15.144
  194DOPC  H17X24067   1.710   0.047  15.250
  194DOPC  H17Y24068   1.828   0.151  15.132
  194DOPC  C31824069   1.600   0.052  15.060
  194DOPC  H18X24070   1.642   0.148  14.991
  194DOPC  H18Y24071   1.583  -0.064  15.005
  194DOPC  H18Z24072   1.486   0.086  15.109
  195DOPC     N24073   6.832   9.055  13.068
  195DOPC   C1224074   6.827   8.947  13.191
  195DOPC  H12A24075   6.722   8.872  13.182
  195DOPC  H12B24076   6.812   9.022  13.280
  195DOPC   C1324077   6.702   9.178  13.077
  195DOPC  H13A24078   6.583   9.122  13.080
  195DOPC  H13B24079   6.715   9.254  13.163
  195DOPC  H13C24080   6.697   9.251  12.987
  195DOPC   C1424081   6.805   8.958  12.944
  195DOPC  H14A24082   6.828   9.028  12.855
  195DOPC  H14B24083   6.892   8.860  12.945
  195DOPC  H14C24084   6.685   8.909  12.940
  195DOPC   C1524085   6.994   9.130  13.055
  195DOPC  H15A24086   7.025   9.202  13.141
  195DOPC  H15B24087   7.003   9.203  12.965
  195DOPC  H15C24088   7.084   9.036  13.041
  195DOPC   C1124089   6.970   8.834  13.220
  195DOPC  H11A24090   7.080   8.904  13.246
  195DOPC  H11B24091   6.936   8.761  13.309
  195DOPC     P24092   7.160   8.694  13.045
  195DOPC   O1324093   7.192   8.830  12.954
  195DOPC   O1424094   7.145   8.533  12.983
  195DOPC   O1224095   6.992   8.728  13.112
  195DOPC   O1124096   7.285   8.690  13.163
  195DOPC    C124097   7.415   8.802  13.177
  195DOPC    HA24098   7.373   8.927  13.161
  195DOPC    HB24099   7.513   8.776  13.105
  195DOPC    C224100   7.483   8.792  13.321
  195DOPC    HS24101   7.558   8.680  13.323
  195DOPC   O2124102   7.349   8.795  13.412
  195DOPC   C2124103   7.318   8.651  13.460
  195DOPC   O2224104   7.409   8.537  13.454
  195DOPC   C2224105   7.154   8.647  13.527
  195DOPC   H2R24106   7.069   8.708  13.461
  195DOPC   H2S24107   7.168   8.717  13.621
  195DOPC    C324108   7.596   8.929  13.362
  195DOPC    HX24109   7.705   8.932  13.298
  195DOPC    HY24110   7.638   8.899  13.466
  195DOPC   O3124111   7.513   9.080  13.353
  195DOPC   C3124112   7.484   9.156  13.468
  195DOPC   O3224113   7.543   9.122  13.575
  195DOPC   C3224114   7.363   9.290  13.445
  195DOPC   H2X24115   7.378   9.379  13.527
  195DOPC   H2Y24116   7.394   9.349  13.349
  195DOPC   C2324117   7.090   8.477  13.560
  195DOPC   H3R24118   7.178   8.414  13.626
  195DOPC   H3S24119   7.079   8.402  13.467
  195DOPC   C2424120   6.925   8.482  13.631
  195DOPC   H4R24121   6.894   8.360  13.667
  195DOPC   H4S24122   6.833   8.515  13.556
  195DOPC   C2524123   6.914   8.603  13.746
  195DOPC   H5R24124   6.796   8.592  13.796
  195DOPC   H5S24125   6.923   8.726  13.705
  195DOPC   C2624126   7.045   8.586  13.852
  195DOPC   H6R24127   7.033   8.696  13.912
  195DOPC   H6S24128   7.168   8.593  13.810
  195DOPC   C2724129   7.030   8.429  13.931
  195DOPC   H7R24130   7.144   8.360  13.922
  195DOPC   H7S24131   6.932   8.352  13.891
  195DOPC   C2824132   7.000   8.449  14.081
  195DOPC   H8R24133   7.103   8.387  14.126
  195DOPC   H8S24134   6.892   8.381  14.114
  195DOPC   C2924135   7.004   8.614  14.138
  195DOPC   H9R24136   6.893   8.678  14.117
  195DOPC  C21024137   7.135   8.707  14.154
  195DOPC  H10R24138   7.115   8.813  14.215
  195DOPC  C21124139   7.309   8.677  14.118
  195DOPC  H11R24140   7.316   8.593  14.031
  195DOPC  H11S24141   7.384   8.628  14.200
  195DOPC  C21224142   7.396   8.836  14.087
  195DOPC  H12R24143   7.338   8.891  13.998
  195DOPC  H12S24144   7.523   8.810  14.058
  195DOPC  C21324145   7.394   8.957  14.204
  195DOPC  H13R24146   7.294   8.933  14.273
  195DOPC  H13S24147   7.367   9.073  14.158
  195DOPC  C21424148   7.546   8.962  14.293
  195DOPC  H14R24149   7.650   9.002  14.233
  195DOPC  H14S24150   7.572   8.838  14.329
  195DOPC  C21524151   7.536   9.072  14.417
  195DOPC  H15R24152   7.547   9.196  14.379
  195DOPC  H15S24153   7.643   9.053  14.481
  195DOPC  C21624154   7.382   9.061  14.503
  195DOPC  H16R24155   7.372   8.938  14.543
  195DOPC  H16S24156   7.277   9.085  14.438
  195DOPC  C21724157   7.368   9.182  14.620
  195DOPC  H17R24158   7.253   9.161  14.674
  195DOPC  H17S24159   7.356   9.305  14.577
  195DOPC  C21824160   7.504   9.179  14.724
  195DOPC  H18R24161   7.492   9.283  14.794
  195DOPC  H18S24162   7.622   9.188  14.676
  195DOPC  H18T24163   7.500   9.067  14.784
  195DOPC   C3324164   7.188   9.227  13.439
  195DOPC   H3X24165   7.182   9.109  13.387
  195DOPC   H3Y24166   7.120   9.313  13.376
  195DOPC   C3424167   7.103   9.217  13.576
  195DOPC   H4X24168   6.972   9.208  13.557
  195DOPC   H4Y24169   7.123   9.331  13.632
  195DOPC   C3524170   7.153   9.074  13.662
  195DOPC   H5X24171   7.280   9.090  13.695
  195DOPC   H5Y24172   7.148   8.965  13.599
  195DOPC   C3624173   7.050   9.047  13.788
  195DOPC   H6X24174   6.923   9.026  13.761
  195DOPC   H6Y24175   7.096   8.934  13.836
  195DOPC   C3724176   7.063   9.181  13.892
  195DOPC   H7X24177   7.193   9.214  13.901
  195DOPC   H7Y24178   6.998   9.290  13.858
  195DOPC   C3824179   7.008   9.133  14.034
  195DOPC   H8X24180   7.061   9.221  14.106
  195DOPC   H8Y24181   7.063   9.016  14.057
  195DOPC   C3924182   6.828   9.130  14.057
  195DOPC   H9X24183   6.755   9.185  13.977
  195DOPC  C31024184   6.755   9.059  14.162
  195DOPC  H10X24185   6.623   9.056  14.167
  195DOPC  C31124186   6.840   8.971  14.274
  195DOPC  H11X24187   6.972   8.982  14.262
  195DOPC  H11Y24188   6.808   8.842  14.269
  195DOPC  C31224189   6.810   9.018  14.420
  195DOPC  H12X24190   6.680   9.004  14.444
  195DOPC  H12Y24191   6.845   9.145  14.438
  195DOPC  C31324192   6.908   8.908  14.513
  195DOPC  H13X24193   6.847   8.790  14.519
  195DOPC  H13Y24194   7.030   8.885  14.469
  195DOPC  C31424195   6.932   8.975  14.654
  195DOPC  H14X24196   7.000   8.886  14.715
  195DOPC  H14Y24197   7.007   9.085  14.647
  195DOPC  C31524198   6.773   9.017  14.723
  195DOPC  H15X24199   6.698   8.906  14.730
  195DOPC  H15Y24200   6.706   9.104  14.660
  195DOPC  C31624201   6.794   9.089  14.863
  195DOPC  H16X24202   6.866   9.202  14.857
  195DOPC  H16Y24203   6.673   9.121  14.901
  195DOPC  C31724204   6.874   8.972  14.961
  195DOPC  H17X24205   6.822   8.851  14.944
  195DOPC  H17Y24206   7.004   8.965  14.939
  195DOPC  C31824207   6.850   9.018  15.108
  195DOPC  H18X24208   6.901   8.926  15.175
  195DOPC  H18Y24209   6.908   9.136  15.130
  195DOPC  H18Z24210   6.720   9.030  15.131
  196DOPC     N24211   0.935   1.356  12.921
  196DOPC   C1224212   1.098   1.285  12.955
  196DOPC  H12A24213   1.170   1.381  12.995
  196DOPC  H12B24214   1.158   1.243  12.866
  196DOPC   C1324215   0.815   1.222  12.913
  196DOPC  H13A24216   0.862   1.124  12.854
  196DOPC  H13B24217   0.797   1.170  13.012
  196DOPC  H13C24218   0.702   1.260  12.872
  196DOPC   C1424219   0.943   1.446  12.792
  196DOPC  H14A24220   0.974   1.361  12.712
  196DOPC  H14B24221   0.829   1.498  12.761
  196DOPC  H14C24222   1.033   1.540  12.791
  196DOPC   C1524223   0.878   1.457  13.036
  196DOPC  H15A24224   0.756   1.498  13.026
  196DOPC  H15B24225   0.958   1.555  13.057
  196DOPC  H15C24226   0.878   1.379  13.125
  196DOPC   C1124227   1.098   1.146  13.057
  196DOPC  H11A24228   1.051   1.034  13.011
  196DOPC  H11B24229   1.223   1.122  13.092
  196DOPC     P24230   0.917   1.076  13.265
  196DOPC   O1324231   0.840   1.182  13.366
  196DOPC   O1424232   1.036   0.958  13.309
  196DOPC   O1224233   1.003   1.194  13.167
  196DOPC   O1124234   0.785   0.996  13.171
  196DOPC    C124235   0.746   0.828  13.182
  196DOPC    HA24236   0.834   0.760  13.245
  196DOPC    HB24237   0.754   0.774  13.081
  196DOPC    C224238   0.575   0.800  13.239
  196DOPC    HS24239   0.488   0.847  13.164
  196DOPC   O2124240   0.565   0.876  13.366
  196DOPC   C2124241   0.492   1.012  13.365
  196DOPC   O2224242   0.432   1.080  13.269
  196DOPC   C2224243   0.472   1.066  13.509
  196DOPC   H2R24244   0.356   1.016  13.544
  196DOPC   H2S24245   0.463   1.198  13.502
  196DOPC    C324246   0.523   0.624  13.265
  196DOPC    HX24247   0.510   0.562  13.168
  196DOPC    HY24248   0.403   0.625  13.314
  196DOPC   O3124249   0.643   0.546  13.345
  196DOPC   C3124250   0.637   0.576  13.474
  196DOPC   O3224251   0.521   0.620  13.538
  196DOPC   C3224252   0.802   0.547  13.534
  196DOPC   H2X24253   0.776   0.526  13.640
  196DOPC   H2Y24254   0.852   0.437  13.490
  196DOPC   C2324255   0.608   1.019  13.606
  196DOPC   H3R24256   0.719   0.983  13.553
  196DOPC   H3S24257   0.571   0.919  13.673
  196DOPC   C2424258   0.649   1.168  13.686
  196DOPC   H4R24259   0.546   1.187  13.754
  196DOPC   H4S24260   0.664   1.271  13.617
  196DOPC   C2524261   0.802   1.158  13.768
  196DOPC   H5R24262   0.908   1.142  13.703
  196DOPC   H5S24263   0.791   1.056  13.839
  196DOPC   C2624264   0.814   1.310  13.851
  196DOPC   H6R24265   0.708   1.306  13.919
  196DOPC   H6S24266   0.804   1.417  13.785
  196DOPC   C2724267   0.964   1.321  13.934
  196DOPC   H7R24268   0.973   1.444  13.979
  196DOPC   H7S24269   1.070   1.302  13.868
  196DOPC   C2824270   0.962   1.196  14.045
  196DOPC   H8R24271   1.082   1.214  14.088
  196DOPC   H8S24272   0.953   1.072  14.007
  196DOPC   C2924273   0.842   1.226  14.152
  196DOPC   H9R24274   0.882   1.319  14.223
  196DOPC  C21024275   0.708   1.146  14.180
  196DOPC  H10R24276   0.643   1.182  14.270
  196DOPC  C21124277   0.630   1.002  14.117
  196DOPC  H11R24278   0.665   0.985  14.011
  196DOPC  H11S24279   0.498   1.014  14.122
  196DOPC  C21224280   0.682   0.858  14.201
  196DOPC  H12R24281   0.808   0.824  14.177
  196DOPC  H12S24282   0.605   0.752  14.176
  196DOPC  C21324283   0.667   0.887  14.353
  196DOPC  H13R24284   0.539   0.911  14.376
  196DOPC  H13S24285   0.740   0.989  14.390
  196DOPC  C21424286   0.724   0.744  14.431
  196DOPC  H14R24287   0.856   0.749  14.444
  196DOPC  H14S24288   0.700   0.634  14.372
  196DOPC  C21524289   0.643   0.740  14.568
  196DOPC  H15R24290   0.583   0.624  14.584
  196DOPC  H15S24291   0.553   0.838  14.577
  196DOPC  C21624292   0.767   0.750  14.677
  196DOPC  H16R24293   0.828   0.868  14.668
  196DOPC  H16S24294   0.856   0.655  14.654
  196DOPC  C21724295   0.700   0.725  14.818
  196DOPC  H17R24296   0.776   0.793  14.890
  196DOPC  H17S24297   0.706   0.596  14.845
  196DOPC  C21824298   0.526   0.776  14.834
  196DOPC  H18R24299   0.493   0.781  14.941
  196DOPC  H18S24300   0.440   0.697  14.782
  196DOPC  H18T24301   0.510   0.898  14.789
  196DOPC   C3324302   0.919   0.690  13.511
  196DOPC   H3X24303   0.852   0.802  13.487
  196DOPC   H3Y24304   0.992   0.665  13.420
  196DOPC   C3424305   1.033   0.726  13.627
  196DOPC   H4X24306   1.105   0.835  13.601
  196DOPC   H4Y24307   1.118   0.624  13.636
  196DOPC   C3524308   0.950   0.756  13.761
  196DOPC   H5X24309   0.844   0.678  13.776
  196DOPC   H5Y24310   0.904   0.878  13.761
  196DOPC   C3624311   1.060   0.730  13.880
  196DOPC   H6X24312   0.978   0.712  13.968
  196DOPC   H6Y24313   1.136   0.623  13.872
  196DOPC   C3724314   1.174   0.866  13.911
  196DOPC   H7X24315   1.286   0.852  13.854
  196DOPC   H7Y24316   1.122   0.984  13.883
  196DOPC   C3824317   1.208   0.848  14.060
  196DOPC   H8X24318   1.283   0.739  14.071
  196DOPC   H8Y24319   1.096   0.830  14.117
  196DOPC   C3924320   1.297   0.990  14.108
  196DOPC   H9X24321   1.382   1.027  14.032
  196DOPC  C31024322   1.274   1.076  14.220
  196DOPC  H10X24323   1.346   1.184  14.238
  196DOPC  C31124324   1.147   1.044  14.322
  196DOPC  H11X24325   1.080   0.931  14.302
  196DOPC  H11Y24326   1.058   1.142  14.324
  196DOPC  C31224327   1.222   1.033  14.460
  196DOPC  H12X24328   1.266   1.152  14.494
  196DOPC  H12Y24329   1.325   0.950  14.455
  196DOPC  C31324330   1.106   0.962  14.561
  196DOPC  H13X24331   1.020   1.056  14.594
  196DOPC  H13Y24332   1.040   0.860  14.517
  196DOPC  C31424333   1.207   0.899  14.675
  196DOPC  H14X24334   1.271   0.790  14.640
  196DOPC  H14Y24335   1.301   0.991  14.695
  196DOPC  C31524336   1.120   0.869  14.808
  196DOPC  H15X24337   0.998   0.922  14.805
  196DOPC  H15Y24338   1.187   0.931  14.888
  196DOPC  C31624339   1.118   0.689  14.841
  196DOPC  H16X24340   1.031   0.631  14.776
  196DOPC  H16Y24341   1.232   0.636  14.809
  196DOPC  C31724342   1.088   0.649  14.989
  196DOPC  H17X24343   1.146   0.748  15.047
  196DOPC  H17Y24344   0.958   0.659  15.008
  196DOPC  C31824345   1.151   0.487  15.040
  196DOPC  H18X24346   1.127   0.386  14.974
  196DOPC  H18Y24347   1.280   0.484  15.051
  196DOPC  H18Z24348   1.100   0.452  15.137
  197DOPC     N24349   1.553   8.822  12.929
  197DOPC   C1224350   1.628   8.894  13.055
  197DOPC  H12A24351   1.537   8.952  13.114
  197DOPC  H12B24352   1.718   8.982  13.026
  197DOPC   C1324353   1.424   8.702  12.962
  197DOPC  H13A24354   1.378   8.646  12.872
  197DOPC  H13B24355   1.472   8.608  13.025
  197DOPC  H13C24356   1.321   8.753  13.013
  197DOPC   C1424357   1.684   8.732  12.856
  197DOPC  H14A24358   1.722   8.630  12.917
  197DOPC  H14B24359   1.644   8.692  12.758
  197DOPC  H14C24360   1.789   8.807  12.844
  197DOPC   C1524361   1.488   8.951  12.843
  197DOPC  H15A24362   1.376   8.999  12.883
  197DOPC  H15B24363   1.465   8.904  12.743
  197DOPC  H15C24364   1.576   9.047  12.829
  197DOPC   C1124365   1.720   8.778  13.146
  197DOPC  H11A24366   1.717   8.827  13.251
  197DOPC  H11B24367   1.652   8.663  13.145
  197DOPC     P24368   1.973   8.620  13.186
  197DOPC   O1324369   1.948   8.652  13.329
  197DOPC   O1424370   2.140   8.605  13.138
  197DOPC   O1224371   1.883   8.758  13.103
  197DOPC   O1124372   1.871   8.471  13.136
  197DOPC    C124373   1.838   8.329  13.211
  197DOPC    HA24374   1.913   8.322  13.303
  197DOPC    HB24375   1.867   8.224  13.149
  197DOPC    C224376   1.658   8.314  13.253
  197DOPC    HS24377   1.591   8.282  13.160
  197DOPC   O2124378   1.603   8.464  13.306
  197DOPC   C2124379   1.448   8.489  13.297
  197DOPC   O2224380   1.350   8.399  13.249
  197DOPC   C2224381   1.416   8.657  13.352
  197DOPC   H2R24382   1.288   8.681  13.356
  197DOPC   H2S24383   1.470   8.748  13.287
  197DOPC    C324384   1.632   8.176  13.356
  197DOPC    HX24385   1.697   8.069  13.317
  197DOPC    HY24386   1.501   8.144  13.357
  197DOPC   O3124387   1.697   8.220  13.486
  197DOPC   C3124388   1.591   8.236  13.586
  197DOPC   O3224389   1.454   8.186  13.583
  197DOPC   C3224390   1.655   8.328  13.708
  197DOPC   H2X24391   1.555   8.410  13.737
  197DOPC   H2Y24392   1.670   8.245  13.793
  197DOPC   C2324393   1.481   8.671  13.493
  197DOPC   H3R24394   1.614   8.681  13.494
  197DOPC   H3S24395   1.446   8.562  13.550
  197DOPC   C2424396   1.406   8.814  13.561
  197DOPC   H4R24397   1.276   8.827  13.536
  197DOPC   H4S24398   1.469   8.926  13.529
  197DOPC   C2524399   1.420   8.789  13.710
  197DOPC   H5R24400   1.392   8.903  13.761
  197DOPC   H5S24401   1.543   8.746  13.734
  197DOPC   C2624402   1.296   8.672  13.765
  197DOPC   H6R24403   1.334   8.549  13.741
  197DOPC   H6S24404   1.176   8.693  13.719
  197DOPC   C2724405   1.283   8.706  13.915
  197DOPC   H7R24406   1.212   8.818  13.931
  197DOPC   H7S24407   1.408   8.730  13.951
  197DOPC   C2824408   1.217   8.569  13.997
  197DOPC   H8R24409   1.098   8.528  13.964
  197DOPC   H8S24410   1.196   8.620  14.099
  197DOPC   C2924411   1.349   8.444  13.990
  197DOPC   H9R24412   1.375   8.393  13.891
  197DOPC  C21024413   1.417   8.381  14.097
  197DOPC  H10R24414   1.511   8.288  14.086
  197DOPC  C21124415   1.368   8.423  14.235
  197DOPC  H11R24416   1.356   8.305  14.283
  197DOPC  H11S24417   1.243   8.467  14.238
  197DOPC  C21224418   1.471   8.524  14.326
  197DOPC  H12R24419   1.424   8.520  14.431
  197DOPC  H12S24420   1.470   8.652  14.299
  197DOPC  C21324421   1.636   8.450  14.340
  197DOPC  H13R24422   1.698   8.538  14.403
  197DOPC  H13S24423   1.694   8.428  14.242
  197DOPC  C21424424   1.626   8.302  14.426
  197DOPC  H14R24425   1.706   8.208  14.389
  197DOPC  H14S24426   1.505   8.251  14.418
  197DOPC  C21524427   1.645   8.333  14.575
  197DOPC  H15R24428   1.571   8.437  14.605
  197DOPC  H15S24429   1.772   8.358  14.601
  197DOPC  C21624430   1.577   8.183  14.641
  197DOPC  H16R24431   1.637   8.075  14.599
  197DOPC  H16S24432   1.447   8.177  14.614
  197DOPC  C21724433   1.586   8.188  14.790
  197DOPC  H17R24434   1.550   8.311  14.818
  197DOPC  H17S24435   1.711   8.165  14.823
  197DOPC  C21824436   1.470   8.075  14.860
  197DOPC  H18R24437   1.495   7.948  14.836
  197DOPC  H18S24438   1.345   8.104  14.831
  197DOPC  H18T24439   1.477   8.089  14.969
  197DOPC   C3324440   1.805   8.431  13.678
  197DOPC   H3X24441   1.762   8.531  13.613
  197DOPC   H3Y24442   1.890   8.360  13.616
  197DOPC   C3424443   1.898   8.502  13.797
  197DOPC   H4X24444   1.824   8.508  13.889
  197DOPC   H4Y24445   1.930   8.627  13.769
  197DOPC   C3524446   2.059   8.412  13.818
  197DOPC   H5X24447   2.114   8.390  13.718
  197DOPC   H5Y24448   2.034   8.297  13.863
  197DOPC   C3624449   2.188   8.488  13.908
  197DOPC   H6X24450   2.227   8.596  13.851
  197DOPC   H6Y24451   2.131   8.520  14.006
  197DOPC   C3724452   2.338   8.384  13.931
  197DOPC   H7X24453   2.297   8.257  13.922
  197DOPC   H7Y24454   2.424   8.408  13.849
  197DOPC   C3824455   2.426   8.395  14.067
  197DOPC   H8X24456   2.483   8.275  14.081
  197DOPC   H8Y24457   2.338   8.398  14.147
  197DOPC   C3924458   2.560   8.515  14.095
  197DOPC   H9X24459   2.674   8.486  14.047
  197DOPC  C31024460   2.555   8.640  14.181
  197DOPC  H10X24461   2.660   8.708  14.207
  197DOPC  C31124462   2.412   8.678  14.264
  197DOPC  H11X24463   2.366   8.569  14.305
  197DOPC  H11Y24464   2.326   8.688  14.190
  197DOPC  C31224465   2.406   8.809  14.374
  197DOPC  H12X24466   2.310   8.902  14.362
  197DOPC  H12Y24467   2.513   8.876  14.346
  197DOPC  C31324468   2.359   8.728  14.511
  197DOPC  H13X24469   2.233   8.764  14.529
  197DOPC  H13Y24470   2.365   8.603  14.496
  197DOPC  C31424471   2.438   8.732  14.650
  197DOPC  H14X24472   2.570   8.722  14.653
  197DOPC  H14Y24473   2.414   8.860  14.658
  197DOPC  C31524474   2.342   8.665  14.777
  197DOPC  H15X24475   2.218   8.686  14.746
  197DOPC  H15Y24476   2.389   8.731  14.866
  197DOPC  C31624477   2.284   8.502  14.836
  197DOPC  H16X24478   2.218   8.430  14.759
  197DOPC  H16Y24479   2.378   8.424  14.880
  197DOPC  C31724480   2.159   8.528  14.945
  197DOPC  H17X24481   2.218   8.572  15.038
  197DOPC  H17Y24482   2.068   8.620  14.915
  197DOPC  C31824483   2.074   8.371  14.970
  197DOPC  H18X24484   2.158   8.268  14.968
  197DOPC  H18Y24485   2.017   8.376  15.069
  197DOPC  H18Z24486   1.980   8.348  14.893
  198DOPC     N24487   8.544   8.050  12.963
  198DOPC   C1224488   8.471   7.914  12.879
  198DOPC  H12A24489   8.534   7.908  12.785
  198DOPC  H12B24490   8.346   7.943  12.855
  198DOPC   C1324491   8.456   8.065  13.093
  198DOPC  H13A24492   8.329   8.078  13.080
  198DOPC  H13B24493   8.470   7.954  13.150
  198DOPC  H13C24494   8.501   8.159  13.157
  198DOPC   C1424495   8.528   8.200  12.883
  198DOPC  H14A24496   8.408   8.214  12.842
  198DOPC  H14B24497   8.548   8.303  12.947
  198DOPC  H14C24498   8.616   8.206  12.804
  198DOPC   C1524499   8.714   8.006  12.999
  198DOPC  H15A24500   8.797   8.002  12.916
  198DOPC  H15B24501   8.713   7.888  13.047
  198DOPC  H15C24502   8.764   8.088  13.074
  198DOPC   C1124503   8.465   7.747  12.944
  198DOPC  H11A24504   8.417   7.658  12.871
  198DOPC  H11B24505   8.586   7.709  12.977
  198DOPC     P24506   8.268   7.631  13.131
  198DOPC   O1324507   8.378   7.537  13.214
  198DOPC   O1424508   8.155   7.556  13.035
  198DOPC   O1224509   8.364   7.762  13.055
  198DOPC   O1124510   8.167   7.752  13.216
  198DOPC    C124511   8.081   7.878  13.149
  198DOPC    HA24512   7.978   7.828  13.091
  198DOPC    HB24513   8.158   7.952  13.084
  198DOPC    C224514   8.016   7.976  13.263
  198DOPC    HS24515   8.126   8.008  13.324
  198DOPC   O2124516   7.907   7.873  13.328
  198DOPC   C2124517   7.949   7.834  13.447
  198DOPC   O2224518   8.084   7.825  13.493
  198DOPC   C2224519   7.792   7.802  13.516
  198DOPC   H2R24520   7.766   7.674  13.515
  198DOPC   H2S24521   7.692   7.848  13.453
  198DOPC    C324522   7.921   8.131  13.249
  198DOPC    HX24523   7.794   8.106  13.221
  198DOPC    HY24524   7.972   8.218  13.176
  198DOPC   O3124525   7.928   8.183  13.385
  198DOPC   C3124526   7.914   8.329  13.427
  198DOPC   O3224527   7.876   8.447  13.362
  198DOPC   C3224528   7.942   8.328  13.577
  198DOPC   H2X24529   7.903   8.446  13.617
  198DOPC   H2Y24530   7.866   8.232  13.620
  198DOPC   C2324531   7.778   7.889  13.652
  198DOPC   H3R24532   7.680   7.838  13.713
  198DOPC   H3S24533   7.740   8.008  13.615
  198DOPC   C2424534   7.927   7.937  13.734
  198DOPC   H4R24535   7.883   8.045  13.787
  198DOPC   H4S24536   8.030   7.976  13.673
  198DOPC   C2524537   7.986   7.825  13.844
  198DOPC   H5R24538   7.945   7.703  13.830
  198DOPC   H5S24539   7.932   7.876  13.937
  198DOPC   C2624540   8.167   7.811  13.865
  198DOPC   H6R24541   8.232   7.830  13.769
  198DOPC   H6S24542   8.195   7.686  13.899
  198DOPC   C2724543   8.216   7.926  13.975
  198DOPC   H7R24544   8.135   7.913  14.063
  198DOPC   H7S24545   8.198   8.048  13.936
  198DOPC   C2824546   8.387   7.897  14.023
  198DOPC   H8R24547   8.458   7.840  13.942
  198DOPC   H8S24548   8.381   7.812  14.109
  198DOPC   C2924549   8.461   8.053  14.059
  198DOPC   H9R24550   8.455   8.144  13.979
  198DOPC  C21024551   8.531   8.095  14.174
  198DOPC  H10R24552   8.588   8.210  14.169
  198DOPC  C21124553   8.556   7.998  14.301
  198DOPC  H11R24554   8.687   7.973  14.310
  198DOPC  H11S24555   8.495   7.880  14.290
  198DOPC  C21224556   8.503   8.063  14.440
  198DOPC  H12R24557   8.582   8.162  14.472
  198DOPC  H12S24558   8.520   7.964  14.514
  198DOPC  C21324559   8.327   8.114  14.447
  198DOPC  H13R24560   8.254   8.015  14.407
  198DOPC  H13S24561   8.306   8.220  14.380
  198DOPC  C21424562   8.264   8.156  14.589
  198DOPC  H14R24563   8.267   8.046  14.651
  198DOPC  H14S24564   8.137   8.195  14.579
  198DOPC  C21524565   8.354   8.290  14.663
  198DOPC  H15R24566   8.372   8.390  14.593
  198DOPC  H15S24567   8.476   8.245  14.693
  198DOPC  C21624568   8.266   8.354  14.787
  198DOPC  H16R24569   8.309   8.293  14.878
  198DOPC  H16S24570   8.135   8.328  14.776
  198DOPC  C21724571   8.284   8.536  14.807
  198DOPC  H17R24572   8.413   8.566  14.813
  198DOPC  H17S24573   8.228   8.567  14.906
  198DOPC  C21824574   8.202   8.633  14.697
  198DOPC  H18R24575   8.182   8.758  14.731
  198DOPC  H18S24576   8.083   8.579  14.672
  198DOPC  H18T24577   8.276   8.635  14.606
  198DOPC   C3324578   8.113   8.287  13.621
  198DOPC   H3X24579   8.195   8.381  13.582
  198DOPC   H3Y24580   8.152   8.168  13.581
  198DOPC   C3424581   8.130   8.284  13.774
  198DOPC   H4X24582   8.251   8.243  13.804
  198DOPC   H4Y24583   8.048   8.197  13.821
  198DOPC   C3524584   8.094   8.444  13.836
  198DOPC   H5X24585   7.966   8.476  13.819
  198DOPC   H5Y24586   8.168   8.538  13.787
  198DOPC   C3624587   8.125   8.438  13.985
  198DOPC   H6X24588   8.195   8.329  14.014
  198DOPC   H6Y24589   8.197   8.544  14.014
  198DOPC   C3724590   7.973   8.452  14.067
  198DOPC   H7X24591   8.012   8.512  14.161
  198DOPC   H7Y24592   7.882   8.527  14.017
  198DOPC   C3824593   7.907   8.288  14.103
  198DOPC   H8X24594   8.010   8.208  14.126
  198DOPC   H8Y24595   7.841   8.232  14.018
  198DOPC   C3924596   7.805   8.324  14.222
  198DOPC   H9X24597   7.718   8.424  14.212
  198DOPC  C31024598   7.808   8.237  14.333
  198DOPC  H10X24599   7.732   8.269  14.419
  198DOPC  C31124600   7.913   8.094  14.349
  198DOPC  H11X24601   8.029   8.135  14.388
  198DOPC  H11Y24602   7.934   8.028  14.254
  198DOPC  C31224603   7.831   7.976  14.444
  198DOPC  H12X24604   7.736   7.909  14.391
  198DOPC  H12Y24605   7.775   8.041  14.529
  198DOPC  C31324606   7.952   7.859  14.502
  198DOPC  H13X24607   8.016   7.796  14.419
  198DOPC  H13Y24608   8.047   7.926  14.556
  198DOPC  C31424609   7.867   7.739  14.594
  198DOPC  H14X24610   7.775   7.675  14.534
  198DOPC  H14Y24611   7.955   7.649  14.630
  198DOPC  C31524612   7.786   7.811  14.718
  198DOPC  H15X24613   7.765   7.712  14.791
  198DOPC  H15Y24614   7.667   7.860  14.690
  198DOPC  C31624615   7.878   7.944  14.788
  198DOPC  H16X24616   7.890   8.052  14.724
  198DOPC  H16Y24617   7.808   7.981  14.878
  198DOPC  C31724618   8.041   7.886  14.831
  198DOPC  H17X24619   8.032   7.765  14.879
  198DOPC  H17Y24620   8.124   7.873  14.745
  198DOPC  C31824621   8.112   8.000  14.931
  198DOPC  H18X24622   8.041   8.002  15.024
  198DOPC  H18Y24623   8.236   7.961  14.951
  198DOPC  H18Z24624   8.116   8.124  14.890
  199DOPC     N24625   7.706   0.331  12.949
  199DOPC   C1224626   7.670   0.510  12.946
  199DOPC  H12A24627   7.672   0.550  12.843
  199DOPC  H12B24628   7.765   0.575  12.999
  199DOPC   C1324629   7.736   0.281  13.090
  199DOPC  H13A24630   7.837   0.348  13.132
  199DOPC  H13B24631   7.634   0.319  13.151
  199DOPC  H13C24632   7.756   0.154  13.099
  199DOPC   C1424633   7.847   0.288  12.863
  199DOPC  H14A24634   7.856   0.158  12.856
  199DOPC  H14B24635   7.832   0.336  12.763
  199DOPC  H14C24636   7.957   0.334  12.906
  199DOPC   C1524637   7.562   0.247  12.893
  199DOPC  H15A24638   7.547   0.280  12.788
  199DOPC  H15B24639   7.456   0.290  12.945
  199DOPC  H15C24640   7.570   0.119  12.900
  199DOPC   C1124641   7.510   0.565  13.010
  199DOPC  H11A24642   7.493   0.697  12.994
  199DOPC  H11B24643   7.408   0.509  12.956
  199DOPC     P24644   7.600   0.636  13.244
  199DOPC   O1324645   7.502   0.780  13.269
  199DOPC   O1424646   7.766   0.654  13.193
  199DOPC   O1224647   7.501   0.522  13.149
  199DOPC   O1124648   7.603   0.535  13.377
  199DOPC    C124649   7.648   0.611  13.499
  199DOPC    HA24650   7.559   0.577  13.577
  199DOPC    HB24651   7.650   0.745  13.494
  199DOPC    C224652   7.816   0.554  13.541
  199DOPC    HS24653   7.904   0.600  13.466
  199DOPC   O2124654   7.813   0.384  13.551
  199DOPC   C2124655   7.902   0.301  13.469
  199DOPC   O2224656   7.988   0.350  13.380
  199DOPC   C2224657   7.891   0.130  13.516
  199DOPC   H2R24658   7.931   0.050  13.433
  199DOPC   H2S24659   7.765   0.101  13.542
  199DOPC    C324660   7.859   0.622  13.680
  199DOPC    HX24661   7.868   0.754  13.673
  199DOPC    HY24662   7.980   0.570  13.704
  199DOPC   O3124663   7.736   0.577  13.775
  199DOPC   C3124664   7.790   0.552  13.897
  199DOPC   O3224665   7.928   0.560  13.933
  199DOPC   C3224666   7.649   0.524  13.990
  199DOPC   H2X24667   7.544   0.478  13.934
  199DOPC   H2Y24668   7.687   0.439  14.069
  199DOPC   C2324669   8.002   0.110  13.638
  199DOPC   H3R24670   8.123   0.160  13.618
  199DOPC   H3S24671   8.010  -0.019  13.656
  199DOPC   C2424672   7.939   0.172  13.772
  199DOPC   H4R24673   7.916   0.302  13.769
  199DOPC   H4S24674   8.034   0.150  13.849
  199DOPC   C2524675   7.788   0.079  13.814
  199DOPC   H5R24676   7.805  -0.052  13.796
  199DOPC   H5S24677   7.685   0.119  13.752
  199DOPC   C2624678   7.753   0.106  13.961
  199DOPC   H6R24679   7.745   0.235  13.976
  199DOPC   H6S24680   7.854   0.062  14.025
  199DOPC   C2724681   7.596   0.030  14.008
  199DOPC   H7R24682   7.620  -0.097  14.036
  199DOPC   H7S24683   7.507   0.028  13.925
  199DOPC   C2824684   7.534   0.127  14.128
  199DOPC   H8R24685   7.638   0.185  14.179
  199DOPC   H8S24686   7.483   0.046  14.201
  199DOPC   C2924687   7.408   0.248  14.092
  199DOPC   H9R24688   7.397   0.276  13.984
  199DOPC  C21024689   7.307   0.317  14.180
  199DOPC  H10R24690   7.219   0.407  14.144
  199DOPC  C21124691   7.303   0.283  14.328
  199DOPC  H11R24692   7.367   0.169  14.353
  199DOPC  H11S24693   7.176   0.262  14.356
  199DOPC  C21224694   7.369   0.413  14.423
  199DOPC  H12R24695   7.310   0.396  14.522
  199DOPC  H12S24696   7.334   0.533  14.386
  199DOPC  C21324697   7.552   0.412  14.451
  199DOPC  H13R24698   7.580   0.526  14.504
  199DOPC  H13S24699   7.625   0.407  14.359
  199DOPC  C21424700   7.602   0.272  14.540
  199DOPC  H14R24701   7.591   0.161  14.483
  199DOPC  H14S24702   7.520   0.265  14.627
  199DOPC  C21524703   7.772   0.283  14.590
  199DOPC  H15R24704   7.855   0.292  14.502
  199DOPC  H15S24705   7.805   0.172  14.644
  199DOPC  C21624706   7.795   0.427  14.681
  199DOPC  H16R24707   7.799   0.539  14.621
  199DOPC  H16S24708   7.915   0.404  14.723
  199DOPC  C21724709   7.686   0.450  14.802
  199DOPC  H17R24710   7.558   0.426  14.782
  199DOPC  H17S24711   7.696   0.580  14.830
  199DOPC  C21824712   7.747   0.359  14.925
  199DOPC  H18R24713   7.700   0.416  15.017
  199DOPC  H18S24714   7.879   0.364  14.930
  199DOPC  H18T24715   7.709   0.232  14.921
  199DOPC   C3324716   7.609   0.682  14.060
  199DOPC   H3X24717   7.556   0.768  13.988
  199DOPC   H3Y24718   7.724   0.726  14.103
  199DOPC   C3424719   7.492   0.671  14.175
  199DOPC   H4X24720   7.529   0.566  14.235
  199DOPC   H4Y24721   7.370   0.647  14.135
  199DOPC   C3524722   7.490   0.821  14.265
  199DOPC   H5X24723   7.388   0.806  14.335
  199DOPC   H5Y24724   7.465   0.929  14.204
  199DOPC   C3624725   7.645   0.850  14.345
  199DOPC   H6X24726   7.681   0.736  14.394
  199DOPC   H6Y24727   7.738   0.884  14.271
  199DOPC   C3724728   7.633   0.985  14.450
  199DOPC   H7X24729   7.573   1.091  14.406
  199DOPC   H7Y24730   7.552   0.938  14.529
  199DOPC   C3824731   7.789   1.040  14.527
  199DOPC   H8X24732   7.826   0.934  14.585
  199DOPC   H8Y24733   7.742   1.132  14.598
  199DOPC   C3924734   7.943   1.112  14.474
  199DOPC   H9X24735   7.973   1.235  14.508
  199DOPC  C31024736   8.047   1.033  14.397
  199DOPC  H10X24737   8.156   1.094  14.362
  199DOPC  C31124738   8.024   0.862  14.353
  199DOPC  H11X24739   8.004   0.858  14.243
  199DOPC  H11Y24740   7.919   0.810  14.404
  199DOPC  C31224741   8.146   0.731  14.385
  199DOPC  H12X24742   8.262   0.752  14.337
  199DOPC  H12Y24743   8.092   0.617  14.350
  199DOPC  C31324744   8.172   0.710  14.533
  199DOPC  H13X24745   8.294   0.752  14.555
  199DOPC  H13Y24746   8.084   0.793  14.580
  199DOPC  C31424747   8.158   0.536  14.582
  199DOPC  H14X24748   8.047   0.481  14.543
  199DOPC  H14Y24749   8.261   0.463  14.550
  199DOPC  C31524750   8.180   0.521  14.731
  199DOPC  H15X24751   8.311   0.534  14.750
  199DOPC  H15Y24752   8.150   0.398  14.766
  199DOPC  C31624753   8.088   0.649  14.808
  199DOPC  H16X24754   8.088   0.772  14.766
  199DOPC  H16Y24755   7.960   0.618  14.818
  199DOPC  C31724756   8.168   0.670  14.941
  199DOPC  H17X24757   8.243   0.563  14.961
  199DOPC  H17Y24758   8.248   0.778  14.934
  199DOPC  C31824759   8.044   0.689  15.048
  199DOPC  H18X24760   8.101   0.672  15.146
  199DOPC  H18Y24761   7.986   0.809  15.042
  199DOPC  H18Z24762   7.948   0.596  15.038
  200DOPC     N24763   1.435   0.224  12.918
  200DOPC   C1224764   1.438   0.404  12.949
  200DOPC  H12A24765   1.379   0.463  12.864
  200DOPC  H12B24766   1.560   0.446  12.956
  200DOPC   C1324767   1.496   0.128  13.034
  200DOPC  H13A24768   1.424   0.156  13.122
  200DOPC  H13B24769   1.486   0.001  13.018
  200DOPC  H13C24770   1.620   0.155  13.057
  200DOPC   C1424771   1.528   0.197  12.793
  200DOPC  H14A24772   1.655   0.214  12.810
  200DOPC  H14B24773   1.508   0.076  12.755
  200DOPC  H14C24774   1.492   0.278  12.714
  200DOPC   C1524775   1.270   0.158  12.890
  200DOPC  H15A24776   1.213   0.210  12.802
  200DOPC  H15B24777   1.189   0.186  12.974
  200DOPC  H15C24778   1.267   0.030  12.881
  200DOPC   C1124779   1.346   0.466  13.072
  200DOPC  H11A24780   1.408   0.436  13.168
  200DOPC  H11B24781   1.327   0.598  13.069
  200DOPC     P24782   1.049   0.388  13.146
  200DOPC   O1324783   0.985   0.222  13.148
  200DOPC   O1424784   0.944   0.520  13.100
  200DOPC   O1224785   1.200   0.390  13.058
  200DOPC   O1124786   1.127   0.421  13.288
  200DOPC    C124787   1.199   0.286  13.354
  200DOPC    HA24788   1.301   0.329  13.415
  200DOPC    HB24789   1.253   0.197  13.284
  200DOPC    C224790   1.075   0.198  13.444
  200DOPC    HS24791   0.954   0.205  13.396
  200DOPC   O2124792   1.075   0.281  13.571
  200DOPC   C2124793   1.004   0.227  13.681
  200DOPC   O2224794   0.941   0.098  13.696
  200DOPC   C2224795   1.022   0.355  13.790
  200DOPC   H2R24796   0.917   0.434  13.784
  200DOPC   H2S24797   1.128   0.427  13.762
  200DOPC    C324798   1.122   0.018  13.451
  200DOPC    HX24799   1.127  -0.026  13.345
  200DOPC    HY24800   1.027  -0.052  13.503
  200DOPC   O3124801   1.279   0.001  13.508
  200DOPC   C3124802   1.272  -0.049  13.634
  200DOPC   O3224803   1.175  -0.142  13.681
  200DOPC   C3224804   1.400   0.035  13.714
  200DOPC   H2X24805   1.386   0.002  13.821
  200DOPC   H2Y24806   1.511  -0.020  13.680
  200DOPC   C2324807   1.040   0.304  13.939
  200DOPC   H3R24808   0.920   0.283  13.983
  200DOPC   H3S24809   1.096   0.406  13.995
  200DOPC   C2424810   1.142   0.155  13.966
  200DOPC   H4R24811   1.255   0.190  14.018
  200DOPC   H4S24812   1.174   0.096  13.871
  200DOPC   C2524813   1.057   0.028  14.049
  200DOPC   H5R24814   0.994  -0.050  13.976
  200DOPC   H5S24815   0.971   0.086  14.117
  200DOPC   C2624816   1.171  -0.070  14.137
  200DOPC   H6R24817   1.278  -0.106  14.078
  200DOPC   H6S24818   1.110  -0.180  14.171
  200DOPC   C2724819   1.218   0.032  14.259
  200DOPC   H7R24820   1.115   0.040  14.330
  200DOPC   H7S24821   1.238   0.155  14.222
  200DOPC   C2824822   1.367  -0.020  14.335
  200DOPC   H8R24823   1.376   0.048  14.430
  200DOPC   H8S24824   1.477   0.011  14.277
  200DOPC   C2924825   1.356  -0.198  14.356
  200DOPC   H9R24826   1.385  -0.266  14.265
  200DOPC  C21024827   1.309  -0.280  14.464
  200DOPC  H10R24828   1.307  -0.412  14.458
  200DOPC  C21124829   1.252  -0.210  14.593
  200DOPC  H11R24830   1.142  -0.274  14.625
  200DOPC  H11S24831   1.208  -0.088  14.572
  200DOPC  C21224832   1.350  -0.217  14.723
  200DOPC  H12R24833   1.481  -0.232  14.712
  200DOPC  H12S24834   1.309  -0.320  14.786
  200DOPC  C21324835   1.330  -0.060  14.797
  200DOPC  H13R24836   1.412  -0.066  14.882
  200DOPC  H13S24837   1.211  -0.058  14.845
  200DOPC  C21424838   1.375   0.085  14.708
  200DOPC  H14R24839   1.280   0.131  14.645
  200DOPC  H14S24840   1.466   0.043  14.637
  200DOPC  C21524841   1.456   0.220  14.784
  200DOPC  H15R24842   1.528   0.144  14.845
  200DOPC  H15S24843   1.369   0.286  14.848
  200DOPC  C21624844   1.577   0.322  14.708
  200DOPC  H16R24845   1.614   0.431  14.758
  200DOPC  H16S24846   1.513   0.366  14.617
  200DOPC  C21724847   1.744   0.250  14.672
  200DOPC  H17R24848   1.752   0.344  14.599
  200DOPC  H17S24849   1.739   0.139  14.611
  200DOPC  C21824850   1.908   0.277  14.745
  200DOPC  H18R24851   1.996   0.341  14.681
  200DOPC  H18S24852   1.974   0.163  14.760
  200DOPC  H18T24853   1.904   0.348  14.838
  200DOPC   C3324854   1.398   0.217  13.693
  200DOPC   H3X24855   1.300   0.269  13.752
  200DOPC   H3Y24856   1.380   0.251  13.587
  200DOPC   C3424857   1.544   0.305  13.741
  200DOPC   H4X24858   1.531   0.436  13.720
  200DOPC   H4Y24859   1.651   0.262  13.687
  200DOPC   C3524860   1.572   0.272  13.888
  200DOPC   H5X24861   1.663   0.176  13.900
  200DOPC   H5Y24862   1.458   0.227  13.930
  200DOPC   C3624863   1.618   0.418  13.971
  200DOPC   H6X24864   1.740   0.458  13.945
  200DOPC   H6Y24865   1.532   0.518  13.957
  200DOPC   C3724866   1.616   0.360  14.115
  200DOPC   H7X24867   1.651   0.230  14.118
  200DOPC   H7Y24868   1.710   0.426  14.168
  200DOPC   C3824869   1.458   0.386  14.189
  200DOPC   H8X24870   1.447   0.287  14.262
  200DOPC   H8Y24871   1.356   0.379  14.118
  200DOPC   C3924872   1.460   0.542  14.263
  200DOPC   H9X24873   1.580   0.594  14.279
  200DOPC  C31024874   1.332   0.622  14.311
  200DOPC  H10X24875   1.350   0.740  14.355
  200DOPC  C31124876   1.162   0.569  14.302
  200DOPC  H11X24877   1.128   0.548  14.196
  200DOPC  H11Y24878   1.081   0.665  14.340
  200DOPC  C31224879   1.133   0.414  14.382
  200DOPC  H12X24880   1.225   0.324  14.358
  200DOPC  H12Y24881   1.015   0.362  14.351
  200DOPC  C31324882   1.136   0.433  14.534
  200DOPC  H13X24883   1.264   0.430  14.568
  200DOPC  H13Y24884   1.087   0.552  14.561
  200DOPC  C31424885   1.042   0.300  14.602
  200DOPC  H14X24886   0.922   0.296  14.562
  200DOPC  H14Y24887   1.084   0.180  14.575
  200DOPC  C31524888   1.024   0.324  14.752
  200DOPC  H15X24889   0.936   0.422  14.764
  200DOPC  H15Y24890   1.144   0.361  14.787
  200DOPC  C31624891   0.959   0.176  14.826
  200DOPC  H16X24892   0.847   0.148  14.774
  200DOPC  H16Y24893   1.040   0.078  14.808
  200DOPC  C31724894   0.907   0.190  14.973
  200DOPC  H17X24895   0.844   0.078  15.004
  200DOPC  H17Y24896   1.013   0.194  15.040
  200DOPC  C31824897   0.798   0.335  14.996
  200DOPC  H18X24898   0.791   0.367  15.103
  200DOPC  H18Y24899   0.846   0.440  14.944
  200DOPC  H18Z24900   0.676   0.311  14.954
  201SOD    SOD24901   8.671   2.262  17.510
  202SOD    SOD24902   7.889   7.663  12.450
  203SOD    SOD24903   8.455   2.198  19.942
  204SOD    SOD24904   8.840   8.335   9.963
  205SOD    SOD24905   7.415   3.758  19.695
  206SOD    SOD24906   3.250   3.061  11.429
  207SOD    SOD24907   1.946   1.410  12.003
  208SOD    SOD24908   4.470   3.809  18.773
  209SOD    SOD24909   1.276   3.228  12.643
  210SOD    SOD24910   5.640   0.841  17.228
  211SOD    SOD24911   2.824   3.038  19.272
  212SOD    SOD24912   0.650   6.014  19.175
  213SOD    SOD24913   2.956   6.672  10.012
  214SOD    SOD24914   2.767   3.854  18.798
  215SOD    SOD24915   7.981   6.095  19.351
  216SOD    SOD24916   2.278   6.817  18.546
  217SOD    SOD24917   1.129   3.184  11.471
  218SOD    SOD24918   7.098   4.926  19.371
  219SOD    SOD24919   8.504   3.389  19.630
  220SOD    SOD24920   4.823   2.569  10.576
  221SOD    SOD24921   0.398   8.418  11.273
  222SOD    SOD24922   5.910   6.470  18.070
  223SOD    SOD24923   3.355   7.295  11.512
  224SOD    SOD24924   0.454   5.620  10.722
  225SOD    SOD24925   3.714   2.531  11.531
  226SOD    SOD24926   1.050   8.731  19.362
  227CLA    CLA24927   7.213   4.328  11.521
  228CLA    CLA24928   5.957   5.851  10.101
  229CLA    CLA24929   0.539   5.582  11.895
  230CLA    CLA24930   6.984   3.695  18.108
  231CLA    CLA24931   5.498   7.957  19.880
  232CLA    CLA24932   5.636   3.344  19.713
  233CLA    CLA24933   5.503   1.488  18.181
  234CLA    CLA24934   7.471   6.835  19.003
  235CLA    CLA24935   1.757   0.797  10.072
  236CLA    CLA24936   3.222   0.700  18.490
  237CLA    CLA24937   3.019   2.531  17.705
  238CLA    CLA24938   6.336   1.712  11.714
  239CLA    CLA24939   8.755   0.834  12.185
  240CLA    CLA24940   7.712   4.826  17.140
  241CLA    CLA24941   5.824   8.712  12.373
  242CLA    CLA24942   6.264   3.800  18.197
  243CLA    CLA24943   0.960   0.774  11.548
  244CLA    CLA24944   4.109   2.982  12.064
  245CLA    CLA24945   8.594   7.628  11.995
  246CLA    CLA24946   1.312   0.900  19.715
  247CLA    CLA24947   4.914   0.892  11.557
  248CLA    CLA24948   5.440   5.322  11.844
  249CLA    CLA24949   2.274   7.412  11.890
  250CLA    CLA24950   5.528   3.358  18.765
  251CLA    CLA24951   1.519   3.924  17.954
  252CLA    CLA24952   0.781   2.738  12.359
  253TIP3   OH224953   4.913   5.845  16.946
  253TIP3    H124954   4.909   5.740  16.904
  253TIP3    H224955   4.985   5.828  17.020
  254TIP3   OH224956   4.913   5.345  17.130
  254TIP3    H124957   4.825   5.396  17.177
  254TIP3    H224958   4.902   5.388  17.041
  255TIP3   OH224959   3.406   5.290  16.958
  255TIP3    H124960   3.437   5.374  17.019
  255TIP3    H224961   3.326   5.344  16.902
  256TIP3   OH224962   3.020   5.680  17.032
  256TIP3    H124963   2.923   5.690  16.981
  256TIP3    H224964   2.977   5.648  17.119
  257TIP3   OH224965   2.768   3.404  16.975
  257TIP3    H124966   2.791   3.463  17.056
  257TIP3    H224967   2.869   3.414  16.927
  258TIP3   OH224968   7.248   4.842  17.183
  258TIP3    H124969   7.285   4.950  17.164
  258TIP3    H224970   7.298   4.781  17.111
  259TIP3   OH224971   6.973   4.828  16.872
  259TIP3    H124972   7.058   4.902  16.849
  259TIP3    H224973   6.908   4.820  16.793
  260TIP3   OH224974   7.421   4.684  16.998
  260TIP3    H124975   7.518   4.706  17.050
  260TIP3    H224976   7.445   4.582  16.955
  261TIP3   OH224977   1.980   2.951  17.005
  261TIP3    H124978   2.060   2.935  16.937
  261TIP3    H224979   1.888   2.978  16.953
  262TIP3   OH224980   7.488   2.834  17.040
  262TIP3    H124981   7.402   2.857  16.976
  262TIP3    H224982   7.494   2.719  17.044
  263TIP3   OH224983   6.974   3.035  16.968
  263TIP3    H124984   6.990   3.142  17.004
  263TIP3    H224985   6.902   3.053  16.894
  264TIP3   OH224986   3.485   7.554  17.041
  264TIP3    H124987   3.486   7.508  17.130
  264TIP3    H224988   3.378   7.604  17.040
  265TIP3   OH224989   3.302   7.247  16.956
  265TIP3    H124990   3.247   7.187  17.026
  265TIP3    H224991   3.391   7.291  17.004
  266TIP3   OH224992   3.186   7.787  17.026
  266TIP3    H124993   3.149   7.896  17.007
  266TIP3    H224994   3.164   7.732  16.941
  267TIP3   OH224995   1.622   6.904  17.111
  267TIP3    H124996   1.670   6.799  17.100
  267TIP3    H224997   1.636   6.958  17.025
  268TIP3   OH224998   1.261   6.707  17.015
  268TIP3    H124999   1.342   6.666  17.076
  268TIP3    H225000   1.307   6.808  16.988
  269TIP3   OH225001   1.477   6.529  17.153
  269TIP3    H125002   1.483   6.516  17.056
  269TIP3    H225003   1.531   6.434  17.187
  270TIP3   OH225004   1.452   6.228  16.942
  270TIP3    H125005   1.404   6.245  17.029
  270TIP3    H225006   1.448   6.112  16.933
  271TIP3   OH225007   4.103   0.762  17.087
  271TIP3    H125008   4.082   0.870  17.120
  271TIP3    H225009   4.010   0.700  17.117
  272TIP3   OH225010   0.757   6.394  17.035
  272TIP3    H125011   0.794   6.284  17.031
  272TIP3    H225012   0.744   6.424  16.942
  273TIP3   OH225013   6.682   8.458  16.991
  273TIP3    H125014   6.578   8.508  16.971
  273TIP3    H225015   6.758   8.539  16.973
  274TIP3   OH225016   2.272   0.542  16.984
  274TIP3    H125017   2.290   0.524  17.079
  274TIP3    H225018   2.376   0.516  16.949
  275TIP3   OH225019   3.166   0.078  17.053
  275TIP3    H125020   3.265   0.112  17.092
  275TIP3    H225021   3.089   0.127  17.114
  276TIP3   OH225022   2.869   0.418  17.100
  276TIP3    H125023   2.912   0.510  17.145
  276TIP3    H225024   2.945   0.404  17.027
  277TIP3   OH225025   6.347   0.182  17.102
  277TIP3    H125026   6.298   0.156  17.017
  277TIP3    H225027   6.368   0.295  17.091
  278TIP3   OH225028   6.514   0.670  16.948
  278TIP3    H125029   6.554   0.707  16.864
  278TIP3    H225030   6.442   0.755  16.973
  279TIP3   OH225031   8.635   2.183  16.964
  279TIP3    H125032   8.536   2.182  16.915
  279TIP3    H225033   8.680   2.287  16.941
  280TIP3   OH225034   8.982   2.011  17.164
  280TIP3    H125035   9.022   2.093  17.103
  280TIP3    H225036   8.989   1.918  17.106
  281TIP3   OH225037   8.878   1.274  16.684
  281TIP3    H125038   8.898   1.361  16.746
  281TIP3    H225039   8.966   1.206  16.714
  282TIP3   OH225040   1.206   0.277  17.004
  282TIP3    H125041   1.115   0.206  16.995
  282TIP3    H225042   1.222   0.281  17.100
  283TIP3   OH225043   1.765   0.564  16.874
  283TIP3    H125044   1.724   0.487  16.939
  283TIP3    H225045   1.697   0.538  16.799
  284TIP3   OH225046   4.969   4.372  12.894
  284TIP3    H125047   5.053   4.307  12.933
  284TIP3    H225048   4.994   4.475  12.933
  285TIP3   OH225049   5.354   4.742  12.910
  285TIP3    H125050   5.302   4.802  12.840
  285TIP3    H225051   5.466   4.750  12.882
  286TIP3   OH225052   5.995   4.430  13.008
  286TIP3    H125053   6.058   4.519  13.045
  286TIP3    H225054   6.067   4.340  13.017
  287TIP3   OH225055   5.797   4.860  12.991
  287TIP3    H125056   5.892   4.918  12.965
  287TIP3    H225057   5.730   4.942  13.030
  288TIP3   OH225058   3.870   6.252  13.034
  288TIP3    H125059   3.863   6.137  13.034
  288TIP3    H225060   3.768   6.281  12.991
  289TIP3   OH225061   4.541   6.318  12.957
  289TIP3    H125062   4.501   6.422  12.933
  289TIP3    H225063   4.458   6.283  13.020
  290TIP3   OH225064   5.455   6.481  12.971
  290TIP3    H125065   5.406   6.385  13.007
  290TIP3    H225066   5.486   6.535  13.053
  291TIP3   OH225067   5.186   6.001  12.930
  291TIP3    H125068   5.102   5.923  12.911
  291TIP3    H225069   5.281   5.934  12.922
  292TIP3   OH225070   3.527   6.253  12.931
  292TIP3    H125071   3.438   6.326  12.949
  292TIP3    H225072   3.475   6.149  12.934
  293TIP3   OH225073   2.852   6.326  12.856
  293TIP3    H125074   2.872   6.214  12.837
  293TIP3    H225075   2.894   6.334  12.946
  294TIP3   OH225076   3.092   6.574  13.058
  294TIP3    H125077   3.103   6.529  12.969
  294TIP3    H225078   3.108   6.478  13.114
  295TIP3   OH225079   3.025   6.058  12.898
  295TIP3    H125080   2.993   5.950  12.922
  295TIP3    H225081   3.110   6.037  12.835
  296TIP3   OH225082   3.197   6.384  12.801
  296TIP3    H125083   3.230   6.348  12.713
  296TIP3    H225084   3.086   6.347  12.807
  297TIP3   OH225085   2.928   1.928  13.130
  297TIP3    H125086   2.996   1.858  13.078
  297TIP3    H225087   3.011   1.968  13.192
  298TIP3   OH225088   3.024   2.272  13.141
  298TIP3    H125089   3.018   2.190  13.074
  298TIP3    H225090   3.011   2.212  13.223
  299TIP3   OH225091   2.305   1.800  12.989
  299TIP3    H125092   2.208   1.757  12.950
  299TIP3    H225093   2.392   1.763  12.929
  300TIP3   OH225094   2.585   1.747  12.858
  300TIP3    H125095   2.658   1.837  12.873
  300TIP3    H225096   2.633   1.656  12.903
  301TIP3   OH225097   2.382   2.357  12.927
  301TIP3    H125098   2.418   2.281  12.994
  301TIP3    H225099   2.359   2.453  12.976
  302TIP3   OH225100   2.764   2.041  12.914
  302TIP3    H125101   2.680   2.082  12.972
  302TIP3    H225102   2.843   2.010  12.981
  303TIP3   OH225103   6.979   7.236  12.918
  303TIP3    H125104   6.906   7.288  12.856
  303TIP3    H225105   7.069   7.308  12.915
  304TIP3   OH225106   3.395   7.884  12.924
  304TIP3    H125107   3.460   7.932  12.854
  304TIP3    H225108   3.439   7.778  12.934
  305TIP3   OH225109   2.838   8.052  13.074
  305TIP3    H125110   2.900   7.954  13.083
  305TIP3    H225111   2.761   8.026  13.007
  306TIP3   OH225112   0.953   6.557  12.990
  306TIP3    H125113   0.949   6.662  13.033
  306TIP3    H225114   1.043   6.504  13.029
  307TIP3   OH225115   0.698   6.138  12.895
  307TIP3    H125116   0.811   6.124  12.914
  307TIP3    H225117   0.662   6.029  12.900
  308TIP3   OH225118   0.965   5.900  12.885
  308TIP3    H125119   1.079   5.897  12.895
  308TIP3    H225120   0.930   5.792  12.909
  309TIP3   OH225121   4.778   8.682  12.978
  309TIP3    H125122   4.716   8.600  13.024
  309TIP3    H225123   4.866   8.620  12.942
  310TIP3   OH225124   4.346   8.644  12.899
  310TIP3    H125125   4.336   8.694  12.812
  310TIP3    H225126   4.254   8.687  12.944
  311TIP3   OH225127   1.232   2.857  12.881
  311TIP3    H125128   1.259   2.759  12.831
  311TIP3    H225129   1.330   2.920  12.879
  312TIP3   OH225130   0.822   2.972  12.850
  312TIP3    H125131   0.811   2.870  12.805
  312TIP3    H225132   0.809   2.942  12.943
  313TIP3   OH225133   8.461   3.052  12.786
  313TIP3    H125134   8.561   2.999  12.805
  313TIP3    H225135   8.392   2.999  12.850
  314TIP3   OH225136   8.060   2.734  13.023
  314TIP3    H125137   8.012   2.640  13.062
  314TIP3    H225138   8.083   2.696  12.933
  315TIP3   OH225139   8.140   3.370  13.057
  315TIP3    H125140   8.178   3.264  13.082
  315TIP3    H225141   8.048   3.386  13.115
  316TIP3   OH225142   6.583   0.260  12.929
  316TIP3    H125143   6.496   0.192  12.903
  316TIP3    H225144   6.535   0.334  12.994
  317TIP3   OH225145   6.890   0.264  13.021
  317TIP3    H125146   6.875   0.151  13.007
  317TIP3    H225147   6.790   0.307  12.986
  318TIP3   OH225148   7.110   0.509  12.976
  318TIP3    H125149   7.004   0.474  13.003
  318TIP3    H225150   7.153   0.560  13.056
  319TIP3   OH225151   8.358   1.410  12.888
  319TIP3    H125152   8.286   1.403  12.965
  319TIP3    H225153   8.323   1.322  12.834
  320TIP3   OH225154   0.287   8.044  12.873
  320TIP3    H125155   0.313   8.156  12.882
  320TIP3    H225156   0.286   8.009  12.965
  321TIP3   OH225157   8.767   0.317  12.956
  321TIP3    H125158   8.695   0.257  12.894
  321TIP3    H225159   8.852   0.338  12.894
  322TIP3   OH225160   8.392   0.448  12.887
  322TIP3    H125161   8.416   0.340  12.857
  322TIP3    H225162   8.450   0.460  12.970
  323TIP3   OH225163   1.450   1.192  17.662
  323TIP3    H125164   1.452   1.301  17.698
  323TIP3    H225165   1.369   1.201  17.592
  324TIP3   OH225166   1.320   1.044  18.010
  324TIP3    H125167   1.321   1.002  18.103
  324TIP3    H225168   1.267   0.955  17.962
  325TIP3   OH225169   0.402   1.081  18.186
  325TIP3    H125170   0.352   0.990  18.231
  325TIP3    H225171   0.488   1.105  18.248
  326TIP3   OH225172   1.696   1.422  17.859
  326TIP3    H125173   1.680   1.337  17.924
  326TIP3    H225174   1.712   1.512  17.918
  327TIP3   OH225175   0.438   1.602  18.000
  327TIP3    H125176   0.413   1.492  17.970
  327TIP3    H225177   0.553   1.595  17.997
  328TIP3   OH225178   0.164   0.888  17.514
  328TIP3    H125179   0.053   0.850  17.513
  328TIP3    H225180   0.224   0.791  17.492
  329TIP3   OH225181   0.198   1.103  17.804
  329TIP3    H125182   0.192   0.991  17.831
  329TIP3    H225183   0.204   1.094  17.707
  330TIP3   OH225184   1.418   2.087  17.843
  330TIP3    H125185   1.501   2.018  17.801
  330TIP3    H225186   1.369   2.006  17.900
  331TIP3   OH225187   1.100   1.428  18.075
  331TIP3    H125188   1.142   1.342  18.021
  331TIP3    H225189   1.196   1.450  18.131
  332TIP3   OH225190   2.137   0.340  18.088
  332TIP3    H125191   2.153   0.436  18.143
  332TIP3    H225192   2.214   0.361  18.017
  333TIP3   OH225193   1.537   0.737  18.111
  333TIP3    H125194   1.560   0.625  18.133
  333TIP3    H225195   1.510   0.726  18.017
  334TIP3   OH225196   1.586   0.480  17.635
  334TIP3    H125197   1.648   0.451  17.715
  334TIP3    H225198   1.658   0.560  17.600
  335TIP3   OH225199   0.232   0.766  17.876
  335TIP3    H125200   0.338   0.732  17.899
  335TIP3    H225201   0.215   0.718  17.789
  336TIP3   OH225202   2.160   0.550  18.314
  336TIP3    H125203   2.106   0.654  18.303
  336TIP3    H225204   2.158   0.534  18.410
  337TIP3   OH225205   0.532   0.377  18.230
  337TIP3    H125206   0.498   0.445  18.158
  337TIP3    H225207   0.444   0.392  18.295
  338TIP3   OH225208   1.373   1.519  17.557
  338TIP3    H125209   1.309   1.513  17.476
  338TIP3    H225210   1.354   1.632  17.580
  339TIP3   OH225211   0.863   1.292  18.220
  339TIP3    H125212   0.794   1.379  18.252
  339TIP3    H225213   0.938   1.352  18.163
  340TIP3   OH225214   1.810   0.481  17.820
  340TIP3    H125215   1.778   0.464  17.912
  340TIP3    H225216   1.922   0.500  17.831
  341TIP3   OH225217   0.671   1.553  18.288
  341TIP3    H125218   0.667   1.637  18.222
  341TIP3    H225219   0.559   1.550  18.318
  342TIP3   OH225220   0.097   1.463  17.450
  342TIP3    H125221   0.142   1.441  17.363
  342TIP3    H225222   0.186   1.512  17.497
  343TIP3   OH225223   1.816   1.666  18.058
  343TIP3    H125224   1.705   1.688  18.086
  343TIP3    H225225   1.840   1.765  18.011
  344TIP3   OH225226   1.873   0.236  18.223
  344TIP3    H125227   1.800   0.270  18.153
  344TIP3    H225228   1.974   0.244  18.172
  345TIP3   OH225229   1.043   0.119  17.932
  345TIP3    H125230   1.015   0.010  17.961
  345TIP3    H225231   0.952   0.180  17.966
  346TIP3   OH225232   1.612   1.879  17.728
  346TIP3    H125233   1.628   1.783  17.673
  346TIP3    H225234   1.715   1.936  17.714
  347TIP3   OH225235   1.747   1.633  17.574
  347TIP3    H125236   1.729   1.558  17.501
  347TIP3    H225237   1.718   1.566  17.650
  348TIP3   OH225238   1.930   1.476  18.445
  348TIP3    H125239   1.954   1.392  18.378
  348TIP3    H225240   1.945   1.571  18.388
  349TIP3   OH225241   1.290   1.111  17.416
  349TIP3    H125242   1.212   1.180  17.370
  349TIP3    H225243   1.379   1.104  17.354
  350TIP3   OH225244   1.313   0.950  17.112
  350TIP3    H125245   1.411   0.954  17.163
  350TIP3    H225246   1.357   0.988  17.026
  351TIP3   OH225247   2.176   1.056  18.242
  351TIP3    H125248   2.094   1.139  18.227
  351TIP3    H225249   2.246   1.080  18.166
  352TIP3   OH225250   1.712   1.108  17.518
  352TIP3    H125251   1.624   1.129  17.580
  352TIP3    H225252   1.793   1.058  17.578
  353TIP3   OH225253   1.675   0.878  18.431
  353TIP3    H125254   1.655   0.990  18.456
  353TIP3    H225255   1.597   0.868  18.358
  354TIP3   OH225256   0.708   1.206  17.693
  354TIP3    H125257   0.648   1.184  17.610
  354TIP3    H225258   0.764   1.108  17.708
  355TIP3   OH225259   0.850   1.580  17.967
  355TIP3    H125260   0.851   1.559  17.872
  355TIP3    H225261   0.947   1.529  18.001
  356TIP3   OH225262   0.751   1.050  18.059
  356TIP3    H125263   0.790   1.108  17.982
  356TIP3    H225264   0.752   1.134  18.128
  357TIP3   OH225265   1.516   1.723  18.138
  357TIP3    H125266   1.500   1.807  18.205
  357TIP3    H225267   1.456   1.634  18.178
  358TIP3   OH225268   0.840   1.580  18.520
  358TIP3    H125269   0.752   1.628  18.574
  358TIP3    H225270   0.786   1.567  18.433
  359TIP3   OH225271   1.574   1.031  17.282
  359TIP3    H125272   1.633   1.069  17.363
  359TIP3    H225273   1.624   1.096  17.212
  360TIP3   OH225274   0.540   1.130  18.434
  360TIP3    H125275   0.518   1.222  18.493
  360TIP3    H225276   0.431   1.092  18.420
  361TIP3   OH225277   1.267   1.882  17.581
  361TIP3    H125278   1.271   1.914  17.673
  361TIP3    H225279   1.230   1.980  17.537
  362TIP3   OH225280   0.625   1.790  18.616
  362TIP3    H125281   0.617   1.819  18.521
  362TIP3    H225282   0.512   1.793  18.642
  363TIP3   OH225283   2.012   0.095  17.272
  363TIP3    H125284   1.942   0.162  17.326
  363TIP3    H225285   1.999   0.146  17.187
  364TIP3   OH225286   0.566   1.074  17.468
  364TIP3    H125287   0.496   1.151  17.426
  364TIP3    H225288   0.522   0.974  17.435
  365TIP3   OH225289   0.194   1.356  18.374
  365TIP3    H125290   0.088   1.369  18.335
  365TIP3    H225291   0.192   1.242  18.398
  366TIP3   OH225292   0.151   1.735  18.026
  366TIP3    H125293   0.241   1.660  18.024
  366TIP3    H225294   0.192   1.805  18.098
  367TIP3   OH225295   2.250   1.768  18.609
  367TIP3    H125296   2.233   1.656  18.586
  367TIP3    H225297   2.142   1.792  18.643
  368TIP3   OH225298   1.141   1.702  18.509
  368TIP3    H125299   1.148   1.794  18.568
  368TIP3    H225300   1.027   1.670  18.512
  369TIP3   OH225301   1.220   2.156  17.449
  369TIP3    H125302   1.172   2.192  17.367
  369TIP3    H225303   1.220   2.255  17.500
  370TIP3   OH225304   1.564   2.066  17.464
  370TIP3    H125305   1.448   2.052  17.456
  370TIP3    H225306   1.594   1.969  17.512
  371TIP3   OH225307   1.873   0.761  18.635
  371TIP3    H125308   1.817   0.809  18.558
  371TIP3    H225309   1.872   0.648  18.609
  372TIP3   OH225310   0.377   1.602  18.413
  372TIP3    H125311   0.392   1.570  18.505
  372TIP3    H225312   0.304   1.514  18.384
  373TIP3   OH225313   0.720   0.265  18.018
  373TIP3    H125314   0.608   0.246  17.992
  373TIP3    H225315   0.703   0.308  18.108
  374TIP3   OH225316   1.195   0.199  18.419
  374TIP3    H125317   1.259   0.102  18.419
  374TIP3    H225318   1.104   0.158  18.367
  375TIP3   OH225319   1.633   0.558  18.449
  375TIP3    H125320   1.561   0.541  18.526
  375TIP3    H225321   1.662   0.671  18.460
  376TIP3   OH225322   0.683   0.740  18.127
  376TIP3    H125323   0.598   0.748  18.193
  376TIP3    H225324   0.703   0.854  18.112
  377TIP3   OH225325   1.342   0.792  17.445
  377TIP3    H125326   1.336   0.910  17.439
  377TIP3    H225327   1.442   0.769  17.398
  378TIP3   OH225328   1.231   0.866  18.650
  378TIP3    H125329   1.178   0.767  18.682
  378TIP3    H225330   1.321   0.868  18.711
  379TIP3   OH225331   1.514   0.734  17.827
  379TIP3    H125332   1.474   0.829  17.782
  379TIP3    H225333   1.498   0.654  17.758
  380TIP3   OH225334   0.407   0.757  18.294
  380TIP3    H125335   0.449   0.804  18.375
  380TIP3    H225336   0.368   0.654  18.325
  381TIP3   OH225337   1.345   0.920  18.261
  381TIP3    H125338   1.414   0.854  18.203
  381TIP3    H225339   1.294   0.836  18.316
  382TIP3   OH225340   1.537   0.374  18.058
  382TIP3    H125341   1.469   0.382  18.138
  382TIP3    H225342   1.464   0.334  17.990
  383TIP3   OH225343   1.897   2.255  18.716
  383TIP3    H125344   1.927   2.306  18.631
  383TIP3    H225345   1.994   2.276  18.766
  384TIP3   OH225346   0.490   1.362  18.622
  384TIP3    H125347   0.569   1.358  18.695
  384TIP3    H225348   0.391   1.343  18.673
  385TIP3   OH225349   1.183   0.775  17.923
  385TIP3    H125350   1.236   0.680  17.889
  385TIP3    H225351   1.123   0.728  17.995
  386TIP3   OH225352   1.019   0.608  18.157
  386TIP3    H125353   0.928   0.677  18.178
  386TIP3    H225354   1.098   0.648  18.221
  387TIP3   OH225355   1.050   1.327  17.349
  387TIP3    H125356   0.959   1.259  17.344
  387TIP3    H225357   1.032   1.376  17.438
  388TIP3   OH225358   1.952   1.298  18.228
  388TIP3    H125359   2.012   1.361  18.159
  388TIP3    H225360   1.847   1.291  18.187
  389TIP3   OH225361   1.468   0.485  17.185
  389TIP3    H125362   1.384   0.544  17.140
  389TIP3    H225363   1.542   0.571  17.208
  390TIP3   OH225364   1.195   1.388  18.469
  390TIP3    H125365   1.169   1.354  18.558
  390TIP3    H225366   1.194   1.505  18.480
  391TIP3   OH225367   1.633   0.704  17.329
  391TIP3    H125368   1.723   0.701  17.390
  391TIP3    H225369   1.642   0.814  17.295
  392TIP3   OH225370   0.508   1.301  17.914
  392TIP3    H125371   0.554   1.279  17.827
  392TIP3    H225372   0.534   1.208  17.968
  393TIP3   OH225373   0.212   1.026  18.434
  393TIP3    H125374   0.209   1.009  18.530
  393TIP3    H225375   0.098   1.021  18.411
  394TIP3   OH225376   0.949   1.037  18.631
  394TIP3    H125377   0.881   0.972  18.574
  394TIP3    H225378   1.052   0.980  18.628
  395TIP3   OH225379   1.546   1.669  18.499
  395TIP3    H125380   1.448   1.680  18.448
  395TIP3    H225381   1.512   1.716  18.585
  396TIP3   OH225382   2.183   0.734  17.324
  396TIP3    H125383   2.106   0.714  17.252
  396TIP3    H225384   2.215   0.842  17.301
  397TIP3   OH225385   2.215   1.417  18.568
  397TIP3    H125386   2.107   1.436  18.532
  397TIP3    H225387   2.280   1.418  18.486
  398TIP3   OH225388   1.979   1.776  17.308
  398TIP3    H125389   1.991   1.700  17.381
  398TIP3    H225390   2.076   1.764  17.256
  399TIP3   OH225391   1.648   1.183  18.035
  399TIP3    H125392   1.542   1.145  18.012
  399TIP3    H225393   1.715   1.102  17.992
  400TIP3   OH225394   0.745   1.642  17.695
  400TIP3    H125395   0.809   1.733  17.661
  400TIP3    H225396   0.641   1.666  17.657
  401TIP3   OH225397   0.246   1.066  17.155
  401TIP3    H125398   0.226   1.094  17.063
  401TIP3    H225399   0.149   1.002  17.167
  402TIP3   OH225400   0.942   1.410  17.602
  402TIP3    H125401   0.878   1.504  17.627
  402TIP3    H225402   0.893   1.330  17.659
  403TIP3   OH225403   1.014   1.896  18.288
  403TIP3    H125404   1.084   1.981  18.253
  403TIP3    H225405   1.079   1.855  18.363
  404TIP3   OH225406   0.793   1.936  17.578
  404TIP3    H125407   0.684   1.950  17.604
  404TIP3    H225408   0.834   2.044  17.585
  405TIP3   OH225409   1.356   1.421  18.224
  405TIP3    H125410   1.307   1.364  18.301
  405TIP3    H225411   1.418   1.336  18.183
  406TIP3   OH225412   1.758   1.950  18.457
  406TIP3    H125413   1.652   1.900  18.444
  406TIP3    H225414   1.771   2.024  18.382
  407TIP3   OH225415   0.312   0.472  18.419
  407TIP3    H125416   0.218   0.530  18.446
  407TIP3    H225417   0.272   0.361  18.419
  408TIP3   OH225418   1.766   1.378  17.385
  408TIP3    H125419   1.751   1.273  17.429
  408TIP3    H225420   1.883   1.382  17.376
  409TIP3   OH225421   0.299   1.874  18.233
  409TIP3    H125422   0.362   1.778  18.246
  409TIP3    H225423   0.275   1.902  18.324
  410TIP3   OH225424   0.808   1.628  17.229
  410TIP3    H125425   0.904   1.616  17.283
  410TIP3    H225426   0.799   1.744  17.224
  411TIP3   OH225427   1.391   0.421  18.306
  411TIP3    H125428   1.490   0.434  18.358
  411TIP3    H225429   1.332   0.341  18.359
  412TIP3   OH225430   1.445   0.335  17.430
  412TIP3    H125431   1.469   0.397  17.349
  412TIP3    H225432   1.494   0.397  17.503
  413TIP3   OH225433   1.134   1.789  17.285
  413TIP3    H125434   1.042   1.864  17.288
  413TIP3    H225435   1.211   1.852  17.336
  414TIP3   OH225436   1.154   0.554  17.565
  414TIP3    H125437   1.217   0.606  17.493
  414TIP3    H225438   1.111   0.644  17.613
  415TIP3   OH225439   1.205   0.704  18.426
  415TIP3    H125440   1.213   0.778  18.503
  415TIP3    H225441   1.241   0.601  18.460
  416TIP3   OH225442   1.217   0.186  17.579
  416TIP3    H125443   1.220   0.266  17.649
  416TIP3    H225444   1.304   0.229  17.523
  417TIP3   OH225445   0.877   1.979  17.300
  417TIP3    H125446   0.841   2.084  17.272
  417TIP3    H225447   0.828   1.967  17.388
  418TIP3   OH225448   1.922   0.458  18.505
  418TIP3    H125449   1.805   0.475  18.500
  418TIP3    H225450   1.942   0.420  18.416
  419TIP3   OH225451   1.777   0.894  17.895
  419TIP3    H125452   1.687   0.817  17.894
  419TIP3    H225453   1.853   0.840  17.955
  420TIP3   OH225454   1.879   2.017  18.054
  420TIP3    H125455   1.880   2.094  17.980
  420TIP3    H225456   1.994   2.006  18.066
  421TIP3   OH225457   0.360   0.202  17.940
  421TIP3    H125458   0.355   0.190  17.841
  421TIP3    H225459   0.372   0.088  17.964
  422TIP3   OH225460   0.269   1.742  17.529
  422TIP3    H125461   0.167   1.762  17.569
  422TIP3    H225462   0.282   1.842  17.479
  423TIP3   OH225463   0.187   2.110  18.684
  423TIP3    H125464   0.262   2.111  18.760
  423TIP3    H225465   0.152   1.999  18.694
  424TIP3   OH225466   0.754   1.992  18.826
  424TIP3    H125467   0.848   1.934  18.856
  424TIP3    H225468   0.725   1.932  18.747
  425TIP3   OH225469   1.477   1.801  18.736
  425TIP3    H125470   1.436   1.698  18.772
  425TIP3    H225471   1.583   1.807  18.781
  426TIP3   OH225472   1.798   1.865  17.010
  426TIP3    H125473   1.783   1.793  17.085
  426TIP3    H225474   1.913   1.855  17.001
  427TIP3   OH225475   0.235   1.378  18.805
  427TIP3    H125476   0.254   1.262  18.797
  427TIP3    H225477   0.119   1.374  18.789
  428TIP3   OH225478   0.943   1.360  18.696
  428TIP3    H125479   0.920   1.427  18.617
  428TIP3    H225480   0.952   1.249  18.659
  429TIP3   OH225481   1.622   1.321  18.487
  429TIP3    H125482   1.728   1.376  18.487
  429TIP3    H225483   1.556   1.416  18.498
  430TIP3   OH225484   0.268   1.022  18.777
  430TIP3    H125485   0.336   0.934  18.750
  430TIP3    H225486   0.287   1.033  18.873
  431TIP3   OH225487   0.737   0.878  18.414
  431TIP3    H125488   0.676   0.973  18.440
  431TIP3    H225489   0.829   0.929  18.370
  432TIP3   OH225490   1.375   1.236  18.800
  432TIP3    H125491   1.457   1.174  18.754
  432TIP3    H225492   1.340   1.159  18.868
  433TIP3   OH225493   2.021   1.229  16.976
  433TIP3    H125494   2.094   1.174  16.917
  433TIP3    H225495   2.064   1.339  16.973
  434TIP3   OH225496   0.786   0.611  18.541
  434TIP3    H125497   0.847   0.550  18.475
  434TIP3    H225498   0.778   0.715  18.495
  435TIP3   OH225499   0.845   0.406  18.316
  435TIP3    H125500   0.910   0.450  18.242
  435TIP3    H225501   0.734   0.437  18.293
  436TIP3   OH225502   0.996   1.030  18.321
  436TIP3    H125503   1.108   1.061  18.317
  436TIP3    H225504   0.943   1.128  18.288
  437TIP3   OH225505   1.528   0.744  18.841
  437TIP3    H125506   1.568   0.635  18.844
  437TIP3    H225507   1.624   0.808  18.854
  438TIP3   OH225508   1.698   1.123  18.688
  438TIP3    H125509   1.657   1.189  18.614
  438TIP3    H225510   1.808   1.108  18.658
  439TIP3   OH225511   0.545   0.746  18.725
  439TIP3    H125512   0.486   0.649  18.747
  439TIP3    H225513   0.626   0.703  18.666
  440TIP3   OH225514   0.907   0.098  18.326
  440TIP3    H125515   0.900   0.217  18.340
  440TIP3    H225516   0.793   0.072  18.324
  441TIP3   OH225517   1.099   0.592  18.749
  441TIP3    H125518   1.039   0.563  18.829
  441TIP3    H225519   1.019   0.563  18.683
  442TIP3   OH225520   1.426   0.456  18.654
  442TIP3    H125521   1.315   0.472  18.682
  442TIP3    H225522   1.474   0.410  18.735
  443TIP3   OH225523   1.639   0.364  18.876
  443TIP3    H125524   1.630   0.245  18.880
  443TIP3    H225525   1.591   0.392  18.964
  444TIP3   OH225526   0.392   0.468  18.791
  444TIP3    H125527   0.389   0.394  18.716
  444TIP3    H225528   0.348   0.400  18.862
  445TIP3   OH225529   0.924   0.078  18.603
  445TIP3    H125530   0.918  -0.038  18.607
  445TIP3    H225531   0.965   0.096  18.512
  446TIP3   OH225532   0.995   0.176  18.853
  446TIP3    H125533   0.986   0.137  18.761
  446TIP3    H225534   0.918   0.264  18.854
  447TIP3   OH225535   0.985   2.233  17.129
  447TIP3    H125536   0.968   2.323  17.191
  447TIP3    H225537   0.882   2.234  17.083
  448TIP3   OH225538   0.134   1.970  17.844
  448TIP3    H125539   0.143   1.856  17.867
  448TIP3    H225540   0.227   2.010  17.892
  449TIP3   OH225541   2.207   2.076  18.067
  449TIP3    H125542   2.251   2.089  18.155
  449TIP3    H225543   2.262   2.159  18.018
  450TIP3   OH225544   2.126   2.029  18.361
  450TIP3    H125545   2.092   1.936  18.307
  450TIP3    H225546   2.156   1.973  18.442
  451TIP3   OH225547   1.986   1.506  18.856
  451TIP3    H125548   1.876   1.512  18.891
  451TIP3    H225549   2.030   1.602  18.900
  452TIP3   OH225550   2.119   1.328  17.377
  452TIP3    H125551   2.219   1.390  17.390
  452TIP3    H225552   2.130   1.250  17.450
  453TIP3   OH225553   2.166   1.116  17.585
  453TIP3    H125554   2.072   1.052  17.615
  453TIP3    H225555   2.233   1.118  17.667
  454TIP3   OH225556   2.154   1.418  18.049
  454TIP3    H125557   2.230   1.327  18.041
  454TIP3    H225558   2.216   1.505  18.009
  455TIP3   OH225559   1.976   1.752  18.294
  455TIP3    H125560   1.895   1.794  18.354
  455TIP3    H225561   1.915   1.722  18.214
  456TIP3   OH225562   2.215   1.082  17.196
  456TIP3    H125563   2.117   1.074  17.144
  456TIP3    H225564   2.195   1.178  17.248
  457TIP3   OH225565   1.999   0.734  17.085
  457TIP3    H125566   2.034   0.818  17.025
  457TIP3    H225567   1.952   0.659  17.021
  458TIP3   OH225568   1.926   0.925  17.658
  458TIP3    H125569   1.885   0.824  17.622
  458TIP3    H225570   1.888   0.922  17.751
  459TIP3   OH225571   0.191   1.283  18.033
  459TIP3    H125572   0.211   1.218  17.953
  459TIP3    H225573   0.277   1.246  18.092
  460TIP3   OH225574   2.039   1.142  18.597
  460TIP3    H125575   2.098   1.040  18.604
  460TIP3    H225576   2.124   1.222  18.582
  461TIP3   OH225577   2.177   0.840  18.646
  461TIP3    H125578   2.069   0.793  18.644
  461TIP3    H225579   2.244   0.744  18.666
  462TIP3   OH225580   1.886   0.660  17.489
  462TIP3    H125581   1.901   0.548  17.519
  462TIP3    H225582   1.991   0.676  17.448
  463TIP3   OH225583   1.980   0.692  18.044
  463TIP3    H125584   2.095   0.724  18.046
  463TIP3    H225585   1.963   0.690  18.140
  464TIP3   OH225586   1.963   0.820  18.291
  464TIP3    H125587   1.853   0.854  18.304
  464TIP3    H225588   2.020   0.922  18.281
  465TIP3   OH225589   0.140   0.637  18.697
  465TIP3    H125590   0.246   0.608  18.733
  465TIP3    H225591   0.114   0.550  18.639
  466TIP3   OH225592   2.304   0.090  18.847
  466TIP3    H125593   2.398   0.078  18.788
  466TIP3    H225594   2.250   0.169  18.791
  467TIP3   OH225595   1.981   0.342  17.510
  467TIP3    H125596   2.009   0.290  17.595
  467TIP3    H225597   1.897   0.270  17.478
  468TIP3   OH225598   0.152   0.432  18.022
  468TIP3    H125599   0.221   0.342  17.994
  468TIP3    H225600   0.222   0.497  18.076
  469TIP3   OH225601   0.083   0.793  18.114
  469TIP3    H125602   0.143   0.773  18.032
  469TIP3    H225603   0.054   0.906  18.108
  470TIP3   OH225604   2.148   0.330  18.699
  470TIP3    H125605   2.059   0.407  18.702
  470TIP3    H225606   2.125   0.277  18.614
  471TIP3   OH225607   1.841   2.089  17.691
  471TIP3    H125608   1.903   2.093  17.608
  471TIP3    H225609   1.884   2.177  17.743
  472TIP3   OH225610   0.136   0.239  18.283
  472TIP3    H125611   0.040   0.197  18.326
  472TIP3    H225612   0.084   0.330  18.239
  473TIP3   OH225613   0.302   1.709  18.704
  473TIP3    H125614   0.211   1.706  18.646
  473TIP3    H225615   0.316   1.597  18.729
  474TIP3   OH225616   0.688   1.908  18.359
  474TIP3    H125617   0.685   2.009  18.309
  474TIP3    H225618   0.800   1.879  18.353
  475TIP3   OH225619   1.177   2.032  18.595
  475TIP3    H125620   1.178   2.005  18.690
  475TIP3    H225621   1.285   2.075  18.584
  476TIP3   OH225622   1.446   2.215  18.551
  476TIP3    H125623   1.529   2.147  18.517
  476TIP3    H225624   1.493   2.252  18.636
  477TIP3   OH225625   2.089   0.166  18.451
  477TIP3    H125626   1.988   0.197  18.409
  477TIP3    H225627   2.066   0.050  18.466
  478TIP3   OH225628   0.382   2.272  18.334
  478TIP3    H125629   0.275   2.308  18.302
  478TIP3    H225630   0.354   2.226  18.420
  479TIP3   OH225631   0.659   2.216  18.207
  479TIP3    H125632   0.548   2.215  18.243
  479TIP3    H225633   0.672   2.330  18.191
  480TIP3   OH225634   1.211   2.143  18.145
  480TIP3    H125635   1.195   2.226  18.077
  480TIP3    H225636   1.242   2.214  18.219
  481TIP3   OH225637   1.460   1.993  18.292
  481TIP3    H125638   1.381   2.032  18.228
  481TIP3    H225639   1.546   2.070  18.273
  482TIP3   OH225640   1.766   2.183  18.261
  482TIP3    H125641   1.790   2.288  18.224
  482TIP3    H225642   1.806   2.117  18.186
  483TIP3   OH225643   0.532   1.892  17.887
  483TIP3    H125644   0.503   1.789  17.927
  483TIP3    H225645   0.631   1.912  17.934
  484TIP3   OH225646   0.847   1.919  18.020
  484TIP3    H125647   0.878   1.806  18.012
  484TIP3    H225648   0.887   1.942  18.109
  485TIP3   OH225649   1.290   0.317  17.881
  485TIP3    H125650   1.205   0.236  17.895
  485TIP3    H225651   1.370   0.251  17.835
  486TIP3   OH225652   1.825   0.131  17.895
  486TIP3    H125653   1.900   0.168  17.826
  486TIP3    H225654   1.728   0.191  17.875
  487TIP3   OH225655   2.098   0.212  17.729
  487TIP3    H125656   2.138   0.127  17.671
  487TIP3    H225657   2.184   0.295  17.729
  488TIP3   OH225658   0.389   0.164  17.683
  488TIP3    H125659   0.394   0.241  17.609
  488TIP3    H225660   0.371   0.064  17.637
  489TIP3   OH225661   0.203   0.116  17.285
  489TIP3    H125662   0.175   0.203  17.225
  489TIP3    H225663   0.154   0.146  17.369
  490TIP3   OH225664   0.918   0.170  17.690
  490TIP3    H125665   1.000   0.161  17.621
  490TIP3    H225666   0.984   0.174  17.770
  491TIP3   OH225667   1.531   0.145  17.775
  491TIP3    H125668   1.579   0.121  17.690
  491TIP3    H225669   1.541   0.044  17.825
  492TIP3   OH225670   1.733   0.181  17.402
  492TIP3    H125671   1.619   0.215  17.398
  492TIP3    H225672   1.723   0.065  17.403
  493TIP3   OH225673   0.204   2.000  17.367
  493TIP3    H125674   0.125   1.954  17.307
  493TIP3    H225675   0.216   2.108  17.335
  494TIP3   OH225676   1.031   0.310  17.321
  494TIP3    H125677   1.052   0.257  17.405
  494TIP3    H225678   1.021   0.421  17.347
  495TIP3   OH225679   1.278   2.058  17.172
  495TIP3    H125680   1.350   2.149  17.174
  495TIP3    H225681   1.171   2.108  17.176
  496TIP3   OH225682   2.026   2.034  17.477
  496TIP3    H125683   2.002   1.943  17.419
  496TIP3    H225684   2.046   2.113  17.405
  497TIP3   OH225685   0.317   0.164  18.639
  497TIP3    H125686   0.300   0.055  18.610
  497TIP3    H225687   0.426   0.155  18.675
  498TIP3   OH225688   0.594   0.119  18.785
  498TIP3    H125689   0.701   0.134  18.748
  498TIP3    H225690   0.578   0.002  18.774
  499TIP3   OH225691   1.586   0.050  18.833
  499TIP3    H125692   1.522  -0.043  18.850
  499TIP3    H225693   1.669   0.004  18.777
  500TIP3   OH225694   1.969   1.919  18.645
  500TIP3    H125695   1.883   1.916  18.578
  500TIP3    H225696   1.954   2.026  18.681
  501TIP3   OH225697   3.719   1.193  17.666
  501TIP3    H125698   3.670   1.242  17.743
  501TIP3    H225699   3.636   1.200  17.597
  502TIP3   OH225700   3.588   1.052  17.983
  502TIP3    H125701   3.580   1.014  18.076
  502TIP3    H225702   3.504   0.986  17.940
  503TIP3   OH225703   2.624   1.063  18.147
  503TIP3    H125704   2.624   0.976  18.210
  503TIP3    H225705   2.693   1.140  18.192
  504TIP3   OH225706   2.764   1.621  17.985
  504TIP3    H125707   2.717   1.518  17.959
  504TIP3    H225708   2.875   1.590  17.973
  505TIP3   OH225709   2.360   0.802  17.547
  505TIP3    H125710   2.324   0.907  17.572
  505TIP3    H225711   2.264   0.762  17.503
  506TIP3   OH225712   2.417   1.118  17.793
  506TIP3    H125713   2.472   1.016  17.809
  506TIP3    H225714   2.490   1.176  17.735
  507TIP3   OH225715   3.360   1.334  18.081
  507TIP3    H125716   3.415   1.301  18.001
  507TIP3    H225717   3.449   1.382  18.132
  508TIP3   OH225718   4.406   0.364  18.068
  508TIP3    H125719   4.417   0.450  18.134
  508TIP3    H225720   4.498   0.392  18.011
  509TIP3   OH225721   3.784   0.734  18.113
  509TIP3    H125722   3.804   0.620  18.125
  509TIP3    H225723   3.768   0.734  18.016
  510TIP3   OH225724   2.936   0.474  17.784
  510TIP3    H125725   2.960   0.570  17.731
  510TIP3    H225726   2.892   0.402  17.715
  511TIP3   OH225727   3.858   0.499  17.639
  511TIP3    H125728   3.912   0.469  17.723
  511TIP3    H225729   3.934   0.578  17.607
  512TIP3   OH225730   2.516   0.804  17.875
  512TIP3    H125731   2.588   0.749  17.937
  512TIP3    H225732   2.539   0.745  17.792
  513TIP3   OH225733   3.095   0.965  17.824
  513TIP3    H125734   3.196   0.912  17.849
  513TIP3    H225735   3.053   0.884  17.762
  514TIP3   OH225736   4.429   0.538  18.311
  514TIP3    H125737   4.368   0.637  18.307
  514TIP3    H225738   4.424   0.511  18.405
  515TIP3   OH225739   2.801   0.368  18.208
  515TIP3    H125740   2.764   0.444  18.138
  515TIP3    H225741   2.711   0.377  18.272
  516TIP3   OH225742   3.061   1.294  18.181
  516TIP3    H125743   3.006   1.390  18.216
  516TIP3    H225744   3.152   1.342  18.134
  517TIP3   OH225745   4.058   0.496  17.846
  517TIP3    H125746   4.052   0.394  17.891
  517TIP3    H225747   4.157   0.538  17.887
  518TIP3   OH225748   2.764   0.593  17.993
  518TIP3    H125749   2.843   0.662  18.039
  518TIP3    H225750   2.821   0.560  17.911
  519TIP3   OH225751   2.920   1.543  18.298
  519TIP3    H125752   2.896   1.634  18.242
  519TIP3    H225753   2.818   1.528  18.346
  520TIP3   OH225754   2.424   1.464  17.384
  520TIP3    H125755   2.411   1.511  17.295
  520TIP3    H225756   2.485   1.547  17.429
  521TIP3   OH225757   4.118   0.258  18.222
  521TIP3    H125758   4.027   0.316  18.186
  521TIP3    H225759   4.183   0.245  18.141
  522TIP3   OH225760   3.270   0.113  17.906
  522TIP3    H125761   3.278   0.008  17.950
  522TIP3    H225762   3.200   0.172  17.968
  523TIP3   OH225763   4.199   1.476  18.448
  523TIP3    H125764   4.217   1.393  18.378
  523TIP3    H225765   4.208   1.573  18.394
  524TIP3   OH225766   3.534   1.058  17.383
  524TIP3    H125767   3.466   1.123  17.325
  524TIP3    H225768   3.636   1.060  17.334
  525TIP3   OH225769   3.600   0.901  17.122
  525TIP3    H125770   3.696   0.947  17.162
  525TIP3    H225771   3.642   0.800  17.089
  526TIP3   OH225772   4.420   1.040  18.228
  526TIP3    H125773   4.361   1.140  18.243
  526TIP3    H225774   4.486   1.074  18.152
  527TIP3   OH225775   3.982   1.094  17.503
  527TIP3    H125776   3.898   1.124  17.568
  527TIP3    H225777   4.058   1.036  17.561
  528TIP3   OH225778   3.919   0.881  18.435
  528TIP3    H125779   3.914   0.995  18.450
  528TIP3    H225780   3.834   0.868  18.370
  529TIP3   OH225781   2.930   1.183  17.681
  529TIP3    H125782   2.917   1.132  17.595
  529TIP3    H225783   2.995   1.105  17.730
  530TIP3   OH225784   3.112   1.567  17.952
  530TIP3    H125785   3.131   1.592  17.858
  530TIP3    H225786   3.208   1.511  17.980
  531TIP3   OH225787   2.946   1.039  18.060
  531TIP3    H125788   3.000   1.044  17.973
  531TIP3    H225789   2.996   1.128  18.110
  532TIP3   OH225790   3.799   1.711  18.130
  532TIP3    H125791   3.749   1.787  18.189
  532TIP3    H225792   3.757   1.609  18.159
  533TIP3   OH225793   3.113   1.580  18.510
  533TIP3    H125794   3.030   1.643  18.558
  533TIP3    H225795   3.061   1.568  18.422
  534TIP3   OH225796   3.842   1.016  17.273
  534TIP3    H125797   3.904   1.048  17.353
  534TIP3    H225798   3.895   1.087  17.207
  535TIP3   OH225799   2.681   1.195  18.411
  535TIP3    H125800   2.698   1.273  18.482
  535TIP3    H225801   2.604   1.123  18.453
  536TIP3   OH225802   3.512   1.865  17.639
  536TIP3    H125803   3.582   1.961  17.646
  536TIP3    H225804   3.503   1.858  17.544
  537TIP3   OH225805   2.899   1.795  18.610
  537TIP3    H125806   2.882   1.831  18.517
  537TIP3    H225807   2.788   1.771  18.635
  538TIP3   OH225808   4.265   0.089  17.288
  538TIP3    H125809   4.175   0.074  17.349
  538TIP3    H225810   4.230   0.186  17.246
  539TIP3   OH225811   2.810   1.070  17.418
  539TIP3    H125812   2.726   1.148  17.433
  539TIP3    H225813   2.749   0.973  17.398
  540TIP3   OH225814   2.383   1.406  18.346
  540TIP3    H125815   2.328   1.397  18.261
  540TIP3    H225816   2.435   1.302  18.351
  541TIP3   OH225817   2.372   1.693  18.021
  541TIP3    H125818   2.489   1.693  18.019
  541TIP3    H225819   2.351   1.788  18.072
  542TIP3   OH225820   4.502   1.770  18.588
  542TIP3    H125821   4.494   1.655  18.575
  542TIP3    H225822   4.399   1.789  18.633
  543TIP3   OH225823   3.398   1.739  18.508
  543TIP3    H125824   3.394   1.844  18.550
  543TIP3    H225825   3.288   1.698  18.511
  544TIP3   OH225826   2.713   2.035  17.660
  544TIP3    H125827   2.765   2.016  17.747
  544TIP3    H225828   2.610   1.981  17.674
  545TIP3   OH225829   4.126   0.772  18.636
  545TIP3    H125830   4.072   0.809  18.555
  545TIP3    H225831   4.127   0.658  18.617
  546TIP3   OH225832   2.647   1.549  18.434
  546TIP3    H125833   2.644   1.507  18.527
  546TIP3    H225834   2.550   1.501  18.397
  547TIP3   OH225835   3.006   0.240  18.038
  547TIP3    H125836   2.916   0.270  17.981
  547TIP3    H225837   2.965   0.288  18.122
  548TIP3   OH225838   3.452   0.202  18.446
  548TIP3    H125839   3.492   0.096  18.420
  548TIP3    H225840   3.353   0.203  18.397
  549TIP3   OH225841   3.911   0.545  18.469
  549TIP3    H125842   3.822   0.524  18.532
  549TIP3    H225843   3.887   0.656  18.446
  550TIP3   OH225844   4.027   1.145  17.094
  550TIP3    H125845   3.994   1.105  17.007
  550TIP3    H225846   4.139   1.174  17.073
  551TIP3   OH225847   3.488   0.389  17.140
  551TIP3    H125848   3.410   0.354  17.208
  551TIP3    H225849   3.451   0.338  17.059
  552TIP3   OH225850   2.970   0.744  18.158
  552TIP3    H125851   2.904   0.769  18.235
  552TIP3    H225852   2.962   0.850  18.112
  553TIP3   OH225853   2.958   0.749  17.640
  553TIP3    H125854   2.844   0.718  17.638
  553TIP3    H225855   2.995   0.713  17.550
  554TIP3   OH225856   3.648   0.811  17.527
  554TIP3    H125857   3.588   0.904  17.491
  554TIP3    H225858   3.707   0.781  17.449
  555TIP3   OH225859   3.496   0.883  18.686
  555TIP3    H125860   3.438   0.781  18.676
  555TIP3    H225861   3.593   0.847  18.730
  556TIP3   OH225862   3.739   0.731  17.836
  556TIP3    H125863   3.727   0.812  17.767
  556TIP3    H225864   3.756   0.636  17.781
  557TIP3   OH225865   2.623   0.766  18.297
  557TIP3    H125866   2.707   0.812  18.355
  557TIP3    H225867   2.615   0.656  18.332
  558TIP3   OH225868   2.311   0.452  17.730
  558TIP3    H125869   2.395   0.450  17.797
  558TIP3    H225870   2.363   0.409  17.651
  559TIP3   OH225871   2.412   0.491  17.269
  559TIP3    H125872   2.504   0.547  17.233
  559TIP3    H225873   2.345   0.582  17.298
  560TIP3   OH225874   3.611   0.958  18.244
  560TIP3    H125875   3.688   0.889  18.196
  560TIP3    H225876   3.575   0.880  18.313
  561TIP3   OH225877   3.288   0.460  17.741
  561TIP3    H125878   3.179   0.421  17.754
  561TIP3    H225879   3.335   0.430  17.827
  562TIP3   OH225880   2.646   0.652  17.634
  562TIP3    H125881   2.550   0.689  17.585
  562TIP3    H225882   2.682   0.558  17.583
  563TIP3   OH225883   3.053   0.646  17.403
  563TIP3    H125884   3.166   0.661  17.430
  563TIP3    H225885   3.040   0.731  17.339
  564TIP3   OH225886   3.815   0.377  18.065
  564TIP3    H125887   3.730   0.376  18.132
  564TIP3    H225888   3.775   0.310  17.993
  565TIP3   OH225889   2.872   0.892  17.136
  565TIP3    H125890   2.788   0.815  17.112
  565TIP3    H225891   2.971   0.847  17.102
  566TIP3   OH225892   4.152   2.266  18.706
  566TIP3    H125893   4.201   2.262  18.617
  566TIP3    H225894   4.244   2.296  18.759
  567TIP3   OH225895   2.665   1.369  18.672
  567TIP3    H125896   2.764   1.372  18.725
  567TIP3    H225897   2.587   1.327  18.736
  568TIP3   OH225898   3.408   0.809  17.908
  568TIP3    H125899   3.499   0.760  17.861
  568TIP3    H225900   3.398   0.734  17.983
  569TIP3   OH225901   2.818   0.364  17.546
  569TIP3    H125902   2.764   0.269  17.581
  569TIP3    H225903   2.910   0.317  17.502
  570TIP3   OH225904   3.300   0.623  18.158
  570TIP3    H125905   3.202   0.686  18.150
  570TIP3    H225906   3.331   0.656  18.247
  571TIP3   OH225907   3.274   1.290  17.337
  571TIP3    H125908   3.262   1.202  17.399
  571TIP3    H225909   3.280   1.380  17.398
  572TIP3   OH225910   4.218   1.295  18.231
  572TIP3    H125911   4.274   1.356  18.161
  572TIP3    H225912   4.116   1.270  18.187
  573TIP3   OH225913   3.787   0.516  17.071
  573TIP3    H125914   3.680   0.469  17.080
  573TIP3    H225915   3.802   0.563  17.159
  574TIP3   OH225916   3.455   1.369  18.467
  574TIP3    H125917   3.402   1.284  18.515
  574TIP3    H225918   3.430   1.465  18.518
  575TIP3   OH225919   3.866   0.689  17.306
  575TIP3    H125920   3.964   0.685  17.362
  575TIP3    H225921   3.864   0.805  17.289
  576TIP3   OH225922   2.747   1.296  17.909
  576TIP3    H125923   2.819   1.274  17.836
  576TIP3    H225924   2.762   1.205  17.968
  577TIP3   OH225925   2.363   1.066  18.475
  577TIP3    H125926   2.339   0.982  18.541
  577TIP3    H225927   2.304   1.026  18.396
  578TIP3   OH225928   3.222   1.048  18.659
  578TIP3    H125929   3.185   0.959  18.603
  578TIP3    H225930   3.335   1.013  18.664
  579TIP3   OH225931   3.802   1.645  18.490
  579TIP3    H125932   3.714   1.672  18.430
  579TIP3    H225933   3.768   1.703  18.571
  580TIP3   OH225934   4.448   0.754  17.298
  580TIP3    H125935   4.368   0.722  17.235
  580TIP3    H225936   4.456   0.871  17.281
  581TIP3   OH225937   4.478   1.424  18.588
  581TIP3    H125938   4.364   1.444  18.571
  581TIP3    H225939   4.519   1.408  18.497
  582TIP3   OH225940   4.308   1.739  17.336
  582TIP3    H125941   4.253   1.642  17.313
  582TIP3    H225942   4.294   1.811  17.261
  583TIP3   OH225943   3.944   1.157  18.066
  583TIP3    H125944   3.832   1.134  18.051
  583TIP3    H225945   3.994   1.081  18.003
  584TIP3   OH225946   3.023   1.682  17.678
  584TIP3    H125947   3.082   1.775  17.644
  584TIP3    H225948   2.916   1.709  17.645
  585TIP3   OH225949   2.546   1.079  17.153
  585TIP3    H125950   2.527   1.187  17.123
  585TIP3    H225951   2.435   1.046  17.171
  586TIP3   OH225952   3.217   1.420  17.605
  586TIP3    H125953   3.168   1.526  17.603
  586TIP3    H225954   3.158   1.373  17.679
  587TIP3   OH225955   3.265   1.910  18.287
  587TIP3    H125956   3.336   1.987  18.242
  587TIP3    H225957   3.335   1.867  18.357
  588TIP3   OH225958   3.001   1.956  17.528
  588TIP3    H125959   2.903   2.003  17.566
  588TIP3    H225960   3.083   2.030  17.566
  589TIP3   OH225961   3.613   1.420  18.229
  589TIP3    H125962   3.558   1.390  18.315
  589TIP3    H225963   3.667   1.320  18.209
  590TIP3   OH225964   4.022   1.950  18.448
  590TIP3    H125965   3.913   1.909  18.431
  590TIP3    H225966   4.028   2.038  18.382
  591TIP3   OH225967   4.480   2.135  17.143
  591TIP3    H125968   4.494   2.219  17.078
  591TIP3    H225969   4.402   2.186  17.201
  592TIP3   OH225970   2.562   0.437  18.384
  592TIP3    H125971   2.452   0.472  18.380
  592TIP3    H225972   2.554   0.337  18.435
  593TIP3   OH225973   4.039   1.379  17.381
  593TIP3    H125974   4.022   1.272  17.416
  593TIP3    H225975   4.156   1.386  17.385
  594TIP3   OH225976   2.551   1.872  18.232
  594TIP3    H125977   2.621   1.781  18.247
  594TIP3    H225978   2.551   1.918  18.321
  595TIP3   OH225979   3.094   1.626  17.280
  595TIP3    H125980   3.202   1.602  17.252
  595TIP3    H225981   3.096   1.744  17.278
  596TIP3   OH225982   3.652   0.396  18.312
  596TIP3    H125983   3.736   0.404  18.379
  596TIP3    H225984   3.574   0.331  18.362
  597TIP3   OH225985   3.707   0.348  17.445
  597TIP3    H125986   3.684   0.422  17.373
  597TIP3    H225987   3.775   0.412  17.505
  598TIP3   OH225988   3.356   0.598  17.500
  598TIP3    H125989   3.470   0.624  17.509
  598TIP3    H225990   3.330   0.554  17.589
  599TIP3   OH225991   3.593   0.701  18.411
  599TIP3    H125992   3.494   0.725  18.460
  599TIP3    H225993   3.578   0.589  18.384
  600TIP3   OH225994   3.462   0.232  17.571
  600TIP3    H125995   3.437   0.310  17.641
  600TIP3    H225996   3.570   0.270  17.544
  601TIP3   OH225997   3.050   1.973  17.263
  601TIP3    H125998   3.106   2.070  17.238
  601TIP3    H225999   3.030   1.986  17.360
  602TIP3   OH226000   4.202   0.440  18.507
  602TIP3    H126001   4.087   0.460  18.517
  602TIP3    H226002   4.207   0.418  18.411
  603TIP3   OH226003   4.033   0.859  17.888
  603TIP3    H126004   3.946   0.784  17.896
  603TIP3    H226005   4.117   0.806  17.941
  604TIP3   OH226006   2.543   0.773  17.051
  604TIP3    H126007   2.576   0.874  17.093
  604TIP3    H226008   2.471   0.815  16.983
  605TIP3   OH226009   4.138   2.027  18.069
  605TIP3    H126010   4.129   2.116  18.005
  605TIP3    H226011   4.253   2.026  18.086
  606TIP3   OH226012   2.665   0.187  17.941
  606TIP3    H126013   2.644   0.168  17.847
  606TIP3    H226014   2.647   0.078  17.975
  607TIP3   OH226015   2.479   1.788  17.566
  607TIP3    H126016   2.386   1.848  17.538
  607TIP3    H226017   2.556   1.829  17.503
  608TIP3   OH226018   2.407   2.090  18.686
  608TIP3    H126019   2.485   2.069  18.758
  608TIP3    H226020   2.368   1.981  18.669
  609TIP3   OH226021   2.996   1.979  18.830
  609TIP3    H126022   3.102   1.936  18.853
  609TIP3    H226023   2.980   1.934  18.741
  610TIP3   OH226024   3.748   1.799  18.727
  610TIP3    H126025   3.704   1.694  18.759
  610TIP3    H226026   3.850   1.799  18.778
  611TIP3   OH226027   2.371   1.346  18.796
  611TIP3    H126028   2.338   1.235  18.793
  611TIP3    H226029   2.321   1.386  18.713
  612TIP3   OH226030   3.210   1.373  18.703
  612TIP3    H126031   3.180   1.429  18.620
  612TIP3    H226032   3.200   1.258  18.680
  613TIP3   OH226033   3.905   1.316  18.478
  613TIP3    H126034   4.002   1.381  18.473
  613TIP3    H226035   3.828   1.404  18.494
  614TIP3   OH226036   2.564   0.990  18.757
  614TIP3    H126037   2.630   0.895  18.763
  614TIP3    H226038   2.602   1.058  18.830
  615TIP3   OH226039   2.900   0.908  18.398
  615TIP3    H126040   2.886   1.001  18.454
  615TIP3    H226041   3.017   0.913  18.386
  616TIP3   OH226042   3.241   0.971  17.083
  616TIP3    H126043   3.216   0.982  16.989
  616TIP3    H226044   3.350   0.929  17.085
  617TIP3   OH226045   3.641   1.231  18.797
  617TIP3    H126046   3.733   1.205  18.741
  617TIP3    H226047   3.577   1.134  18.790
  618TIP3   OH226048   4.300   1.184  16.964
  618TIP3    H126049   4.322   1.160  16.871
  618TIP3    H226050   4.345   1.290  16.973
  619TIP3   OH226051   2.958   0.450  18.553
  619TIP3    H126052   3.030   0.383  18.501
  619TIP3    H226053   3.005   0.553  18.527
  620TIP3   OH226054   3.095   0.396  18.319
  620TIP3    H126055   3.146   0.481  18.267
  620TIP3    H226056   2.981   0.425  18.314
  621TIP3   OH226057   3.233   1.100  18.366
  621TIP3    H126058   3.330   1.076  18.318
  621TIP3    H226059   3.176   1.169  18.304
  622TIP3   OH226060   3.811   0.752  18.841
  622TIP3    H126061   3.846   0.641  18.845
  622TIP3    H226062   3.911   0.811  18.856
  623TIP3   OH226063   3.968   1.128  18.690
  623TIP3    H126064   3.938   1.190  18.611
  623TIP3    H226065   4.070   1.085  18.660
  624TIP3   OH226066   2.870   0.703  18.764
  624TIP3    H126067   2.767   0.655  18.737
  624TIP3    H226068   2.939   0.667  18.692
  625TIP3   OH226069   3.185   0.097  18.318
  625TIP3    H126070   3.172   0.214  18.323
  625TIP3    H226071   3.084   0.073  18.277
  626TIP3   OH226072   3.326   0.572  18.764
  626TIP3    H126073   3.236   0.557  18.825
  626TIP3    H226074   3.268   0.581  18.679
  627TIP3   OH226075   3.670   0.473  18.652
  627TIP3    H126076   3.556   0.494  18.658
  627TIP3    H226077   3.682   0.391  18.720
  628TIP3   OH226078   3.943   0.347  18.844
  628TIP3    H126079   3.902   0.235  18.837
  628TIP3    H226080   3.875   0.388  18.916
  629TIP3   OH226081   2.623   0.494  18.774
  629TIP3    H126082   2.677   0.418  18.718
  629TIP3    H226083   2.602   0.433  18.857
  630TIP3   OH226084   3.167   0.071  18.612
  630TIP3    H126085   3.137  -0.044  18.604
  630TIP3    H226086   3.241   0.085  18.538
  631TIP3   OH226087   3.242   0.150  18.876
  631TIP3    H126088   3.244   0.113  18.783
  631TIP3    H226089   3.180   0.247  18.866
  632TIP3   OH226090   3.224   2.279  17.157
  632TIP3    H126091   3.324   2.279  17.204
  632TIP3    H226092   3.217   2.392  17.131
  633TIP3   OH226093   2.274   2.198  17.601
  633TIP3    H126094   2.184   2.136  17.564
  633TIP3    H226095   2.315   2.125  17.670
  634TIP3   OH226096   2.358   1.993  17.790
  634TIP3    H126097   2.282   1.906  17.804
  634TIP3    H226098   2.390   2.016  17.881
  635TIP3   OH226099   4.451   2.131  18.115
  635TIP3    H126100   4.480   2.146  18.209
  635TIP3    H226101   4.543   2.184  18.074
  636TIP3   OH226102   4.404   2.008  18.383
  636TIP3    H126103   4.372   1.916  18.326
  636TIP3    H226104   4.434   1.952  18.466
  637TIP3   OH226105   4.248   1.504  18.864
  637TIP3    H126106   4.136   1.513  18.897
  637TIP3    H226107   4.294   1.604  18.896
  638TIP3   OH226108   4.350   1.338  17.416
  638TIP3    H126109   4.462   1.376  17.416
  638TIP3    H226110   4.361   1.234  17.461
  639TIP3   OH226111   4.422   1.085  17.583
  639TIP3    H126112   4.336   1.016  17.616
  639TIP3    H226113   4.492   1.104  17.660
  640TIP3   OH226114   4.393   1.420  18.038
  640TIP3    H126115   4.474   1.337  18.020
  640TIP3    H226116   4.452   1.518  18.021
  641TIP3   OH226117   4.232   1.754  18.290
  641TIP3    H126118   4.163   1.817  18.350
  641TIP3    H226119   4.160   1.740  18.215
  642TIP3   OH226120   4.456   1.061  17.242
  642TIP3    H126121   4.394   1.106  17.169
  642TIP3    H226122   4.536   1.142  17.258
  643TIP3   OH226123   4.174   0.919  17.653
  643TIP3    H126124   4.156   0.810  17.625
  643TIP3    H226125   4.134   0.917  17.745
  644TIP3   OH226126   2.365   1.187  18.054
  644TIP3    H126127   2.377   1.163  17.957
  644TIP3    H226128   2.476   1.159  18.083
  645TIP3   OH226129   4.315   1.132  18.590
  645TIP3    H126130   4.364   1.033  18.625
  645TIP3    H226131   4.410   1.192  18.560
  646TIP3   OH226132   4.430   0.844  18.672
  646TIP3    H126133   4.322   0.798  18.656
  646TIP3    H226134   4.495   0.745  18.680
  647TIP3   OH226135   4.145   0.661  17.455
  647TIP3    H126136   4.170   0.548  17.480
  647TIP3    H226137   4.255   0.696  17.445
  648TIP3   OH226138   4.244   0.700  18.049
  648TIP3    H126139   4.362   0.720  18.056
  648TIP3    H226140   4.220   0.701  18.144
  649TIP3   OH226141   4.228   0.800  18.311
  649TIP3    H126142   4.116   0.834  18.323
  649TIP3    H226143   4.282   0.898  18.276
  650TIP3   OH226144   2.351   0.575  18.668
  650TIP3    H126145   2.458   0.556  18.711
  650TIP3    H226146   2.298   0.473  18.690
  651TIP3   OH226147   4.552   0.097  18.839
  651TIP3    H126148   4.654   0.085  18.793
  651TIP3    H226149   4.504   0.174  18.776
  652TIP3   OH226150   4.241   0.367  17.494
  652TIP3    H126151   4.286   0.311  17.571
  652TIP3    H226152   4.147   0.298  17.476
  653TIP3   OH226153   2.461   0.440  17.990
  653TIP3    H126154   2.497   0.332  18.013
  653TIP3    H226155   2.566   0.493  17.984
  654TIP3   OH226156   2.285   0.781  18.061
  654TIP3    H126157   2.348   0.758  17.981
  654TIP3    H226158   2.362   0.848  18.107
  655TIP3   OH226159   4.409   0.310  18.687
  655TIP3    H126160   4.316   0.382  18.694
  655TIP3    H226161   4.390   0.263  18.598
  656TIP3   OH226162   2.315   0.289  17.477
  656TIP3    H126163   2.202   0.320  17.473
  656TIP3    H226164   2.353   0.346  17.397
  657TIP3   OH226165   2.346   0.192  18.281
  657TIP3    H126166   2.274   0.202  18.358
  657TIP3    H226167   2.285   0.250  18.214
  658TIP3   OH226168   2.587   1.712  18.690
  658TIP3    H126169   2.483   1.747  18.657
  658TIP3    H226170   2.563   1.639  18.762
  659TIP3   OH226171   2.942   1.903  18.352
  659TIP3    H126172   2.941   2.012  18.316
  659TIP3    H226173   3.058   1.884  18.349
  660TIP3   OH226174   3.428   2.051  18.604
  660TIP3    H126175   3.450   2.012  18.695
  660TIP3    H226176   3.534   2.093  18.580
  661TIP3   OH226177   3.702   2.216  18.553
  661TIP3    H126178   3.796   2.156  18.526
  661TIP3    H226179   3.740   2.262  18.639
  662TIP3   OH226180   4.357   0.164  18.444
  662TIP3    H126181   4.259   0.190  18.396
  662TIP3    H226182   4.333   0.052  18.466
  663TIP3   OH226183   2.622   2.251  18.307
  663TIP3    H126184   2.521   2.302  18.278
  663TIP3    H226185   2.612   2.258  18.404
  664TIP3   OH226186   2.926   2.185  18.223
  664TIP3    H126187   2.812   2.206  18.243
  664TIP3    H226188   2.938   2.250  18.142
  665TIP3   OH226189   3.448   2.140  18.163
  665TIP3    H126190   3.386   2.192  18.090
  665TIP3    H226191   3.487   2.233  18.211
  666TIP3   OH226192   3.712   1.981  18.294
  666TIP3    H126193   3.618   2.033  18.253
  666TIP3    H226194   3.794   2.059  18.272
  667TIP3   OH226195   4.030   2.197  18.274
  667TIP3    H126196   4.026   2.308  18.242
  667TIP3    H226197   4.067   2.142  18.192
  668TIP3   OH226198   2.575   2.056  18.006
  668TIP3    H126199   2.555   1.988  18.085
  668TIP3    H226200   2.686   2.020  17.983
  669TIP3   OH226201   2.848   1.934  17.890
  669TIP3    H126202   2.832   1.822  17.915
  669TIP3    H226203   2.956   1.954  17.926
  670TIP3   OH226204   3.124   1.901  18.026
  670TIP3    H126205   3.163   1.792  18.018
  670TIP3    H226206   3.150   1.922  18.119
  671TIP3   OH226207   3.521   0.320  17.894
  671TIP3    H126208   3.457   0.223  17.898
  671TIP3    H226209   3.608   0.288  17.835
  672TIP3   OH226210   4.120   0.140  17.878
  672TIP3    H126211   4.210   0.166  17.817
  672TIP3    H226212   4.036   0.118  17.815
  673TIP3   OH226213   4.349   0.185  17.695
  673TIP3    H126214   4.404   0.100  17.650
  673TIP3    H226215   4.436   0.257  17.726
  674TIP3   OH226216   2.621   0.144  17.650
  674TIP3    H126217   2.562   0.169  17.567
  674TIP3    H226218   2.599   0.029  17.659
  675TIP3   OH226219   2.557   0.109  17.351
  675TIP3    H126220   2.586   0.198  17.294
  675TIP3    H226221   2.441   0.114  17.354
  676TIP3   OH226222   3.169   0.143  17.650
  676TIP3    H126223   3.266   0.176  17.602
  676TIP3    H226224   3.206   0.138  17.743
  677TIP3   OH226225   3.797   0.175  17.783
  677TIP3    H126226   3.838   0.179  17.692
  677TIP3    H226227   3.799   0.061  17.806
  678TIP3   OH226228   3.979   0.193  17.444
  678TIP3    H126229   3.877   0.236  17.410
  678TIP3    H226230   3.962   0.079  17.425
  679TIP3   OH226231   2.414   1.978  17.341
  679TIP3    H126232   2.410   1.930  17.254
  679TIP3    H226233   2.428   2.092  17.321
  680TIP3   OH226234   3.259   0.329  17.337
  680TIP3    H126235   3.335   0.278  17.398
  680TIP3    H226236   3.258   0.438  17.372
  681TIP3   OH226237   2.542   0.130  18.671
  681TIP3    H126238   2.562   0.032  18.622
  681TIP3    H226239   2.646   0.150  18.712
  682TIP3   OH226240   2.837   0.128  18.773
  682TIP3    H126241   2.939   0.170  18.739
  682TIP3    H226242   2.852   0.013  18.750
  683TIP3   OH226243   2.674   2.152  17.035
  683TIP3    H126244   2.626   2.190  17.119
  683TIP3    H226245   2.738   2.063  17.066
  684TIP3   OH226246   3.809   0.040  18.815
  684TIP3    H126247   3.767  -0.067  18.836
  684TIP3    H226248   3.892   0.012  18.753
  685TIP3   OH226249   4.229   1.910  18.655
  685TIP3    H126250   4.148   1.909  18.582
  685TIP3    H226251   4.212   2.016  18.692
  686TIP3   OH226252   5.951   1.200  17.671
  686TIP3    H126253   5.938   1.316  17.660
  686TIP3    H226254   5.862   1.159  17.620
  687TIP3   OH226255   5.777   1.054  18.042
  687TIP3    H126256   5.786   0.995  18.126
  687TIP3    H226257   5.742   0.966  17.983
  688TIP3   OH226258   4.888   1.088  18.179
  688TIP3    H126259   4.914   0.980  18.205
  688TIP3    H226260   4.992   1.139  18.186
  689TIP3   OH226261   5.030   1.596  17.972
  689TIP3    H126262   4.992   1.486  17.962
  689TIP3    H226263   5.136   1.584  17.927
  690TIP3   OH226264   4.624   0.775  17.542
  690TIP3    H126265   4.584   0.877  17.574
  690TIP3    H226266   4.612   0.796  17.445
  691TIP3   OH226267   4.686   1.093  17.800
  691TIP3    H126268   4.750   0.997  17.817
  691TIP3    H226269   4.766   1.172  17.773
  692TIP3   OH226270   5.778   1.382  17.979
  692TIP3    H126271   5.770   1.266  17.978
  692TIP3    H226272   5.713   1.411  18.058
  693TIP3   OH226273   6.659   0.354  18.099
  693TIP3    H126274   6.667   0.432  18.173
  693TIP3    H226275   6.727   0.407  18.033
  694TIP3   OH226276   6.061   0.739  18.098
  694TIP3    H126277   6.072   0.623  18.100
  694TIP3    H226278   6.025   0.757  18.006
  695TIP3   OH226279   5.212   0.472  17.779
  695TIP3    H126280   5.224   0.569  17.724
  695TIP3    H226281   5.158   0.401  17.715
  696TIP3   OH226282   6.110   0.500  17.661
  696TIP3    H126283   6.176   0.468  17.738
  696TIP3    H226284   6.187   0.575  17.620
  697TIP3   OH226285   4.770   0.780  17.889
  697TIP3    H126286   4.840   0.721  17.949
  697TIP3    H226287   4.813   0.748  17.802
  698TIP3   OH226288   5.376   0.967  17.836
  698TIP3    H126289   5.489   0.942  17.847
  698TIP3    H226290   5.344   0.881  17.776
  699TIP3   OH226291   6.684   0.544  18.317
  699TIP3    H126292   6.636   0.652  18.302
  699TIP3    H226293   6.680   0.535  18.414
  700TIP3   OH226294   5.056   0.377  18.209
  700TIP3    H126295   5.018   0.440  18.132
  700TIP3    H226296   4.967   0.386  18.273
  701TIP3   OH226297   5.910   1.486  17.559
  701TIP3    H126298   5.879   1.459  17.468
  701TIP3    H226299   5.900   1.600  17.556
  702TIP3   OH226300   5.280   1.230  18.273
  702TIP3    H126301   5.206   1.307  18.313
  702TIP3    H226302   5.362   1.312  18.247
  703TIP3   OH226303   6.348   0.466  17.831
  703TIP3    H126304   6.318   0.424  17.919
  703TIP3    H226305   6.450   0.514  17.853
  704TIP3   OH226306   5.041   0.590  17.999
  704TIP3    H126307   5.114   0.672  18.034
  704TIP3    H226308   5.099   0.556  17.917
  705TIP3   OH226309   5.152   1.526  18.313
  705TIP3    H126310   5.140   1.586  18.230
  705TIP3    H226311   5.044   1.531  18.352
  706TIP3   OH226312   4.638   1.468  17.383
  706TIP3    H126313   4.673   1.541  17.314
  706TIP3    H226314   4.696   1.511  17.460
  707TIP3   OH226315   6.348   1.693  18.084
  707TIP3    H126316   6.230   1.698  18.094
  707TIP3    H226317   6.358   1.763  18.007
  708TIP3   OH226318   6.380   0.230  18.208
  708TIP3    H126319   6.295   0.265  18.147
  708TIP3    H226320   6.473   0.233  18.148
  709TIP3   OH226321   5.555   0.110  17.891
  709TIP3    H126322   5.554   0.001  17.929
  709TIP3    H226323   5.484   0.166  17.955
  710TIP3   OH226324   6.151   1.890  17.716
  710TIP3    H126325   6.164   1.794  17.661
  710TIP3    H226326   6.166   1.975  17.652
  711TIP3   OH226327   6.458   1.490  18.448
  711TIP3    H126328   6.470   1.400  18.384
  711TIP3    H226329   6.475   1.582  18.388
  712TIP3   OH226330   5.778   1.033  17.364
  712TIP3    H126331   5.720   1.135  17.367
  712TIP3    H226332   5.879   1.068  17.324
  713TIP3   OH226333   5.876   0.904  17.118
  713TIP3    H126334   5.977   0.944  17.156
  713TIP3    H226335   5.916   0.857  17.036
  714TIP3   OH226336   6.712   1.062  18.244
  714TIP3    H126337   6.623   1.138  18.231
  714TIP3    H226338   6.781   1.102  18.171
  715TIP3   OH226339   6.218   0.882  18.428
  715TIP3    H126340   6.196   0.988  18.464
  715TIP3    H226341   6.148   0.882  18.349
  716TIP3   OH226342   5.190   1.186  17.690
  716TIP3    H126343   5.177   1.164  17.595
  716TIP3    H226344   5.268   1.104  17.716
  717TIP3   OH226345   5.346   1.610  17.913
  717TIP3    H126346   5.401   1.548  17.843
  717TIP3    H226347   5.404   1.573  17.993
  718TIP3   OH226348   5.207   1.045  18.066
  718TIP3    H126349   5.275   1.042  17.985
  718TIP3    H226350   5.256   1.132  18.117
  719TIP3   OH226351   6.019   1.724  18.118
  719TIP3    H126352   5.984   1.788  18.195
  719TIP3    H226353   5.983   1.616  18.145
  720TIP3   OH226354   5.388   1.568  18.506
  720TIP3    H126355   5.298   1.625  18.548
  720TIP3    H226356   5.346   1.548  18.415
  721TIP3   OH226357   6.119   1.068  17.286
  721TIP3    H126358   6.148   1.156  17.347
  721TIP3    H226359   6.194   1.094  17.212
  722TIP3   OH226360   5.032   1.055  18.454
  722TIP3    H126361   5.050   1.170  18.459
  722TIP3    H226362   4.934   1.048  18.508
  723TIP3   OH226363   5.159   1.780  18.606
  723TIP3    H126364   5.137   1.828  18.517
  723TIP3    H226365   5.050   1.764  18.638
  724TIP3   OH226366   6.553   0.110  17.315
  724TIP3    H126367   6.476   0.126  17.241
  724TIP3    H226368   6.641   0.174  17.278
  725TIP3   OH226369   5.117   1.060  17.437
  725TIP3    H126370   5.041   1.145  17.409
  725TIP3    H226371   5.045   0.967  17.439
  726TIP3   OH226372   4.603   1.398  18.344
  726TIP3    H126373   4.536   1.392  18.265
  726TIP3    H226374   4.664   1.297  18.336
  727TIP3   OH226375   4.610   1.708  17.996
  727TIP3    H126376   4.724   1.687  18.002
  727TIP3    H226377   4.598   1.787  18.065
  728TIP3   OH226378   6.796   1.774  18.607
  728TIP3    H126379   6.768   1.663  18.585
  728TIP3    H226380   6.689   1.812  18.635
  729TIP3   OH226381   5.696   1.690  18.517
  729TIP3    H126382   5.681   1.806  18.513
  729TIP3    H226383   5.585   1.655  18.505
  730TIP3   OH226384   6.054   2.077  17.145
  730TIP3    H126385   6.113   1.981  17.124
  730TIP3    H226386   6.109   2.117  17.223
  731TIP3   OH226387   6.395   0.738  18.644
  731TIP3    H126388   6.346   0.781  18.564
  731TIP3    H226389   6.403   0.625  18.619
  732TIP3   OH226390   4.871   1.540  18.437
  732TIP3    H126391   4.891   1.496  18.527
  732TIP3    H226392   4.763   1.499  18.417
  733TIP3   OH226393   5.272   0.246  18.036
  733TIP3    H126394   5.198   0.287  17.968
  733TIP3    H226395   5.228   0.302  18.114
  734TIP3   OH226396   5.710   0.205  18.420
  734TIP3    H126397   5.766   0.102  18.426
  734TIP3    H226398   5.621   0.168  18.363
  735TIP3   OH226399   6.161   0.558  18.446
  735TIP3    H126400   6.083   0.533  18.517
  735TIP3    H226401   6.191   0.667  18.468
  736TIP3   OH226402   5.699   0.506  17.152
  736TIP3    H126403   5.678   0.409  17.205
  736TIP3    H226404   5.624   0.492  17.078
  737TIP3   OH226405   5.238   0.748  18.166
  737TIP3    H126406   5.140   0.730  18.218
  737TIP3    H226407   5.230   0.862  18.144
  738TIP3   OH226408   5.240   0.752  17.646
  738TIP3    H126409   5.124   0.750  17.643
  738TIP3    H226410   5.266   0.713  17.556
  739TIP3   OH226411   5.942   0.806  17.511
  739TIP3    H126412   5.899   0.899  17.463
  739TIP3    H226413   5.992   0.745  17.441
  740TIP3   OH226414   5.747   0.862  18.667
  740TIP3    H126415   5.701   0.757  18.693
  740TIP3    H226416   5.844   0.859  18.720
  741TIP3   OH226417   6.020   0.744  17.815
  741TIP3    H126418   5.999   0.828  17.748
  741TIP3    H226419   6.032   0.652  17.755
  742TIP3   OH226420   4.944   0.761  18.290
  742TIP3    H126421   4.973   0.816  18.373
  742TIP3    H226422   4.900   0.660  18.323
  743TIP3   OH226423   5.291   0.520  17.023
  743TIP3    H126424   5.264   0.412  17.050
  743TIP3    H226425   5.304   0.502  16.926
  744TIP3   OH226426   4.574   0.413  17.729
  744TIP3    H126427   4.646   0.432  17.804
  744TIP3    H226428   4.590   0.509  17.676
  745TIP3   OH226429   5.876   0.908  18.269
  745TIP3    H126430   5.953   0.854  18.209
  745TIP3    H226431   5.832   0.818  18.320
  746TIP3   OH226432   5.564   0.478  17.718
  746TIP3    H126433   5.458   0.433  17.738
  746TIP3    H226434   5.620   0.455  17.803
  747TIP3   OH226435   4.901   0.646  17.641
  747TIP3    H126436   4.807   0.676  17.587
  747TIP3    H226437   4.954   0.559  17.590
  748TIP3   OH226438   5.276   0.650  17.395
  748TIP3    H126439   5.388   0.677  17.407
  748TIP3    H226440   5.238   0.730  17.329
  749TIP3   OH226441   6.079   0.361  18.054
  749TIP3    H126442   6.006   0.367  18.132
  749TIP3    H226443   6.020   0.295  17.991
  750TIP3   OH226444   5.142   0.815  17.197
  750TIP3    H126445   5.048   0.754  17.170
  750TIP3    H226446   5.206   0.816  17.116
  751TIP3   OH226447   6.398   2.274  18.722
  751TIP3    H126448   6.413   2.308  18.630
  751TIP3    H226449   6.506   2.285  18.758
  752TIP3   OH226450   4.938   1.356  18.669
  752TIP3    H126451   5.030   1.346  18.730
  752TIP3    H226452   4.850   1.316  18.723
  753TIP3   OH226453   5.705   0.782  17.923
  753TIP3    H126454   5.791   0.737  17.869
  753TIP3    H226455   5.668   0.688  17.970
  754TIP3   OH226456   5.059   0.356  17.561
  754TIP3    H126457   5.016   0.258  17.601
  754TIP3    H226458   5.138   0.316  17.497
  755TIP3   OH226459   5.518   0.568  18.175
  755TIP3    H126460   5.444   0.660  18.174
  755TIP3    H226461   5.609   0.610  18.225
  756TIP3   OH226462   6.478   1.303  18.234
  756TIP3    H126463   6.529   1.358  18.159
  756TIP3    H226464   6.365   1.304  18.211
  757TIP3   OH226465   6.025   0.512  17.086
  757TIP3    H126466   5.914   0.516  17.117
  757TIP3    H226467   6.082   0.566  17.157
  758TIP3   OH226468   5.821   1.378  18.518
  758TIP3    H126469   5.728   1.312  18.503
  758TIP3    H226470   5.776   1.486  18.526
  759TIP3   OH226471   6.139   0.721  17.300
  759TIP3    H126472   6.221   0.695  17.368
  759TIP3    H226473   6.157   0.836  17.291
  760TIP3   OH226474   4.994   1.283  17.902
  760TIP3    H126475   5.065   1.268  17.825
  760TIP3    H226476   5.030   1.198  17.961
  761TIP3   OH226477   4.613   1.066  18.464
  761TIP3    H126478   4.607   0.988  18.537
  761TIP3    H226479   4.547   1.014  18.395
  762TIP3   OH226480   5.476   1.030  18.653
  762TIP3    H126481   5.426   0.953  18.593
  762TIP3    H226482   5.580   0.978  18.667
  763TIP3   OH226483   6.068   1.691  18.488
  763TIP3    H126484   5.968   1.679  18.441
  763TIP3    H226485   6.032   1.724  18.577
  764TIP3   OH226486   6.718   0.736  17.334
  764TIP3    H126487   6.653   0.680  17.267
  764TIP3    H226488   6.709   0.851  17.309
  765TIP3   OH226489   6.730   1.426  18.578
  765TIP3    H126490   6.619   1.447  18.549
  765TIP3    H226491   6.784   1.416  18.491
  766TIP3   OH226492   5.443   1.462  17.629
  766TIP3    H126493   5.454   1.490  17.534
  766TIP3    H226494   5.342   1.405  17.633
  767TIP3   OH226495   5.507   1.886  18.293
  767TIP3    H126496   5.580   1.960  18.251
  767TIP3    H226497   5.530   1.784  18.249
  768TIP3   OH226498   5.924   1.426  18.240
  768TIP3    H126499   5.888   1.406  18.332
  768TIP3    H226500   5.915   1.320  18.201
  769TIP3   OH226501   6.274   1.967  18.473
  769TIP3    H126502   6.169   1.912  18.464
  769TIP3    H226503   6.272   2.035  18.393
  770TIP3   OH226504   6.764   2.148  17.221
  770TIP3    H126505   6.754   2.222  17.146
  770TIP3    H226506   6.666   2.088  17.215
  771TIP3   OH226507   4.830   0.422  18.406
  771TIP3    H126508   4.740   0.491  18.429
  771TIP3    H226509   4.783   0.316  18.416
  772TIP3   OH226510   4.789   1.829  18.249
  772TIP3    H126511   4.880   1.756  18.244
  772TIP3    H226512   4.800   1.868  18.339
  773TIP3   OH226513   4.926   1.282  17.329
  773TIP3    H126514   4.818   1.282  17.292
  773TIP3    H226515   4.973   1.366  17.272
  774TIP3   OH226516   5.904   0.416  18.302
  774TIP3    H126517   5.983   0.439  18.371
  774TIP3    H226518   5.837   0.337  18.350
  775TIP3   OH226519   5.951   0.397  17.452
  775TIP3    H126520   6.014   0.458  17.390
  775TIP3    H226521   6.018   0.407  17.533
  776TIP3   OH226522   5.604   0.619  17.465
  776TIP3    H126523   5.719   0.624  17.480
  776TIP3    H226524   5.570   0.576  17.552
  777TIP3   OH226525   5.747   0.696  18.437
  777TIP3    H126526   5.748   0.758  18.520
  777TIP3    H226527   5.766   0.584  18.462
  778TIP3   OH226528   5.723   0.226  17.563
  778TIP3    H126529   5.698   0.307  17.630
  778TIP3    H226530   5.825   0.265  17.527
  779TIP3   OH226531   5.226   0.338  17.314
  779TIP3    H126532   5.215   0.454  17.324
  779TIP3    H226533   5.342   0.325  17.322
  780TIP3   OH226534   6.451   0.460  18.503
  780TIP3    H126535   6.335   0.470  18.492
  780TIP3    H226536   6.481   0.431  18.411
  781TIP3   OH226537   6.296   0.895  17.894
  781TIP3    H126538   6.198   0.836  17.888
  781TIP3    H226539   6.367   0.823  17.946
  782TIP3   OH226540   5.017   1.534  17.177
  782TIP3    H126541   5.101   1.588  17.226
  782TIP3    H226542   5.078   1.464  17.118
  783TIP3   OH226543   4.789   0.713  17.079
  783TIP3    H126544   4.770   0.826  17.098
  783TIP3    H226545   4.800   0.716  16.982
  784TIP3   OH226546   6.403   2.012  18.028
  784TIP3    H126547   6.445   2.024  17.937
  784TIP3    H226548   6.504   2.006  18.078
  785TIP3   OH226549   4.898   0.197  17.920
  785TIP3    H126550   4.885   0.170  17.825
  785TIP3    H226551   4.892   0.089  17.958
  786TIP3   OH226552   4.774   1.709  17.522
  786TIP3    H126553   4.738   1.788  17.585
  786TIP3    H226554   4.770   1.774  17.440
  787TIP3   OH226555   4.667   2.107  18.687
  787TIP3    H126556   4.746   2.087  18.758
  787TIP3    H226557   4.636   1.998  18.662
  788TIP3   OH226558   5.257   1.970  18.827
  788TIP3    H126559   5.366   1.932  18.843
  788TIP3    H226560   5.234   1.919  18.742
  789TIP3   OH226561   6.012   1.817  18.739
  789TIP3    H126562   5.968   1.710  18.758
  789TIP3    H226563   6.116   1.807  18.786
  790TIP3   OH226564   4.639   1.343  18.808
  790TIP3    H126565   4.598   1.236  18.822
  790TIP3    H226566   4.582   1.372  18.726
  791TIP3   OH226567   5.476   1.352  18.696
  791TIP3    H126568   5.454   1.421  18.617
  791TIP3    H226569   5.488   1.244  18.659
  792TIP3   OH226570   6.148   1.322  18.483
  792TIP3    H126571   6.234   1.403  18.481
  792TIP3    H226572   6.052   1.391  18.494
  793TIP3   OH226573   4.825   0.996  18.771
  793TIP3    H126574   4.909   0.917  18.778
  793TIP3    H226575   4.846   1.067  18.847
  794TIP3   OH226576   5.400   1.038  17.240
  794TIP3    H126577   5.309   1.042  17.302
  794TIP3    H226578   5.360   1.120  17.179
  795TIP3   OH226579   5.305   0.862  18.444
  795TIP3    H126580   5.206   0.919  18.459
  795TIP3    H226581   5.360   0.935  18.383
  796TIP3   OH226582   5.890   1.213  18.814
  796TIP3    H126583   5.970   1.181  18.751
  796TIP3    H226584   5.872   1.115  18.866
  797TIP3   OH226585   5.348   0.581  18.560
  797TIP3    H126586   5.358   0.506  18.484
  797TIP3    H226587   5.352   0.682  18.507
  798TIP3   OH226588   5.329   0.407  18.342
  798TIP3    H126589   5.394   0.448  18.267
  798TIP3    H226590   5.219   0.425  18.310
  799TIP3   OH226591   5.526   1.032  18.319
  799TIP3    H126592   5.628   1.084  18.306
  799TIP3    H226593   5.452   1.111  18.282
  800TIP3   OH226594   6.047   0.742  18.833
  800TIP3    H126595   6.090   0.634  18.842
  800TIP3    H226596   6.138   0.809  18.857
  801TIP3   OH226597   6.228   1.132  18.686
  801TIP3    H126598   6.187   1.199  18.613
  801TIP3    H226599   6.340   1.121  18.658
  802TIP3   OH226600   5.132   0.696  18.743
  802TIP3    H126601   5.039   0.632  18.720
  802TIP3    H226602   5.213   0.649  18.681
  803TIP3   OH226603   5.428   0.110  18.322
  803TIP3    H126604   5.404   0.224  18.341
  803TIP3    H226605   5.328   0.080  18.278
  804TIP3   OH226606   5.600   0.581  18.751
  804TIP3    H126607   5.528   0.557  18.826
  804TIP3    H226608   5.526   0.560  18.677
  805TIP3   OH226609   5.944   0.476  18.641
  805TIP3    H126610   5.831   0.476  18.669
  805TIP3    H226611   5.992   0.415  18.714
  806TIP3   OH226612   6.178   0.360  18.845
  806TIP3    H126613   6.162   0.242  18.851
  806TIP3    H226614   6.130   0.392  18.931
  807TIP3   OH226615   4.872   0.475  18.764
  807TIP3    H126616   4.849   0.379  18.712
  807TIP3    H226617   4.871   0.433  18.857
  808TIP3   OH226618   5.447   0.083  18.610
  808TIP3    H126619   5.435  -0.034  18.616
  808TIP3    H226620   5.474   0.102  18.517
  809TIP3   OH226621   5.504   0.157  18.877
  809TIP3    H126622   5.520   0.112  18.788
  809TIP3    H226623   5.441   0.252  18.856
  810TIP3   OH226624   4.680   1.988  17.803
  810TIP3    H126625   4.602   1.903  17.808
  810TIP3    H226626   4.699   2.009  17.898
  811TIP3   OH226627   6.736   2.045  18.054
  811TIP3    H126628   6.736   2.057  18.152
  811TIP3    H226629   6.838   2.095  18.035
  812TIP3   OH226630   6.670   2.042  18.334
  812TIP3    H126631   6.620   1.937  18.315
  812TIP3    H226632   6.718   2.016  18.420
  813TIP3   OH226633   6.514   1.495  18.862
  813TIP3    H126634   6.403   1.505  18.894
  813TIP3    H226635   6.562   1.590  18.901
  814TIP3   OH226636   6.666   1.417  18.042
  814TIP3    H126637   6.756   1.340  18.041
  814TIP3    H226638   6.725   1.518  18.029
  815TIP3   OH226639   6.508   1.764  18.305
  815TIP3    H126640   6.419   1.807  18.356
  815TIP3    H226641   6.454   1.739  18.219
  816TIP3   OH226642   6.704   1.060  17.259
  816TIP3    H126643   6.644   1.103  17.185
  816TIP3    H226644   6.722   1.153  17.314
  817TIP3   OH226645   4.620   1.170  18.053
  817TIP3    H126646   4.637   1.123  17.964
  817TIP3    H226647   4.727   1.159  18.093
  818TIP3   OH226648   6.562   1.140  18.605
  818TIP3    H126649   6.620   1.038  18.617
  818TIP3    H226650   6.646   1.220  18.594
  819TIP3   OH226651   6.697   0.845  18.653
  819TIP3    H126652   6.588   0.798  18.657
  819TIP3    H226653   6.766   0.751  18.667
  820TIP3   OH226654   6.356   0.643  17.501
  820TIP3    H126655   6.407   0.535  17.504
  820TIP3    H226656   6.450   0.707  17.482
  821TIP3   OH226657   6.499   0.690  18.041
  821TIP3    H126658   6.612   0.727  18.047
  821TIP3    H226659   6.474   0.668  18.133
  822TIP3   OH226660   6.509   0.815  18.317
  822TIP3    H126661   6.403   0.841  18.352
  822TIP3    H226662   6.554   0.919  18.292
  823TIP3   OH226663   4.592   0.576  18.660
  823TIP3    H126664   4.702   0.571  18.697
  823TIP3    H226665   4.543   0.475  18.689
  824TIP3   OH226666   6.832   0.085  18.844
  824TIP3    H126667   6.929   0.070  18.790
  824TIP3    H226668   6.786   0.170  18.789
  825TIP3   OH226669   6.505   0.358  17.508
  825TIP3    H126670   6.516   0.324  17.601
  825TIP3    H226671   6.431   0.274  17.475
  826TIP3   OH226672   4.729   0.458  17.991
  826TIP3    H126673   4.777   0.349  17.984
  826TIP3    H226674   4.828   0.518  18.006
  827TIP3   OH226675   4.550   0.764  18.079
  827TIP3    H126676   4.615   0.733  18.001
  827TIP3    H226677   4.601   0.864  18.103
  828TIP3   OH226678   6.679   0.346  18.699
  828TIP3    H126679   6.583   0.414  18.701
  828TIP3    H226680   6.655   0.283  18.619
  829TIP3   OH226681   6.722   0.342  17.144
  829TIP3    H126682   6.737   0.248  17.087
  829TIP3    H226683   6.816   0.404  17.119
  830TIP3   OH226684   4.598   0.202  18.258
  830TIP3    H126685   4.525   0.208  18.336
  830TIP3    H226686   4.546   0.282  18.201
  831TIP3   OH226687   4.853   1.700  18.688
  831TIP3    H126688   4.753   1.738  18.650
  831TIP3    H226689   4.819   1.630  18.760
  832TIP3   OH226690   5.171   1.931  18.369
  832TIP3    H126691   5.219   2.014  18.313
  832TIP3    H226692   5.262   1.860  18.381
  833TIP3   OH226693   5.688   2.036  18.608
  833TIP3    H126694   5.706   1.991  18.697
  833TIP3    H226695   5.794   2.083  18.588
  834TIP3   OH226696   5.960   2.216  18.554
  834TIP3    H126697   6.047   2.144  18.531
  834TIP3    H226698   5.995   2.254  18.643
  835TIP3   OH226699   6.607   0.173  18.453
  835TIP3    H126700   6.506   0.202  18.411
  835TIP3    H226701   6.584   0.059  18.472
  836TIP3   OH226702   4.888   2.248  18.320
  836TIP3    H126703   4.799   2.322  18.306
  836TIP3    H226704   4.890   2.230  18.416
  837TIP3   OH226705   5.185   2.228  18.210
  837TIP3    H126706   5.071   2.201  18.231
  837TIP3    H226707   5.177   2.344  18.222
  838TIP3   OH226708   5.717   2.156  18.147
  838TIP3    H126709   5.658   2.242  18.102
  838TIP3    H226710   5.760   2.219  18.222
  839TIP3   OH226711   5.978   1.992  18.292
  839TIP3    H126712   5.902   2.029  18.227
  839TIP3    H226713   6.071   2.058  18.270
  840TIP3   OH226714   6.283   2.155  18.261
  840TIP3    H126715   6.304   2.269  18.251
  840TIP3    H226716   6.313   2.117  18.171
  841TIP3   OH226717   4.816   2.081  18.056
  841TIP3    H126718   4.800   2.046  18.148
  841TIP3    H226719   4.913   2.021  18.031
  842TIP3   OH226720   5.077   1.924  17.974
  842TIP3    H126721   5.038   1.813  17.964
  842TIP3    H226722   5.189   1.903  17.954
  843TIP3   OH226723   5.768   0.360  17.906
  843TIP3    H126724   5.720   0.254  17.918
  843TIP3    H226725   5.860   0.330  17.850
  844TIP3   OH226726   6.385   0.127  17.894
  844TIP3    H126727   6.476   0.185  17.853
  844TIP3    H226728   6.307   0.132  17.823
  845TIP3   OH226729   6.634   0.218  17.731
  845TIP3    H126730   6.672   0.137  17.668
  845TIP3    H226731   6.710   0.307  17.721
  846TIP3   OH226732   4.888   0.125  17.662
  846TIP3    H126733   4.817   0.140  17.589
  846TIP3    H226734   4.886   0.006  17.672
  847TIP3   OH226735   5.446   0.094  17.637
  847TIP3    H126736   5.542   0.139  17.595
  847TIP3    H226737   5.478   0.104  17.731
  848TIP3   OH226738   6.022   0.173  17.796
  848TIP3    H126739   6.066   0.174  17.707
  848TIP3    H226740   6.038   0.062  17.823
  849TIP3   OH226741   6.240   0.190  17.446
  849TIP3    H126742   6.173   0.224  17.372
  849TIP3    H226743   6.286   0.094  17.406
  850TIP3   OH226744   4.666   1.955  17.345
  850TIP3    H126745   4.606   1.966  17.262
  850TIP3    H226746   4.643   2.057  17.386
  851TIP3   OH226747   5.543   0.326  17.344
  851TIP3    H126748   5.591   0.278  17.424
  851TIP3    H226749   5.550   0.439  17.368
  852TIP3   OH226750   4.806   0.118  18.676
  852TIP3    H126751   4.813   0.008  18.643
  852TIP3    H226752   4.914   0.132  18.713
  853TIP3   OH226753   5.092   0.102  18.793
  853TIP3    H126754   5.191   0.151  18.764
  853TIP3    H226755   5.106  -0.006  18.753
  854TIP3   OH226756   4.891   2.068  17.067
  854TIP3    H126757   4.925   2.070  17.160
  854TIP3    H226758   4.990   2.094  17.022
  855TIP3   OH226759   6.108   0.054  18.845
  855TIP3    H126760   6.040  -0.035  18.867
  855TIP3    H226761   6.186  -0.005  18.793
  856TIP3   OH226762   6.517   1.924  18.635
  856TIP3    H126763   6.434   1.914  18.565
  856TIP3    H226764   6.481   2.022  18.677
  857TIP3   OH226765   8.243   1.199  17.665
  857TIP3    H126766   8.245   1.316  17.655
  857TIP3    H226767   8.165   1.171  17.597
  858TIP3   OH226768   8.093   1.044  17.997
  858TIP3    H126769   8.111   0.998  18.088
  858TIP3    H226770   7.985   1.086  18.001
  859TIP3   OH226771   7.147   1.060  18.150
  859TIP3    H126772   7.140   0.974  18.216
  859TIP3    H226773   7.255   1.097  18.169
  860TIP3   OH226774   8.532   1.453  17.878
  860TIP3    H126775   8.525   1.362  17.937
  860TIP3    H226776   8.525   1.542  17.940
  861TIP3   OH226777   7.288   1.614  17.987
  861TIP3    H126778   7.244   1.508  17.963
  861TIP3    H226779   7.400   1.592  17.969
  862TIP3   OH226780   6.889   0.832  17.558
  862TIP3    H126781   6.817   0.910  17.596
  862TIP3    H226782   6.815   0.763  17.509
  863TIP3   OH226783   6.977   1.098  17.804
  863TIP3    H126784   7.018   0.988  17.813
  863TIP3    H226785   6.995   1.128  17.713
  864TIP3   OH226786   8.197   2.126  17.841
  864TIP3    H126787   8.263   2.040  17.801
  864TIP3    H226788   8.150   2.070  17.915
  865TIP3   OH226789   7.878   1.370  18.097
  865TIP3    H126790   7.913   1.385  18.006
  865TIP3    H226791   7.979   1.394  18.144
  866TIP3   OH226792   8.920   0.412  18.103
  866TIP3    H126793   8.954   0.490  18.169
  866TIP3    H226794   8.959   0.458  18.020
  867TIP3   OH226795   7.457   0.481  17.769
  867TIP3    H126796   7.463   0.582  17.720
  867TIP3    H226797   7.420   0.407  17.700
  868TIP3   OH226798   7.046   0.782  17.891
  868TIP3    H126799   7.134   0.744  17.947
  868TIP3    H226800   7.072   0.728  17.807
  869TIP3   OH226801   7.621   0.958  17.837
  869TIP3    H126802   7.715   0.889  17.842
  869TIP3    H226803   7.547   0.882  17.794
  870TIP3   OH226804   9.023   0.538  18.342
  870TIP3    H126805   8.948   0.628  18.331
  870TIP3    H226806   8.990   0.505  18.430
  871TIP3   OH226807   7.320   0.367  18.207
  871TIP3    H126808   7.280   0.445  18.142
  871TIP3    H226809   7.234   0.368  18.275
  872TIP3   OH226810   8.173   1.519  17.578
  872TIP3    H126811   8.172   1.526  17.480
  872TIP3    H226812   8.119   1.620  17.602
  873TIP3   OH226813   7.602   1.272  18.208
  873TIP3    H126814   7.536   1.363  18.240
  873TIP3    H226815   7.693   1.327  18.166
  874TIP3   OH226816   7.312   0.605  17.995
  874TIP3    H126817   7.393   0.670  18.042
  874TIP3    H226818   7.374   0.563  17.919
  875TIP3   OH226819   7.448   1.534  18.294
  875TIP3    H126820   7.429   1.625  18.237
  875TIP3    H226821   7.345   1.529  18.342
  876TIP3   OH226822   6.958   1.472  17.355
  876TIP3    H126823   6.881   1.538  17.309
  876TIP3    H226824   7.000   1.553  17.419
  877TIP3   OH226825   8.591   1.694  18.059
  877TIP3    H126826   8.477   1.716  18.081
  877TIP3    H226827   8.621   1.801  18.027
  878TIP3   OH226828   8.668   0.204  18.227
  878TIP3    H126829   8.585   0.242  18.166
  878TIP3    H226830   8.758   0.199  18.165
  879TIP3   OH226831   7.752   0.100  17.898
  879TIP3    H126832   7.768  -0.002  17.944
  879TIP3    H226833   7.709   0.168  17.968
  880TIP3   OH226834   8.371   1.890  17.728
  880TIP3    H126835   8.402   1.782  17.700
  880TIP3    H226836   8.446   1.955  17.675
  881TIP3   OH226837   8.557   1.649  17.585
  881TIP3    H126838   8.549   1.572  17.510
  881TIP3    H226839   8.567   1.576  17.660
  882TIP3   OH226840   8.702   1.457  18.442
  882TIP3    H126841   8.718   1.384  18.365
  882TIP3    H226842   8.712   1.562  18.398
  883TIP3   OH226843   8.904   1.026  18.217
  883TIP3    H126844   8.843   1.127  18.212
  883TIP3    H226845   8.992   1.046  18.153
  884TIP3   OH226846   8.468   1.108  17.472
  884TIP3    H126847   8.389   1.134  17.540
  884TIP3    H226848   8.544   1.044  17.523
  885TIP3   OH226849   8.483   0.888  18.415
  885TIP3    H126850   8.456   0.971  18.480
  885TIP3    H226851   8.432   0.938  18.338
  886TIP3   OH226852   7.486   1.193  17.682
  886TIP3    H126853   7.445   1.150  17.597
  886TIP3    H226854   7.550   1.108  17.720
  887TIP3   OH226855   7.636   1.583  17.971
  887TIP3    H126856   7.656   1.554  17.879
  887TIP3    H226857   7.714   1.519  18.020
  888TIP3   OH226858   7.469   1.050  18.068
  888TIP3    H126859   7.520   1.039  17.980
  888TIP3    H226860   7.531   1.136  18.109
  889TIP3   OH226861   8.296   1.724  18.143
  889TIP3    H126862   8.233   1.804  18.191
  889TIP3    H226863   8.249   1.627  18.182
  890TIP3   OH226864   7.645   1.580  18.502
  890TIP3    H126865   7.560   1.634  18.552
  890TIP3    H226866   7.589   1.566  18.415
  891TIP3   OH226867   7.260   1.086  18.439
  891TIP3    H126868   7.286   1.194  18.466
  891TIP3    H226869   7.176   1.062  18.504
  892TIP3   OH226870   8.044   1.816  17.647
  892TIP3    H126871   8.122   1.865  17.707
  892TIP3    H226872   8.036   1.891  17.576
  893TIP3   OH226873   7.434   1.787  18.617
  893TIP3    H126874   7.424   1.836  18.528
  893TIP3    H226875   7.321   1.762  18.635
  894TIP3   OH226876   8.779   0.085  17.277
  894TIP3    H126877   8.688   0.146  17.309
  894TIP3    H226878   8.844   0.170  17.236
  895TIP3   OH226879   7.338   1.072  17.449
  895TIP3    H126880   7.315   1.172  17.400
  895TIP3    H226881   7.230   1.037  17.467
  896TIP3   OH226882   6.923   1.398  18.366
  896TIP3    H126883   6.883   1.372  18.279
  896TIP3    H226884   6.961   1.291  18.394
  897TIP3   OH226885   6.860   1.708  18.011
  897TIP3    H126886   6.976   1.705  18.030
  897TIP3    H226887   6.828   1.808  18.051
  898TIP3   OH226888   9.037   1.784  18.576
  898TIP3    H126889   9.030   1.670  18.572
  898TIP3    H226890   8.940   1.804  18.630
  899TIP3   OH226891   7.945   1.703  18.502
  899TIP3    H126892   7.960   1.795  18.560
  899TIP3    H226893   7.831   1.675  18.511
  900TIP3   OH226894   8.066   2.197  17.449
  900TIP3    H126895   7.986   2.120  17.475
  900TIP3    H226896   8.030   2.297  17.494
  901TIP3   OH226897   7.267   2.015  17.654
  901TIP3    H126898   7.280   1.978  17.747
  901TIP3    H226899   7.154   1.994  17.635
  902TIP3   OH226900   8.357   2.119  17.161
  902TIP3    H126901   8.436   2.054  17.114
  902TIP3    H226902   8.288   2.035  17.196
  903TIP3   OH226903   8.363   2.081  17.477
  903TIP3    H126904   8.257   2.129  17.461
  903TIP3    H226905   8.341   1.968  17.460
  904TIP3   OH226906   8.663   0.774  18.634
  904TIP3    H126907   8.590   0.791  18.558
  904TIP3    H226908   8.717   0.676  18.602
  905TIP3   OH226909   7.182   1.555  18.438
  905TIP3    H126910   7.189   1.518  18.531
  905TIP3    H226911   7.076   1.512  18.415
  906TIP3   OH226912   7.523   0.263  18.030
  906TIP3    H126913   7.438   0.287  17.967
  906TIP3    H226914   7.471   0.300  18.113
  907TIP3   OH226915   7.984   0.198  18.400
  907TIP3    H126916   8.034   0.092  18.412
  907TIP3    H226917   7.894   0.166  18.343
  908TIP3   OH226918   8.425   0.562  18.443
  908TIP3    H126919   8.345   0.540  18.512
  908TIP3    H226920   8.437   0.677  18.450
  909TIP3   OH226921   7.501   0.760  18.162
  909TIP3    H126922   7.405   0.748  18.218
  909TIP3    H226923   7.487   0.871  18.132
  910TIP3   OH226924   7.482   0.778  17.660
  910TIP3    H126925   7.364   0.766  17.653
  910TIP3    H226926   7.513   0.787  17.568
  911TIP3   OH226927   8.008   0.856  18.659
  911TIP3    H126928   7.956   0.752  18.684
  911TIP3    H226929   8.098   0.854  18.719
  912TIP3   OH226930   7.210   0.754  18.295
  912TIP3    H126931   7.238   0.812  18.375
  912TIP3    H226932   7.159   0.659  18.330
  913TIP3   OH226933   7.621   0.503  17.018
  913TIP3    H126934   7.576   0.436  17.087
  913TIP3    H226935   7.664   0.426  16.957
  914TIP3   OH226936   6.840   0.467  17.726
  914TIP3    H126937   6.917   0.469  17.799
  914TIP3    H226938   6.902   0.432  17.650
  915TIP3   OH226939   6.994   0.506  17.313
  915TIP3    H126940   7.055   0.502  17.232
  915TIP3    H226941   6.926   0.600  17.300
  916TIP3   OH226942   8.153   0.913  18.244
  916TIP3    H126943   8.252   0.858  18.228
  916TIP3    H226944   8.094   0.836  18.301
  917TIP3   OH226945   7.177   0.678  17.633
  917TIP3    H126946   7.079   0.703  17.584
  917TIP3    H226947   7.194   0.565  17.612
  918TIP3   OH226948   8.690   2.222  18.719
  918TIP3    H126949   8.741   2.254  18.635
  918TIP3    H226950   8.777   2.246  18.781
  919TIP3   OH226951   7.188   1.373  18.679
  919TIP3    H126952   7.283   1.372  18.737
  919TIP3    H226953   7.106   1.324  18.735
  920TIP3   OH226954   7.315   0.348  17.543
  920TIP3    H126955   7.249   0.265  17.589
  920TIP3    H226956   7.387   0.281  17.492
  921TIP3   OH226957   7.777   0.576  18.181
  921TIP3    H126958   7.699   0.665  18.178
  921TIP3    H226959   7.870   0.629  18.221
  922TIP3   OH226960   7.804   1.367  17.364
  922TIP3    H126961   7.746   1.268  17.359
  922TIP3    H226962   7.789   1.397  17.459
  923TIP3   OH226963   8.722   1.286  18.221
  923TIP3    H126964   8.777   1.342  18.149
  923TIP3    H226965   8.616   1.266  18.182
  924TIP3   OH226966   8.003   1.384  18.478
  924TIP3    H126967   7.962   1.358  18.566
  924TIP3    H226968   7.980   1.499  18.477
  925TIP3   OH226969   7.248   1.312  17.889
  925TIP3    H126970   7.301   1.273  17.809
  925TIP3    H226971   7.268   1.225  17.952
  926TIP3   OH226972   8.082   1.559  17.315
  926TIP3    H126973   8.022   1.658  17.304
  926TIP3    H226974   8.003   1.474  17.310
  927TIP3   OH226975   6.898   1.079  18.474
  927TIP3    H126976   6.874   1.001  18.544
  927TIP3    H226977   6.839   1.034  18.398
  928TIP3   OH226978   7.740   1.032  18.643
  928TIP3    H126979   7.676   0.956  18.594
  928TIP3    H226980   7.848   0.982  18.642
  929TIP3   OH226981   8.335   1.657  18.495
  929TIP3    H126982   8.236   1.652  18.446
  929TIP3    H226983   8.302   1.717  18.574
  930TIP3   OH226984   9.038   0.700  17.312
  930TIP3    H126985   8.958   0.682  17.241
  930TIP3    H226986   9.091   0.791  17.272
  931TIP3   OH226987   8.971   1.418  18.573
  931TIP3    H126988   8.864   1.450  18.539
  931TIP3    H226989   9.032   1.403  18.490
  932TIP3   OH226990   8.794   1.741  17.336
  932TIP3    H126991   8.720   1.660  17.370
  932TIP3    H226992   8.797   1.714  17.242
  933TIP3   OH226993   8.464   1.176  18.048
  933TIP3    H126994   8.351   1.170  18.021
  933TIP3    H226995   8.501   1.081  17.999
  934TIP3   OH226996   7.542   1.715  17.648
  934TIP3    H126997   7.558   1.828  17.623
  934TIP3    H226998   7.429   1.702  17.631
  935TIP3   OH226999   7.693   1.427  17.610
  935TIP3    H127000   7.644   1.534  17.620
  935TIP3    H227001   7.613   1.355  17.647
  936TIP3   OH227002   7.780   1.912  18.296
  936TIP3    H127003   7.853   1.994  18.267
  936TIP3    H227004   7.841   1.855  18.365
  937TIP3   OH227005   7.570   2.026  17.556
  937TIP3    H127006   7.456   2.030  17.584
  937TIP3    H227007   7.607   2.124  17.601
  938TIP3   OH227008   8.152   1.421  18.232
  938TIP3    H127009   8.104   1.379  18.316
  938TIP3    H227010   8.244   1.352  18.220
  939TIP3   OH227011   8.549   1.954  18.456
  939TIP3    H127012   8.442   1.906  18.459
  939TIP3    H227013   8.542   2.029  18.381
  940TIP3   OH227014   7.100   0.416  18.409
  940TIP3    H127015   7.022   0.496  18.440
  940TIP3    H227016   7.054   0.316  18.436
  941TIP3   OH227017   8.602   1.456  17.363
  941TIP3    H127018   8.534   1.364  17.337
  941TIP3    H227019   8.708   1.406  17.360
  942TIP3   OH227020   7.061   1.858  18.246
  942TIP3    H127021   7.132   1.766  18.258
  942TIP3    H227022   7.087   1.918  18.325
  943TIP3   OH227023   7.655   1.636  17.230
  943TIP3    H127024   7.710   1.559  17.287
  943TIP3    H227025   7.661   1.735  17.280
  944TIP3   OH227026   7.235   1.303  17.281
  944TIP3    H127027   7.135   1.361  17.309
  944TIP3    H227028   7.273   1.378  17.213
  945TIP3   OH227029   8.171   0.427  18.300
  945TIP3    H127030   8.249   0.415  18.372
  945TIP3    H227031   8.104   0.335  18.319
  946TIP3   OH227032   7.978   1.882  17.304
  946TIP3    H127033   7.865   1.914  17.316
  946TIP3    H227034   7.988   1.891  17.206
  947TIP3   OH227035   8.000   0.715  18.412
  947TIP3    H127036   8.012   0.766  18.501
  947TIP3    H227037   8.042   0.606  18.423
  948TIP3   OH227038   7.674   1.969  17.311
  948TIP3    H127039   7.586   2.021  17.265
  948TIP3    H227040   7.634   1.979  17.404
  949TIP3   OH227041   7.508   0.356  17.244
  949TIP3    H127042   7.488   0.440  17.309
  949TIP3    H227043   7.604   0.308  17.281
  950TIP3   OH227044   8.714   0.461  18.489
  950TIP3    H127045   8.604   0.497  18.474
  950TIP3    H227046   8.729   0.394  18.411
  951TIP3   OH227047   8.494   0.882  17.909
  951TIP3    H127048   8.431   0.796  17.872
  951TIP3    H227049   8.579   0.823  17.957
  952TIP3   OH227050   8.704   2.009  18.054
  952TIP3    H127051   8.706   2.089  17.982
  952TIP3    H227052   8.816   2.011  18.082
  953TIP3   OH227053   7.144   0.173  17.964
  953TIP3    H127054   7.138   0.148  17.869
  953TIP3    H227055   7.157   0.061  17.995
  954TIP3   OH227056   7.038   1.723  17.497
  954TIP3    H127057   7.002   1.741  17.588
  954TIP3    H227058   7.036   1.830  17.458
  955TIP3   OH227059   6.935   2.102  18.692
  955TIP3    H127060   7.013   2.092  18.764
  955TIP3    H227061   6.908   1.990  18.675
  956TIP3   OH227062   7.530   1.979  18.831
  956TIP3    H127063   7.627   1.921  18.859
  956TIP3    H227064   7.506   1.924  18.748
  957TIP3   OH227065   8.011   1.873  17.041
  957TIP3    H127066   7.924   1.835  16.986
  957TIP3    H227067   8.106   1.828  16.998
  958TIP3   OH227068   8.269   1.801  18.738
  958TIP3    H127069   8.232   1.694  18.767
  958TIP3    H227070   8.374   1.804  18.783
  959TIP3   OH227071   6.896   1.357  18.799
  959TIP3    H127072   6.860   1.246  18.792
  959TIP3    H227073   6.853   1.399  18.714
  960TIP3   OH227074   7.722   1.348  18.677
  960TIP3    H127075   7.702   1.414  18.597
  960TIP3    H227076   7.709   1.236  18.644
  961TIP3   OH227077   8.419   1.298  18.485
  961TIP3    H127078   8.530   1.343  18.483
  961TIP3    H227079   8.366   1.396  18.515
  962TIP3   OH227080   7.098   1.002  18.747
  962TIP3    H127081   7.151   0.901  18.766
  962TIP3    H227082   7.128   1.068  18.824
  963TIP3   OH227083   7.496   0.878  18.428
  963TIP3    H127084   7.408   0.955  18.428
  963TIP3    H227085   7.579   0.938  18.381
  964TIP3   OH227086   8.130   1.214  18.804
  964TIP3    H127087   8.218   1.169  18.752
  964TIP3    H227088   8.095   1.117  18.849
  965TIP3   OH227089   7.603   0.616  18.549
  965TIP3    H127090   7.621   0.538  18.478
  965TIP3    H227091   7.592   0.714  18.495
  966TIP3   OH227092   7.596   0.406  18.347
  966TIP3    H127093   7.669   0.456  18.283
  966TIP3    H227094   7.494   0.410  18.299
  967TIP3   OH227095   7.778   1.037  18.319
  967TIP3    H127096   7.889   1.070  18.319
  967TIP3    H227097   7.722   1.133  18.286
  968TIP3   OH227098   8.342   0.726  18.843
  968TIP3    H127099   8.390   0.623  18.831
  968TIP3    H227100   8.432   0.799  18.850
  969TIP3   OH227101   8.453   1.105  18.695
  969TIP3    H127102   8.423   1.171  18.617
  969TIP3    H227103   8.561   1.069  18.672
  970TIP3   OH227104   7.393   0.708  18.754
  970TIP3    H127105   7.291   0.652  18.738
  970TIP3    H227106   7.463   0.662  18.683
  971TIP3   OH227107   7.686   0.109  18.321
  971TIP3    H127108   7.668   0.226  18.334
  971TIP3    H227109   7.577   0.074  18.303
  972TIP3   OH227110   7.860   0.589  18.749
  972TIP3    H127111   7.793   0.566  18.826
  972TIP3    H227112   7.784   0.565  18.678
  973TIP3   OH227113   8.225   0.488  18.637
  973TIP3    H127114   8.116   0.458  18.655
  973TIP3    H227115   8.285   0.420  18.699
  974TIP3   OH227116   8.411   0.348  18.852
  974TIP3    H127117   8.395   0.230  18.866
  974TIP3    H227118   8.371   0.385  18.940
  975TIP3   OH227119   7.145   0.496  18.759
  975TIP3    H127120   7.148   0.402  18.703
  975TIP3    H227121   7.134   0.448  18.849
  976TIP3   OH227122   7.708   0.084  18.606
  976TIP3    H127123   7.692  -0.032  18.610
  976TIP3    H227124   7.740   0.101  18.513
  977TIP3   OH227125   7.778   0.150  18.875
  977TIP3    H127126   7.777   0.119  18.781
  977TIP3    H227127   7.727   0.254  18.871
  978TIP3   OH227128   6.928   1.962  17.794
  978TIP3    H127129   6.845   1.898  17.836
  978TIP3    H227130   6.990   1.998  17.871
  979TIP3   OH227131   9.038   2.057  18.126
  979TIP3    H127132   9.050   2.020  18.217
  979TIP3    H227133   9.019   2.172  18.143
  980TIP3   OH227134   8.946   2.004  18.390
  980TIP3    H127135   8.881   1.922  18.343
  980TIP3    H227136   8.995   1.932  18.456
  981TIP3   OH227137   8.772   1.502  18.887
  981TIP3    H127138   8.669   1.519  18.931
  981TIP3    H227139   8.813   1.612  18.885
  982TIP3   OH227140   8.921   1.332  17.392
  982TIP3    H127141   9.031   1.368  17.402
  982TIP3    H227142   8.917   1.242  17.454
  983TIP3   OH227143   8.950   1.097  17.593
  983TIP3    H127144   8.846   1.043  17.607
  983TIP3    H227145   8.995   1.093  17.682
  984TIP3   OH227146   8.965   1.398  18.071
  984TIP3    H127147   9.078   1.409  18.050
  984TIP3    H227148   8.939   1.512  18.053
  985TIP3   OH227149   8.756   1.751  18.314
  985TIP3    H127150   8.665   1.799  18.360
  985TIP3    H227151   8.716   1.736  18.223
  986TIP3   OH227152   8.868   0.713  17.089
  986TIP3    H127153   8.882   0.816  17.041
  986TIP3    H227154   8.858   0.640  17.016
  987TIP3   OH227155   8.680   0.924  17.644
  987TIP3    H127156   8.674   0.823  17.593
  987TIP3    H227157   8.668   0.893  17.738
  988TIP3   OH227158   6.892   1.183  18.048
  988TIP3    H127159   6.896   1.152  17.954
  988TIP3    H227160   6.998   1.140  18.073
  989TIP3   OH227161   8.800   1.144  18.610
  989TIP3    H127162   8.881   1.064  18.587
  989TIP3    H227163   8.860   1.244  18.604
  990TIP3   OH227164   8.975   0.880  18.633
  990TIP3    H127165   8.858   0.884  18.651
  990TIP3    H227166   8.999   0.772  18.668
  991TIP3   OH227167   8.698   0.656  17.479
  991TIP3    H127168   8.719   0.544  17.503
  991TIP3    H227169   8.779   0.678  17.413
  992TIP3   OH227170   8.693   0.696  18.037
  992TIP3    H127171   8.804   0.696  18.005
  992TIP3    H227172   8.712   0.673  18.131
  993TIP3   OH227173   8.780   0.754  18.306
  993TIP3    H127174   8.675   0.778  18.342
  993TIP3    H227175   8.814   0.860  18.274
  994TIP3   OH227176   6.878   0.586  18.642
  994TIP3    H127177   6.978   0.574  18.694
  994TIP3    H227178   6.816   0.492  18.671
  995TIP3   OH227179   9.091   0.107  18.861
  995TIP3    H127180   9.191   0.101  18.812
  995TIP3    H227181   9.023   0.166  18.798
  996TIP3   OH227182   8.762   0.332  17.521
  996TIP3    H127183   8.791   0.254  17.590
  996TIP3    H227184   8.662   0.287  17.487
  997TIP3   OH227185   7.001   0.461  17.998
  997TIP3    H127186   7.018   0.346  18.010
  997TIP3    H227187   7.111   0.498  17.988
  998TIP3   OH227188   6.800   0.792  18.061
  998TIP3    H127189   6.880   0.762  17.992
  998TIP3    H227190   6.866   0.857  18.118
  999TIP3   OH227191   8.930   0.311  18.700
  999TIP3    H127192   8.836   0.366  18.738
  999TIP3    H227193   8.887   0.278  18.613
 1000TIP3   OH227194   8.952   0.301  17.144
 1000TIP3    H127195   9.029   0.256  17.083
 1000TIP3    H227196   8.957   0.413  17.122
 1001TIP3   OH227197   6.869   0.244  17.467
 1001TIP3    H127198   6.754   0.251  17.457
 1001TIP3    H227199   6.901   0.323  17.399
 1002TIP3   OH227200   8.647   2.077  17.669
 1002TIP3    H127201   8.690   1.975  17.638
 1002TIP3    H227202   8.716   2.096  17.747
 1003TIP3   OH227203   6.854   0.185  18.275
 1003TIP3    H127204   6.778   0.202  18.347
 1003TIP3    H227205   6.816   0.264  18.210
 1004TIP3   OH227206   7.117   1.721  18.686
 1004TIP3    H127207   7.012   1.747  18.650
 1004TIP3    H227208   7.093   1.658  18.764
 1005TIP3   OH227209   7.466   1.907  18.361
 1005TIP3    H127210   7.469   2.012  18.318
 1005TIP3    H227211   7.579   1.877  18.353
 1006TIP3   OH227212   7.952   2.029  18.603
 1006TIP3    H127213   7.967   1.998  18.696
 1006TIP3    H227214   8.058   2.074  18.583
 1007TIP3   OH227215   8.228   2.210  18.563
 1007TIP3    H127216   8.323   2.176  18.517
 1007TIP3    H227217   8.270   2.254  18.647
 1008TIP3   OH227218   8.836   0.154  18.487
 1008TIP3    H127219   8.740   0.170  18.433
 1008TIP3    H227220   8.836   0.037  18.499
 1009TIP3   OH227221   7.144   2.256  18.321
 1009TIP3    H127222   7.046   2.316  18.296
 1009TIP3    H227223   7.134   2.256  18.418
 1010TIP3   OH227224   7.433   2.201  18.225
 1010TIP3    H127225   7.322   2.215  18.259
 1010TIP3    H227226   7.435   2.284  18.156
 1011TIP3   OH227227   8.006   2.155  18.150
 1011TIP3    H127228   7.921   2.195  18.094
 1011TIP3    H227229   8.022   2.246  18.211
 1012TIP3   OH227230   8.233   2.000  18.297
 1012TIP3    H127231   8.152   2.050  18.240
 1012TIP3    H227232   8.327   2.060  18.269
 1013TIP3   OH227233   8.554   2.167  18.260
 1013TIP3    H127234   8.564   2.281  18.246
 1013TIP3    H227235   8.606   2.124  18.179
 1014TIP3   OH227236   7.086   2.056  18.015
 1014TIP3    H127237   7.069   1.985  18.093
 1014TIP3    H227238   7.198   2.023  17.992
 1015TIP3   OH227239   7.357   1.945  17.909
 1015TIP3    H127240   7.342   1.831  17.929
 1015TIP3    H227241   7.468   1.958  17.942
 1016TIP3   OH227242   7.639   1.930  18.031
 1016TIP3    H127243   7.679   1.820  18.017
 1016TIP3    H227244   7.651   1.940  18.127
 1017TIP3   OH227245   8.638   0.156  17.903
 1017TIP3    H127246   8.718   0.152  17.832
 1017TIP3    H227247   8.543   0.196  17.857
 1018TIP3   OH227248   8.884   0.130  17.699
 1018TIP3    H127249   8.956   0.041  17.678
 1018TIP3    H227250   8.962   0.216  17.713
 1019TIP3   OH227251   7.109   0.156  17.660
 1019TIP3    H127252   7.033   0.178  17.586
 1019TIP3    H227253   7.115   0.038  17.659
 1020TIP3   OH227254   6.874   0.046  17.213
 1020TIP3    H127255   6.986   0.038  17.190
 1020TIP3    H227256   6.877   0.084  17.305
 1021TIP3   OH227257   7.723   0.146  17.638
 1021TIP3    H127258   7.816   0.204  17.606
 1021TIP3    H227259   7.741   0.146  17.736
 1022TIP3   OH227260   8.342   0.172  17.764
 1022TIP3    H127261   8.324   0.160  17.668
 1022TIP3    H227262   8.329   0.061  17.794
 1023TIP3   OH227263   8.507   0.216  17.396
 1023TIP3    H127264   8.400   0.254  17.374
 1023TIP3    H227265   8.488   0.098  17.396
 1024TIP3   OH227266   7.019   2.051  17.385
 1024TIP3    H127267   6.916   2.039  17.338
 1024TIP3    H227268   7.075   2.119  17.322
 1025TIP3   OH227269   7.208   0.217  17.177
 1025TIP3    H127270   7.207   0.106  17.142
 1025TIP3    H227271   7.322   0.239  17.185
 1026TIP3   OH227272   8.839   2.046  17.416
 1026TIP3    H127273   8.830   1.927  17.406
 1026TIP3    H227274   8.856   2.069  17.321
 1027TIP3   OH227275   7.066   0.112  18.668
 1027TIP3    H127276   7.085   0.002  18.636
 1027TIP3    H227277   7.171   0.137  18.706
 1028TIP3   OH227278   7.362   0.124  18.772
 1028TIP3    H127279   7.466   0.164  18.746
 1028TIP3    H227280   7.378   0.011  18.741
 1029TIP3   OH227281   8.369   0.037  18.842
 1029TIP3    H127282   8.322  -0.068  18.830
 1029TIP3    H227283   8.456   0.028  18.780
 1030TIP3   OH227284   8.744   1.854  18.647
 1030TIP3    H127285   8.672   1.879  18.572
 1030TIP3    H227286   8.759   1.958  18.685
 1031TIP3   OH227287   9.077   0.796  17.562
 1031TIP3    H127288   9.031   0.900  17.538
 1031TIP3    H227289   9.062   0.736  17.478
 1032TIP3   OH227290   9.102   1.338  18.325
 1032TIP3    H127291   9.025   1.330  18.252
 1032TIP3    H227292   9.103   1.228  18.361
 1033TIP3   OH227293   9.058   1.692  18.019
 1033TIP3    H127294   9.176   1.691  18.013
 1033TIP3    H227295   9.043   1.794  18.064
 1034TIP3   OH227296   9.076   0.391  17.743
 1034TIP3    H127297   9.163   0.446  17.787
 1034TIP3    H227298   9.124   0.372  17.655
 1035TIP3   OH227299   9.100   1.048  18.435
 1035TIP3    H127300   9.079   0.972  18.509
 1035TIP3    H227301   9.016   1.014  18.371
 1036TIP3   OH227302   9.154   1.278  18.754
 1036TIP3    H127303   9.094   1.189  18.790
 1036TIP3    H227304   9.077   1.331  18.693
 1037TIP3   OH227305   9.038   2.190  17.599
 1037TIP3    H127306   8.987   2.122  17.532
 1037TIP3    H227307   9.064   2.108  17.666
 1038TIP3   OH227308   9.037   1.952  17.788
 1038TIP3    H127309   9.030   1.836  17.796
 1038TIP3    H227310   9.137   1.973  17.839
 1039TIP3   OH227311   9.157   1.094  18.065
 1039TIP3    H127312   9.120   1.136  17.980
 1039TIP3    H227313   9.247   1.170  18.079
 1040TIP3   OH227314   9.042   0.599  18.737
 1040TIP3    H127315   9.155   0.622  18.754
 1040TIP3    H227316   9.036   0.481  18.731
 1041TIP3   OH227317   9.014   0.742  17.997
 1041TIP3    H127318   9.120   0.710  17.967
 1041TIP3    H227319   9.043   0.802  18.076
 1042TIP3   OH227320   9.115   0.278  17.475
 1042TIP3    H127321   9.002   0.259  17.459
 1042TIP3    H227322   9.143   0.332  17.394
 1043TIP3   OH227323   9.025   0.178  18.285
 1043TIP3    H127324   8.954   0.196  18.362
 1043TIP3    H227325   8.988   0.262  18.223
 1044TIP3   OH227326   1.430   3.444  17.650
 1044TIP3    H127327   1.418   3.560  17.655
 1044TIP3    H227328   1.355   3.420  17.577
 1045TIP3   OH227329   1.309   3.329  18.008
 1045TIP3    H127330   1.331   3.296  18.101
 1045TIP3    H227331   1.238   3.239  17.983
 1046TIP3   OH227332   0.406   3.308  18.177
 1046TIP3    H127333   0.368   3.212  18.225
 1046TIP3    H227334   0.491   3.344  18.236
 1047TIP3   OH227335   1.721   3.640  17.843
 1047TIP3    H127336   1.612   3.600  17.853
 1047TIP3    H227337   1.703   3.746  17.882
 1048TIP3   OH227338   0.445   3.869  17.981
 1048TIP3    H127339   0.416   3.756  17.965
 1048TIP3    H227340   0.560   3.852  17.980
 1049TIP3   OH227341   0.166   3.143  17.525
 1049TIP3    H127342   0.128   3.188  17.609
 1049TIP3    H227343   0.077   3.071  17.503
 1050TIP3   OH227344   0.148   3.343  17.804
 1050TIP3    H127345   0.216   3.248  17.825
 1050TIP3    H227346   0.222   3.412  17.757
 1051TIP3   OH227347   1.428   4.352  17.822
 1051TIP3    H127348   1.496   4.272  17.778
 1051TIP3    H227349   1.376   4.285  17.887
 1052TIP3   OH227350   1.100   3.661  18.068
 1052TIP3    H127351   1.159   3.625  17.989
 1052TIP3    H227352   1.194   3.679  18.127
 1053TIP3   OH227353   2.135   2.614  18.101
 1053TIP3    H127354   2.134   2.688  18.178
 1053TIP3    H227355   2.234   2.648  18.057
 1054TIP3   OH227356   1.550   2.981  18.098
 1054TIP3    H127357   1.555   2.866  18.112
 1054TIP3    H227358   1.496   2.982  18.012
 1055TIP3   OH227359   0.673   2.726  17.772
 1055TIP3    H127360   0.707   2.836  17.745
 1055TIP3    H227361   0.654   2.683  17.684
 1056TIP3   OH227362   1.579   2.760  17.665
 1056TIP3    H127363   1.644   2.720  17.742
 1056TIP3    H227364   1.651   2.842  17.631
 1057TIP3   OH227365   0.308   3.055  17.853
 1057TIP3    H127366   0.376   2.984  17.909
 1057TIP3    H227367   0.322   2.999  17.767
 1058TIP3   OH227368   0.842   3.252  17.830
 1058TIP3    H127369   0.940   3.197  17.857
 1058TIP3    H227370   0.806   3.176  17.760
 1059TIP3   OH227371   2.144   2.789  18.332
 1059TIP3    H127372   2.105   2.892  18.295
 1059TIP3    H227373   2.186   2.827  18.416
 1060TIP3   OH227374   0.571   2.602  18.189
 1060TIP3    H127375   0.526   2.677  18.124
 1060TIP3    H227376   0.508   2.630  18.267
 1061TIP3   OH227377   1.424   3.769  17.530
 1061TIP3    H127378   1.388   3.776  17.437
 1061TIP3    H227379   1.370   3.862  17.569
 1062TIP3   OH227380   0.838   3.533  18.215
 1062TIP3    H127381   0.762   3.617  18.244
 1062TIP3    H227382   0.911   3.595  18.158
 1063TIP3   OH227383   1.807   2.716  17.848
 1063TIP3    H127384   1.818   2.617  17.898
 1063TIP3    H227385   1.906   2.772  17.872
 1064TIP3   OH227386   0.488   2.852  17.995
 1064TIP3    H127387   0.556   2.924  18.052
 1064TIP3    H227388   0.566   2.807  17.934
 1065TIP3   OH227389   0.665   3.805  18.283
 1065TIP3    H127390   0.676   3.898  18.225
 1065TIP3    H227391   0.553   3.816  18.313
 1066TIP3   OH227392   0.106   3.728  17.405
 1066TIP3    H127393   0.172   3.695  17.332
 1066TIP3    H227394   0.181   3.782  17.463
 1067TIP3   OH227395   1.846   3.935  18.098
 1067TIP3    H127396   1.738   3.905  18.068
 1067TIP3    H227397   1.856   4.030  18.042
 1068TIP3   OH227398   1.793   2.554  18.172
 1068TIP3    H127399   1.704   2.579  18.111
 1068TIP3    H227400   1.885   2.588  18.119
 1069TIP3   OH227401   0.928   2.282  17.952
 1069TIP3    H127402   0.901   2.170  17.966
 1069TIP3    H227403   0.859   2.335  18.017
 1070TIP3   OH227404   1.606   4.145  17.679
 1070TIP3    H127405   1.651   4.038  17.667
 1070TIP3    H227406   1.702   4.214  17.676
 1071TIP3   OH227407   1.768   3.875  17.588
 1071TIP3    H127408   1.664   3.823  17.573
 1071TIP3    H227409   1.804   3.812  17.665
 1072TIP3   OH227410   1.936   3.738  18.438
 1072TIP3    H127411   1.948   3.648  18.374
 1072TIP3    H227412   1.939   3.828  18.376
 1073TIP3   OH227413   1.267   3.371  17.419
 1073TIP3    H127414   1.200   3.434  17.359
 1073TIP3    H227415   1.356   3.343  17.359
 1074TIP3   OH227416   1.274   3.114  17.135
 1074TIP3    H127417   1.368   3.067  17.174
 1074TIP3    H227418   1.223   3.024  17.091
 1075TIP3   OH227419   2.179   3.313  18.218
 1075TIP3    H127420   2.099   3.396  18.237
 1075TIP3    H227421   2.234   3.362  18.143
 1076TIP3   OH227422   1.739   3.415  17.520
 1076TIP3    H127423   1.649   3.434  17.581
 1076TIP3    H227424   1.807   3.349  17.579
 1077TIP3   OH227425   1.702   3.179  18.411
 1077TIP3    H127426   1.663   3.280  18.444
 1077TIP3    H227427   1.636   3.170  18.332
 1078TIP3   OH227428   0.664   3.472  17.703
 1078TIP3    H127429   0.636   3.408  17.623
 1078TIP3    H227430   0.728   3.394  17.754
 1079TIP3   OH227431   0.852   3.826  17.975
 1079TIP3    H127432   0.889   3.833  17.883
 1079TIP3    H227433   0.943   3.768  18.016
 1080TIP3   OH227434   0.743   3.286  18.075
 1080TIP3    H127435   0.790   3.298  17.985
 1080TIP3    H227436   0.776   3.382  18.124
 1081TIP3   OH227437   1.327   3.991  18.250
 1081TIP3    H127438   1.368   4.099  18.251
 1081TIP3    H227439   1.381   3.948  18.170
 1082TIP3   OH227440   0.848   3.838  18.507
 1082TIP3    H127441   0.761   3.895  18.553
 1082TIP3    H227442   0.797   3.821  18.421
 1083TIP3   OH227443   1.556   3.320  17.299
 1083TIP3    H127444   1.624   3.348  17.378
 1083TIP3    H227445   1.604   3.374  17.225
 1084TIP3   OH227446   0.535   3.385  18.423
 1084TIP3    H127447   0.526   3.473  18.489
 1084TIP3    H227448   0.427   3.340  18.427
 1085TIP3   OH227449   1.220   4.098  17.630
 1085TIP3    H127450   1.304   4.116  17.694
 1085TIP3    H227451   1.232   4.184  17.568
 1086TIP3   OH227452   0.623   4.045  18.612
 1086TIP3    H127453   0.610   4.086  18.521
 1086TIP3    H227454   0.511   4.042  18.642
 1087TIP3   OH227455   2.039   2.270  17.301
 1087TIP3    H127456   1.922   2.275  17.310
 1087TIP3    H227457   2.058   2.353  17.235
 1088TIP3   OH227458   0.540   3.311  17.489
 1088TIP3    H127459   0.479   3.397  17.451
 1088TIP3    H227460   0.480   3.215  17.466
 1089TIP3   OH227461   0.196   3.606  18.357
 1089TIP3    H127462   0.078   3.606  18.345
 1089TIP3    H227463   0.226   3.498  18.330
 1090TIP3   OH227464   0.158   4.019  17.987
 1090TIP3    H127465   0.256   3.953  17.991
 1090TIP3    H227466   0.167   4.074  18.073
 1091TIP3   OH227467   2.244   4.044  18.589
 1091TIP3    H127468   2.214   3.940  18.556
 1091TIP3    H227469   2.140   4.072  18.631
 1092TIP3   OH227470   1.146   3.982  18.514
 1092TIP3    H127471   1.140   4.098  18.510
 1092TIP3    H227472   1.033   3.946  18.507
 1093TIP3   OH227473   1.228   4.450  17.420
 1093TIP3    H127474   1.240   4.457  17.322
 1093TIP3    H227475   1.240   4.559  17.451
 1094TIP3   OH227476   0.492   4.289  17.649
 1094TIP3    H127477   0.532   4.265  17.739
 1094TIP3    H227478   0.377   4.282  17.666
 1095TIP3   OH227479   1.544   4.327  17.458
 1095TIP3    H127480   1.429   4.348  17.449
 1095TIP3    H227481   1.547   4.254  17.535
 1096TIP3   OH227482   1.884   3.006  18.627
 1096TIP3    H127483   1.816   3.055  18.558
 1096TIP3    H227484   1.873   2.893  18.604
 1097TIP3   OH227485   0.374   3.844  18.416
 1097TIP3    H127486   0.398   3.788  18.500
 1097TIP3    H227487   0.298   3.764  18.381
 1098TIP3   OH227488   1.274   2.356  18.338
 1098TIP3    H127489   1.312   2.305  18.421
 1098TIP3    H227490   1.157   2.358  18.348
 1099TIP3   OH227491   1.609   2.856  18.492
 1099TIP3    H127492   1.540   2.796  18.553
 1099TIP3    H227493   1.562   2.963  18.496
 1100TIP3   OH227494   1.175   2.723  17.176
 1100TIP3    H127495   1.171   2.622  17.224
 1100TIP3    H227496   1.196   2.683  17.086
 1101TIP3   OH227497   0.708   2.984  18.154
 1101TIP3    H127498   0.617   3.005  18.214
 1101TIP3    H227499   0.727   3.096  18.125
 1102TIP3   OH227500   0.721   3.013  17.677
 1102TIP3    H127501   0.605   3.035  17.663
 1102TIP3    H227502   0.756   3.000  17.584
 1103TIP3   OH227503   1.316   3.036  17.491
 1103TIP3    H127504   1.292   3.146  17.466
 1103TIP3    H227505   1.404   3.008  17.428
 1104TIP3   OH227506   1.225   3.119  18.661
 1104TIP3    H127507   1.170   3.020  18.690
 1104TIP3    H227508   1.310   3.124  18.726
 1105TIP3   OH227509   1.462   3.028  17.822
 1105TIP3    H127510   1.469   3.125  17.769
 1105TIP3    H227511   1.463   2.945  17.753
 1106TIP3   OH227512   0.428   3.014  18.295
 1106TIP3    H127513   0.506   3.049  18.361
 1106TIP3    H227514   0.373   2.927  18.339
 1107TIP3   OH227515   0.827   2.580  17.045
 1107TIP3    H127516   0.758   2.536  17.113
 1107TIP3    H227517   0.804   2.693  17.049
 1108TIP3   OH227518   0.162   2.761  17.716
 1108TIP3    H127519   0.110   2.730  17.798
 1108TIP3    H227520   0.080   2.741  17.650
 1109TIP3   OH227521   1.367   3.186  18.243
 1109TIP3    H127522   1.440   3.112  18.200
 1109TIP3    H227523   1.310   3.115  18.307
 1110TIP3   OH227524   1.014   2.737  17.759
 1110TIP3    H127525   0.901   2.732  17.785
 1110TIP3    H227526   1.058   2.646  17.806
 1111TIP3   OH227527   0.416   2.959  17.607
 1111TIP3    H127528   0.330   2.999  17.548
 1111TIP3    H227529   0.408   2.845  17.590
 1112TIP3   OH227530   0.816   2.968  17.426
 1112TIP3    H127531   0.918   2.911  17.423
 1112TIP3    H227532   0.775   2.957  17.336
 1113TIP3   OH227533   1.528   2.645  18.047
 1113TIP3    H127534   1.445   2.618  18.113
 1113TIP3    H227535   1.513   2.564  17.979
 1114TIP3   OH227536   1.895   4.549  18.725
 1114TIP3    H127537   1.936   4.595  18.643
 1114TIP3    H227538   1.992   4.555  18.780
 1115TIP3   OH227539   0.502   3.623  18.610
 1115TIP3    H127540   0.580   3.630  18.683
 1115TIP3    H227541   0.403   3.606  18.660
 1116TIP3   OH227542   1.157   3.053  17.949
 1116TIP3    H127543   1.237   3.032  17.882
 1116TIP3    H227544   1.134   2.945  17.980
 1117TIP3   OH227545   1.010   2.837  18.202
 1117TIP3    H127546   0.923   2.909  18.179
 1117TIP3    H227547   1.092   2.910  18.235
 1118TIP3   OH227548   1.013   3.592  17.325
 1118TIP3    H127549   0.929   3.518  17.302
 1118TIP3    H227550   0.979   3.625  17.414
 1119TIP3   OH227551   1.948   3.546  18.233
 1119TIP3    H127552   2.010   3.601  18.162
 1119TIP3    H227553   1.843   3.534  18.189
 1120TIP3   OH227554   1.206   3.658  18.487
 1120TIP3    H127555   1.151   3.638  18.571
 1120TIP3    H227556   1.208   3.775  18.486
 1121TIP3   OH227557   1.572   2.980  17.326
 1121TIP3    H127558   1.663   2.966  17.386
 1121TIP3    H227559   1.606   3.068  17.272
 1122TIP3   OH227560   0.482   3.564  17.912
 1122TIP3    H127561   0.533   3.550  17.824
 1122TIP3    H227562   0.532   3.478  17.963
 1123TIP3   OH227563   1.308   3.756  17.280
 1123TIP3    H127564   1.264   3.865  17.272
 1123TIP3    H227565   1.210   3.692  17.272
 1124TIP3   OH227566   0.212   3.277  18.419
 1124TIP3    H127567   0.208   3.259  18.515
 1124TIP3    H227568   0.096   3.287  18.402
 1125TIP3   OH227569   0.954   3.308  18.649
 1125TIP3    H127570   0.899   3.246  18.580
 1125TIP3    H227571   1.057   3.252  18.652
 1126TIP3   OH227572   1.543   3.926  18.487
 1126TIP3    H127573   1.466   3.936  18.413
 1126TIP3    H227574   1.488   3.988  18.557
 1127TIP3   OH227575   2.167   2.975  17.313
 1127TIP3    H127576   2.092   2.956  17.240
 1127TIP3    H227577   2.185   3.090  17.301
 1128TIP3   OH227578   2.220   3.700  18.577
 1128TIP3    H127579   2.106   3.714  18.555
 1128TIP3    H227580   2.266   3.683  18.487
 1129TIP3   OH227581   1.973   4.030  17.345
 1129TIP3    H127582   1.937   3.978  17.427
 1129TIP3    H227583   2.069   4.086  17.373
 1130TIP3   OH227584   1.681   3.389  18.092
 1130TIP3    H127585   1.571   3.398  18.064
 1130TIP3    H227586   1.732   3.344  18.012
 1131TIP3   OH227587   0.781   3.940  17.693
 1131TIP3    H127588   0.818   4.049  17.677
 1131TIP3    H227589   0.676   3.942  17.654
 1132TIP3   OH227590   0.904   3.653  17.594
 1132TIP3    H127591   0.860   3.758  17.617
 1132TIP3    H227592   0.842   3.580  17.651
 1133TIP3   OH227593   1.010   4.142  18.279
 1133TIP3    H127594   1.074   4.236  18.256
 1133TIP3    H227595   1.098   4.063  18.291
 1134TIP3   OH227596   0.791   4.241  17.554
 1134TIP3    H127597   0.677   4.258  17.577
 1134TIP3    H227598   0.839   4.324  17.611
 1135TIP3   OH227599   1.362   3.660  18.224
 1135TIP3    H127600   1.332   3.654  18.319
 1135TIP3    H227601   1.448   3.586  18.216
 1136TIP3   OH227602   1.758   4.205  18.449
 1136TIP3    H127603   1.652   4.156  18.435
 1136TIP3    H227604   1.762   4.284  18.376
 1137TIP3   OH227605   2.207   4.298  17.180
 1137TIP3    H127606   2.267   4.364  17.119
 1137TIP3    H227607   2.135   4.382  17.215
 1138TIP3   OH227608   0.325   2.725  18.397
 1138TIP3    H127609   0.286   2.768  18.481
 1138TIP3    H227610   0.314   2.611  18.413
 1139TIP3   OH227611   0.302   4.152  18.221
 1139TIP3    H127612   0.367   4.061  18.244
 1139TIP3    H227613   0.274   4.190  18.309
 1140TIP3   OH227614   1.010   3.866  17.028
 1140TIP3    H127615   1.032   3.936  16.953
 1140TIP3    H227616   0.896   3.851  17.020
 1141TIP3   OH227617   0.812   3.904  17.235
 1141TIP3    H127618   0.916   3.869  17.195
 1141TIP3    H227619   0.842   4.012  17.263
 1142TIP3   OH227620   1.366   2.674  18.316
 1142TIP3    H127621   1.477   2.682  18.338
 1142TIP3    H227622   1.338   2.564  18.343
 1143TIP3   OH227623   1.523   2.597  17.436
 1143TIP3    H127624   1.498   2.668  17.361
 1143TIP3    H227625   1.537   2.669  17.513
 1144TIP3   OH227626   1.195   4.062  17.276
 1144TIP3    H127627   1.087   4.103  17.290
 1144TIP3    H227628   1.235   4.141  17.212
 1145TIP3   OH227629   1.098   2.791  17.484
 1145TIP3    H127630   1.166   2.887  17.484
 1145TIP3    H227631   1.049   2.792  17.573
 1146TIP3   OH227632   1.244   2.966  18.409
 1146TIP3    H127633   1.259   3.006  18.500
 1146TIP3    H227634   1.271   2.851  18.417
 1147TIP3   OH227635   1.259   2.506  17.607
 1147TIP3    H127636   1.218   2.615  17.608
 1147TIP3    H227637   1.325   2.514  17.527
 1148TIP3   OH227638   0.900   4.236  17.295
 1148TIP3    H127639   0.982   4.318  17.303
 1148TIP3    H227640   0.852   4.236  17.385
 1149TIP3   OH227641   1.898   2.700  18.512
 1149TIP3    H127642   1.787   2.730  18.494
 1149TIP3    H227643   1.951   2.719  18.426
 1150TIP3   OH227644   1.777   3.139  17.879
 1150TIP3    H127645   1.682   3.073  17.892
 1150TIP3    H227646   1.855   3.089  17.940
 1151TIP3   OH227647   0.468   3.874  17.122
 1151TIP3    H127648   0.547   3.876  17.193
 1151TIP3    H227649   0.529   3.802  17.064
 1152TIP3   OH227650   1.900   4.291  18.063
 1152TIP3    H127651   1.900   4.370  17.991
 1152TIP3    H227652   2.016   4.279  18.073
 1153TIP3   OH227653   0.269   4.042  17.535
 1153TIP3    H127654   0.160   4.076  17.533
 1153TIP3    H227655   0.313   4.104  17.462
 1154TIP3   OH227656   0.188   4.366  18.676
 1154TIP3    H127657   0.258   4.374  18.754
 1154TIP3    H227658   0.155   4.256  18.689
 1155TIP3   OH227659   0.749   4.255  18.830
 1155TIP3    H127660   0.841   4.194  18.860
 1155TIP3    H227661   0.726   4.204  18.746
 1156TIP3   OH227662   1.481   4.066  18.732
 1156TIP3    H127663   1.439   3.956  18.750
 1156TIP3    H227664   1.588   4.058  18.770
 1157TIP3   OH227665   0.236   3.654  18.798
 1157TIP3    H127666   0.259   3.540  18.811
 1157TIP3    H227667   0.124   3.642  18.775
 1158TIP3   OH227668   0.671   3.641  17.025
 1158TIP3    H127669   0.751   3.576  17.071
 1158TIP3    H227670   0.700   3.612  16.934
 1159TIP3   OH227671   0.940   3.631  18.699
 1159TIP3    H127672   0.920   3.690  18.614
 1159TIP3    H227673   0.953   3.518  18.672
 1160TIP3   OH227674   1.619   3.596  18.483
 1160TIP3    H127675   1.722   3.652  18.488
 1160TIP3    H227676   1.549   3.689  18.470
 1161TIP3   OH227677   0.259   3.262  18.763
 1161TIP3    H127678   0.344   3.181  18.753
 1161TIP3    H227679   0.263   3.287  18.859
 1162TIP3   OH227680   0.732   3.136  18.428
 1162TIP3    H127681   0.670   3.235  18.438
 1162TIP3    H227682   0.827   3.178  18.380
 1163TIP3   OH227683   1.381   3.486  18.785
 1163TIP3    H127684   1.446   3.428  18.720
 1163TIP3    H227685   1.343   3.397  18.839
 1164TIP3   OH227686   0.784   2.849  18.542
 1164TIP3    H127687   0.800   2.776  18.467
 1164TIP3    H227688   0.787   2.953  18.497
 1165TIP3   OH227689   0.844   2.617  18.334
 1165TIP3    H127690   0.918   2.683  18.281
 1165TIP3    H227691   0.749   2.624  18.278
 1166TIP3   OH227692   0.996   3.290  18.334
 1166TIP3    H127693   1.103   3.301  18.300
 1166TIP3    H227694   0.943   3.386  18.296
 1167TIP3   OH227695   1.532   3.000  18.824
 1167TIP3    H127696   1.568   2.890  18.815
 1167TIP3    H227697   1.630   3.058  18.846
 1168TIP3   OH227698   1.722   3.390  18.677
 1168TIP3    H127699   1.674   3.454  18.606
 1168TIP3    H227700   1.834   3.390  18.648
 1169TIP3   OH227701   0.544   2.996  18.738
 1169TIP3    H127702   0.475   2.903  18.756
 1169TIP3    H227703   0.618   2.950  18.674
 1170TIP3   OH227704   0.947   2.320  18.341
 1170TIP3    H127705   0.910   2.431  18.348
 1170TIP3    H227706   0.851   2.267  18.310
 1171TIP3   OH227707   1.068   2.850  18.732
 1171TIP3    H127708   1.021   2.807  18.813
 1171TIP3    H227709   0.985   2.826  18.666
 1172TIP3   OH227710   1.394   2.737  18.655
 1172TIP3    H127711   1.286   2.753  18.686
 1172TIP3    H227712   1.436   2.669  18.727
 1173TIP3   OH227713   1.578   2.574  18.830
 1173TIP3    H127714   1.582   2.458  18.825
 1173TIP3    H227715   1.572   2.593  18.925
 1174TIP3   OH227716   0.362   2.730  18.763
 1174TIP3    H127717   0.406   2.638  18.715
 1174TIP3    H227718   0.325   2.680  18.847
 1175TIP3   OH227719   0.938   2.291  18.626
 1175TIP3    H127720   1.032   2.222  18.635
 1175TIP3    H227721   0.935   2.298  18.529
 1176TIP3   OH227722   0.949   2.431  18.877
 1176TIP3    H127723   0.930   2.384  18.788
 1176TIP3    H227724   0.896   2.537  18.872
 1177TIP3   OH227725   0.139   3.784  17.058
 1177TIP3    H127726   0.168   3.889  17.090
 1177TIP3    H227727   0.245   3.739  17.048
 1178TIP3   OH227728   0.095   4.435  17.528
 1178TIP3    H127729  -0.006   4.462  17.575
 1178TIP3    H227730   0.168   4.456  17.601
 1179TIP3   OH227731   0.211   4.276  17.784
 1179TIP3    H127732   0.204   4.159  17.780
 1179TIP3    H227733   0.248   4.296  17.875
 1180TIP3   OH227734   2.244   4.336  18.062
 1180TIP3    H127735   2.264   4.310  18.154
 1180TIP3    H227736   2.290   4.442  18.057
 1181TIP3   OH227737   2.190   4.268  18.386
 1181TIP3    H127738   2.136   4.176  18.345
 1181TIP3    H227739   2.224   4.220  18.472
 1182TIP3   OH227740   1.993   3.760  18.861
 1182TIP3    H127741   1.884   3.772  18.895
 1182TIP3    H227742   2.040   3.865  18.883
 1183TIP3   OH227743   2.141   3.586  17.350
 1183TIP3    H127744   2.249   3.631  17.364
 1183TIP3    H227745   2.128   3.526  17.434
 1184TIP3   OH227746   2.158   3.365  17.573
 1184TIP3    H127747   2.069   3.296  17.606
 1184TIP3    H227748   2.221   3.374  17.655
 1185TIP3   OH227749   2.155   3.666  18.062
 1185TIP3    H127750   2.238   3.589  18.033
 1185TIP3    H227751   2.197   3.768  18.029
 1186TIP3   OH227752   1.998   4.027  18.311
 1186TIP3    H127753   1.909   4.074  18.361
 1186TIP3    H227754   1.938   3.995  18.229
 1187TIP3   OH227755   2.172   3.280  17.226
 1187TIP3    H127756   2.155   3.325  17.139
 1187TIP3    H227757   2.202   3.372  17.281
 1188TIP3   OH227758   1.924   3.174  17.646
 1188TIP3    H127759   1.883   3.071  17.619
 1188TIP3    H227760   1.895   3.174  17.741
 1189TIP3   OH227761   0.200   3.508  18.059
 1189TIP3    H127762   0.233   3.473  17.970
 1189TIP3    H227763   0.298   3.478  18.107
 1190TIP3   OH227764   2.054   3.407  18.606
 1190TIP3    H127765   2.110   3.304  18.621
 1190TIP3    H227766   2.141   3.487  18.603
 1191TIP3   OH227767   2.189   3.113  18.643
 1191TIP3    H127768   2.078   3.076  18.624
 1191TIP3    H227769   2.248   3.012  18.658
 1192TIP3   OH227770   1.848   2.920  17.489
 1192TIP3    H127771   1.862   2.802  17.488
 1192TIP3    H227772   1.958   2.950  17.467
 1193TIP3   OH227773   1.981   2.965  18.028
 1193TIP3    H127774   2.098   2.980  18.035
 1193TIP3    H227775   1.952   2.975  18.122
 1194TIP3   OH227776   1.975   3.052  18.291
 1194TIP3    H127777   1.874   3.082  18.334
 1194TIP3    H227778   2.024   3.155  18.268
 1195TIP3   OH227779   0.133   2.828  18.603
 1195TIP3    H127780   0.223   2.840  18.666
 1195TIP3    H227781   0.130   2.713  18.591
 1196TIP3   OH227782   2.263   2.380  18.817
 1196TIP3    H127783   2.317   2.291  18.773
 1196TIP3    H227784   2.246   2.455  18.741
 1197TIP3   OH227785   1.963   2.590  17.509
 1197TIP3    H127786   2.000   2.524  17.584
 1197TIP3    H227787   1.908   2.512  17.454
 1198TIP3   OH227788   0.092   3.001  18.051
 1198TIP3    H127789   0.168   3.011  17.977
 1198TIP3    H227790   0.119   3.096  18.103
 1199TIP3   OH227791   2.173   2.586  18.630
 1199TIP3    H127792   2.068   2.636  18.640
 1199TIP3    H227793   2.144   2.515  18.556
 1200TIP3   OH227794   2.195   2.532  17.123
 1200TIP3    H127795   2.280   2.455  17.118
 1200TIP3    H227796   2.252   2.633  17.136
 1201TIP3   OH227797   1.843   4.361  17.675
 1201TIP3    H127798   1.931   4.375  17.612
 1201TIP3    H227799   1.870   4.434  17.748
 1202TIP3   OH227800   0.082   2.378  18.313
 1202TIP3    H127801  -0.005   2.376  18.379
 1202TIP3    H227802   0.037   2.447  18.245
 1203TIP3   OH227803   0.299   3.982  18.696
 1203TIP3    H127804   0.204   3.961  18.642
 1203TIP3    H227805   0.313   3.880  18.743
 1204TIP3   OH227806   0.672   4.169  18.356
 1204TIP3    H127807   0.665   4.276  18.317
 1204TIP3    H227808   0.787   4.148  18.351
 1205TIP3   OH227809   1.181   4.304  18.595
 1205TIP3    H127810   1.190   4.247  18.679
 1205TIP3    H227811   1.289   4.346  18.582
 1206TIP3   OH227812   1.446   4.486  18.541
 1206TIP3    H127813   1.530   4.417  18.508
 1206TIP3    H227814   1.483   4.513  18.631
 1207TIP3   OH227815   2.056   2.327  18.473
 1207TIP3    H127816   1.973   2.377  18.419
 1207TIP3    H227817   2.066   2.222  18.428
 1208TIP3   OH227818   0.377   4.518  18.341
 1208TIP3    H127819   0.274   4.556  18.306
 1208TIP3    H227820   0.353   4.500  18.435
 1209TIP3   OH227821   0.656   4.460  18.227
 1209TIP3    H127822   0.544   4.470  18.257
 1209TIP3    H227823   0.660   4.541  18.158
 1210TIP3   OH227824   1.194   4.405  18.173
 1210TIP3    H127825   1.117   4.436  18.104
 1210TIP3    H227826   1.208   4.511  18.212
 1211TIP3   OH227827   1.471   4.285  18.292
 1211TIP3    H127828   1.393   4.325  18.227
 1211TIP3    H227829   1.552   4.367  18.280
 1212TIP3   OH227830   1.782   4.469  18.266
 1212TIP3    H127831   1.804   4.578  18.235
 1212TIP3    H227832   1.798   4.409  18.182
 1213TIP3   OH227833   0.354   4.357  18.022
 1213TIP3    H127834   0.317   4.285  18.094
 1213TIP3    H227835   0.454   4.302  17.993
 1214TIP3   OH227836   0.594   4.196  17.895
 1214TIP3    H127837   0.551   4.090  17.911
 1214TIP3    H227838   0.702   4.188  17.935
 1215TIP3   OH227839   0.865   4.159  18.035
 1215TIP3    H127840   0.919   4.056  18.037
 1215TIP3    H227841   0.896   4.200  18.122
 1216TIP3   OH227842   1.198   2.435  17.888
 1216TIP3    H127843   1.120   2.347  17.880
 1216TIP3    H227844   1.242   2.448  17.800
 1217TIP3   OH227845   1.904   2.288  17.890
 1217TIP3    H127846   1.982   2.352  17.837
 1217TIP3    H227847   1.802   2.320  17.849
 1218TIP3   OH227848   2.100   2.437  17.721
 1218TIP3    H127849   2.176   2.362  17.678
 1218TIP3    H227850   2.171   2.531  17.736
 1219TIP3   OH227851   0.919   2.315  17.653
 1219TIP3    H127852   0.982   2.402  17.616
 1219TIP3    H227853   0.942   2.317  17.748
 1220TIP3   OH227854   1.604   2.341  17.780
 1220TIP3    H127855   1.537   2.369  17.704
 1220TIP3    H227856   1.546   2.248  17.815
 1221TIP3   OH227857   1.732   2.316  17.346
 1221TIP3    H127858   1.662   2.401  17.375
 1221TIP3    H227859   1.685   2.224  17.394
 1222TIP3   OH227860   0.149   4.249  17.307
 1222TIP3    H127861   0.040   4.272  17.280
 1222TIP3    H227862   0.150   4.316  17.388
 1223TIP3   OH227863   1.027   2.497  17.345
 1223TIP3    H127864   0.908   2.491  17.346
 1223TIP3    H227865   1.039   2.605  17.383
 1224TIP3   OH227866   1.294   4.342  17.177
 1224TIP3    H127867   1.381   4.396  17.132
 1224TIP3    H227868   1.238   4.303  17.096
 1225TIP3   OH227869   2.045   4.319  17.478
 1225TIP3    H127870   1.972   4.247  17.434
 1225TIP3    H227871   2.047   4.409  17.414
 1226TIP3   OH227872   0.296   2.413  18.634
 1226TIP3    H127873   0.241   2.309  18.631
 1226TIP3    H227874   0.402   2.381  18.668
 1227TIP3   OH227875   0.580   2.342  18.806
 1227TIP3    H127876   0.686   2.308  18.779
 1227TIP3    H227877   0.544   2.244  18.850
 1228TIP3   OH227878   1.585   2.245  18.812
 1228TIP3    H127879   1.591   2.173  18.890
 1228TIP3    H227880   1.696   2.237  18.778
 1229TIP3   OH227881   1.968   4.180  18.653
 1229TIP3    H127882   1.882   4.172  18.585
 1229TIP3    H227883   1.956   4.290  18.683
 1230TIP3   OH227884   3.725   3.451  17.641
 1230TIP3    H127885   3.698   3.564  17.643
 1230TIP3    H227886   3.635   3.414  17.586
 1231TIP3   OH227887   3.586   3.319  17.999
 1231TIP3    H127888   3.594   3.269  18.087
 1231TIP3    H227889   3.511   3.241  17.958
 1232TIP3   OH227890   2.626   3.320  18.172
 1232TIP3    H127891   2.620   3.218  18.220
 1232TIP3    H227892   2.740   3.342  18.175
 1233TIP3   OH227893   2.759   3.853  17.983
 1233TIP3    H127894   2.725   3.744  17.962
 1233TIP3    H227895   2.874   3.845  17.967
 1234TIP3   OH227896   2.363   3.055  17.536
 1234TIP3    H127897   2.320   3.158  17.563
 1234TIP3    H227898   2.270   3.011  17.491
 1235TIP3   OH227899   2.408   3.325  17.795
 1235TIP3    H127900   2.476   3.233  17.818
 1235TIP3    H227901   2.484   3.404  17.761
 1236TIP3   OH227902   3.650   4.333  17.836
 1236TIP3    H127903   3.661   4.270  17.754
 1236TIP3    H227904   3.624   4.254  17.903
 1237TIP3   OH227905   3.356   3.630  18.085
 1237TIP3    H127906   3.415   3.570  18.019
 1237TIP3    H227907   3.448   3.666  18.139
 1238TIP3   OH227908   4.375   2.639  18.102
 1238TIP3    H127909   4.392   2.700  18.185
 1238TIP3    H227910   4.470   2.669  18.051
 1239TIP3   OH227911   3.797   2.992  18.129
 1239TIP3    H127912   3.810   2.875  18.123
 1239TIP3    H227913   3.760   3.019  18.039
 1240TIP3   OH227914   2.941   2.836  17.871
 1240TIP3    H127915   2.929   2.897  17.788
 1240TIP3    H227916   2.986   2.736  17.834
 1241TIP3   OH227917   3.874   2.802  17.698
 1241TIP3    H127918   3.952   2.734  17.743
 1241TIP3    H227919   3.912   2.802  17.607
 1242TIP3   OH227920   2.522   3.018  17.861
 1242TIP3    H127921   2.592   2.970  17.929
 1242TIP3    H227922   2.572   2.977  17.779
 1243TIP3   OH227923   3.089   3.242  17.839
 1243TIP3    H127924   3.190   3.203  17.876
 1243TIP3    H227925   3.061   3.155  17.778
 1244TIP3   OH227926   4.406   2.783  18.338
 1244TIP3    H127927   4.357   2.885  18.309
 1244TIP3    H227928   4.454   2.815  18.422
 1245TIP3   OH227929   2.791   2.614  18.223
 1245TIP3    H127930   2.749   2.675  18.148
 1245TIP3    H227931   2.717   2.641  18.295
 1246TIP3   OH227932   3.070   3.535  18.196
 1246TIP3    H127933   3.006   3.622  18.234
 1246TIP3    H227934   3.152   3.594  18.146
 1247TIP3   OH227935   4.130   2.708  17.859
 1247TIP3    H127936   4.100   2.615  17.908
 1247TIP3    H227937   4.169   2.782  17.928
 1248TIP3   OH227938   2.712   2.874  18.042
 1248TIP3    H127939   2.784   2.933  18.103
 1248TIP3    H227940   2.791   2.849  17.971
 1249TIP3   OH227941   2.926   3.806  18.290
 1249TIP3    H127942   2.902   3.886  18.222
 1249TIP3    H227943   2.820   3.792  18.332
 1250TIP3   OH227944   2.426   3.739  17.398
 1250TIP3    H127945   2.449   3.815  17.327
 1250TIP3    H227946   2.438   3.811  17.476
 1251TIP3   OH227947   4.043   2.569  18.194
 1251TIP3    H127948   3.953   2.603  18.136
 1251TIP3    H227949   4.134   2.586  18.134
 1252TIP3   OH227950   3.244   2.323  17.988
 1252TIP3    H127951   3.203   2.238  17.933
 1252TIP3    H227952   3.145   2.389  17.996
 1253TIP3   OH227953   4.187   3.739  18.447
 1253TIP3    H127954   4.202   3.650  18.382
 1253TIP3    H227955   4.190   3.829  18.384
 1254TIP3   OH227956   3.547   3.343  17.408
 1254TIP3    H127957   3.457   3.414  17.381
 1254TIP3    H227958   3.630   3.382  17.347
 1255TIP3   OH227959   3.563   3.136  17.072
 1255TIP3    H127960   3.618   3.184  17.149
 1255TIP3    H227961   3.532   3.031  17.107
 1256TIP3   OH227962   4.436   3.298  18.231
 1256TIP3    H127963   4.366   3.390  18.244
 1256TIP3    H227964   4.502   3.336  18.158
 1257TIP3   OH227965   4.000   3.378  17.509
 1257TIP3    H127966   3.900   3.402  17.557
 1257TIP3    H227967   4.060   3.313  17.574
 1258TIP3   OH227968   3.952   3.173  18.414
 1258TIP3    H127969   3.926   3.281  18.443
 1258TIP3    H227970   3.890   3.169  18.331
 1259TIP3   OH227971   2.981   3.466  17.671
 1259TIP3    H127972   2.934   3.402  17.597
 1259TIP3    H227973   3.031   3.383  17.727
 1260TIP3   OH227974   3.120   3.850  17.968
 1260TIP3    H127975   3.134   3.822  17.874
 1260TIP3    H227976   3.204   3.787  18.012
 1261TIP3   OH227977   2.950   3.283  18.069
 1261TIP3    H127978   2.992   3.281  17.977
 1261TIP3    H227979   3.013   3.368  18.111
 1262TIP3   OH227980   3.792   4.007  18.137
 1262TIP3    H127981   3.750   4.078  18.207
 1262TIP3    H227982   3.755   3.901  18.164
 1263TIP3   OH227983   3.110   3.844  18.507
 1263TIP3    H127984   3.022   3.898  18.552
 1263TIP3    H227985   3.059   3.827  18.420
 1264TIP3   OH227986   3.828   3.301  17.259
 1264TIP3    H127987   3.877   3.248  17.336
 1264TIP3    H227988   3.905   3.386  17.240
 1265TIP3   OH227989   2.773   3.397  18.445
 1265TIP3    H127990   2.742   3.505  18.466
 1265TIP3    H227991   2.672   3.347  18.424
 1266TIP3   OH227992   2.881   4.032  18.604
 1266TIP3    H127993   2.911   4.074  18.515
 1266TIP3    H227994   2.766   4.042  18.597
 1267TIP3   OH227995   2.807   3.334  17.455
 1267TIP3    H127996   2.773   3.436  17.412
 1267TIP3    H227997   2.740   3.257  17.412
 1268TIP3   OH227998   4.522   4.009  17.167
 1268TIP3    H127999   4.447   4.099  17.164
 1268TIP3    H228000   4.543   3.994  17.073
 1269TIP3   OH228001   2.400   3.624  18.365
 1269TIP3    H128002   2.356   3.610  18.277
 1269TIP3    H228003   2.426   3.511  18.385
 1270TIP3   OH228004   2.366   3.956  17.994
 1270TIP3    H128005   2.483   3.950  18.000
 1270TIP3    H228006   2.345   4.039  18.058
 1271TIP3   OH228007   4.500   4.018  18.622
 1271TIP3    H128008   4.459   3.978  18.537
 1271TIP3    H228009   4.402   4.072  18.655
 1272TIP3   OH228010   3.420   3.983  18.496
 1272TIP3    H128011   3.420   4.085  18.545
 1272TIP3    H228012   3.307   3.947  18.500
 1273TIP3   OH228013   3.466   4.462  17.439
 1273TIP3    H128014   3.475   4.458  17.342
 1273TIP3    H228015   3.496   4.571  17.462
 1274TIP3   OH228016   2.726   4.289  17.657
 1274TIP3    H128017   2.755   4.252  17.747
 1274TIP3    H228018   2.617   4.250  17.648
 1275TIP3   OH228019   4.150   3.030  18.627
 1275TIP3    H128020   4.079   3.084  18.563
 1275TIP3    H228021   4.134   2.918  18.599
 1276TIP3   OH228022   2.658   3.769  18.445
 1276TIP3    H128023   2.642   3.720  18.533
 1276TIP3    H228024   2.560   3.731  18.400
 1277TIP3   OH228025   2.953   2.436  18.046
 1277TIP3    H128026   2.854   2.452  17.996
 1277TIP3    H228027   2.916   2.459  18.136
 1278TIP3   OH228028   3.539   2.359  18.341
 1278TIP3    H128029   3.581   2.314  18.424
 1278TIP3    H228030   3.422   2.362  18.356
 1279TIP3   OH228031   3.834   2.856  18.488
 1279TIP3    H128032   3.766   2.825  18.565
 1279TIP3    H228033   3.822   2.971  18.484
 1280TIP3   OH228034   2.982   2.983  18.167
 1280TIP3    H128035   2.912   3.019  18.238
 1280TIP3    H228036   2.987   3.082  18.113
 1281TIP3   OH228037   2.958   3.050  17.654
 1281TIP3    H128038   2.846   3.025  17.631
 1281TIP3    H228039   3.000   3.070  17.563
 1282TIP3   OH228040   3.630   3.092  17.567
 1282TIP3    H128041   3.589   3.179  17.509
 1282TIP3    H228042   3.709   3.046  17.506
 1283TIP3   OH228043   3.476   3.121  18.676
 1283TIP3    H128044   3.432   3.019  18.709
 1283TIP3    H228045   3.574   3.128  18.730
 1284TIP3   OH228046   3.734   3.029  17.843
 1284TIP3    H128047   3.704   3.076  17.757
 1284TIP3    H228048   3.769   2.924  17.808
 1285TIP3   OH228049   2.666   3.010  18.298
 1285TIP3    H128050   2.717   3.032  18.383
 1285TIP3    H228051   2.627   2.902  18.315
 1286TIP3   OH228052   2.309   2.681  17.743
 1286TIP3    H128053   2.392   2.686  17.811
 1286TIP3    H228054   2.370   2.668  17.662
 1287TIP3   OH228055   2.406   2.767  17.251
 1287TIP3    H128056   2.492   2.813  17.200
 1287TIP3    H228057   2.336   2.860  17.270
 1288TIP3   OH228058   3.614   3.211  18.252
 1288TIP3    H128059   3.695   3.134  18.218
 1288TIP3    H228060   3.550   3.142  18.310
 1289TIP3   OH228061   3.326   2.748  17.751
 1289TIP3    H128062   3.227   2.687  17.735
 1289TIP3    H228063   3.370   2.694  17.828
 1290TIP3   OH228064   2.653   2.923  17.612
 1290TIP3    H128065   2.549   2.942  17.570
 1290TIP3    H228066   2.699   2.836  17.559
 1291TIP3   OH228067   3.086   3.019  17.403
 1291TIP3    H128068   3.184   2.968  17.439
 1291TIP3    H228069   3.062   2.948  17.329
 1292TIP3   OH228070   3.797   2.656  18.053
 1292TIP3    H128071   3.721   2.650  18.129
 1292TIP3    H228072   3.755   2.574  17.991
 1293TIP3   OH228073   4.146   4.537  18.710
 1293TIP3    H128074   4.182   4.580  18.624
 1293TIP3    H228075   4.244   4.542  18.761
 1294TIP3   OH228076   2.665   3.631  18.692
 1294TIP3    H128077   2.748   3.572  18.740
 1294TIP3    H228078   2.570   3.582  18.732
 1295TIP3   OH228079   3.383   3.074  17.939
 1295TIP3    H128080   3.445   3.029  17.867
 1295TIP3    H228081   3.361   2.978  17.991
 1296TIP3   OH228082   2.728   2.566  17.521
 1296TIP3    H128083   2.686   2.501  17.594
 1296TIP3    H228084   2.838   2.576  17.557
 1297TIP3   OH228085   3.287   2.850  18.160
 1297TIP3    H128086   3.184   2.905  18.157
 1297TIP3    H228087   3.341   2.906  18.232
 1298TIP3   OH228088   3.322   3.565  17.354
 1298TIP3    H128089   3.217   3.516  17.332
 1298TIP3    H228090   3.299   3.630  17.433
 1299TIP3   OH228091   4.222   3.548  18.234
 1299TIP3    H128092   4.273   3.596  18.155
 1299TIP3    H228093   4.123   3.510  18.193
 1300TIP3   OH228094   3.468   3.661  18.471
 1300TIP3    H128095   3.426   3.618  18.554
 1300TIP3    H228096   3.457   3.776  18.487
 1301TIP3   OH228097   3.860   2.983  17.359
 1301TIP3    H128098   3.965   2.935  17.380
 1301TIP3    H228099   3.866   2.995  17.263
 1302TIP3   OH228100   2.755   3.529  17.903
 1302TIP3    H128101   2.827   3.526  17.826
 1302TIP3    H228102   2.796   3.443  17.959
 1303TIP3   OH228103   2.399   3.313  18.435
 1303TIP3    H128104   2.365   3.268  18.520
 1303TIP3    H228105   2.323   3.266  18.371
 1304TIP3   OH228106   3.199   3.300  18.651
 1304TIP3    H128107   3.150   3.229  18.587
 1304TIP3    H228108   3.308   3.254  18.657
 1305TIP3   OH228109   3.803   3.919  18.494
 1305TIP3    H128110   3.704   3.932  18.443
 1305TIP3    H228111   3.772   3.978  18.575
 1306TIP3   OH228112   4.422   2.966  17.320
 1306TIP3    H128113   4.422   2.866  17.268
 1306TIP3    H228114   4.519   3.016  17.289
 1307TIP3   OH228115   4.475   3.677  18.569
 1307TIP3    H128116   4.368   3.683  18.528
 1307TIP3    H228117   4.540   3.665  18.487
 1308TIP3   OH228118   3.948   3.371  18.083
 1308TIP3    H128119   3.834   3.379  18.062
 1308TIP3    H228120   3.986   3.305  18.008
 1309TIP3   OH228121   3.017   3.956  17.699
 1309TIP3    H128122   3.076   4.051  17.672
 1309TIP3    H228123   2.910   3.976  17.663
 1310TIP3   OH228124   3.223   3.686  17.623
 1310TIP3    H128125   3.145   3.774  17.628
 1310TIP3    H228126   3.160   3.593  17.647
 1311TIP3   OH228127   3.260   4.160  18.297
 1311TIP3    H128128   3.334   4.241  18.263
 1311TIP3    H228129   3.328   4.108  18.365
 1312TIP3   OH228130   3.019   4.276  17.555
 1312TIP3    H128131   2.909   4.272  17.589
 1312TIP3    H228132   3.054   4.380  17.592
 1313TIP3   OH228133   3.626   3.684  18.216
 1313TIP3    H128134   3.586   3.659  18.307
 1313TIP3    H228135   3.684   3.586  18.194
 1314TIP3   OH228136   4.026   4.192  18.456
 1314TIP3    H128137   3.916   4.150  18.459
 1314TIP3    H228138   4.015   4.284  18.395
 1315TIP3   OH228139   4.462   4.376  17.181
 1315TIP3    H128140   4.562   4.433  17.161
 1315TIP3    H228141   4.388   4.452  17.143
 1316TIP3   OH228142   2.592   2.708  18.416
 1316TIP3    H128143   2.512   2.761  18.472
 1316TIP3    H228144   2.581   2.598  18.448
 1317TIP3   OH228145   4.040   3.577  17.299
 1317TIP3    H128146   4.030   3.512  17.381
 1317TIP3    H228147   4.098   3.670  17.332
 1318TIP3   OH228148   2.536   4.108  18.226
 1318TIP3    H128149   2.620   4.032  18.249
 1318TIP3    H228150   2.518   4.164  18.309
 1319TIP3   OH228151   3.088   3.895  17.253
 1319TIP3    H128152   3.182   3.832  17.270
 1319TIP3    H228153   3.118   4.008  17.270
 1320TIP3   OH228154   2.692   3.582  17.311
 1320TIP3    H128155   2.597   3.640  17.341
 1320TIP3    H228156   2.744   3.666  17.258
 1321TIP3   OH228157   3.640   2.696  18.293
 1321TIP3    H128158   3.712   2.740  18.361
 1321TIP3    H228159   3.605   2.596  18.332
 1322TIP3   OH228160   3.672   2.620  17.397
 1322TIP3    H128161   3.660   2.632  17.300
 1322TIP3    H228162   3.780   2.580  17.399
 1323TIP3   OH228163   3.358   2.874  17.507
 1323TIP3    H128164   3.460   2.927  17.525
 1323TIP3    H228165   3.330   2.825  17.594
 1324TIP3   OH228166   3.481   2.990  18.411
 1324TIP3    H128167   3.487   3.026  18.505
 1324TIP3    H228168   3.524   2.882  18.411
 1325TIP3   OH228169   3.492   2.496  17.642
 1325TIP3    H128170   3.416   2.585  17.637
 1325TIP3    H228171   3.562   2.514  17.565
 1326TIP3   OH228172   3.112   4.213  17.307
 1326TIP3    H128173   3.221   4.250  17.315
 1326TIP3    H228174   3.078   4.219  17.401
 1327TIP3   OH228175   4.145   2.729  18.509
 1327TIP3    H128176   4.033   2.741  18.481
 1327TIP3    H228177   4.205   2.730  18.425
 1328TIP3   OH228178   4.039   3.157  17.881
 1328TIP3    H128179   3.941   3.092  17.879
 1328TIP3    H228180   4.111   3.092  17.940
 1329TIP3   OH228181   2.776   3.858  17.178
 1329TIP3    H128182   2.891   3.868  17.202
 1329TIP3    H228183   2.773   3.890  17.085
 1330TIP3   OH228184   2.570   2.983  17.009
 1330TIP3    H128185   2.657   3.058  17.026
 1330TIP3    H228186   2.478   3.052  17.017
 1331TIP3   OH228187   4.138   4.278  18.052
 1331TIP3    H128188   4.136   4.360  17.981
 1331TIP3    H228189   4.253   4.270  18.067
 1332TIP3   OH228190   2.626   2.366  17.972
 1332TIP3    H128191   2.636   2.359  17.873
 1332TIP3    H228192   2.604   2.254  17.992
 1333TIP3   OH228193   2.472   4.004  17.553
 1333TIP3    H128194   2.395   4.091  17.562
 1333TIP3    H228195   2.544   4.054  17.488
 1334TIP3   OH228196   2.419   4.379  18.703
 1334TIP3    H128197   2.488   4.350  18.780
 1334TIP3    H228198   2.376   4.274  18.679
 1335TIP3   OH228199   2.975   4.204  18.833
 1335TIP3    H128200   3.082   4.171  18.864
 1335TIP3    H228201   2.987   4.190  18.737
 1336TIP3   OH228202   3.737   4.073  18.733
 1336TIP3    H128203   3.695   3.965  18.756
 1336TIP3    H228204   3.839   4.072  18.781
 1337TIP3   OH228205   2.366   3.608  18.807
 1337TIP3    H128206   2.321   3.500  18.807
 1337TIP3    H228207   2.329   3.649  18.720
 1338TIP3   OH228208   3.191   3.613  18.683
 1338TIP3    H128209   3.173   3.679  18.603
 1338TIP3    H228210   3.186   3.500  18.650
 1339TIP3   OH228211   3.892   3.588  18.486
 1339TIP3    H128212   4.000   3.631  18.487
 1339TIP3    H228213   3.834   3.690  18.497
 1340TIP3   OH228214   2.554   3.283  18.744
 1340TIP3    H128215   2.597   3.178  18.729
 1340TIP3    H228216   2.605   3.320  18.826
 1341TIP3   OH228217   3.061   3.420  17.256
 1341TIP3    H128218   2.989   3.350  17.306
 1341TIP3    H228219   3.122   3.344  17.200
 1342TIP3   OH228220   2.972   3.146  18.424
 1342TIP3    H128221   2.902   3.236  18.444
 1342TIP3    H228222   3.059   3.203  18.376
 1343TIP3   OH228223   3.245   3.223  17.079
 1343TIP3    H128224   3.179   3.173  17.013
 1343TIP3    H228225   3.349   3.170  17.067
 1344TIP3   OH228226   3.638   3.498  18.792
 1344TIP3    H128227   3.720   3.437  18.745
 1344TIP3    H228228   3.600   3.419  18.856
 1345TIP3   OH228229   3.078   2.862  18.530
 1345TIP3    H128230   3.082   2.785  18.456
 1345TIP3    H228231   3.058   2.964  18.484
 1346TIP3   OH228232   3.098   2.636  18.311
 1346TIP3    H128233   3.161   2.680  18.236
 1346TIP3    H228234   2.990   2.642  18.273
 1347TIP3   OH228235   3.252   3.312  18.329
 1347TIP3    H128236   3.361   3.338  18.305
 1347TIP3    H228237   3.194   3.404  18.293
 1348TIP3   OH228238   3.791   2.994  18.820
 1348TIP3    H128239   3.834   2.886  18.815
 1348TIP3    H228240   3.882   3.058  18.848
 1349TIP3   OH228241   3.974   3.397  18.684
 1349TIP3    H128242   3.924   3.457  18.611
 1349TIP3    H228243   4.081   3.379  18.646
 1350TIP3   OH228244   2.885   2.946  18.749
 1350TIP3    H128245   2.785   2.893  18.718
 1350TIP3    H228246   2.960   2.910  18.680
 1351TIP3   OH228247   3.204   2.333  18.344
 1351TIP3    H128248   3.166   2.443  18.336
 1351TIP3    H228249   3.115   2.275  18.305
 1352TIP3   OH228250   3.317   2.843  18.751
 1352TIP3    H128251   3.241   2.810  18.821
 1352TIP3    H228252   3.248   2.830  18.672
 1353TIP3   OH228253   3.625   2.753  18.663
 1353TIP3    H128254   3.521   2.773  18.705
 1353TIP3    H228255   3.680   2.687  18.730
 1354TIP3   OH228256   3.835   2.588  18.819
 1354TIP3    H128257   3.846   2.471  18.816
 1354TIP3    H228258   3.823   2.610  18.915
 1355TIP3   OH228259   2.622   2.740  18.744
 1355TIP3    H128260   2.606   2.644  18.689
 1355TIP3    H228261   2.596   2.699  18.834
 1356TIP3   OH228262   3.196   2.280  18.633
 1356TIP3    H128263   3.281   2.200  18.646
 1356TIP3    H228264   3.186   2.273  18.535
 1357TIP3   OH228265   3.210   2.443  18.871
 1357TIP3    H128266   3.191   2.393  18.784
 1357TIP3    H228267   3.163   2.551  18.861
 1358TIP3   OH228268   2.293   4.469  17.610
 1358TIP3    H128269   2.206   4.404  17.573
 1358TIP3    H228270   2.329   4.399  17.683
 1359TIP3   OH228271   2.364   4.259  17.803
 1359TIP3    H128272   2.320   4.154  17.823
 1359TIP3    H228273   2.365   4.301  17.895
 1360TIP3   OH228274   4.470   4.314  18.079
 1360TIP3    H128275   4.496   4.328  18.173
 1360TIP3    H228276   4.507   4.416  18.043
 1361TIP3   OH228277   4.384   4.309  18.355
 1361TIP3    H128278   4.352   4.213  18.306
 1361TIP3    H228279   4.441   4.266  18.430
 1362TIP3   OH228280   4.254   3.786  18.903
 1362TIP3    H128281   4.145   3.776  18.942
 1362TIP3    H228282   4.284   3.893  18.939
 1363TIP3   OH228283   4.403   3.589  17.403
 1363TIP3    H128284   4.513   3.624  17.421
 1363TIP3    H228285   4.393   3.490  17.453
 1364TIP3   OH228286   4.434   3.334  17.575
 1364TIP3    H128287   4.346   3.265  17.612
 1364TIP3    H228288   4.490   3.367  17.656
 1365TIP3   OH228289   4.386   3.672  18.033
 1365TIP3    H128290   4.472   3.593  18.022
 1365TIP3    H228291   4.447   3.772  18.031
 1366TIP3   OH228292   4.235   4.027  18.301
 1366TIP3    H128293   4.168   4.094  18.359
 1366TIP3    H228294   4.162   4.019  18.226
 1367TIP3   OH228295   4.182   3.161  17.647
 1367TIP3    H128296   4.160   3.052  17.616
 1367TIP3    H228297   4.132   3.163  17.736
 1368TIP3   OH228298   2.384   3.450  18.038
 1368TIP3    H128299   2.381   3.403  17.948
 1368TIP3    H228300   2.491   3.416  18.070
 1369TIP3   OH228301   4.301   3.418  18.604
 1369TIP3    H128302   4.358   3.316  18.623
 1369TIP3    H228303   4.392   3.487  18.582
 1370TIP3   OH228304   4.452   3.150  18.665
 1370TIP3    H128305   4.345   3.107  18.644
 1370TIP3    H228306   4.516   3.052  18.670
 1371TIP3   OH228307   4.157   2.905  17.461
 1371TIP3    H128308   4.172   2.798  17.425
 1371TIP3    H228309   4.241   2.959  17.409
 1372TIP3   OH228310   4.236   2.968  18.034
 1372TIP3    H128311   4.354   2.977  18.031
 1372TIP3    H228312   4.220   2.971  18.131
 1373TIP3   OH228313   4.243   3.048  18.302
 1373TIP3    H128314   4.138   3.082  18.335
 1373TIP3    H228315   4.292   3.150  18.274
 1374TIP3   OH228316   2.358   2.852  18.638
 1374TIP3    H128317   2.460   2.831  18.683
 1374TIP3    H228318   2.297   2.753  18.652
 1375TIP3   OH228319   4.517   2.354  18.832
 1375TIP3    H128320   4.559   2.263  18.784
 1375TIP3    H228321   4.504   2.434  18.760
 1376TIP3   OH228322   2.478   2.652  18.004
 1376TIP3    H128323   2.527   2.545  17.989
 1376TIP3    H228324   2.568   2.725  17.997
 1377TIP3   OH228325   2.294   3.011  18.066
 1377TIP3    H128326   2.363   2.976  17.992
 1377TIP3    H228327   2.350   3.107  18.095
 1378TIP3   OH228328   4.436   2.597  18.651
 1378TIP3    H128329   4.336   2.654  18.668
 1378TIP3    H228330   4.404   2.534  18.574
 1379TIP3   OH228331   2.293   2.556  17.434
 1379TIP3    H128332   2.179   2.568  17.450
 1379TIP3    H228333   2.310   2.630  17.359
 1380TIP3   OH228334   2.308   2.387  18.292
 1380TIP3    H128335   2.225   2.344  18.351
 1380TIP3    H228336   2.251   2.471  18.244
 1381TIP3   OH228337   2.546   3.991  18.723
 1381TIP3    H128338   2.466   3.996  18.651
 1381TIP3    H228339   2.501   4.070  18.783
 1382TIP3   OH228340   2.946   4.162  18.357
 1382TIP3    H128341   2.944   4.273  18.325
 1382TIP3    H228342   3.059   4.138  18.337
 1383TIP3   OH228343   3.420   4.296  18.607
 1383TIP3    H128344   3.437   4.264  18.700
 1383TIP3    H228345   3.527   4.340  18.586
 1384TIP3   OH228346   3.692   4.478  18.559
 1384TIP3    H128347   3.784   4.433  18.513
 1384TIP3    H228348   3.739   4.511  18.645
 1385TIP3   OH228349   4.319   2.311  18.464
 1385TIP3    H128350   4.231   2.359  18.414
 1385TIP3    H228351   4.330   2.207  18.419
 1386TIP3   OH228352   2.623   4.517  18.320
 1386TIP3    H128353   2.537   4.588  18.289
 1386TIP3    H228354   2.623   4.541  18.415
 1387TIP3   OH228355   2.926   4.466  18.228
 1387TIP3    H128356   2.810   4.480  18.250
 1387TIP3    H228357   2.939   4.547  18.158
 1388TIP3   OH228358   3.482   4.418  18.150
 1388TIP3    H128359   3.398   4.469  18.100
 1388TIP3    H228360   3.514   4.505  18.210
 1389TIP3   OH228361   3.722   4.266  18.288
 1389TIP3    H128362   3.643   4.315  18.228
 1389TIP3    H228363   3.816   4.331  18.268
 1390TIP3   OH228364   4.038   4.418  18.280
 1390TIP3    H128365   4.074   4.529  18.266
 1390TIP3    H228366   4.074   4.364  18.197
 1391TIP3   OH228367   2.588   4.332  18.026
 1391TIP3    H128368   2.556   4.253  18.092
 1391TIP3    H228369   2.687   4.284  17.990
 1392TIP3   OH228370   2.839   4.198  17.898
 1392TIP3    H128371   2.822   4.087  17.926
 1392TIP3    H228372   2.944   4.219  17.938
 1393TIP3   OH228373   3.121   4.193  18.029
 1393TIP3    H128374   3.146   4.081  18.006
 1393TIP3    H228375   3.145   4.194  18.124
 1394TIP3   OH228376   3.582   2.503  17.907
 1394TIP3    H128377   3.499   2.435  17.944
 1394TIP3    H228378   3.544   2.514  17.815
 1395TIP3   OH228379   4.118   2.251  17.873
 1395TIP3    H128380   4.201   2.322  17.837
 1395TIP3    H228381   4.060   2.228  17.791
 1396TIP3   OH228382   4.344   2.426  17.712
 1396TIP3    H128383   4.424   2.359  17.669
 1396TIP3    H228384   4.378   2.532  17.681
 1397TIP3   OH228385   2.603   2.334  17.701
 1397TIP3    H128386   2.512   2.316  17.643
 1397TIP3    H228387   2.668   2.238  17.679
 1398TIP3   OH228388   2.496   2.324  17.234
 1398TIP3    H128389   2.557   2.407  17.184
 1398TIP3    H228390   2.449   2.388  17.306
 1399TIP3   OH228391   3.188   2.184  17.649
 1399TIP3    H128392   3.300   2.215  17.641
 1399TIP3    H228393   3.138   2.288  17.667
 1400TIP3   OH228394   2.454   4.252  17.366
 1400TIP3    H128395   2.354   4.228  17.318
 1400TIP3    H228396   2.482   4.351  17.319
 1401TIP3   OH228397   2.664   2.551  17.115
 1401TIP3    H128398   2.759   2.498  17.083
 1401TIP3    H228399   2.712   2.628  17.175
 1402TIP3   OH228400   3.254   2.593  17.368
 1402TIP3    H128401   3.355   2.569  17.412
 1402TIP3    H228402   3.287   2.684  17.314
 1403TIP3   OH228403   3.538   4.417  17.162
 1403TIP3    H128404   3.610   4.481  17.108
 1403TIP3    H228405   3.607   4.340  17.207
 1404TIP3   OH228406   4.295   4.292  17.456
 1404TIP3    H128407   4.334   4.260  17.369
 1404TIP3    H228408   4.242   4.393  17.436
 1405TIP3   OH228409   2.567   2.413  18.624
 1405TIP3    H128410   2.510   2.311  18.625
 1405TIP3    H228411   2.652   2.394  18.691
 1406TIP3   OH228412   2.810   2.333  18.802
 1406TIP3    H128413   2.922   2.315  18.777
 1406TIP3    H228414   2.783   2.224  18.831
 1407TIP3   OH228415   3.847   2.251  18.803
 1407TIP3    H128416   3.858   2.177  18.879
 1407TIP3    H228417   3.956   2.248  18.767
 1408TIP3   OH228418   4.246   4.195  18.642
 1408TIP3    H128419   4.175   4.192  18.563
 1408TIP3    H228420   4.214   4.301  18.677
 1409TIP3   OH228421   5.972   3.467  17.650
 1409TIP3    H128422   5.960   3.583  17.647
 1409TIP3    H228423   5.881   3.433  17.596
 1410TIP3   OH228424   5.839   3.306  18.021
 1410TIP3    H128425   5.862   3.269  18.113
 1410TIP3    H228426   5.758   3.230  17.991
 1411TIP3   OH228427   4.894   3.308  18.151
 1411TIP3    H128428   4.883   3.223  18.217
 1411TIP3    H228429   4.976   3.371  18.196
 1412TIP3   OH228430   6.235   3.682  17.816
 1412TIP3    H128431   6.210   3.611  17.890
 1412TIP3    H228432   6.264   3.782  17.858
 1413TIP3   OH228433   5.029   3.882  17.961
 1413TIP3    H128434   4.985   3.774  17.950
 1413TIP3    H228435   5.143   3.854  17.961
 1414TIP3   OH228436   4.628   3.055  17.538
 1414TIP3    H128437   4.582   3.161  17.552
 1414TIP3    H228438   4.536   2.994  17.504
 1415TIP3   OH228439   4.648   3.342  17.793
 1415TIP3    H128440   4.696   3.234  17.800
 1415TIP3    H228441   4.744   3.410  17.792
 1416TIP3   OH228442   5.909   4.324  17.854
 1416TIP3    H128443   6.004   4.288  17.802
 1416TIP3    H228444   5.890   4.226  17.904
 1417TIP3   OH228445   5.602   3.655  18.114
 1417TIP3    H128446   5.645   3.613  18.032
 1417TIP3    H228447   5.705   3.678  18.159
 1418TIP3   OH228448   6.672   2.646  18.101
 1418TIP3    H128449   6.680   2.706  18.185
 1418TIP3    H228450   6.773   2.674  18.057
 1419TIP3   OH228451   6.065   2.982  18.113
 1419TIP3    H128452   6.084   2.868  18.122
 1419TIP3    H228453   6.019   2.989  18.023
 1420TIP3   OH228454   5.214   2.753  17.785
 1420TIP3    H128455   5.243   2.860  17.751
 1420TIP3    H228456   5.167   2.711  17.704
 1421TIP3   OH228457   6.058   2.742  17.685
 1421TIP3    H128458   6.158   2.686  17.695
 1421TIP3    H228459   6.066   2.784  17.594
 1422TIP3   OH228460   4.775   3.049  17.873
 1422TIP3    H128461   4.848   2.989  17.931
 1422TIP3    H228462   4.818   3.017  17.786
 1423TIP3   OH228463   5.383   3.250  17.830
 1423TIP3    H128464   5.471   3.192  17.874
 1423TIP3    H228465   5.350   3.167  17.767
 1424TIP3   OH228466   6.653   2.778  18.349
 1424TIP3    H128467   6.611   2.878  18.307
 1424TIP3    H228468   6.695   2.822  18.431
 1425TIP3   OH228469   5.075   2.615  18.209
 1425TIP3    H128470   5.035   2.683  18.137
 1425TIP3    H228471   4.998   2.646  18.278
 1426TIP3   OH228472   5.888   3.794  17.542
 1426TIP3    H128473   5.882   3.790  17.444
 1426TIP3    H228474   5.848   3.904  17.556
 1427TIP3   OH228475   5.327   3.538  18.195
 1427TIP3    H128476   5.260   3.624  18.231
 1427TIP3    H228477   5.419   3.599  18.158
 1428TIP3   OH228478   4.997   2.840  17.992
 1428TIP3    H128479   5.071   2.914  18.039
 1428TIP3    H228480   5.063   2.804  17.917
 1429TIP3   OH228481   5.170   3.792  18.309
 1429TIP3    H128482   5.165   3.896  18.265
 1429TIP3    H228483   5.060   3.787  18.346
 1430TIP3   OH228484   4.702   3.728  17.369
 1430TIP3    H128485   4.621   3.786  17.317
 1430TIP3    H228486   4.736   3.812  17.433
 1431TIP3   OH228487   6.323   3.996  17.944
 1431TIP3    H128488   6.346   3.916  18.013
 1431TIP3    H228489   6.253   4.064  17.996
 1432TIP3   OH228490   6.332   2.504  18.183
 1432TIP3    H128491   6.238   2.533  18.130
 1432TIP3    H228492   6.409   2.585  18.154
 1433TIP3   OH228493   5.486   2.327  17.943
 1433TIP3    H128494   5.452   2.216  17.942
 1433TIP3    H228495   5.410   2.375  18.004
 1434TIP3   OH228496   6.115   4.154  17.711
 1434TIP3    H128497   6.184   4.060  17.699
 1434TIP3    H228498   6.131   4.200  17.620
 1435TIP3   OH228499   6.269   3.888  17.596
 1435TIP3    H128500   6.260   3.823  17.516
 1435TIP3    H228501   6.259   3.811  17.669
 1436TIP3   OH228502   6.452   3.725  18.459
 1436TIP3    H128503   6.499   3.635  18.411
 1436TIP3    H228504   6.377   3.767  18.391
 1437TIP3   OH228505   5.814   3.341  17.422
 1437TIP3    H128506   5.749   3.431  17.392
 1437TIP3    H228507   5.876   3.310  17.343
 1438TIP3   OH228508   6.713   3.289  18.278
 1438TIP3    H128509   6.626   3.368  18.262
 1438TIP3    H228510   6.772   3.302  18.194
 1439TIP3   OH228511   6.235   3.338  17.520
 1439TIP3    H128512   6.150   3.389  17.573
 1439TIP3    H228513   6.312   3.311  17.590
 1440TIP3   OH228514   6.233   3.182  18.404
 1440TIP3    H128515   6.206   3.274  18.458
 1440TIP3    H228516   6.167   3.205  18.326
 1441TIP3   OH228517   5.201   3.464  17.701
 1441TIP3    H128518   5.160   3.422  17.616
 1441TIP3    H228519   5.278   3.382  17.729
 1442TIP3   OH228520   5.374   3.857  17.954
 1442TIP3    H128521   5.394   3.845  17.859
 1442TIP3    H228522   5.470   3.812  17.994
 1443TIP3   OH228523   5.224   3.292  18.062
 1443TIP3    H128524   5.258   3.311  17.970
 1443TIP3    H228525   5.275   3.382  18.110
 1444TIP3   OH228526   5.971   4.007  18.111
 1444TIP3    H128527   5.981   4.061  18.196
 1444TIP3    H228528   6.049   3.918  18.124
 1445TIP3   OH228529   5.382   3.832  18.500
 1445TIP3    H128530   5.293   3.883  18.547
 1445TIP3    H228531   5.327   3.800  18.417
 1446TIP3   OH228532   6.086   3.270  17.287
 1446TIP3    H128533   6.131   3.284  17.378
 1446TIP3    H228534   6.088   3.378  17.252
 1447TIP3   OH228535   4.952   3.434  18.402
 1447TIP3    H128536   5.008   3.490  18.473
 1447TIP3    H228537   4.898   3.350  18.454
 1448TIP3   OH228538   5.788   4.103  17.538
 1448TIP3    H128539   5.867   4.132  17.605
 1448TIP3    H228540   5.719   4.198  17.534
 1449TIP3   OH228541   5.165   4.038  18.604
 1449TIP3    H128542   5.152   4.098  18.521
 1449TIP3    H228543   5.053   4.021  18.628
 1450TIP3   OH228544   5.072   3.334  17.463
 1450TIP3    H128545   5.027   3.428  17.419
 1450TIP3    H228546   5.033   3.250  17.406
 1451TIP3   OH228547   6.680   3.988  17.113
 1451TIP3    H128548   6.692   4.102  17.124
 1451TIP3    H228549   6.786   3.943  17.131
 1452TIP3   OH228550   4.631   3.636  18.337
 1452TIP3    H128551   4.568   3.607  18.259
 1452TIP3    H228552   4.704   3.545  18.336
 1453TIP3   OH228553   4.579   3.959  18.028
 1453TIP3    H128554   4.694   3.948  18.034
 1453TIP3    H228555   4.564   4.068  18.058
 1454TIP3   OH228556   6.762   4.036  18.586
 1454TIP3    H128557   6.751   3.924  18.566
 1454TIP3    H228558   6.653   4.057  18.622
 1455TIP3   OH228559   5.665   3.986  18.492
 1455TIP3    H128560   5.669   4.067  18.562
 1455TIP3    H228561   5.557   3.941  18.499
 1456TIP3   OH228562   5.698   4.427  17.434
 1456TIP3    H128563   5.730   4.394  17.344
 1456TIP3    H228564   5.735   4.537  17.436
 1457TIP3   OH228565   4.975   4.302  17.652
 1457TIP3    H128566   4.987   4.249  17.740
 1457TIP3    H228567   4.882   4.249  17.613
 1458TIP3   OH228568   6.419   3.000  18.613
 1458TIP3    H128569   6.332   3.050  18.560
 1458TIP3    H228570   6.406   2.890  18.584
 1459TIP3   OH228571   4.879   3.811  18.431
 1459TIP3    H128572   4.896   3.754  18.515
 1459TIP3    H228573   4.786   3.752  18.396
 1460TIP3   OH228574   5.815   2.358  18.343
 1460TIP3    H128575   5.866   2.310  18.423
 1460TIP3    H228576   5.701   2.356  18.366
 1461TIP3   OH228577   6.107   2.872  18.479
 1461TIP3    H128578   6.050   2.821  18.555
 1461TIP3    H228579   6.052   2.974  18.473
 1462TIP3   OH228580   5.221   2.982  18.147
 1462TIP3    H128581   5.165   3.014  18.228
 1462TIP3    H228582   5.228   3.088  18.105
 1463TIP3   OH228583   5.231   3.028  17.658
 1463TIP3    H128584   5.118   3.023  17.631
 1463TIP3    H228585   5.280   3.032  17.568
 1464TIP3   OH228586   5.939   3.076  17.555
 1464TIP3    H128587   5.884   3.172  17.523
 1464TIP3    H228588   5.984   3.031  17.472
 1465TIP3   OH228589   5.792   3.098  18.660
 1465TIP3    H128590   5.719   3.028  18.708
 1465TIP3    H228591   5.854   3.140  18.734
 1466TIP3   OH228592   5.992   2.996  17.841
 1466TIP3    H128593   5.994   3.083  17.775
 1466TIP3    H228594   6.006   2.903  17.781
 1467TIP3   OH228595   4.891   3.018  18.295
 1467TIP3    H128596   4.987   3.066  18.334
 1467TIP3    H228597   4.891   2.911  18.336
 1468TIP3   OH228598   5.894   3.182  18.268
 1468TIP3    H128599   5.964   3.102  18.228
 1468TIP3    H228600   5.825   3.118  18.326
 1469TIP3   OH228601   5.570   2.705  17.742
 1469TIP3    H128602   5.454   2.684  17.740
 1469TIP3    H228603   5.585   2.747  17.831
 1470TIP3   OH228604   4.895   2.922  17.635
 1470TIP3    H128605   4.787   2.946  17.596
 1470TIP3    H228606   4.932   2.848  17.567
 1471TIP3   OH228607   5.327   2.987  17.401
 1471TIP3    H128608   5.428   2.930  17.424
 1471TIP3    H228609   5.348   3.008  17.308
 1472TIP3   OH228610   6.078   2.627  18.055
 1472TIP3    H128611   5.999   2.632  18.129
 1472TIP3    H228612   6.016   2.568  17.988
 1473TIP3   OH228613   5.162   3.077  17.132
 1473TIP3    H128614   5.120   2.982  17.172
 1473TIP3    H228615   5.275   3.042  17.120
 1474TIP3   OH228616   6.428   4.532  18.727
 1474TIP3    H128617   6.450   4.586  18.643
 1474TIP3    H228618   6.535   4.541  18.768
 1475TIP3   OH228619   4.934   3.625  18.662
 1475TIP3    H128620   5.041   3.635  18.701
 1475TIP3    H228621   4.876   3.581  18.738
 1476TIP3   OH228622   5.654   3.052  17.939
 1476TIP3    H128623   5.760   3.037  17.899
 1476TIP3    H228624   5.645   2.958  17.995
 1477TIP3   OH228625   5.522   2.846  18.187
 1477TIP3    H128626   5.428   2.912  18.166
 1477TIP3    H228627   5.586   2.916  18.242
 1478TIP3   OH228628   5.584   3.569  17.374
 1478TIP3    H128629   5.507   3.494  17.332
 1478TIP3    H228630   5.524   3.604  17.454
 1479TIP3   OH228631   6.486   3.504  18.231
 1479TIP3    H128632   6.532   3.589  18.173
 1479TIP3    H228633   6.373   3.528  18.212
 1480TIP3   OH228634   5.741   3.646  18.458
 1480TIP3    H128635   5.714   3.563  18.521
 1480TIP3    H228636   5.711   3.745  18.501
 1481TIP3   OH228637   6.092   2.940  17.342
 1481TIP3    H128638   6.187   2.999  17.366
 1481TIP3    H228639   6.062   2.994  17.259
 1482TIP3   OH228640   4.985   3.554  17.908
 1482TIP3    H128641   5.068   3.538  17.840
 1482TIP3    H228642   5.002   3.468  17.971
 1483TIP3   OH228643   5.832   3.743  17.284
 1483TIP3    H128644   5.786   3.846  17.255
 1483TIP3    H228645   5.734   3.685  17.308
 1484TIP3   OH228646   4.631   3.325  18.464
 1484TIP3    H128647   4.607   3.252  18.538
 1484TIP3    H228648   4.572   3.276  18.389
 1485TIP3   OH228649   5.440   3.118  18.563
 1485TIP3    H128650   5.404   3.228  18.555
 1485TIP3    H228651   5.521   3.143  18.630
 1486TIP3   OH228652   6.071   3.913  18.499
 1486TIP3    H128653   6.010   3.954  18.423
 1486TIP3    H228654   6.031   3.982  18.572
 1487TIP3   OH228655   6.739   3.679  18.609
 1487TIP3    H128656   6.629   3.707  18.581
 1487TIP3    H228657   6.794   3.671  18.521
 1488TIP3   OH228658   6.152   3.392  18.017
 1488TIP3    H128659   6.037   3.385  17.998
 1488TIP3    H228660   6.196   3.300  17.971
 1489TIP3   OH228661   5.291   3.946  17.678
 1489TIP3    H128662   5.353   4.038  17.650
 1489TIP3    H228663   5.184   3.976  17.648
 1490TIP3   OH228664   5.447   3.666  17.612
 1490TIP3    H128665   5.388   3.766  17.627
 1490TIP3    H228666   5.374   3.587  17.649
 1491TIP3   OH228667   5.522   4.178  18.276
 1491TIP3    H128668   5.600   4.254  18.239
 1491TIP3    H228669   5.588   4.124  18.343
 1492TIP3   OH228670   5.286   4.261  17.558
 1492TIP3    H128671   5.178   4.286  17.589
 1492TIP3    H228672   5.338   4.362  17.584
 1493TIP3   OH228673   5.894   3.674  18.222
 1493TIP3    H128674   5.850   3.653  18.312
 1493TIP3    H228675   6.010   3.671  18.237
 1494TIP3   OH228676   6.216   3.869  17.200
 1494TIP3    H128677   6.209   3.773  17.255
 1494TIP3    H228678   6.164   3.836  17.117
 1495TIP3   OH228679   6.287   4.196  18.471
 1495TIP3    H128680   6.182   4.147  18.465
 1495TIP3    H228681   6.287   4.274  18.398
 1496TIP3   OH228682   6.764   4.340  17.152
 1496TIP3    H128683   6.848   4.390  17.098
 1496TIP3    H228684   6.690   4.428  17.165
 1497TIP3   OH228685   4.872   2.716  18.410
 1497TIP3    H128686   4.792   2.762  18.469
 1497TIP3    H228687   4.898   2.618  18.460
 1498TIP3   OH228688   6.322   3.589  17.338
 1498TIP3    H128689   6.324   3.505  17.405
 1498TIP3    H228690   6.433   3.628  17.336
 1499TIP3   OH228691   4.802   4.123  18.243
 1499TIP3    H128692   4.874   4.033  18.251
 1499TIP3    H228693   4.818   4.172  18.330
 1500TIP3   OH228694   4.957   3.554  17.283
 1500TIP3    H128695   4.865   3.612  17.323
 1500TIP3    H228696   5.011   3.642  17.238
 1501TIP3   OH228697   5.912   2.671  18.287
 1501TIP3    H128698   5.990   2.706  18.353
 1501TIP3    H228699   5.866   2.576  18.330
 1502TIP3   OH228700   5.683   4.028  17.268
 1502TIP3    H128701   5.624   4.097  17.328
 1502TIP3    H228702   5.786   4.079  17.263
 1503TIP3   OH228703   5.610   2.873  17.503
 1503TIP3    H128704   5.722   2.896  17.482
 1503TIP3    H228705   5.615   2.809  17.584
 1504TIP3   OH228706   5.750   2.969  18.420
 1504TIP3    H128707   5.756   3.020  18.510
 1504TIP3    H228708   5.783   2.860  18.437
 1505TIP3   OH228709   5.743   2.467  17.608
 1505TIP3    H128710   5.696   2.574  17.625
 1505TIP3    H228711   5.828   2.489  17.544
 1506TIP3   OH228712   5.358   4.230  17.291
 1506TIP3    H128713   5.406   4.331  17.259
 1506TIP3    H228714   5.321   4.256  17.382
 1507TIP3   OH228715   6.403   2.699  18.504
 1507TIP3    H128716   6.300   2.741  18.471
 1507TIP3    H228717   6.474   2.710  18.426
 1508TIP3   OH228718   6.287   3.131  17.890
 1508TIP3    H128719   6.192   3.062  17.900
 1508TIP3    H228720   6.368   3.072  17.941
 1509TIP3   OH228721   6.400   4.316  18.074
 1509TIP3    H128722   6.403   4.266  17.987
 1509TIP3    H228723   6.511   4.303  18.101
 1510TIP3   OH228724   4.765   3.971  17.537
 1510TIP3    H128725   4.672   4.027  17.569
 1510TIP3    H228726   4.798   4.046  17.468
 1511TIP3   OH228727   4.668   4.357  18.697
 1511TIP3    H128728   4.757   4.356  18.761
 1511TIP3    H228729   4.640   4.244  18.698
 1512TIP3   OH228730   5.255   4.230  18.831
 1512TIP3    H128731   5.359   4.194  18.863
 1512TIP3    H228732   5.249   4.177  18.745
 1513TIP3   OH228733   6.007   4.068  18.723
 1513TIP3    H128734   5.954   3.971  18.758
 1513TIP3    H228735   6.101   4.068  18.781
 1514TIP3   OH228736   4.646   3.594  18.797
 1514TIP3    H128737   4.650   3.478  18.814
 1514TIP3    H228738   4.649   3.593  18.699
 1515TIP3   OH228739   5.500   3.707  18.721
 1515TIP3    H128740   5.474   3.726  18.626
 1515TIP3    H228741   5.526   3.592  18.722
 1516TIP3   OH228742   6.139   3.596  18.511
 1516TIP3    H128743   6.224   3.674  18.493
 1516TIP3    H228744   6.056   3.674  18.531
 1517TIP3   OH228745   4.806   3.282  18.754
 1517TIP3    H128746   4.806   3.167  18.754
 1517TIP3    H228747   4.874   3.310  18.831
 1518TIP3   OH228748   5.356   3.394  17.250
 1518TIP3    H128749   5.263   3.352  17.297
 1518TIP3    H228750   5.359   3.329  17.170
 1519TIP3   OH228751   5.176   3.158  18.384
 1519TIP3    H128752   5.192   3.144  18.480
 1519TIP3    H228753   5.278   3.210  18.357
 1520TIP3   OH228754   5.897   3.510  18.798
 1520TIP3    H128755   5.966   3.416  18.794
 1520TIP3    H228756   5.792   3.461  18.777
 1521TIP3   OH228757   5.302   2.836  18.520
 1521TIP3    H128758   5.346   2.756  18.458
 1521TIP3    H228759   5.371   2.932  18.511
 1522TIP3   OH228760   5.383   2.612  18.330
 1522TIP3    H128761   5.432   2.688  18.267
 1522TIP3    H228762   5.269   2.624  18.310
 1523TIP3   OH228763   5.515   3.317  18.326
 1523TIP3    H128764   5.622   3.358  18.341
 1523TIP3    H228765   5.462   3.406  18.282
 1524TIP3   OH228766   6.122   2.960  18.822
 1524TIP3    H128767   6.210   2.886  18.817
 1524TIP3    H228768   6.174   3.059  18.849
 1525TIP3   OH228769   6.256   3.380  18.679
 1525TIP3    H128770   6.197   3.443  18.612
 1525TIP3    H228771   6.364   3.389  18.643
 1526TIP3   OH228772   5.137   2.940  18.733
 1526TIP3    H128773   5.040   2.888  18.699
 1526TIP3    H228774   5.213   2.906  18.661
 1527TIP3   OH228775   5.486   2.314  18.343
 1527TIP3    H128776   5.454   2.428  18.343
 1527TIP3    H228777   5.390   2.262  18.311
 1528TIP3   OH228778   5.602   2.843  18.740
 1528TIP3    H128779   5.531   2.819  18.815
 1528TIP3    H228780   5.528   2.836  18.665
 1529TIP3   OH228781   5.946   2.706  18.658
 1529TIP3    H128782   5.860   2.754  18.712
 1529TIP3    H228783   6.018   2.665  18.727
 1530TIP3   OH228784   6.164   2.579  18.835
 1530TIP3    H128785   6.142   2.464  18.828
 1530TIP3    H228786   6.127   2.602  18.926
 1531TIP3   OH228787   4.872   2.730  18.743
 1531TIP3    H128788   4.861   2.621  18.708
 1531TIP3    H228789   4.866   2.707  18.840
 1532TIP3   OH228790   5.460   2.278  18.625
 1532TIP3    H128791   5.538   2.192  18.641
 1532TIP3    H228792   5.462   2.275  18.528
 1533TIP3   OH228793   5.496   2.418  18.870
 1533TIP3    H128794   5.474   2.368  18.782
 1533TIP3    H228795   5.429   2.515  18.861
 1534TIP3   OH228796   5.464   4.517  17.161
 1534TIP3    H128797   5.576   4.487  17.148
 1534TIP3    H228798   5.447   4.573  17.078
 1535TIP3   OH228799   4.505   4.435  17.647
 1535TIP3    H128800   4.421   4.392  17.589
 1535TIP3    H228801   4.532   4.348  17.707
 1536TIP3   OH228802   4.658   4.222  17.808
 1536TIP3    H128803   4.600   4.141  17.858
 1536TIP3    H228804   4.728   4.265  17.878
 1537TIP3   OH228805   6.774   4.375  18.055
 1537TIP3    H128806   6.790   4.328  18.143
 1537TIP3    H228807   6.883   4.410  18.035
 1538TIP3   OH228808   6.700   4.303  18.386
 1538TIP3    H128809   6.664   4.204  18.344
 1538TIP3    H228810   6.737   4.261  18.472
 1539TIP3   OH228811   6.511   3.775  18.852
 1539TIP3    H128812   6.404   3.772  18.893
 1539TIP3    H228813   6.560   3.864  18.902
 1540TIP3   OH228814   6.660   3.558  17.354
 1540TIP3    H128815   6.754   3.625  17.374
 1540TIP3    H228816   6.661   3.488  17.433
 1541TIP3   OH228817   6.704   3.354  17.574
 1541TIP3    H128818   6.607   3.312  17.618
 1541TIP3    H228819   6.784   3.353  17.647
 1542TIP3   OH228820   6.620   3.706  18.062
 1542TIP3    H128821   6.695   3.623  18.030
 1542TIP3    H228822   6.695   3.793  18.071
 1543TIP3   OH228823   6.523   4.038  18.285
 1543TIP3    H128824   6.430   4.066  18.337
 1543TIP3    H228825   6.488   3.935  18.248
 1544TIP3   OH228826   6.452   3.194  17.670
 1544TIP3    H128827   6.396   3.102  17.632
 1544TIP3    H228828   6.412   3.188  17.762
 1545TIP3   OH228829   4.628   3.433  18.058
 1545TIP3    H128830   4.624   3.384  17.969
 1545TIP3    H228831   4.734   3.394  18.089
 1546TIP3   OH228832   6.582   3.392  18.605
 1546TIP3    H128833   6.638   3.290  18.622
 1546TIP3    H228834   6.668   3.473  18.596
 1547TIP3   OH228835   6.703   3.104  18.669
 1547TIP3    H128836   6.593   3.074  18.641
 1547TIP3    H228837   6.762   3.002  18.666
 1548TIP3   OH228838   6.394   2.920  17.520
 1548TIP3    H128839   6.383   2.814  17.481
 1548TIP3    H228840   6.472   2.971  17.463
 1549TIP3   OH228841   6.503   2.938  18.018
 1549TIP3    H128842   6.619   2.953  18.028
 1549TIP3    H228843   6.475   2.947  18.113
 1550TIP3   OH228844   6.492   3.041  18.269
 1550TIP3    H128845   6.384   3.068  18.302
 1550TIP3    H228846   6.546   3.146  18.275
 1551TIP3   OH228847   4.610   2.867  18.636
 1551TIP3    H128848   4.714   2.839  18.677
 1551TIP3    H228849   4.550   2.767  18.651
 1552TIP3   OH228850   6.787   2.365  18.831
 1552TIP3    H128851   6.824   2.274  18.778
 1552TIP3    H228852   6.774   2.447  18.761
 1553TIP3   OH228853   4.564   2.998  18.057
 1553TIP3    H128854   4.631   2.983  17.978
 1553TIP3    H228855   4.622   3.083  18.100
 1554TIP3   OH228856   6.697   2.603  18.666
 1554TIP3    H128857   6.608   2.648  18.720
 1554TIP3    H228858   6.635   2.552  18.595
 1555TIP3   OH228859   4.556   2.392  18.285
 1555TIP3    H128860   4.487   2.360  18.359
 1555TIP3    H228861   4.494   2.473  18.238
 1556TIP3   OH228862   4.843   3.996  18.689
 1556TIP3    H128863   4.734   4.013  18.659
 1556TIP3    H228864   4.836   3.938  18.772
 1557TIP3   OH228865   5.196   4.163  18.344
 1557TIP3    H128866   5.194   4.273  18.310
 1557TIP3    H228867   5.311   4.140  18.344
 1558TIP3   OH228868   5.687   4.340  18.611
 1558TIP3    H128869   5.714   4.297  18.699
 1558TIP3    H228870   5.794   4.370  18.578
 1559TIP3   OH228871   5.978   4.489  18.558
 1559TIP3    H128872   6.065   4.430  18.518
 1559TIP3    H228873   6.020   4.516  18.648
 1560TIP3   OH228874   6.580   2.329  18.462
 1560TIP3    H128875   6.486   2.381  18.426
 1560TIP3    H228876   6.589   2.230  18.408
 1561TIP3   OH228877   4.877   4.520  18.326
 1561TIP3    H128878   4.788   4.589  18.297
 1561TIP3    H228879   4.864   4.525  18.422
 1562TIP3   OH228880   5.159   4.454  18.221
 1562TIP3    H128881   5.046   4.481  18.243
 1562TIP3    H228882   5.182   4.536  18.152
 1563TIP3   OH228883   5.746   4.406  18.167
 1563TIP3    H128884   5.724   4.463  18.085
 1563TIP3    H228885   5.772   4.496  18.227
 1564TIP3   OH228886   5.990   4.259  18.316
 1564TIP3    H128887   5.912   4.289  18.247
 1564TIP3    H228888   6.070   4.343  18.306
 1565TIP3   OH228889   6.271   4.448  18.291
 1565TIP3    H128890   6.280   4.562  18.269
 1565TIP3    H228891   6.306   4.400  18.205
 1566TIP3   OH228892   4.838   4.328  18.023
 1566TIP3    H128893   4.817   4.262  18.102
 1566TIP3    H228894   4.943   4.283  17.995
 1567TIP3   OH228895   5.087   4.196  17.893
 1567TIP3    H128896   5.069   4.085  17.922
 1567TIP3    H228897   5.196   4.212  17.928
 1568TIP3   OH228898   5.375   4.199  18.010
 1568TIP3    H128899   5.395   4.084  18.000
 1568TIP3    H228900   5.401   4.214  18.104
 1569TIP3   OH228901   5.839   2.490  17.904
 1569TIP3    H128902   5.728   2.484  17.929
 1569TIP3    H228903   5.832   2.477  17.808
 1570TIP3   OH228904   5.400   2.388  17.651
 1570TIP3    H128905   5.489   2.410  17.591
 1570TIP3    H228906   5.454   2.364  17.734
 1571TIP3   OH228907   4.688   4.213  17.368
 1571TIP3    H128908   4.615   4.198  17.293
 1571TIP3    H228909   4.716   4.324  17.350
 1572TIP3   OH228910   5.460   2.587  17.399
 1572TIP3    H128911   5.557   2.528  17.410
 1572TIP3    H228912   5.492   2.676  17.342
 1573TIP3   OH228913   5.785   4.357  17.178
 1573TIP3    H128914   5.884   4.408  17.149
 1573TIP3    H228915   5.774   4.271  17.113
 1574TIP3   OH228916   4.843   2.404  18.622
 1574TIP3    H128917   4.783   2.304  18.630
 1574TIP3    H228918   4.927   2.389  18.691
 1575TIP3   OH228919   5.074   2.336  18.805
 1575TIP3    H128920   5.189   2.320  18.790
 1575TIP3    H228921   5.044   2.227  18.832
 1576TIP3   OH228922   6.089   2.252  18.802
 1576TIP3    H128923   6.084   2.179  18.879
 1576TIP3    H228924   6.204   2.243  18.781
 1577TIP3   OH228925   6.499   4.204  18.661
 1577TIP3    H128926   6.420   4.178  18.590
 1577TIP3    H228927   6.460   4.308  18.691
 1578TIP3   OH228928   7.184   3.322  18.110
 1578TIP3    H128929   7.202   3.240  18.177
 1578TIP3    H228930   7.171   3.418  18.165
 1579TIP3   OH228931   8.556   3.712  17.869
 1579TIP3    H128932   8.536   3.634  17.938
 1579TIP3    H228933   8.554   3.814  17.919
 1580TIP3   OH228934   7.294   3.938  17.983
 1580TIP3    H128935   7.240   3.835  17.991
 1580TIP3    H228936   7.399   3.904  17.954
 1581TIP3   OH228937   6.864   3.008  17.530
 1581TIP3    H128938   6.900   3.116  17.549
 1581TIP3    H228939   6.781   2.999  17.597
 1582TIP3   OH228940   6.949   3.323  17.762
 1582TIP3    H128941   7.007   3.235  17.807
 1582TIP3    H228942   7.021   3.414  17.771
 1583TIP3   OH228943   8.198   4.332  17.828
 1583TIP3    H128944   8.270   4.274  17.769
 1583TIP3    H228945   8.183   4.246  17.890
 1584TIP3   OH228946   7.903   3.670  18.063
 1584TIP3    H128947   7.934   3.634  17.975
 1584TIP3    H228948   8.005   3.676  18.113
 1585TIP3   OH228949   8.932   2.666  18.080
 1585TIP3    H128950   8.926   2.726  18.164
 1585TIP3    H228951   9.004   2.734  18.029
 1586TIP3   OH228952   8.284   2.981  18.103
 1586TIP3    H128953   8.317   2.869  18.111
 1586TIP3    H228954   8.214   2.974  18.027
 1587TIP3   OH228955   7.462   2.705  17.778
 1587TIP3    H128956   7.487   2.802  17.727
 1587TIP3    H228957   7.403   2.642  17.711
 1588TIP3   OH228958   8.438   2.767  17.646
 1588TIP3    H128959   8.483   2.747  17.736
 1588TIP3    H228960   8.526   2.826  17.604
 1589TIP3   OH228961   7.030   3.012  17.869
 1589TIP3    H128962   7.109   2.969  17.932
 1589TIP3    H228963   7.085   2.988  17.784
 1590TIP3   OH228964   7.662   3.211  17.770
 1590TIP3    H128965   7.662   3.192  17.866
 1590TIP3    H228966   7.602   3.119  17.735
 1591TIP3   OH228967   8.948   2.765  18.362
 1591TIP3    H128968   8.880   2.856  18.335
 1591TIP3    H228969   9.028   2.822  18.415
 1592TIP3   OH228970   7.337   2.627  18.208
 1592TIP3    H128971   7.284   2.682  18.134
 1592TIP3    H228972   7.259   2.642  18.280
 1593TIP3   OH228973   7.624   3.538  18.195
 1593TIP3    H128974   7.543   3.617  18.224
 1593TIP3    H228975   7.698   3.611  18.151
 1594TIP3   OH228976   8.574   2.744  17.883
 1594TIP3    H128977   8.530   2.651  17.927
 1594TIP3    H228978   8.621   2.806  17.957
 1595TIP3   OH228979   7.270   2.843  17.992
 1595TIP3    H128980   7.350   2.908  18.041
 1595TIP3    H228981   7.336   2.796  17.922
 1596TIP3   OH228982   7.444   3.791  18.284
 1596TIP3    H128983   7.411   3.870  18.219
 1596TIP3    H228984   7.343   3.787  18.337
 1597TIP3   OH228985   6.937   3.716  17.392
 1597TIP3    H128986   6.926   3.766  17.302
 1597TIP3    H228987   6.953   3.811  17.449
 1598TIP3   OH228988   8.581   3.965  18.046
 1598TIP3    H128989   8.467   3.970  18.070
 1598TIP3    H228990   8.602   4.078  18.026
 1599TIP3   OH228991   8.627   2.612  18.193
 1599TIP3    H128992   8.527   2.609  18.141
 1599TIP3    H228993   8.710   2.632  18.126
 1600TIP3   OH228994   7.753   2.306  17.940
 1600TIP3    H128995   7.715   2.198  17.959
 1600TIP3    H228996   7.658   2.368  17.971
 1601TIP3   OH228997   8.416   4.086  17.751
 1601TIP3    H128998   8.393   4.024  17.672
 1601TIP3    H228999   8.488   4.170  17.717
 1602TIP3   OH229000   8.557   3.854  17.563
 1602TIP3    H129001   8.460   3.797  17.539
 1602TIP3    H229002   8.569   3.828  17.657
 1603TIP3   OH229003   8.701   3.725  18.447
 1603TIP3    H129004   8.696   3.652  18.370
 1603TIP3    H229005   8.710   3.828  18.400
 1604TIP3   OH229006   8.903   3.284  18.222
 1604TIP3    H129007   8.832   3.378  18.214
 1604TIP3    H229008   8.990   3.314  18.158
 1605TIP3   OH229009   8.512   3.318  17.474
 1605TIP3    H129010   8.460   3.412  17.511
 1605TIP3    H229011   8.584   3.284  17.546
 1606TIP3   OH229012   8.494   3.182  18.415
 1606TIP3    H129013   8.466   3.278  18.465
 1606TIP3    H229014   8.404   3.186  18.351
 1607TIP3   OH229015   7.430   3.409  17.673
 1607TIP3    H129016   7.412   3.368  17.582
 1607TIP3    H229017   7.529   3.352  17.698
 1608TIP3   OH229018   7.664   3.851  17.960
 1608TIP3    H129019   7.660   3.809  17.870
 1608TIP3    H229020   7.746   3.781  18.002
 1609TIP3   OH229021   7.562   3.283  18.042
 1609TIP3    H129022   7.502   3.343  17.975
 1609TIP3    H229023   7.574   3.366  18.112
 1610TIP3   OH229024   8.290   3.978  18.146
 1610TIP3    H129025   8.256   4.045  18.221
 1610TIP3    H229026   8.243   3.874  18.171
 1611TIP3   OH229027   7.645   3.848  18.503
 1611TIP3    H129028   7.559   3.900  18.556
 1611TIP3    H229029   7.591   3.833  18.416
 1612TIP3   OH229030   7.286   3.353  18.449
 1612TIP3    H129031   7.295   3.454  18.498
 1612TIP3    H229032   7.174   3.334  18.462
 1613TIP3   OH229033   8.123   4.175  17.583
 1613TIP3    H129034   8.095   4.073  17.623
 1613TIP3    H229035   8.018   4.217  17.560
 1614TIP3   OH229036   7.429   4.044  18.610
 1614TIP3    H129037   7.428   4.112  18.528
 1614TIP3    H229038   7.316   4.016  18.619
 1615TIP3   OH229039   8.735   2.327  17.270
 1615TIP3    H129040   8.650   2.300  17.208
 1615TIP3    H229041   8.810   2.376  17.209
 1616TIP3   OH229042   7.333   3.320  17.428
 1616TIP3    H129043   7.310   3.433  17.401
 1616TIP3    H229044   7.234   3.274  17.400
 1617TIP3   OH229045   6.901   3.624  18.395
 1617TIP3    H129046   6.911   3.640  18.297
 1617TIP3    H229047   6.920   3.509  18.405
 1618TIP3   OH229048   6.902   3.986  17.950
 1618TIP3    H129049   6.961   3.884  17.960
 1618TIP3    H229050   6.878   4.002  18.043
 1619TIP3   OH229051   9.042   4.048  18.582
 1619TIP3    H129052   9.034   3.935  18.562
 1619TIP3    H229053   8.940   4.061  18.630
 1620TIP3   OH229054   7.940   3.984  18.506
 1620TIP3    H129055   7.942   4.076  18.565
 1620TIP3    H229056   7.826   3.949  18.506
 1621TIP3   OH229057   7.975   4.463  17.425
 1621TIP3    H129058   7.978   4.504  17.336
 1621TIP3    H229059   8.014   4.552  17.478
 1622TIP3   OH229060   7.236   4.286  17.642
 1622TIP3    H129061   7.278   4.259  17.731
 1622TIP3    H229062   7.148   4.210  17.629
 1623TIP3   OH229063   8.314   4.339  17.386
 1623TIP3    H129064   8.212   4.330  17.435
 1623TIP3    H229065   8.380   4.270  17.439
 1624TIP3   OH229066   8.646   3.046  18.642
 1624TIP3    H129067   8.591   3.083  18.560
 1624TIP3    H229068   8.669   2.935  18.617
 1625TIP3   OH229069   7.178   3.796  18.433
 1625TIP3    H129070   7.186   3.757  18.526
 1625TIP3    H229071   7.076   3.751  18.405
 1626TIP3   OH229072   7.492   2.441  18.028
 1626TIP3    H129073   7.391   2.448  17.979
 1626TIP3    H229074   7.466   2.506  18.106
 1627TIP3   OH229075   8.068   2.362  18.353
 1627TIP3    H129076   8.106   2.299  18.429
 1627TIP3    H229077   7.949   2.358  18.361
 1628TIP3   OH229078   8.398   2.832  18.460
 1628TIP3    H129079   8.341   2.776  18.532
 1628TIP3    H229080   8.339   2.932  18.456
 1629TIP3   OH229081   7.493   2.992  18.155
 1629TIP3    H129082   7.400   3.000  18.215
 1629TIP3    H229083   7.514   3.104  18.135
 1630TIP3   OH229084   7.489   2.988  17.644
 1630TIP3    H129085   7.372   2.987  17.640
 1630TIP3    H229086   7.513   2.971  17.548
 1631TIP3   OH229087   7.994   3.115  18.673
 1631TIP3    H129088   7.950   3.012  18.702
 1631TIP3    H229089   8.082   3.127  18.736
 1632TIP3   OH229090   7.210   3.006  18.282
 1632TIP3    H129091   7.249   3.058  18.363
 1632TIP3    H229092   7.164   2.906  18.317
 1633TIP3   OH229093   6.965   2.806  17.243
 1633TIP3    H129094   7.049   2.818  17.176
 1633TIP3    H229095   6.936   2.917  17.255
 1634TIP3   OH229096   8.227   3.228  18.267
 1634TIP3    H129097   8.252   3.139  18.205
 1634TIP3    H229098   8.141   3.176  18.318
 1635TIP3   OH229099   7.801   2.702  17.750
 1635TIP3    H129100   7.688   2.699  17.773
 1635TIP3    H229101   7.852   2.668  17.833
 1636TIP3   OH229102   7.171   2.922  17.619
 1636TIP3    H129103   7.070   2.923  17.568
 1636TIP3    H229104   7.213   2.814  17.596
 1637TIP3   OH229105   7.571   2.930  17.391
 1637TIP3    H129106   7.686   2.924  17.409
 1637TIP3    H229107   7.567   3.023  17.333
 1638TIP3   OH229108   8.342   2.624  18.065
 1638TIP3    H129109   8.254   2.621  18.131
 1638TIP3    H229110   8.294   2.578  17.986
 1639TIP3   OH229111   8.694   4.474  18.727
 1639TIP3    H129112   8.743   4.520  18.648
 1639TIP3    H229113   8.782   4.488  18.792
 1640TIP3   OH229114   7.229   3.588  18.664
 1640TIP3    H129115   7.309   3.617  18.731
 1640TIP3    H229116   7.139   3.556  18.720
 1641TIP3   OH229117   7.278   2.617  17.572
 1641TIP3    H129118   7.231   2.521  17.614
 1641TIP3    H229119   7.327   2.568  17.495
 1642TIP3   OH229120   7.770   2.834  18.181
 1642TIP3    H129121   7.679   2.908  18.177
 1642TIP3    H229122   7.852   2.898  18.227
 1643TIP3   OH229123   8.706   3.564  18.226
 1643TIP3    H129124   8.770   3.598  18.149
 1643TIP3    H229125   8.612   3.517  18.182
 1644TIP3   OH229126   8.020   3.666  18.477
 1644TIP3    H129127   7.972   3.620  18.556
 1644TIP3    H229128   8.003   3.781  18.492
 1645TIP3   OH229129   8.442   2.963  17.314
 1645TIP3    H129130   8.530   2.948  17.377
 1645TIP3    H229131   8.425   3.077  17.324
 1646TIP3   OH229132   7.278   3.550  17.898
 1646TIP3    H129133   7.312   3.508  17.811
 1646TIP3    H229134   7.261   3.455  17.954
 1647TIP3   OH229135   6.938   3.317  18.461
 1647TIP3    H129136   6.893   3.257  18.534
 1647TIP3    H229137   6.860   3.292  18.389
 1648TIP3   OH229138   7.740   3.302  18.649
 1648TIP3    H129139   7.686   3.235  18.584
 1648TIP3    H229140   7.844   3.247  18.656
 1649TIP3   OH229141   8.333   3.920  18.495
 1649TIP3    H129142   8.233   3.948  18.451
 1649TIP3    H229143   8.316   3.968  18.583
 1650TIP3   OH229144   8.952   3.026  17.286
 1650TIP3    H129145   8.953   2.933  17.229
 1650TIP3    H229146   8.999   3.108  17.230
 1651TIP3   OH229147   8.972   3.682  18.574
 1651TIP3    H129148   8.868   3.715  18.537
 1651TIP3    H229149   9.036   3.665  18.492
 1652TIP3   OH229150   8.782   4.002  17.362
 1652TIP3    H129151   8.710   3.970  17.435
 1652TIP3    H229152   8.719   3.985  17.283
 1653TIP3   OH229153   8.479   3.418  18.064
 1653TIP3    H129154   8.366   3.402  18.080
 1653TIP3    H229155   8.504   3.336  17.998
 1654TIP3   OH229156   7.522   3.931  17.708
 1654TIP3    H129157   7.619   3.983  17.676
 1654TIP3    H229158   7.439   3.984  17.658
 1655TIP3   OH229159   7.042   3.356  17.129
 1655TIP3    H129160   7.139   3.368  17.181
 1655TIP3    H229161   6.986   3.456  17.148
 1656TIP3   OH229162   7.780   4.158  18.300
 1656TIP3    H129163   7.846   4.237  18.255
 1656TIP3    H229164   7.853   4.114  18.367
 1657TIP3   OH229165   7.538   4.336  17.548
 1657TIP3    H129166   7.432   4.334  17.590
 1657TIP3    H229167   7.588   4.428  17.591
 1658TIP3   OH229168   8.159   3.671  18.236
 1658TIP3    H129169   8.098   3.656  18.320
 1658TIP3    H229170   8.243   3.593  18.253
 1659TIP3   OH229171   8.518   4.225  18.475
 1659TIP3    H129172   8.410   4.178  18.468
 1659TIP3    H229173   8.525   4.290  18.393
 1660TIP3   OH229174   9.025   4.408  17.172
 1660TIP3    H129175   9.073   4.469  17.100
 1660TIP3    H229176   8.942   4.348  17.125
 1661TIP3   OH229177   7.112   2.713  18.411
 1661TIP3    H129178   7.048   2.761  18.482
 1661TIP3    H229179   7.108   2.602  18.440
 1662TIP3   OH229180   7.079   4.133  18.240
 1662TIP3    H129181   7.132   4.031  18.228
 1662TIP3    H229182   7.122   4.164  18.326
 1663TIP3   OH229183   7.615   3.866  17.235
 1663TIP3    H129184   7.708   3.816  17.278
 1663TIP3    H229185   7.621   3.976  17.273
 1664TIP3   OH229186   7.218   3.570  17.301
 1664TIP3    H129187   7.133   3.618  17.356
 1664TIP3    H229188   7.255   3.665  17.251
 1665TIP3   OH229189   8.143   2.681  18.319
 1665TIP3    H129190   8.246   2.693  18.363
 1665TIP3    H229191   8.110   2.575  18.351
 1666TIP3   OH229192   8.228   2.666  17.462
 1666TIP3    H129193   8.291   2.742  17.409
 1666TIP3    H229194   8.303   2.665  17.539
 1667TIP3   OH229195   7.903   2.890  17.482
 1667TIP3    H129196   7.987   2.828  17.440
 1667TIP3    H229197   7.859   2.816  17.547
 1668TIP3   OH229198   8.040   2.994  18.415
 1668TIP3    H129199   8.020   3.019  18.509
 1668TIP3    H229200   8.071   2.881  18.413
 1669TIP3   OH229201   7.998   2.483  17.591
 1669TIP3    H129202   7.950   2.546  17.663
 1669TIP3    H229203   8.071   2.560  17.549
 1670TIP3   OH229204   7.636   4.156  17.338
 1670TIP3    H129205   7.679   4.240  17.281
 1670TIP3    H229206   7.584   4.220  17.408
 1671TIP3   OH229207   7.501   2.580  17.256
 1671TIP3    H129208   7.442   2.677  17.271
 1671TIP3    H229209   7.604   2.611  17.290
 1672TIP3   OH229210   8.692   2.704  18.522
 1672TIP3    H129211   8.593   2.737  18.476
 1672TIP3    H229212   8.773   2.735  18.458
 1673TIP3   OH229213   8.494   3.114  17.869
 1673TIP3    H129214   8.447   3.008  17.871
 1673TIP3    H229215   8.572   3.097  17.943
 1674TIP3   OH229216   7.289   3.845  17.170
 1674TIP3    H129217   7.385   3.890  17.212
 1674TIP3    H229218   7.338   3.798  17.090
 1675TIP3   OH229219   8.704   4.266  18.053
 1675TIP3    H129220   8.681   4.349  17.986
 1675TIP3    H229221   8.820   4.279  18.064
 1676TIP3   OH229222   7.177   2.372  17.971
 1676TIP3    H129223   7.177   2.353  17.875
 1676TIP3    H229224   7.141   2.269  18.007
 1677TIP3   OH229225   7.012   4.043  17.560
 1677TIP3    H129226   6.912   4.092  17.590
 1677TIP3    H229227   7.021   4.094  17.472
 1678TIP3   OH229228   6.928   4.363  18.693
 1678TIP3    H129229   7.012   4.342  18.759
 1678TIP3    H229230   6.886   4.255  18.678
 1679TIP3   OH229231   7.505   4.231  18.826
 1679TIP3    H129232   7.606   4.186  18.857
 1679TIP3    H229233   7.492   4.177  18.740
 1680TIP3   OH229234   8.272   4.073  18.735
 1680TIP3    H129235   8.233   3.966  18.765
 1680TIP3    H229236   8.375   4.078  18.781
 1681TIP3   OH229237   6.928   3.588  18.816
 1681TIP3    H129238   6.896   3.476  18.802
 1681TIP3    H229239   6.862   3.638  18.746
 1682TIP3   OH229240   7.448   3.685  16.975
 1682TIP3    H129241   7.496   3.653  17.060
 1682TIP3    H229242   7.499   3.610  16.915
 1683TIP3   OH229243   7.721   3.619  18.688
 1683TIP3    H129244   7.703   3.677  18.603
 1683TIP3    H229245   7.726   3.504  18.663
 1684TIP3   OH229246   8.423   3.581  18.482
 1684TIP3    H129247   8.530   3.630  18.491
 1684TIP3    H229248   8.359   3.679  18.488
 1685TIP3   OH229249   7.066   3.258  18.775
 1685TIP3    H129250   7.129   3.163  18.765
 1685TIP3    H229251   7.116   3.317  18.850
 1686TIP3   OH229252   7.565   3.434  17.201
 1686TIP3    H129253   7.525   3.391  17.284
 1686TIP3    H229254   7.624   3.343  17.164
 1687TIP3   OH229255   7.524   3.150  18.433
 1687TIP3    H129256   7.436   3.228  18.438
 1687TIP3    H229257   7.609   3.211  18.389
 1688TIP3   OH229258   7.736   3.170  17.095
 1688TIP3    H129259   7.745   3.097  17.021
 1688TIP3    H229260   7.836   3.233  17.090
 1689TIP3   OH229261   8.118   3.485  18.822
 1689TIP3    H129262   8.208   3.451  18.767
 1689TIP3    H229263   8.092   3.383  18.867
 1690TIP3   OH229264   7.597   2.866  18.529
 1690TIP3    H129265   7.609   2.790  18.454
 1690TIP3    H229266   7.589   2.970  18.483
 1691TIP3   OH229267   7.618   2.618  18.330
 1691TIP3    H129268   7.678   2.684  18.265
 1691TIP3    H229269   7.510   2.623  18.290
 1692TIP3   OH229270   7.782   3.313  18.337
 1692TIP3    H129271   7.892   3.337  18.319
 1692TIP3    H229272   7.726   3.402  18.291
 1693TIP3   OH229273   8.399   2.984  18.818
 1693TIP3    H129274   8.456   2.884  18.814
 1693TIP3    H229275   8.467   3.044  18.756
 1694TIP3   OH229276   8.461   3.380  18.689
 1694TIP3    H129277   8.438   3.448  18.611
 1694TIP3    H229278   8.572   3.348  18.673
 1695TIP3   OH229279   7.410   2.947  18.750
 1695TIP3    H129280   7.308   2.898  18.726
 1695TIP3    H229281   7.474   2.921  18.671
 1696TIP3   OH229282   7.748   2.330  18.333
 1696TIP3    H129283   7.710   2.442  18.342
 1696TIP3    H229284   7.649   2.278  18.315
 1697TIP3   OH229285   7.852   2.836  18.750
 1697TIP3    H129286   7.780   2.800  18.821
 1697TIP3    H229287   7.784   2.822  18.671
 1698TIP3   OH229288   8.191   2.737  18.661
 1698TIP3    H129289   8.093   2.767  18.707
 1698TIP3    H229290   8.246   2.678  18.733
 1699TIP3   OH229291   8.395   2.592  18.830
 1699TIP3    H129292   8.381   2.474  18.831
 1699TIP3    H229293   8.359   2.622  18.921
 1700TIP3   OH229294   7.142   2.735  18.760
 1700TIP3    H129295   7.120   2.638  18.710
 1700TIP3    H229296   7.122   2.698  18.853
 1701TIP3   OH229297   7.698   2.286  18.627
 1701TIP3    H129298   7.783   2.209  18.644
 1701TIP3    H229299   7.706   2.293  18.529
 1702TIP3   OH229300   7.734   2.437  18.883
 1702TIP3    H129301   7.718   2.400  18.791
 1702TIP3    H229302   7.676   2.539  18.884
 1703TIP3   OH229303   7.681   4.448  17.162
 1703TIP3    H129304   7.780   4.435  17.111
 1703TIP3    H229305   7.656   4.560  17.141
 1704TIP3   OH229306   6.964   3.823  17.129
 1704TIP3    H129307   7.081   3.836  17.134
 1704TIP3    H229308   6.946   3.833  17.033
 1705TIP3   OH229309   6.881   4.248  17.794
 1705TIP3    H129310   6.904   4.136  17.820
 1705TIP3    H229311   6.830   4.284  17.877
 1706TIP3   OH229312   9.048   4.301  18.124
 1706TIP3    H129313   9.042   4.276  18.220
 1706TIP3    H229314   9.032   4.417  18.129
 1707TIP3   OH229315   8.953   4.260  18.385
 1707TIP3    H129316   8.894   4.171  18.342
 1707TIP3    H229317   8.998   4.201  18.461
 1708TIP3   OH229318   8.772   3.774  18.881
 1708TIP3    H129319   8.669   3.791  18.925
 1708TIP3    H229320   8.821   3.881  18.891
 1709TIP3   OH229321   8.962   3.587  17.376
 1709TIP3    H129322   8.981   3.682  17.430
 1709TIP3    H229323   8.945   3.510  17.447
 1710TIP3   OH229324   8.960   3.314  17.580
 1710TIP3    H129325   8.858   3.268  17.612
 1710TIP3    H229326   9.010   3.349  17.662
 1711TIP3   OH229327   8.976   3.637  18.074
 1711TIP3    H129328   9.090   3.638  18.054
 1711TIP3    H229329   8.950   3.749  18.049
 1712TIP3   OH229330   8.767   4.010  18.306
 1712TIP3    H129331   8.675   4.064  18.343
 1712TIP3    H229332   8.738   3.997  18.213
 1713TIP3   OH229333   9.026   3.356  17.191
 1713TIP3    H129334   8.912   3.354  17.205
 1713TIP3    H229335   9.058   3.407  17.274
 1714TIP3   OH229336   8.689   3.161  17.659
 1714TIP3    H129337   8.657   3.061  17.613
 1714TIP3    H229338   8.641   3.145  17.747
 1715TIP3   OH229339   6.869   3.347  18.046
 1715TIP3    H129340   6.872   3.370  17.950
 1715TIP3    H229341   6.976   3.391  18.069
 1716TIP3   OH229342   8.798   3.397  18.619
 1716TIP3    H129343   8.885   3.325  18.592
 1716TIP3    H229344   8.854   3.502  18.608
 1717TIP3   OH229345   8.978   3.138  18.628
 1717TIP3    H129346   8.863   3.140  18.649
 1717TIP3    H229347   9.004   3.025  18.651
 1718TIP3   OH229348   8.693   2.903  17.494
 1718TIP3    H129349   8.728   2.794  17.471
 1718TIP3    H229350   8.790   2.962  17.475
 1719TIP3   OH229351   8.682   2.982  18.045
 1719TIP3    H129352   8.798   2.970  18.031
 1719TIP3    H229353   8.678   2.975  18.143
 1720TIP3   OH229354   8.748   3.022  18.319
 1720TIP3    H129355   8.641   3.062  18.346
 1720TIP3    H229356   8.797   3.121  18.286
 1721TIP3   OH229357   6.890   2.850  18.645
 1721TIP3    H129358   6.990   2.838  18.697
 1721TIP3    H229359   6.840   2.744  18.660
 1722TIP3   OH229360   9.005   2.280  18.833
 1722TIP3    H129361   9.054   2.208  18.769
 1722TIP3    H229362   8.995   2.375  18.775
 1723TIP3   OH229363   8.770   2.608  17.435
 1723TIP3    H129364   8.802   2.543  17.512
 1723TIP3    H229365   8.668   2.561  17.411
 1724TIP3   OH229366   6.990   2.646  17.969
 1724TIP3    H129367   7.057   2.550  17.983
 1724TIP3    H229368   7.069   2.728  17.950
 1725TIP3   OH229369   6.810   3.029  18.068
 1725TIP3    H129370   6.880   2.988  17.997
 1725TIP3    H229371   6.840   3.144  18.063
 1726TIP3   OH229372   8.942   2.546  18.695
 1726TIP3    H129373   8.851   2.615  18.724
 1726TIP3    H229374   8.909   2.527  18.603
 1727TIP3   OH229375   6.886   2.548  17.427
 1727TIP3    H129376   6.772   2.533  17.421
 1727TIP3    H229377   6.902   2.651  17.385
 1728TIP3   OH229378   8.616   4.327  17.658
 1728TIP3    H129379   8.689   4.312  17.584
 1728TIP3    H229380   8.687   4.366  17.727
 1729TIP3   OH229381   6.847   2.389  18.291
 1729TIP3    H129382   6.775   2.356  18.361
 1729TIP3    H229383   6.787   2.474  18.247
 1730TIP3   OH229384   7.110   3.968  18.681
 1730TIP3    H129385   7.009   4.004  18.643
 1730TIP3    H229386   7.085   3.950  18.773
 1731TIP3   OH229387   7.468   4.181  18.374
 1731TIP3    H129388   7.465   4.283  18.325
 1731TIP3    H229389   7.580   4.151  18.362
 1732TIP3   OH229390   7.949   4.302  18.618
 1732TIP3    H129391   7.966   4.265  18.710
 1732TIP3    H229392   8.058   4.338  18.595
 1733TIP3   OH229393   8.230   4.468  18.573
 1733TIP3    H129394   8.327   4.422  18.535
 1733TIP3    H229395   8.268   4.510  18.658
 1734TIP3   OH229396   8.825   2.329  18.476
 1734TIP3    H129397   8.732   2.383  18.438
 1734TIP3    H229398   8.826   2.226  18.431
 1735TIP3   OH229399   7.146   4.510  18.318
 1735TIP3    H129400   7.042   4.559  18.293
 1735TIP3    H229401   7.134   4.505  18.414
 1736TIP3   OH229402   7.444   4.457  18.238
 1736TIP3    H129403   7.328   4.472  18.261
 1736TIP3    H229404   7.450   4.529  18.162
 1737TIP3   OH229405   8.006   4.399  18.156
 1737TIP3    H129406   7.942   4.439  18.083
 1737TIP3    H229407   8.021   4.495  18.211
 1738TIP3   OH229408   8.231   4.247  18.309
 1738TIP3    H129409   8.148   4.277  18.242
 1738TIP3    H229410   8.315   4.321  18.284
 1739TIP3   OH229411   8.554   4.412  18.261
 1739TIP3    H129412   8.550   4.522  18.228
 1739TIP3    H229413   8.600   4.356  18.184
 1740TIP3   OH229414   7.098   4.356  18.043
 1740TIP3    H129415   7.069   4.277  18.112
 1740TIP3    H229416   7.195   4.308  18.003
 1741TIP3   OH229417   7.358   4.265  17.900
 1741TIP3    H129418   7.313   4.158  17.917
 1741TIP3    H229419   7.469   4.244  17.930
 1742TIP3   OH229420   7.650   4.177  17.995
 1742TIP3    H129421   7.681   4.063  17.986
 1742TIP3    H229422   7.650   4.187  18.092
 1743TIP3   OH229423   8.015   2.479  17.887
 1743TIP3    H129424   7.919   2.423  17.921
 1743TIP3    H229425   8.066   2.393  17.839
 1744TIP3   OH229426   8.675   2.279  17.891
 1744TIP3    H129427   8.716   2.364  17.834
 1744TIP3    H229428   8.561   2.291  17.872
 1745TIP3   OH229429   8.843   2.434  17.661
 1745TIP3    H129430   8.927   2.351  17.646
 1745TIP3    H229431   8.902   2.497  17.728
 1746TIP3   OH229432   7.188   2.336  17.676
 1746TIP3    H129433   7.087   2.323  17.629
 1746TIP3    H229434   7.241   2.232  17.659
 1747TIP3   OH229435   7.068   2.384  17.245
 1747TIP3    H129436   7.073   2.500  17.262
 1747TIP3    H229437   6.983   2.359  17.308
 1748TIP3   OH229438   7.667   2.303  17.669
 1748TIP3    H129439   7.762   2.346  17.628
 1748TIP3    H229440   7.690   2.326  17.763
 1749TIP3   OH229441   8.378   2.372  17.797
 1749TIP3    H129442   8.368   2.338  17.705
 1749TIP3    H229443   8.292   2.308  17.838
 1750TIP3   OH229444   8.428   2.382  17.400
 1750TIP3    H129445   8.328   2.435  17.378
 1750TIP3    H229446   8.408   2.272  17.372
 1751TIP3   OH229447   6.976   4.244  17.353
 1751TIP3    H129448   6.881   4.234  17.295
 1751TIP3    H229449   7.009   4.351  17.326
 1752TIP3   OH229450   8.830   4.315  17.462
 1752TIP3    H129451   8.846   4.212  17.418
 1752TIP3    H229452   8.809   4.387  17.387
 1753TIP3   OH229453   7.100   2.424  18.632
 1753TIP3    H129454   7.044   2.322  18.634
 1753TIP3    H229455   7.195   2.406  18.689
 1754TIP3   OH229456   7.340   2.329  18.812
 1754TIP3    H129457   7.453   2.309  18.790
 1754TIP3    H229458   7.309   2.221  18.840
 1755TIP3   OH229459   7.153   4.391  17.051
 1755TIP3    H129460   7.114   4.462  17.122
 1755TIP3    H229461   7.241   4.336  17.093
 1756TIP3   OH229462   8.382   2.260  18.821
 1756TIP3    H129463   8.387   2.196  18.905
 1756TIP3    H229464   8.485   2.226  18.782
 1757TIP3   OH229465   8.743   4.115  18.642
 1757TIP3    H129466   8.662   4.129  18.572
 1757TIP3    H229467   8.746   4.224  18.677
 1758TIP3   OH229468   9.088   3.004  17.542
 1758TIP3    H129469   9.056   3.114  17.563
 1758TIP3    H229470   9.037   2.993  17.454
 1759TIP3   OH229471   9.096   3.598  18.335
 1759TIP3    H129472   9.029   3.588  18.255
 1759TIP3    H229473   9.110   3.486  18.363
 1760TIP3   OH229474   9.060   3.948  18.017
 1760TIP3    H129475   9.174   3.944  17.989
 1760TIP3    H229476   9.056   4.057  18.052
 1761TIP3   OH229477   9.047   2.671  17.762
 1761TIP3    H129478   9.044   2.788  17.773
 1761TIP3    H229479   9.062   2.660  17.665
 1762TIP3   OH229480   9.106   3.300  18.428
 1762TIP3    H129481   9.088   3.220  18.497
 1762TIP3    H229482   9.017   3.276  18.366
 1763TIP3   OH229483   9.161   3.532  18.747
 1763TIP3    H129484   9.112   3.428  18.765
 1763TIP3    H229485   9.084   3.587  18.689
 1764TIP3   OH229486   9.012   4.471  17.637
 1764TIP3    H129487   8.944   4.418  17.569
 1764TIP3    H229488   9.030   4.378  17.696
 1765TIP3   OH229489   9.076   4.214  17.792
 1765TIP3    H129490   9.048   4.103  17.807
 1765TIP3    H229491   9.163   4.228  17.853
 1766TIP3   OH229492   9.151   3.341  18.067
 1766TIP3    H129493   9.137   3.368  17.973
 1766TIP3    H229494   9.247   3.407  18.086
 1767TIP3   OH229495   9.049   2.845  18.688
 1767TIP3    H129496   9.166   2.851  18.685
 1767TIP3    H229497   9.028   2.735  18.716
 1768TIP3   OH229498   9.000   2.989  18.023
 1768TIP3    H129499   9.118   2.978  18.035
 1768TIP3    H229500   8.989   3.101  18.046
 1769TIP3   OH229501   9.104   2.604  17.492
 1769TIP3    H129502   8.995   2.599  17.457
 1769TIP3    H229503   9.167   2.599  17.411
 1770TIP3   OH229504   8.983   2.370  18.238
 1770TIP3    H129505   8.968   2.370  18.334
 1770TIP3    H229506   8.942   2.477  18.214
 1771TIP3   OH229507   1.463   5.718  17.655
 1771TIP3    H129508   1.447   5.832  17.636
 1771TIP3    H229509   1.381   5.676  17.595
 1772TIP3   OH229510   1.333   5.590  18.008
 1772TIP3    H129511   1.342   5.542  18.099
 1772TIP3    H229512   1.253   5.519  17.969
 1773TIP3   OH229513   0.404   5.587  18.179
 1773TIP3    H129514   0.380   5.478  18.206
 1773TIP3    H229515   0.470   5.621  18.256
 1774TIP3   OH229516   1.735   5.952  17.868
 1774TIP3    H129517   1.684   5.873  17.924
 1774TIP3    H229518   1.747   6.042  17.931
 1775TIP3   OH229519   0.422   6.121  18.013
 1775TIP3    H129520   0.389   6.013  17.989
 1775TIP3    H229521   0.538   6.113  18.005
 1776TIP3   OH229522   0.178   5.345  17.549
 1776TIP3    H129523   0.098   5.418  17.517
 1776TIP3    H229524   0.116   5.245  17.552
 1777TIP3   OH229525   0.176   5.579  17.817
 1777TIP3    H129526   0.215   5.479  17.778
 1777TIP3    H229527   0.180   5.653  17.743
 1778TIP3   OH229528   1.408   6.578  17.834
 1778TIP3    H129529   1.508   6.523  17.809
 1778TIP3    H229530   1.360   6.491  17.883
 1779TIP3   OH229531   1.103   5.887  18.083
 1779TIP3    H129532   1.153   5.832  18.010
 1779TIP3    H229533   1.200   5.926  18.129
 1780TIP3   OH229534   2.141   4.891  18.072
 1780TIP3    H129535   2.143   4.960  18.152
 1780TIP3    H229536   2.245   4.920  18.034
 1781TIP3   OH229537   1.542   5.244  18.103
 1781TIP3    H129538   1.565   5.130  18.118
 1781TIP3    H229539   1.496   5.240  18.013
 1782TIP3   OH229540   1.573   5.032  17.654
 1782TIP3    H129541   1.638   4.987  17.726
 1782TIP3    H229542   1.650   5.106  17.614
 1783TIP3   OH229543   2.156   5.050  18.324
 1783TIP3    H129544   2.117   5.155  18.294
 1783TIP3    H229545   2.188   5.077  18.415
 1784TIP3   OH229546   0.557   4.888  18.210
 1784TIP3    H129547   0.509   4.950  18.137
 1784TIP3    H229548   0.492   4.925  18.286
 1785TIP3   OH229549   1.385   6.032  17.574
 1785TIP3    H129550   1.354   6.046  17.479
 1785TIP3    H229551   1.374   6.144  17.605
 1786TIP3   OH229552   0.848   5.814  18.242
 1786TIP3    H129553   0.778   5.904  18.263
 1786TIP3    H229554   0.929   5.866  18.184
 1787TIP3   OH229555   1.811   4.987  17.845
 1787TIP3    H129556   1.796   4.884  17.887
 1787TIP3    H229557   1.915   5.020  17.878
 1788TIP3   OH229558   0.475   5.101  18.001
 1788TIP3    H129559   0.540   5.182  18.050
 1788TIP3    H229560   0.544   5.077  17.925
 1789TIP3   OH229561   0.664   6.084  18.303
 1789TIP3    H129562   0.641   6.191  18.266
 1789TIP3    H229563   0.556   6.055  18.332
 1790TIP3   OH229564   0.148   6.008  17.402
 1790TIP3    H129565   0.119   6.034  17.309
 1790TIP3    H229566   0.200   6.106  17.435
 1791TIP3   OH229567   1.808   6.200  18.057
 1791TIP3    H129568   1.694   6.217  18.076
 1791TIP3    H229569   1.829   6.306  18.017
 1792TIP3   OH229570   1.788   4.814  18.173
 1792TIP3    H129571   1.690   4.850  18.128
 1792TIP3    H229572   1.867   4.848  18.106
 1793TIP3   OH229573   0.982   4.549  17.999
 1793TIP3    H129574   0.950   4.490  17.920
 1793TIP3    H229575   0.890   4.624  18.005
 1794TIP3   OH229576   1.645   6.403  17.744
 1794TIP3    H129577   1.631   6.330  17.669
 1794TIP3    H229578   1.723   6.479  17.706
 1795TIP3   OH229579   1.763   6.167  17.572
 1795TIP3    H129580   1.730   6.090  17.504
 1795TIP3    H229581   1.735   6.106  17.652
 1796TIP3   OH229582   1.927   5.999  18.445
 1796TIP3    H129583   1.950   5.912  18.381
 1796TIP3    H229584   1.936   6.092  18.386
 1797TIP3   OH229585   1.308   5.646  17.404
 1797TIP3    H129586   1.246   5.742  17.384
 1797TIP3    H229587   1.336   5.610  17.313
 1798TIP3   OH229588   2.182   5.569  18.224
 1798TIP3    H129589   2.100   5.653  18.231
 1798TIP3    H229590   2.251   5.618  18.157
 1799TIP3   OH229591   1.714   5.596  17.496
 1799TIP3    H129592   1.633   5.644  17.555
 1799TIP3    H229593   1.794   5.562  17.562
 1800TIP3   OH229594   1.716   5.437  18.412
 1800TIP3    H129595   1.685   5.537  18.453
 1800TIP3    H229596   1.636   5.434  18.340
 1801TIP3   OH229597   0.838   6.095  17.948
 1801TIP3    H129598   0.875   6.100  17.857
 1801TIP3    H229599   0.935   6.068  17.999
 1802TIP3   OH229600   0.768   5.591  18.061
 1802TIP3    H129601   0.882   5.591  18.042
 1802TIP3    H229602   0.763   5.665  18.136
 1803TIP3   OH229603   1.504   6.265  18.131
 1803TIP3    H129604   1.474   6.356  18.185
 1803TIP3    H229605   1.447   6.179  18.177
 1804TIP3   OH229606   0.840   6.112  18.524
 1804TIP3    H129607   0.756   6.164  18.577
 1804TIP3    H229608   0.780   6.097  18.439
 1805TIP3   OH229609   0.533   5.652  18.412
 1805TIP3    H129610   0.532   5.753  18.463
 1805TIP3    H229611   0.420   5.621  18.426
 1806TIP3   OH229612   1.325   6.331  17.640
 1806TIP3    H129613   1.352   6.443  17.661
 1806TIP3    H229614   1.220   6.344  17.600
 1807TIP3   OH229615   0.623   6.326  18.609
 1807TIP3    H129616   0.610   6.343  18.513
 1807TIP3    H229617   0.512   6.307  18.638
 1808TIP3   OH229618   2.012   4.529  17.281
 1808TIP3    H129619   1.898   4.543  17.301
 1808TIP3    H229620   2.050   4.639  17.291
 1809TIP3   OH229621   0.200   5.872  18.360
 1809TIP3    H129622   0.091   5.882  18.326
 1809TIP3    H229623   0.223   5.759  18.341
 1810TIP3   OH229624   0.143   6.270  17.982
 1810TIP3    H129625   0.233   6.194  17.991
 1810TIP3    H229626   0.164   6.338  18.059
 1811TIP3   OH229627   2.246   6.269  18.617
 1811TIP3    H129628   2.233   6.152  18.608
 1811TIP3    H229629   2.142   6.292  18.659
 1812TIP3   OH229630   1.129   6.241  18.515
 1812TIP3    H129631   1.138   6.332  18.576
 1812TIP3    H229632   1.019   6.202  18.528
 1813TIP3   OH229633   1.234   6.704  17.384
 1813TIP3    H129634   1.154   6.742  17.320
 1813TIP3    H229635   1.225   6.785  17.455
 1814TIP3   OH229636   1.544   6.587  17.461
 1814TIP3    H129637   1.447   6.652  17.462
 1814TIP3    H229638   1.507   6.491  17.415
 1815TIP3   OH229639   1.883   5.264  18.631
 1815TIP3    H129640   1.813   5.309  18.561
 1815TIP3    H229641   1.878   5.150  18.611
 1816TIP3   OH229642   0.361   6.126  18.423
 1816TIP3    H129643   0.372   6.090  18.514
 1816TIP3    H229644   0.292   6.038  18.389
 1817TIP3   OH229645   0.702   4.714  18.011
 1817TIP3    H129646   0.595   4.698  17.973
 1817TIP3    H229647   0.673   4.766  18.094
 1818TIP3   OH229648   1.246   4.646  18.352
 1818TIP3    H129649   1.294   4.588  18.427
 1818TIP3    H229650   1.130   4.624  18.362
 1819TIP3   OH229651   1.584   5.128  18.484
 1819TIP3    H129652   1.514   5.076  18.553
 1819TIP3    H229653   1.529   5.228  18.469
 1820TIP3   OH229654   0.700   5.287  18.133
 1820TIP3    H129655   0.614   5.291  18.201
 1820TIP3    H229656   0.726   5.400  18.122
 1821TIP3   OH229657   1.352   5.345  17.465
 1821TIP3    H129658   1.350   5.464  17.457
 1821TIP3    H229659   1.456   5.322  17.422
 1822TIP3   OH229660   1.241   5.382  18.656
 1822TIP3    H129661   1.188   5.286  18.692
 1822TIP3    H229662   1.327   5.390  18.723
 1823TIP3   OH229663   1.457   5.297  17.828
 1823TIP3    H129664   1.480   5.389  17.770
 1823TIP3    H229665   1.463   5.207  17.765
 1824TIP3   OH229666   0.445   5.258  18.294
 1824TIP3    H129667   0.485   5.306  18.375
 1824TIP3    H229668   0.384   5.166  18.327
 1825TIP3   OH229669   0.113   5.020  17.744
 1825TIP3    H129670   0.150   4.942  17.809
 1825TIP3    H229671   0.138   4.964  17.659
 1826TIP3   OH229672   0.116   5.086  17.266
 1826TIP3    H129673   0.191   5.098  17.191
 1826TIP3    H229674   0.185   5.124  17.337
 1827TIP3   OH229675   1.378   5.454  18.248
 1827TIP3    H129676   1.444   5.371  18.204
 1827TIP3    H229677   1.307   5.387  18.303
 1828TIP3   OH229678   1.529   4.908  18.052
 1828TIP3    H129679   1.459   4.890  18.130
 1828TIP3    H229680   1.477   4.840  17.984
 1829TIP3   OH229681   1.879   6.768  18.735
 1829TIP3    H129682   1.898   6.829  18.654
 1829TIP3    H229683   1.973   6.799  18.787
 1830TIP3   OH229684   0.510   5.885  18.597
 1830TIP3    H129685   0.594   5.891  18.664
 1830TIP3    H229686   0.414   5.874  18.651
 1831TIP3   OH229687   1.126   5.352  17.930
 1831TIP3    H129688   1.222   5.316  17.884
 1831TIP3    H229689   1.086   5.251  17.966
 1832TIP3   OH229690   0.982   5.110  18.174
 1832TIP3    H129691   0.899   5.191  18.181
 1832TIP3    H229692   1.070   5.159  18.223
 1833TIP3   OH229693   1.062   5.863  17.350
 1833TIP3    H129694   0.980   5.788  17.317
 1833TIP3    H229695   1.012   5.892  17.434
 1834TIP3   OH229696   1.960   5.809  18.236
 1834TIP3    H129697   2.021   5.881  18.176
 1834TIP3    H229698   1.859   5.806  18.187
 1835TIP3   OH229699   1.519   5.026  17.147
 1835TIP3    H129700   1.415   4.992  17.177
 1835TIP3    H229701   1.532   5.130  17.190
 1836TIP3   OH229702   1.178   5.911  18.477
 1836TIP3    H129703   1.127   5.884  18.561
 1836TIP3    H229704   1.170   6.029  18.479
 1837TIP3   OH229705   1.615   5.274  17.322
 1837TIP3    H129706   1.705   5.264  17.383
 1837TIP3    H229707   1.633   5.377  17.279
 1838TIP3   OH229708   0.511   5.816  17.917
 1838TIP3    H129709   0.607   5.869  17.887
 1838TIP3    H229710   0.550   5.731  17.974
 1839TIP3   OH229711   1.312   6.073  17.304
 1839TIP3    H129712   1.248   6.167  17.280
 1839TIP3    H229713   1.230   5.988  17.302
 1840TIP3   OH229714   0.218   5.542  18.426
 1840TIP3    H129715   0.211   5.502  18.517
 1840TIP3    H229716   0.104   5.540  18.402
 1841TIP3   OH229717   0.943   5.563  18.644
 1841TIP3    H129718   0.878   5.492  18.588
 1841TIP3    H229719   1.046   5.506  18.646
 1842TIP3   OH229720   1.553   6.197  18.486
 1842TIP3    H129721   1.462   6.226  18.432
 1842TIP3    H229722   1.523   6.244  18.572
 1843TIP3   OH229723   2.144   5.256  17.373
 1843TIP3    H129724   2.172   5.201  17.290
 1843TIP3    H229725   2.161   5.366  17.340
 1844TIP3   OH229726   2.218   5.950  18.569
 1844TIP3    H129727   2.110   5.968  18.533
 1844TIP3    H229728   2.281   5.945  18.486
 1845TIP3   OH229729   1.981   6.251  17.358
 1845TIP3    H129730   1.928   6.244  17.447
 1845TIP3    H229731   1.916   6.178  17.306
 1846TIP3   OH229732   1.655   5.704  18.057
 1846TIP3    H129733   1.548   5.668  18.032
 1846TIP3    H229734   1.721   5.632  18.003
 1847TIP3   OH229735   0.762   6.238  17.666
 1847TIP3    H129736   0.784   6.349  17.690
 1847TIP3    H229737   0.658   6.244  17.625
 1848TIP3   OH229738   0.278   5.573  17.152
 1848TIP3    H129739   0.341   5.669  17.170
 1848TIP3    H229740   0.193   5.622  17.100
 1849TIP3   OH229741   0.893   5.922  17.614
 1849TIP3    H129742   0.851   6.032  17.613
 1849TIP3    H229743   0.920   5.905  17.706
 1850TIP3   OH229744   0.998   6.413  18.283
 1850TIP3    H129745   1.070   6.492  18.245
 1850TIP3    H229746   1.060   6.370  18.358
 1851TIP3   OH229747   1.364   5.944  18.220
 1851TIP3    H129748   1.312   5.894  18.297
 1851TIP3    H229749   1.453   5.870  18.204
 1852TIP3   OH229750   1.672   6.162  17.216
 1852TIP3    H129751   1.655   6.096  17.295
 1852TIP3    H229752   1.630   6.086  17.150
 1853TIP3   OH229753   1.775   6.504  18.447
 1853TIP3    H129754   1.670   6.456  18.427
 1853TIP3    H229755   1.788   6.576  18.371
 1854TIP3   OH229756   0.334   4.987  18.401
 1854TIP3    H129757   0.294   5.027  18.487
 1854TIP3    H229758   0.294   4.878  18.398
 1855TIP3   OH229759   1.796   5.888  17.379
 1855TIP3    H129760   1.766   5.777  17.394
 1855TIP3    H229761   1.913   5.876  17.373
 1856TIP3   OH229762   0.294   6.404  18.214
 1856TIP3    H129763   0.361   6.312  18.233
 1856TIP3    H229764   0.264   6.434  18.303
 1857TIP3   OH229765   0.836   6.125  17.225
 1857TIP3    H129766   0.929   6.054  17.229
 1857TIP3    H229767   0.881   6.227  17.256
 1858TIP3   OH229768   0.412   5.832  17.290
 1858TIP3    H129769   0.312   5.879  17.324
 1858TIP3    H229770   0.463   5.920  17.242
 1859TIP3   OH229771   1.378   4.936  18.303
 1859TIP3    H129772   1.471   4.952  18.359
 1859TIP3    H229773   1.332   4.836  18.339
 1860TIP3   OH229774   1.506   4.855  17.440
 1860TIP3    H129775   1.528   4.913  17.358
 1860TIP3    H229776   1.523   4.938  17.510
 1861TIP3   OH229777   1.177   6.367  17.269
 1861TIP3    H129778   1.075   6.422  17.286
 1861TIP3    H229779   1.253   6.455  17.258
 1862TIP3   OH229780   1.169   5.083  17.521
 1862TIP3    H129781   1.220   5.180  17.485
 1862TIP3    H229782   1.056   5.096  17.500
 1863TIP3   OH229783   1.241   5.239  18.403
 1863TIP3    H129784   1.247   5.294  18.490
 1863TIP3    H229785   1.276   5.130  18.421
 1864TIP3   OH229786   1.244   4.754  17.605
 1864TIP3    H129787   1.169   4.842  17.589
 1864TIP3    H229788   1.338   4.800  17.560
 1865TIP3   OH229789   0.878   6.481  17.295
 1865TIP3    H129790   0.821   6.538  17.224
 1865TIP3    H229791   0.810   6.509  17.369
 1866TIP3   OH229792   1.897   4.968  18.505
 1866TIP3    H129793   1.786   4.993  18.485
 1866TIP3    H229794   1.950   4.985  18.419
 1867TIP3   OH229795   1.770   5.413  17.897
 1867TIP3    H129796   1.681   5.338  17.894
 1867TIP3    H229797   1.850   5.356  17.950
 1868TIP3   OH229798   0.502   6.084  17.125
 1868TIP3    H129799   0.556   6.108  17.209
 1868TIP3    H229800   0.570   6.144  17.065
 1869TIP3   OH229801   1.854   6.524  18.040
 1869TIP3    H129802   1.850   6.601  17.965
 1869TIP3    H229803   1.969   6.528  18.057
 1870TIP3   OH229804   0.403   4.649  17.937
 1870TIP3    H129805   0.402   4.609  17.846
 1870TIP3    H229806   0.378   4.548  17.986
 1871TIP3   OH229807   0.277   6.286  17.548
 1871TIP3    H129808   0.168   6.316  17.521
 1871TIP3    H229809   0.336   6.374  17.508
 1872TIP3   OH229810   0.197   6.614  18.696
 1872TIP3    H129811   0.263   6.583  18.773
 1872TIP3    H229812   0.122   6.527  18.695
 1873TIP3   OH229813   0.749   6.478  18.835
 1873TIP3    H129814   0.854   6.430  18.843
 1873TIP3    H229815   0.724   6.455  18.741
 1874TIP3   OH229816   1.484   6.314  18.729
 1874TIP3    H129817   1.442   6.211  18.763
 1874TIP3    H229818   1.585   6.322  18.779
 1875TIP3   OH229819   0.240   5.912  18.803
 1875TIP3    H129820   0.248   5.796  18.803
 1875TIP3    H229821   0.130   5.910  18.770
 1876TIP3   OH229822   0.954   5.888  18.700
 1876TIP3    H129823   0.920   5.946  18.619
 1876TIP3    H229824   0.953   5.773  18.674
 1877TIP3   OH229825   1.630   5.860  18.492
 1877TIP3    H129826   1.728   5.923  18.492
 1877TIP3    H229827   1.554   5.948  18.491
 1878TIP3   OH229828   0.272   5.522  18.766
 1878TIP3    H129829   0.362   5.448  18.757
 1878TIP3    H229830   0.293   5.574  18.852
 1879TIP3   OH229831   0.848   5.640  17.253
 1879TIP3    H129832   0.760   5.569  17.269
 1879TIP3    H229833   0.894   5.598  17.171
 1880TIP3   OH229834   0.752   5.426  18.437
 1880TIP3    H129835   0.677   5.516  18.426
 1880TIP3    H229836   0.842   5.472  18.385
 1881TIP3   OH229837   1.375   5.744  18.796
 1881TIP3    H129838   1.442   5.684  18.735
 1881TIP3    H229839   1.330   5.659  18.851
 1882TIP3   OH229840   0.734   5.130  18.521
 1882TIP3    H129841   0.769   5.053  18.454
 1882TIP3    H229842   0.746   5.234  18.476
 1883TIP3   OH229843   0.840   4.886  18.323
 1883TIP3    H129844   0.898   4.943  18.252
 1883TIP3    H229845   0.732   4.879  18.284
 1884TIP3   OH229846   1.018   5.562  18.321
 1884TIP3    H129847   1.122   5.612  18.326
 1884TIP3    H229848   0.950   5.657  18.300
 1885TIP3   OH229849   1.522   5.264  18.823
 1885TIP3    H129850   1.567   5.158  18.813
 1885TIP3    H229851   1.612   5.329  18.851
 1886TIP3   OH229852   1.722   5.636  18.673
 1886TIP3    H129853   1.675   5.705  18.604
 1886TIP3    H229854   1.835   5.640  18.647
 1887TIP3   OH229855   0.539   5.270  18.719
 1887TIP3    H129856   0.479   5.173  18.744
 1887TIP3    H229857   0.611   5.227  18.650
 1888TIP3   OH229858   0.930   4.586  18.342
 1888TIP3    H129859   0.907   4.700  18.331
 1888TIP3    H229860   0.832   4.541  18.306
 1889TIP3   OH229861   1.074   5.113  18.741
 1889TIP3    H129862   1.026   5.081  18.825
 1889TIP3    H229863   0.991   5.082  18.678
 1890TIP3   OH229864   1.388   4.992  18.659
 1890TIP3    H129865   1.285   5.009  18.704
 1890TIP3    H229866   1.441   4.922  18.726
 1891TIP3   OH229867   1.592   4.838  18.827
 1891TIP3    H129868   1.582   4.721  18.823
 1891TIP3    H229869   1.577   4.861  18.922
 1892TIP3   OH229870   0.371   4.999  18.771
 1892TIP3    H129871   0.406   4.907  18.718
 1892TIP3    H229872   0.325   4.945  18.851
 1893TIP3   OH229873   0.938   4.529  18.644
 1893TIP3    H129874   1.030   4.456  18.649
 1893TIP3    H229875   0.925   4.532  18.547
 1894TIP3   OH229876   0.943   4.696  18.884
 1894TIP3    H129877   0.937   4.633  18.800
 1894TIP3    H229878   0.890   4.796  18.859
 1895TIP3   OH229879   0.122   6.074  17.136
 1895TIP3    H129880   0.235   6.100  17.120
 1895TIP3    H229881   0.116   5.974  17.085
 1896TIP3   OH229882   0.094   6.752  17.594
 1896TIP3    H129883  -0.022   6.763  17.604
 1896TIP3    H229884   0.114   6.682  17.670
 1897TIP3   OH229885   0.142   6.544  17.818
 1897TIP3    H129886   0.198   6.445  17.794
 1897TIP3    H229887   0.210   6.587  17.888
 1898TIP3   OH229888   2.183   6.610  18.084
 1898TIP3    H129889   2.263   6.613  18.153
 1898TIP3    H229890   2.233   6.661  18.009
 1899TIP3   OH229891   2.173   6.556  18.407
 1899TIP3    H129892   2.125   6.491  18.336
 1899TIP3    H229893   2.167   6.476  18.479
 1900TIP3   OH229894   1.988   6.028  18.859
 1900TIP3    H129895   1.878   6.029  18.894
 1900TIP3    H229896   2.038   6.112  18.914
 1901TIP3   OH229897   2.126   5.837  17.369
 1901TIP3    H129898   2.220   5.909  17.377
 1901TIP3    H229899   2.129   5.784  17.456
 1902TIP3   OH229900   2.177   5.628  17.582
 1902TIP3    H129901   2.080   5.573  17.614
 1902TIP3    H229902   2.239   5.628  17.663
 1903TIP3   OH229903   2.152   5.960  18.073
 1903TIP3    H129904   2.221   5.869  18.050
 1903TIP3    H229905   2.218   6.053  18.051
 1904TIP3   OH229906   1.985   6.287  18.297
 1904TIP3    H129907   1.889   6.318  18.345
 1904TIP3    H229908   1.938   6.259  18.209
 1905TIP3   OH229909   2.212   5.506  17.229
 1905TIP3    H129910   2.132   5.551  17.168
 1905TIP3    H229911   2.232   5.597  17.287
 1906TIP3   OH229912   1.985   5.285  17.079
 1906TIP3    H129913   1.997   5.376  17.020
 1906TIP3    H229914   2.090   5.276  17.121
 1907TIP3   OH229915   1.932   5.459  17.661
 1907TIP3    H129916   1.907   5.350  17.630
 1907TIP3    H229917   1.900   5.455  17.755
 1908TIP3   OH229918   0.184   5.778  18.043
 1908TIP3    H129919   0.199   5.720  17.960
 1908TIP3    H229920   0.280   5.744  18.091
 1909TIP3   OH229921   2.052   5.668  18.604
 1909TIP3    H129922   2.117   5.573  18.624
 1909TIP3    H229923   2.131   5.756  18.597
 1910TIP3   OH229924   2.182   5.370  18.651
 1910TIP3    H129925   2.069   5.334  18.638
 1910TIP3    H229926   2.242   5.268  18.658
 1911TIP3   OH229927   1.883   5.179  17.507
 1911TIP3    H129928   1.907   5.066  17.521
 1911TIP3    H229929   1.978   5.206  17.452
 1912TIP3   OH229930   1.987   5.226  18.034
 1912TIP3    H129931   2.106   5.233  18.041
 1912TIP3    H229932   1.957   5.231  18.128
 1913TIP3   OH229933   1.986   5.312  18.299
 1913TIP3    H129934   1.885   5.345  18.342
 1913TIP3    H229935   2.034   5.416  18.274
 1914TIP3   OH229936   0.140   5.090  18.597
 1914TIP3    H129937   0.230   5.117  18.656
 1914TIP3    H229938   0.133   4.974  18.605
 1915TIP3   OH229939   2.251   4.632  18.825
 1915TIP3    H129940   2.300   4.544  18.774
 1915TIP3    H229941   2.237   4.714  18.754
 1916TIP3   OH229942   1.962   4.747  17.484
 1916TIP3    H129943   1.990   4.757  17.579
 1916TIP3    H229944   1.859   4.693  17.483
 1917TIP3   OH229945   0.182   4.898  18.009
 1917TIP3    H129946   0.259   4.808  18.000
 1917TIP3    H229947   0.253   4.992  18.009
 1918TIP3   OH229948   0.121   5.296  18.020
 1918TIP3    H129949   0.179   5.276  17.938
 1918TIP3    H229950   0.101   5.410  18.019
 1919TIP3   OH229951   2.165   4.860  18.664
 1919TIP3    H129952   2.072   4.931  18.676
 1919TIP3    H229953   2.131   4.802  18.583
 1920TIP3   OH229954   0.112   4.897  17.503
 1920TIP3    H129955   0.001   4.876  17.472
 1920TIP3    H229956   0.173   4.906  17.421
 1921TIP3   OH229957   1.841   6.632  17.657
 1921TIP3    H129958   1.909   6.611  17.579
 1921TIP3    H229959   1.913   6.680  17.722
 1922TIP3   OH229960   0.073   4.628  18.293
 1922TIP3    H129961  -0.037   4.586  18.296
 1922TIP3    H229962   0.059   4.721  18.235
 1923TIP3   OH229963   0.330   6.235  18.714
 1923TIP3    H129964   0.253   6.272  18.650
 1923TIP3    H229965   0.270   6.158  18.767
 1924TIP3   OH229966   0.679   6.419  18.348
 1924TIP3    H129967   0.676   6.528  18.312
 1924TIP3    H229968   0.794   6.397  18.346
 1925TIP3   OH229969   1.164   6.584  18.599
 1925TIP3    H129970   1.177   6.546  18.691
 1925TIP3    H229971   1.274   6.610  18.577
 1926TIP3   OH229972   1.452   6.739  18.553
 1926TIP3    H129973   1.543   6.680  18.522
 1926TIP3    H229974   1.488   6.775  18.642
 1927TIP3   OH229975   2.081   4.577  18.477
 1927TIP3    H129976   1.997   4.631  18.428
 1927TIP3    H229977   2.087   4.472  18.433
 1928TIP3   OH229978   0.376   6.794  18.345
 1928TIP3    H129979   0.271   6.823  18.308
 1928TIP3    H229980   0.352   6.784  18.440
 1929TIP3   OH229981   0.647   6.734  18.214
 1929TIP3    H129982   0.538   6.730  18.253
 1929TIP3    H229983   0.628   6.829  18.160
 1930TIP3   OH229984   1.192   6.672  18.151
 1930TIP3    H129985   1.207   6.730  18.068
 1930TIP3    H229986   1.216   6.757  18.216
 1931TIP3   OH229987   1.456   6.518  18.298
 1931TIP3    H129988   1.373   6.569  18.243
 1931TIP3    H229989   1.544   6.589  18.274
 1932TIP3   OH229990   1.802   6.710  18.248
 1932TIP3    H129991   1.794   6.815  18.204
 1932TIP3    H229992   1.816   6.643  18.168
 1933TIP3   OH229993   0.373   6.664  18.027
 1933TIP3    H129994   0.340   6.577  18.085
 1933TIP3    H229995   0.450   6.607  17.968
 1934TIP3   OH229996   0.542   6.464  17.878
 1934TIP3    H129997   0.502   6.359  17.897
 1934TIP3    H229998   0.646   6.463  17.923
 1935TIP3   OH229999   0.834   6.448  18.010
 1935TIP3    H130000   0.880   6.342  17.999
 1935TIP3    H230001   0.866   6.472  18.101
 1936TIP3   OH230002   1.325   4.736  17.914
 1936TIP3    H130003   1.222   4.760  17.953
 1936TIP3    H230004   1.291   4.700  17.826
 1937TIP3   OH230005   1.902   4.532  17.892
 1937TIP3    H130006   1.975   4.602  17.839
 1937TIP3    H230007   1.795   4.559  17.855
 1938TIP3   OH230008   2.098   4.681  17.728
 1938TIP3    H130009   2.176   4.608  17.685
 1938TIP3    H230010   2.170   4.774  17.745
 1939TIP3   OH230011   0.288   4.604  17.216
 1939TIP3    H130012   0.206   4.640  17.156
 1939TIP3    H230013   0.227   4.592  17.298
 1940TIP3   OH230014   0.904   4.506  17.682
 1940TIP3    H130015   0.990   4.547  17.627
 1940TIP3    H230016   0.828   4.595  17.679
 1941TIP3   OH230017   1.608   4.601  17.765
 1941TIP3    H130018   1.538   4.640  17.696
 1941TIP3    H230019   1.540   4.513  17.799
 1942TIP3   OH230020   1.682   4.584  17.350
 1942TIP3    H130021   1.606   4.656  17.394
 1942TIP3    H230022   1.644   4.478  17.380
 1943TIP3   OH230023   0.173   6.505  17.375
 1943TIP3    H130024   0.095   6.577  17.335
 1943TIP3    H230025   0.263   6.580  17.387
 1944TIP3   OH230026   2.050   6.544  17.468
 1944TIP3    H130027   2.035   6.452  17.407
 1944TIP3    H230028   2.024   6.634  17.407
 1945TIP3   OH230029   0.296   4.672  18.634
 1945TIP3    H130030   0.239   4.567  18.638
 1945TIP3    H230031   0.401   4.640  18.671
 1946TIP3   OH230032   0.580   4.610  18.816
 1946TIP3    H130033   0.690   4.588  18.791
 1946TIP3    H230034   0.551   4.507  18.856
 1947TIP3   OH230035   1.579   4.517  18.803
 1947TIP3    H130036   1.589   4.445  18.880
 1947TIP3    H230037   1.692   4.517  18.772
 1948TIP3   OH230038   1.987   6.458  18.643
 1948TIP3    H130039   1.916   6.455  18.564
 1948TIP3    H230040   1.945   6.553  18.686
 1949TIP3   OH230041   3.715   5.693  17.634
 1949TIP3    H130042   3.709   5.807  17.652
 1949TIP3    H230043   3.630   5.681  17.567
 1950TIP3   OH230044   3.584   5.586  17.998
 1950TIP3    H130045   3.581   5.532  18.086
 1950TIP3    H230046   3.506   5.528  17.944
 1951TIP3   OH230047   2.623   5.562  18.155
 1951TIP3    H130048   2.632   5.482  18.226
 1951TIP3    H230049   2.723   5.620  18.165
 1952TIP3   OH230050   3.985   5.921  17.863
 1952TIP3    H130051   3.968   5.856  17.942
 1952TIP3    H230052   3.998   6.025  17.906
 1953TIP3   OH230053   2.753   6.136  17.977
 1953TIP3    H130054   2.707   6.031  17.953
 1953TIP3    H230055   2.864   6.113  17.956
 1954TIP3   OH230056   2.356   5.333  17.578
 1954TIP3    H130057   2.327   5.442  17.559
 1954TIP3    H230058   2.270   5.276  17.530
 1955TIP3   OH230059   2.428   5.610  17.804
 1955TIP3    H130060   2.484   5.509  17.829
 1955TIP3    H230061   2.498   5.658  17.739
 1956TIP3   OH230062   3.650   6.574  17.844
 1956TIP3    H130063   3.756   6.566  17.803
 1956TIP3    H230064   3.644   6.479  17.900
 1957TIP3   OH230065   3.337   5.932  18.104
 1957TIP3    H130066   3.360   5.884  18.018
 1957TIP3    H230067   3.445   5.953  18.138
 1958TIP3   OH230068   4.396   4.859  18.107
 1958TIP3    H130069   4.410   4.946  18.171
 1958TIP3    H230070   4.475   4.886  18.039
 1959TIP3   OH230071   3.794   5.254  18.102
 1959TIP3    H130072   3.833   5.143  18.112
 1959TIP3    H230073   3.697   5.234  18.051
 1960TIP3   OH230074   2.936   4.975  17.774
 1960TIP3    H130075   2.948   5.080  17.730
 1960TIP3    H230076   2.878   4.918  17.704
 1961TIP3   OH230077   2.530   5.314  17.879
 1961TIP3    H130078   2.602   5.246  17.932
 1961TIP3    H230079   2.546   5.266  17.791
 1962TIP3   OH230080   3.136   5.479  17.823
 1962TIP3    H130081   3.229   5.411  17.812
 1962TIP3    H230082   3.052   5.404  17.792
 1963TIP3   OH230083   4.409   5.042  18.330
 1963TIP3    H130084   4.370   5.147  18.295
 1963TIP3    H230085   4.436   5.072  18.420
 1964TIP3   OH230086   2.812   4.874  18.214
 1964TIP3    H130087   2.768   4.933  18.137
 1964TIP3    H230088   2.738   4.909  18.286
 1965TIP3   OH230089   3.656   6.032  17.577
 1965TIP3    H130090   3.601   6.010  17.494
 1965TIP3    H230091   3.626   6.144  17.595
 1966TIP3   OH230092   3.062   5.794  18.188
 1966TIP3    H130093   2.993   5.875  18.230
 1966TIP3    H230094   3.146   5.862  18.149
 1967TIP3   OH230095   2.762   5.108  17.995
 1967TIP3    H130096   2.843   5.177  18.042
 1967TIP3    H230097   2.824   5.075  17.914
 1968TIP3   OH230098   2.921   6.071  18.295
 1968TIP3    H130099   2.900   6.163  18.240
 1968TIP3    H230100   2.819   6.062  18.345
 1969TIP3   OH230101   2.414   6.022  17.379
 1969TIP3    H130102   2.483   6.090  17.325
 1969TIP3    H230103   2.448   6.058  17.468
 1970TIP3   OH230104   4.076   6.199  18.066
 1970TIP3    H130105   3.962   6.217  18.087
 1970TIP3    H230106   4.093   6.299  18.016
 1971TIP3   OH230107   4.136   4.723  18.256
 1971TIP3    H130108   4.036   4.770  18.228
 1971TIP3    H230109   4.210   4.757  18.184
 1972TIP3   OH230110   3.250   4.584  17.941
 1972TIP3    H130111   3.210   4.475  17.951
 1972TIP3    H230112   3.154   4.644  17.974
 1973TIP3   OH230113   3.925   6.448  17.718
 1973TIP3    H130114   3.922   6.334  17.694
 1973TIP3    H230115   3.923   6.493  17.629
 1974TIP3   OH230116   4.030   6.143  17.588
 1974TIP3    H130117   3.977   6.101  17.509
 1974TIP3    H230118   4.004   6.062  17.655
 1975TIP3   OH230119   4.190   6.004  18.448
 1975TIP3    H130120   4.218   5.917  18.384
 1975TIP3    H230121   4.204   6.098  18.389
 1976TIP3   OH230122   3.516   5.604  17.422
 1976TIP3    H130123   3.460   5.696  17.381
 1976TIP3    H230124   3.606   5.591  17.361
 1977TIP3   OH230125   4.442   5.569  18.225
 1977TIP3    H130126   4.375   5.663  18.240
 1977TIP3    H230127   4.507   5.610  18.151
 1978TIP3   OH230128   4.003   5.652  17.519
 1978TIP3    H130129   3.890   5.652  17.552
 1978TIP3    H230130   4.060   5.665  17.602
 1979TIP3   OH230131   3.966   5.413  18.422
 1979TIP3    H130132   3.991   5.519  18.456
 1979TIP3    H230133   3.878   5.441  18.360
 1980TIP3   OH230134   2.948   5.692  17.676
 1980TIP3    H130135   2.917   5.644  17.589
 1980TIP3    H230136   3.030   5.617  17.709
 1981TIP3   OH230137   3.115   6.118  17.957
 1981TIP3    H130138   3.136   6.100  17.862
 1981TIP3    H230139   3.211   6.073  17.999
 1982TIP3   OH230140   2.968   5.552  18.049
 1982TIP3    H130141   3.022   5.550  17.961
 1982TIP3    H230142   3.025   5.639  18.096
 1983TIP3   OH230143   3.778   6.257  18.142
 1983TIP3    H130144   3.728   6.344  18.192
 1983TIP3    H230145   3.726   6.164  18.184
 1984TIP3   OH230146   3.125   6.116  18.497
 1984TIP3    H130147   3.035   6.167  18.547
 1984TIP3    H230148   3.070   6.096  18.412
 1985TIP3   OH230149   3.804   5.579  17.275
 1985TIP3    H130150   3.901   5.612  17.320
 1985TIP3    H230151   3.809   5.641  17.193
 1986TIP3   OH230152   2.748   5.628  18.440
 1986TIP3    H130153   2.752   5.740  18.464
 1986TIP3    H230154   2.668   5.592  18.503
 1987TIP3   OH230155   3.589   6.353  17.645
 1987TIP3    H130156   3.601   6.446  17.703
 1987TIP3    H230157   3.510   6.390  17.581
 1988TIP3   OH230158   2.900   6.300  18.611
 1988TIP3    H130159   2.888   6.349  18.523
 1988TIP3    H230160   2.786   6.286  18.633
 1989TIP3   OH230161   2.782   5.579  17.465
 1989TIP3    H130162   2.756   5.684  17.425
 1989TIP3    H230163   2.737   5.508  17.398
 1990TIP3   OH230164   4.380   6.294  17.096
 1990TIP3    H130165   4.355   6.323  17.189
 1990TIP3    H230166   4.470   6.222  17.103
 1991TIP3   OH230167   2.380   5.914  18.345
 1991TIP3    H130168   2.333   5.906  18.256
 1991TIP3    H230169   2.428   5.807  18.354
 1992TIP3   OH230170   2.372   6.223  18.028
 1992TIP3    H130171   2.486   6.216  18.017
 1992TIP3    H230172   2.365   6.314  18.088
 1993TIP3   OH230173   4.513   6.308  18.626
 1993TIP3    H130174   4.498   6.197  18.605
 1993TIP3    H230175   4.403   6.338  18.651
 1994TIP3   OH230176   3.421   6.234  18.492
 1994TIP3    H130177   3.434   6.322  18.556
 1994TIP3    H230178   3.307   6.202  18.501
 1995TIP3   OH230179   2.706   6.559  17.659
 1995TIP3    H130180   2.753   6.526  17.744
 1995TIP3    H230181   2.610   6.491  17.656
 1996TIP3   OH230182   4.141   5.266  18.635
 1996TIP3    H130183   4.084   5.312  18.559
 1996TIP3    H230184   4.154   5.154  18.603
 1997TIP3   OH230185   2.646   6.056  18.435
 1997TIP3    H130186   2.644   6.019  18.528
 1997TIP3    H230187   2.539   6.023  18.403
 1998TIP3   OH230188   2.971   4.702  18.036
 1998TIP3    H130189   2.863   4.688  17.998
 1998TIP3    H230190   2.939   4.756  18.119
 1999TIP3   OH230191   3.551   4.638  18.355
 1999TIP3    H130192   3.588   4.584  18.437
 1999TIP3    H230193   3.432   4.631  18.363
 2000TIP3   OH230194   3.875   5.108  18.471
 2000TIP3    H130195   3.811   5.092  18.554
 2000TIP3    H230196   3.904   5.222  18.472
 2001TIP3   OH230197   3.494   4.922  17.127
 2001TIP3    H130198   3.425   4.871  17.191
 2001TIP3    H230199   3.420   4.970  17.063
 2002TIP3   OH230200   2.976   5.257  18.155
 2002TIP3    H130201   2.882   5.263  18.214
 2002TIP3    H230202   2.975   5.370  18.122
 2003TIP3   OH230203   2.953   5.267  17.670
 2003TIP3    H130204   2.838   5.267  17.648
 2003TIP3    H230205   3.000   5.236  17.583
 2004TIP3   OH230206   3.488   5.387  18.666
 2004TIP3    H130207   3.443   5.285  18.695
 2004TIP3    H230208   3.581   5.392  18.725
 2005TIP3   OH230209   2.694   5.267  18.285
 2005TIP3    H130210   2.714   5.312  18.372
 2005TIP3    H230211   2.642   5.166  18.311
 2006TIP3   OH230212   2.281   4.942  17.739
 2006TIP3    H130213   2.359   4.949  17.812
 2006TIP3    H230214   2.339   4.990  17.665
 2007TIP3   OH230215   3.643   5.480  18.247
 2007TIP3    H130216   3.712   5.401  18.200
 2007TIP3    H230217   3.582   5.412  18.309
 2008TIP3   OH230218   3.270   5.000  17.773
 2008TIP3    H130219   3.156   4.980  17.791
 2008TIP3    H230220   3.328   4.916  17.821
 2009TIP3   OH230221   2.629   5.164  17.636
 2009TIP3    H130222   2.557   5.226  17.578
 2009TIP3    H230223   2.675   5.084  17.574
 2010TIP3   OH230224   3.031   5.200  17.414
 2010TIP3    H130225   3.145   5.200  17.434
 2010TIP3    H230226   3.022   5.280  17.343
 2011TIP3   OH230227   3.797   4.912  18.078
 2011TIP3    H130228   3.721   4.919  18.152
 2011TIP3    H230229   3.752   4.828  18.022
 2012TIP3   OH230230   2.933   5.356  17.153
 2012TIP3    H130231   2.843   5.290  17.129
 2012TIP3    H230232   3.016   5.332  17.089
 2013TIP3   OH230233   4.142   6.808  18.703
 2013TIP3    H130234   4.176   6.857  18.620
 2013TIP3    H230235   4.242   6.814  18.754
 2014TIP3   OH230236   2.653   5.897  18.675
 2014TIP3    H130237   2.755   5.899  18.721
 2014TIP3    H230238   2.581   5.846  18.740
 2015TIP3   OH230239   3.467   5.238  17.952
 2015TIP3    H130240   3.412   5.144  17.916
 2015TIP3    H230241   3.396   5.258  18.027
 2016TIP3   OH230242   2.764   4.855  17.560
 2016TIP3    H130243   2.694   4.778  17.608
 2016TIP3    H230244   2.826   4.781  17.507
 2017TIP3   OH230245   3.257   5.101  18.176
 2017TIP3    H130246   3.161   5.171  18.176
 2017TIP3    H230247   3.330   5.159  18.232
 2018TIP3   OH230248   3.353   5.867  17.334
 2018TIP3    H130249   3.262   5.839  17.281
 2018TIP3    H230250   3.304   5.926  17.408
 2019TIP3   OH230251   4.213   5.809  18.246
 2019TIP3    H130252   4.274   5.864  18.176
 2019TIP3    H230253   4.108   5.808  18.205
 2020TIP3   OH230254   3.466   5.918  18.462
 2020TIP3    H130255   3.443   5.878  18.549
 2020TIP3    H230256   3.455   6.035  18.476
 2021TIP3   OH230257   2.738   5.814  17.893
 2021TIP3    H130258   2.784   5.784  17.806
 2021TIP3    H230259   2.782   5.732  17.953
 2022TIP3   OH230260   2.400   5.603  18.439
 2022TIP3    H130261   2.371   5.549  18.523
 2022TIP3    H230262   2.327   5.555  18.374
 2023TIP3   OH230263   3.209   5.564  18.644
 2023TIP3    H130264   3.150   5.488  18.589
 2023TIP3    H230265   3.316   5.513  18.648
 2024TIP3   OH230266   3.811   6.179  18.505
 2024TIP3    H130267   3.713   6.182  18.455
 2024TIP3    H230268   3.782   6.242  18.584
 2025TIP3   OH230269   4.481   5.954  18.576
 2025TIP3    H130270   4.372   5.977  18.542
 2025TIP3    H230271   4.543   5.952  18.492
 2026TIP3   OH230272   4.247   6.302  17.358
 2026TIP3    H130273   4.228   6.250  17.444
 2026TIP3    H230274   4.158   6.262  17.307
 2027TIP3   OH230275   3.916   5.696  18.062
 2027TIP3    H130276   3.804   5.674  18.041
 2027TIP3    H230277   3.967   5.603  18.024
 2028TIP3   OH230278   3.008   6.229  17.658
 2028TIP3    H130279   3.052   6.335  17.636
 2028TIP3    H230280   2.911   6.232  17.605
 2029TIP3   OH230281   2.557   5.610  17.155
 2029TIP3    H130282   2.533   5.700  17.094
 2029TIP3    H230283   2.455   5.556  17.148
 2030TIP3   OH230284   3.211   5.968  17.596
 2030TIP3    H130285   3.134   6.056  17.604
 2030TIP3    H230286   3.166   5.882  17.648
 2031TIP3   OH230287   3.248   6.421  18.295
 2031TIP3    H130288   3.330   6.496  18.263
 2031TIP3    H230289   3.308   6.365  18.365
 2032TIP3   OH230290   3.068   6.550  17.576
 2032TIP3    H130291   2.954   6.545  17.595
 2032TIP3    H230292   3.095   6.655  17.611
 2033TIP3   OH230293   3.626   5.951  18.225
 2033TIP3    H130294   3.572   5.920  18.309
 2033TIP3    H230295   3.698   5.861  18.214
 2034TIP3   OH230296   4.028   6.488  18.447
 2034TIP3    H130297   3.922   6.445  18.432
 2034TIP3    H230298   4.036   6.572  18.378
 2035TIP3   OH230299   2.610   4.968  18.413
 2035TIP3    H130300   2.532   5.024  18.468
 2035TIP3    H230301   2.600   4.860  18.450
 2036TIP3   OH230302   4.070   5.912  17.369
 2036TIP3    H130303   4.036   5.814  17.411
 2036TIP3    H230304   4.187   5.898  17.363
 2037TIP3   OH230305   2.533   6.384  18.232
 2037TIP3    H130306   2.608   6.295  18.239
 2037TIP3    H230307   2.544   6.430  18.320
 2038TIP3   OH230308   3.078   6.187  17.244
 2038TIP3    H130309   3.196   6.187  17.241
 2038TIP3    H230310   3.058   6.300  17.214
 2039TIP3   OH230311   2.728   5.855  17.307
 2039TIP3    H130312   2.615   5.849  17.285
 2039TIP3    H230313   2.758   5.952  17.258
 2040TIP3   OH230314   3.624   4.974  18.302
 2040TIP3    H130315   3.712   5.006  18.361
 2040TIP3    H230316   3.600   4.866  18.336
 2041TIP3   OH230317   3.400   6.390  17.314
 2041TIP3    H130318   3.310   6.457  17.290
 2041TIP3    H230319   3.462   6.389  17.233
 2042TIP3   OH230320   3.320   5.114  17.500
 2042TIP3    H130321   3.430   5.147  17.488
 2042TIP3    H230322   3.318   5.059  17.587
 2043TIP3   OH230323   3.480   5.263  18.401
 2043TIP3    H130324   3.498   5.293  18.495
 2043TIP3    H230325   3.526   5.155  18.394
 2044TIP3   OH230326   3.464   4.769  17.553
 2044TIP3    H130327   3.413   4.788  17.639
 2044TIP3    H230328   3.576   4.788  17.575
 2045TIP3   OH230329   2.951   4.897  17.270
 2045TIP3    H130330   2.938   4.996  17.320
 2045TIP3    H230331   3.065   4.876  17.288
 2046TIP3   OH230332   4.164   4.973  18.502
 2046TIP3    H130333   4.052   4.997  18.477
 2046TIP3    H230334   4.219   4.972  18.416
 2047TIP3   OH230335   2.744   6.151  17.167
 2047TIP3    H130336   2.844   6.190  17.210
 2047TIP3    H230337   2.785   6.121  17.080
 2048TIP3   OH230338   4.130   6.541  18.053
 2048TIP3    H130339   4.133   6.618  17.978
 2048TIP3    H230340   4.246   6.530  18.069
 2049TIP3   OH230341   2.651   4.640  17.976
 2049TIP3    H130342   2.651   4.628  17.879
 2049TIP3    H230343   2.624   4.529  18.003
 2050TIP3   OH230344   2.498   6.320  17.528
 2050TIP3    H130345   2.392   6.364  17.535
 2050TIP3    H230346   2.536   6.370  17.445
 2051TIP3   OH230347   2.410   6.628  18.695
 2051TIP3    H130348   2.494   6.611  18.764
 2051TIP3    H230349   2.384   6.514  18.679
 2052TIP3   OH230350   2.995   6.484  18.836
 2052TIP3    H130351   3.100   6.443  18.862
 2052TIP3    H230352   2.983   6.438  18.746
 2053TIP3   OH230353   3.756   6.328  18.736
 2053TIP3    H130354   3.712   6.223  18.765
 2053TIP3    H230355   3.858   6.329  18.786
 2054TIP3   OH230356   4.042   6.422  17.043
 2054TIP3    H130357   3.968   6.331  17.047
 2054TIP3    H230358   4.141   6.377  17.075
 2055TIP3   OH230359   2.368   5.884  18.816
 2055TIP3    H130360   2.321   5.777  18.809
 2055TIP3    H230361   2.347   5.923  18.725
 2056TIP3   OH230362   3.187   5.884  18.686
 2056TIP3    H130363   3.175   5.939  18.600
 2056TIP3    H230364   3.181   5.768  18.662
 2057TIP3   OH230365   3.889   5.850  18.487
 2057TIP3    H130366   3.998   5.894  18.496
 2057TIP3    H230367   3.833   5.952  18.490
 2058TIP3   OH230368   2.550   5.546  18.754
 2058TIP3    H130369   2.617   5.453  18.749
 2058TIP3    H230370   2.578   5.590  18.842
 2059TIP3   OH230371   2.971   5.412  18.431
 2059TIP3    H130372   2.897   5.504  18.433
 2059TIP3    H230373   3.061   5.459  18.382
 2060TIP3   OH230374   3.635   5.758  18.798
 2060TIP3    H130375   3.701   5.692  18.741
 2060TIP3    H230376   3.601   5.681  18.867
 2061TIP3   OH230377   4.319   5.746  17.000
 2061TIP3    H130378   4.254   5.688  16.935
 2061TIP3    H230379   4.238   5.772  17.066
 2062TIP3   OH230380   3.055   5.118  18.525
 2062TIP3    H130381   3.068   5.034  18.457
 2062TIP3    H230382   3.022   5.213  18.473
 2063TIP3   OH230383   3.100   4.882  18.330
 2063TIP3    H130384   3.154   4.943  18.258
 2063TIP3    H230385   2.989   4.874  18.297
 2064TIP3   OH230386   3.232   5.575  18.321
 2064TIP3    H130387   3.341   5.614  18.324
 2064TIP3    H230388   3.176   5.663  18.275
 2065TIP3   OH230389   3.788   5.267  18.834
 2065TIP3    H130390   3.824   5.158  18.813
 2065TIP3    H230391   3.886   5.324  18.856
 2066TIP3   OH230392   3.988   5.651  18.680
 2066TIP3    H130393   3.936   5.712  18.608
 2066TIP3    H230394   4.100   5.652  18.654
 2067TIP3   OH230395   2.878   5.218  18.739
 2067TIP3    H130396   2.777   5.162  18.719
 2067TIP3    H230397   2.946   5.173  18.668
 2068TIP3   OH230398   3.226   4.592  18.331
 2068TIP3    H130399   3.184   4.703  18.341
 2068TIP3    H230400   3.131   4.542  18.295
 2069TIP3   OH230401   3.323   5.108  18.744
 2069TIP3    H130402   3.253   5.081  18.820
 2069TIP3    H230403   3.248   5.092  18.671
 2070TIP3   OH230404   3.659   5.016  18.656
 2070TIP3    H130405   3.547   5.028  18.682
 2070TIP3    H230406   3.697   4.944  18.728
 2071TIP3   OH230407   3.833   4.840  18.820
 2071TIP3    H130408   3.840   4.723  18.818
 2071TIP3    H230409   3.826   4.861  18.916
 2072TIP3   OH230410   2.622   4.998  18.753
 2072TIP3    H130411   2.621   4.904  18.696
 2072TIP3    H230412   2.594   4.954  18.842
 2073TIP3   OH230413   3.180   4.549  18.617
 2073TIP3    H130414   3.266   4.477  18.644
 2073TIP3    H230415   3.193   4.544  18.520
 2074TIP3   OH230416   3.196   4.696  18.889
 2074TIP3    H130417   3.186   4.666  18.795
 2074TIP3    H230418   3.162   4.808  18.889
 2075TIP3   OH230419   2.264   6.730  17.612
 2075TIP3    H130420   2.180   6.659  17.576
 2075TIP3    H230421   2.309   6.662  17.684
 2076TIP3   OH230422   2.377   6.528  17.801
 2076TIP3    H130423   2.306   6.438  17.817
 2076TIP3    H230424   2.455   6.526  17.874
 2077TIP3   OH230425   4.468   6.614  18.085
 2077TIP3    H130426   4.492   6.607  18.180
 2077TIP3    H230427   4.550   6.690  18.058
 2078TIP3   OH230428   4.404   6.547  18.370
 2078TIP3    H130429   4.363   6.451  18.323
 2078TIP3    H230430   4.430   6.500  18.456
 2079TIP3   OH230431   4.264   6.035  18.859
 2079TIP3    H130432   4.150   6.040  18.881
 2079TIP3    H230433   4.302   6.131  18.905
 2080TIP3   OH230434   4.420   5.833  17.381
 2080TIP3    H130435   4.531   5.870  17.387
 2080TIP3    H230436   4.409   5.768  17.462
 2081TIP3   OH230437   4.429   5.620  17.589
 2081TIP3    H130438   4.352   5.570  17.649
 2081TIP3    H230439   4.519   5.641  17.650
 2082TIP3   OH230440   4.406   5.932  18.065
 2082TIP3    H130441   4.499   5.864  18.042
 2082TIP3    H230442   4.438   6.038  18.034
 2083TIP3   OH230443   4.242   6.280  18.296
 2083TIP3    H130444   4.156   6.334  18.344
 2083TIP3    H230445   4.189   6.252  18.210
 2084TIP3   OH230446   4.498   5.594  17.194
 2084TIP3    H130447   4.444   5.635  17.115
 2084TIP3    H230448   4.480   5.682  17.257
 2085TIP3   OH230449   2.377   5.714  18.056
 2085TIP3    H130450   2.380   5.684  17.961
 2085TIP3    H230451   2.482   5.672  18.085
 2086TIP3   OH230452   4.312   5.670  18.607
 2086TIP3    H130453   4.369   5.567  18.621
 2086TIP3    H230454   4.397   5.749  18.593
 2087TIP3   OH230455   4.435   5.372  18.645
 2087TIP3    H130456   4.322   5.340  18.634
 2087TIP3    H230457   4.493   5.270  18.659
 2088TIP3   OH230458   4.246   5.245  18.029
 2088TIP3    H130459   4.362   5.258  18.031
 2088TIP3    H230460   4.222   5.222  18.122
 2089TIP3   OH230461   4.253   5.311  18.304
 2089TIP3    H130462   4.146   5.351  18.324
 2089TIP3    H230463   4.307   5.411  18.273
 2090TIP3   OH230464   2.359   5.108  18.638
 2090TIP3    H130465   2.460   5.104  18.688
 2090TIP3    H230466   2.305   5.012  18.670
 2091TIP3   OH230467   4.516   4.628  18.834
 2091TIP3    H130468   4.556   4.534  18.789
 2091TIP3    H230469   4.502   4.704  18.758
 2092TIP3   OH230470   2.471   4.922  18.005
 2092TIP3    H130471   2.516   4.814  18.004
 2092TIP3    H230472   2.564   4.990  17.992
 2093TIP3   OH230473   2.304   5.279  18.067
 2093TIP3    H130474   2.377   5.255  17.993
 2093TIP3    H230475   2.356   5.377  18.099
 2094TIP3   OH230476   4.432   4.860  18.654
 2094TIP3    H130477   4.334   4.920  18.677
 2094TIP3    H230478   4.392   4.801  18.576
 2095TIP3   OH230479   2.340   4.844  17.455
 2095TIP3    H130480   2.233   4.806  17.475
 2095TIP3    H230481   2.330   4.894  17.368
 2096TIP3   OH230482   2.321   4.666  18.291
 2096TIP3    H130483   2.254   4.620  18.361
 2096TIP3    H230484   2.245   4.727  18.237
 2097TIP3   OH230485   2.579   6.258  18.682
 2097TIP3    H130486   2.473   6.266  18.641
 2097TIP3    H230487   2.561   6.184  18.754
 2098TIP3   OH230488   2.935   6.437  18.364
 2098TIP3    H130489   2.942   6.539  18.317
 2098TIP3    H230490   3.047   6.402  18.357
 2099TIP3   OH230491   3.422   6.556  18.604
 2099TIP3    H130492   3.436   6.523  18.698
 2099TIP3    H230493   3.533   6.592  18.585
 2100TIP3   OH230494   3.703   6.702  18.566
 2100TIP3    H130495   3.792   6.679  18.508
 2100TIP3    H230496   3.754   6.758  18.641
 2101TIP3   OH230497   4.321   4.600  18.462
 2101TIP3    H130498   4.243   4.655  18.405
 2101TIP3    H230499   4.327   4.496  18.415
 2102TIP3   OH230500   2.623   6.786  18.334
 2102TIP3    H130501   2.540   6.863  18.309
 2102TIP3    H230502   2.623   6.791  18.431
 2103TIP3   OH230503   2.902   6.713  18.217
 2103TIP3    H130504   2.792   6.743  18.246
 2103TIP3    H230505   2.926   6.791  18.148
 2104TIP3   OH230506   3.442   6.658  18.178
 2104TIP3    H130507   3.356   6.725  18.144
 2104TIP3    H230508   3.493   6.733  18.241
 2105TIP3   OH230509   3.722   6.527  18.285
 2105TIP3    H130510   3.644   6.578  18.227
 2105TIP3    H230511   3.820   6.583  18.263
 2106TIP3   OH230512   4.039   6.718  18.266
 2106TIP3    H130513   4.038   6.826  18.229
 2106TIP3    H230514   4.069   6.652  18.188
 2107TIP3   OH230515   2.567   6.575  18.013
 2107TIP3    H130516   2.552   6.505  18.091
 2107TIP3    H230517   2.677   6.546  17.985
 2108TIP3   OH230518   2.831   6.464  17.895
 2108TIP3    H130519   2.815   6.353  17.922
 2108TIP3    H230520   2.938   6.481  17.935
 2109TIP3   OH230521   3.104   6.455  18.028
 2109TIP3    H130522   3.136   6.344  18.006
 2109TIP3    H230523   3.140   6.463  18.119
 2110TIP3   OH230524   3.502   4.775  17.849
 2110TIP3    H130525   3.431   4.708  17.903
 2110TIP3    H230526   3.604   4.721  17.859
 2111TIP3   OH230527   4.170   4.522  17.870
 2111TIP3    H130528   4.235   4.601  17.820
 2111TIP3    H230529   4.067   4.532  17.826
 2112TIP3   OH230530   2.632   4.607  17.683
 2112TIP3    H130531   2.522   4.603  17.649
 2112TIP3    H230532   2.671   4.501  17.655
 2113TIP3   OH230533   2.431   4.571  17.239
 2113TIP3    H130534   2.483   4.638  17.171
 2113TIP3    H230535   2.438   4.640  17.317
 2114TIP3   OH230536   3.145   4.548  17.655
 2114TIP3    H130537   3.248   4.523  17.614
 2114TIP3    H230538   3.175   4.562  17.748
 2115TIP3   OH230539   3.815   4.628  17.803
 2115TIP3    H130540   3.845   4.627  17.708
 2115TIP3    H230541   3.755   4.528  17.812
 2116TIP3   OH230542   2.420   6.506  17.304
 2116TIP3    H130543   2.413   6.569  17.223
 2116TIP3    H230544   2.446   6.592  17.366
 2117TIP3   OH230545   3.264   4.860  17.327
 2117TIP3    H130546   3.307   4.795  17.400
 2117TIP3    H230547   3.294   4.967  17.358
 2118TIP3   OH230548   4.302   6.578  17.490
 2118TIP3    H130549   4.285   6.491  17.427
 2118TIP3    H230550   4.276   6.670  17.431
 2119TIP3   OH230551   2.584   4.679  18.613
 2119TIP3    H130552   2.521   4.580  18.622
 2119TIP3    H230553   2.659   4.666  18.688
 2120TIP3   OH230554   2.814   4.597  18.811
 2120TIP3    H130555   2.928   4.589  18.791
 2120TIP3    H230556   2.797   4.488  18.842
 2121TIP3   OH230557   3.840   4.512  18.806
 2121TIP3    H130558   3.858   4.444  18.885
 2121TIP3    H230559   3.949   4.517  18.769
 2122TIP3   OH230560   4.235   6.452  18.641
 2122TIP3    H130561   4.166   6.442  18.563
 2122TIP3    H230562   4.189   6.550  18.679
 2123TIP3   OH230563   4.885   5.578  18.148
 2123TIP3    H130564   4.877   5.479  18.202
 2123TIP3    H230565   4.968   5.634  18.198
 2124TIP3   OH230566   6.239   5.963  17.859
 2124TIP3    H130567   6.244   5.882  17.929
 2124TIP3    H230568   6.295   6.048  17.903
 2125TIP3   OH230569   5.035   6.133  17.987
 2125TIP3    H130570   4.974   6.037  17.961
 2125TIP3    H230571   5.141   6.088  17.977
 2126TIP3   OH230572   4.631   5.298  17.526
 2126TIP3    H130573   4.576   5.400  17.531
 2126TIP3    H230574   4.546   5.220  17.529
 2127TIP3   OH230575   4.673   5.622  17.777
 2127TIP3    H130576   4.732   5.525  17.804
 2127TIP3    H230577   4.759   5.694  17.754
 2128TIP3   OH230578   5.929   6.614  17.880
 2128TIP3    H130579   5.992   6.541  17.824
 2128TIP3    H230580   5.976   6.718  17.852
 2129TIP3   OH230581   6.647   4.889  18.040
 2129TIP3    H130582   6.658   4.937  18.127
 2129TIP3    H230583   6.754   4.910  18.004
 2130TIP3   OH230584   6.066   5.258  18.081
 2130TIP3    H130585   6.070   5.140  18.080
 2130TIP3    H230586   5.957   5.274  18.051
 2131TIP3   OH230587   5.194   4.990  17.770
 2131TIP3    H130588   5.195   5.094  17.724
 2131TIP3    H230589   5.132   4.926  17.705
 2132TIP3   OH230590   6.103   5.044  17.673
 2132TIP3    H130591   6.172   4.975  17.724
 2132TIP3    H230592   6.173   5.120  17.630
 2133TIP3   OH230593   4.814   5.339  17.893
 2133TIP3    H130594   4.882   5.272  17.951
 2133TIP3    H230595   4.828   5.285  17.806
 2134TIP3   OH230596   5.382   5.504  17.831
 2134TIP3    H130597   5.485   5.454  17.846
 2134TIP3    H230598   5.328   5.424  17.775
 2135TIP3   OH230599   6.679   5.041  18.312
 2135TIP3    H130600   6.630   5.147  18.290
 2135TIP3    H230601   6.707   5.063  18.404
 2136TIP3   OH230602   5.066   4.884  18.210
 2136TIP3    H130603   5.016   4.943  18.136
 2136TIP3    H230604   4.993   4.910  18.284
 2137TIP3   OH230605   5.332   5.792  18.219
 2137TIP3    H130606   5.236   5.838  18.261
 2137TIP3    H230607   5.399   5.887  18.218
 2138TIP3   OH230608   5.029   5.112  17.999
 2138TIP3    H130609   5.104   5.184  18.046
 2138TIP3    H230610   5.093   5.082  17.921
 2139TIP3   OH230611   5.179   6.067  18.300
 2139TIP3    H130612   5.158   6.162  18.248
 2139TIP3    H230613   5.077   6.059  18.350
 2140TIP3   OH230614   4.712   5.984  17.368
 2140TIP3    H130615   4.651   6.058  17.313
 2140TIP3    H230616   4.745   6.058  17.439
 2141TIP3   OH230617   6.332   6.204  18.064
 2141TIP3    H130618   6.217   6.206  18.078
 2141TIP3    H230619   6.347   6.305  18.017
 2142TIP3   OH230620   6.330   4.818  18.168
 2142TIP3    H130621   6.252   4.901  18.151
 2142TIP3    H230622   6.412   4.840  18.100
 2143TIP3   OH230623   5.503   4.576  17.924
 2143TIP3    H130624   5.478   4.464  17.941
 2143TIP3    H230625   5.405   4.627  17.959
 2144TIP3   OH230626   6.139   6.412  17.782
 2144TIP3    H130627   6.131   6.326  17.717
 2144TIP3    H230628   6.239   6.466  17.754
 2145TIP3   OH230629   6.299   6.127  17.569
 2145TIP3    H130630   6.301   6.044  17.500
 2145TIP3    H230631   6.262   6.065  17.645
 2146TIP3   OH230632   6.444   5.993  18.439
 2146TIP3    H130633   6.467   5.902  18.380
 2146TIP3    H230634   6.470   6.083  18.380
 2147TIP3   OH230635   5.842   5.624  17.392
 2147TIP3    H130636   5.740   5.681  17.378
 2147TIP3    H230637   5.912   5.710  17.363
 2148TIP3   OH230638   5.755   5.375  17.106
 2148TIP3    H130639   5.813   5.464  17.146
 2148TIP3    H230640   5.836   5.293  17.098
 2149TIP3   OH230641   6.706   5.562  18.242
 2149TIP3    H130642   6.616   5.638  18.238
 2149TIP3    H230643   6.774   5.609  18.172
 2150TIP3   OH230644   6.211   5.448  18.426
 2150TIP3    H130645   6.193   5.543  18.481
 2150TIP3    H230646   6.125   5.459  18.360
 2151TIP3   OH230647   5.189   5.704  17.689
 2151TIP3    H130648   5.188   5.675  17.594
 2151TIP3    H230649   5.267   5.629  17.726
 2152TIP3   OH230650   5.244   5.552  18.069
 2152TIP3    H130651   5.286   5.551  17.977
 2152TIP3    H230652   5.303   5.641  18.111
 2153TIP3   OH230653   6.019   6.224  18.135
 2153TIP3    H130654   6.046   6.256  18.227
 2153TIP3    H230655   5.995   6.110  18.151
 2154TIP3   OH230656   5.388   6.104  18.506
 2154TIP3    H130657   5.302   6.156  18.558
 2154TIP3    H230658   5.335   6.092  18.419
 2155TIP3   OH230659   5.017   5.641  18.425
 2155TIP3    H130660   5.042   5.725  18.489
 2155TIP3    H230661   4.925   5.596  18.471
 2156TIP3   OH230662   5.162   6.312  18.607
 2156TIP3    H130663   5.138   6.368  18.523
 2156TIP3    H230664   5.053   6.277  18.632
 2157TIP3   OH230665   5.124   5.596  17.437
 2157TIP3    H130666   5.069   5.692  17.401
 2157TIP3    H230667   5.044   5.514  17.426
 2158TIP3   OH230668   6.679   6.334  17.094
 2158TIP3    H130669   6.586   6.328  17.033
 2158TIP3    H230670   6.744   6.252  17.053
 2159TIP3   OH230671   4.648   5.912  18.354
 2159TIP3    H130672   4.601   5.899  18.267
 2159TIP3    H230673   4.700   5.807  18.364
 2160TIP3   OH230674   4.598   6.227  18.031
 2160TIP3    H130675   4.711   6.208  18.025
 2160TIP3    H230676   4.595   6.325  18.080
 2161TIP3   OH230677   6.769   6.300  18.619
 2161TIP3    H130678   6.762   6.186  18.604
 2161TIP3    H230679   6.659   6.322  18.651
 2162TIP3   OH230680   5.682   6.251  18.493
 2162TIP3    H130681   5.690   6.343  18.553
 2162TIP3    H230682   5.578   6.204  18.516
 2163TIP3   OH230683   5.777   6.710  17.393
 2163TIP3    H130684   5.672   6.670  17.364
 2163TIP3    H230685   5.752   6.793  17.460
 2164TIP3   OH230686   4.963   6.554  17.668
 2164TIP3    H130687   5.012   6.516  17.751
 2164TIP3    H230688   4.850   6.534  17.689
 2165TIP3   OH230689   6.103   6.595  17.158
 2165TIP3    H130690   6.100   6.485  17.132
 2165TIP3    H230691   6.086   6.592  17.254
 2166TIP3   OH230692   6.080   6.612  17.428
 2166TIP3    H130693   5.966   6.638  17.442
 2166TIP3    H230694   6.096   6.514  17.477
 2167TIP3   OH230695   6.397   5.249  18.643
 2167TIP3    H130696   6.355   5.303  18.563
 2167TIP3    H230697   6.404   5.137  18.612
 2168TIP3   OH230698   4.906   6.060  18.436
 2168TIP3    H130699   4.914   6.017  18.527
 2168TIP3    H230700   4.801   6.018  18.407
 2169TIP3   OH230701   5.238   4.704  18.026
 2169TIP3    H130702   5.134   4.680  17.986
 2169TIP3    H230703   5.206   4.770  18.102
 2170TIP3   OH230704   5.809   4.632  18.353
 2170TIP3    H130705   5.860   4.588  18.434
 2170TIP3    H230706   5.694   4.627  18.375
 2171TIP3   OH230707   6.136   5.119  18.465
 2171TIP3    H130708   6.071   5.084  18.543
 2171TIP3    H230709   6.162   5.228  18.489
 2172TIP3   OH230710   5.238   5.256  18.161
 2172TIP3    H130711   5.150   5.264  18.225
 2172TIP3    H230712   5.237   5.366  18.127
 2173TIP3   OH230713   5.230   5.288  17.667
 2173TIP3    H130714   5.119   5.303  17.635
 2173TIP3    H230715   5.280   5.258  17.581
 2174TIP3   OH230716   5.908   5.327  17.502
 2174TIP3    H130717   5.887   5.434  17.462
 2174TIP3    H230718   5.990   5.285  17.443
 2175TIP3   OH230719   5.750   5.382  18.673
 2175TIP3    H130720   5.706   5.278  18.701
 2175TIP3    H230721   5.842   5.390  18.734
 2176TIP3   OH230722   4.939   5.275  18.285
 2176TIP3    H130723   4.979   5.318  18.369
 2176TIP3    H230724   4.900   5.170  18.311
 2177TIP3   OH230725   4.555   4.932  17.752
 2177TIP3    H130726   4.630   4.866  17.801
 2177TIP3    H230727   4.554   4.884  17.664
 2178TIP3   OH230728   4.745   5.070  17.296
 2178TIP3    H130729   4.829   5.096  17.234
 2178TIP3    H230730   4.654   5.124  17.260
 2179TIP3   OH230731   5.964   5.497  18.235
 2179TIP3    H130732   6.004   5.396  18.196
 2179TIP3    H230733   5.882   5.455  18.295
 2180TIP3   OH230734   5.590   4.984  17.753
 2180TIP3    H130735   5.474   4.990  17.768
 2180TIP3    H230736   5.627   4.936  17.836
 2181TIP3   OH230737   4.925   5.191  17.623
 2181TIP3    H130738   4.823   5.206  17.575
 2181TIP3    H230739   4.952   5.082  17.600
 2182TIP3   OH230740   5.333   5.220  17.424
 2182TIP3    H130741   5.442   5.179  17.433
 2182TIP3    H230742   5.329   5.245  17.331
 2183TIP3   OH230743   6.042   4.927  18.055
 2183TIP3    H130744   5.980   4.901  18.137
 2183TIP3    H230745   5.999   4.853  17.990
 2184TIP3   OH230746   6.413   6.797  18.714
 2184TIP3    H130747   6.452   6.857  18.638
 2184TIP3    H230748   6.510   6.792  18.767
 2185TIP3   OH230749   4.954   5.872  18.663
 2185TIP3    H130750   5.036   5.872  18.733
 2185TIP3    H230751   4.860   5.840  18.717
 2186TIP3   OH230752   5.724   5.285  17.938
 2186TIP3    H130753   5.758   5.236  17.855
 2186TIP3    H230754   5.644   5.210  17.971
 2187TIP3   OH230755   5.028   4.842  17.570
 2187TIP3    H130756   4.946   4.765  17.600
 2187TIP3    H230757   5.107   4.769  17.536
 2188TIP3   OH230758   5.512   5.086  18.163
 2188TIP3    H130759   5.419   5.160  18.162
 2188TIP3    H230760   5.591   5.146  18.213
 2189TIP3   OH230761   6.475   5.786  18.241
 2189TIP3    H130762   6.534   5.843  18.169
 2189TIP3    H230763   6.365   5.813  18.215
 2190TIP3   OH230764   6.031   4.952  17.194
 2190TIP3    H130765   6.011   4.891  17.112
 2190TIP3    H230766   6.047   5.062  17.164
 2191TIP3   OH230767   5.729   5.915  18.464
 2191TIP3    H130768   5.722   5.869  18.552
 2191TIP3    H230769   5.712   6.029  18.483
 2192TIP3   OH230770   6.173   5.282  17.357
 2192TIP3    H130771   6.281   5.243  17.360
 2192TIP3    H230772   6.196   5.398  17.346
 2193TIP3   OH230773   5.004   5.824  17.904
 2193TIP3    H130774   5.066   5.794  17.824
 2193TIP3    H230775   5.008   5.726  17.959
 2194TIP3   OH230776   4.661   5.596  18.443
 2194TIP3    H130777   4.636   5.544  18.528
 2194TIP3    H230778   4.584   5.546  18.383
 2195TIP3   OH230779   5.474   5.560  18.645
 2195TIP3    H130780   5.432   5.490  18.576
 2195TIP3    H230781   5.582   5.513  18.657
 2196TIP3   OH230782   6.056   6.233  18.476
 2196TIP3    H130783   5.947   6.210  18.452
 2196TIP3    H230784   6.038   6.282  18.564
 2197TIP3   OH230785   6.716   5.262  17.262
 2197TIP3    H130786   6.610   5.230  17.237
 2197TIP3    H230787   6.694   5.362  17.310
 2198TIP3   OH230788   6.726   5.954  18.568
 2198TIP3    H130789   6.614   5.972  18.539
 2198TIP3    H230790   6.781   5.939  18.482
 2199TIP3   OH230791   6.472   6.364  17.319
 2199TIP3    H130792   6.418   6.289  17.379
 2199TIP3    H230793   6.518   6.288  17.254
 2200TIP3   OH230794   6.167   5.712  18.071
 2200TIP3    H130795   6.103   5.639  18.126
 2200TIP3    H230796   6.245   5.640  18.034
 2201TIP3   OH230797   5.516   6.388  18.291
 2201TIP3    H130798   5.567   6.491  18.279
 2201TIP3    H230799   5.579   6.340  18.365
 2202TIP3   OH230800   5.309   6.575  17.597
 2202TIP3    H130801   5.195   6.576  17.613
 2202TIP3    H230802   5.334   6.690  17.605
 2203TIP3   OH230803   5.904   5.936  18.225
 2203TIP3    H130804   5.842   5.911  18.305
 2203TIP3    H230805   5.946   5.832  18.201
 2204TIP3   OH230806   6.278   6.502  18.452
 2204TIP3    H130807   6.175   6.449  18.433
 2204TIP3    H230808   6.286   6.583  18.381
 2205TIP3   OH230809   4.873   4.966  18.424
 2205TIP3    H130810   4.796   5.022  18.480
 2205TIP3    H230811   4.865   4.858  18.461
 2206TIP3   OH230812   4.800   6.383  18.246
 2206TIP3    H130813   4.874   6.293  18.250
 2206TIP3    H230814   4.820   6.427  18.334
 2207TIP3   OH230815   5.012   5.844  17.297
 2207TIP3    H130816   4.900   5.879  17.294
 2207TIP3    H230817   5.070   5.927  17.248
 2208TIP3   OH230818   5.900   4.939  18.296
 2208TIP3    H130819   5.980   4.988  18.355
 2208TIP3    H230820   5.878   4.835  18.338
 2209TIP3   OH230821   5.963   4.879  17.471
 2209TIP3    H130822   5.995   4.888  17.377
 2209TIP3    H230823   6.022   4.964  17.516
 2210TIP3   OH230824   5.630   5.160  17.509
 2210TIP3    H130825   5.734   5.218  17.512
 2210TIP3    H230826   5.633   5.096  17.591
 2211TIP3   OH230827   5.772   5.255  18.397
 2211TIP3    H130828   5.782   5.287  18.490
 2211TIP3    H230829   5.813   5.144  18.396
 2212TIP3   OH230830   5.695   4.751  17.564
 2212TIP3    H130831   5.668   4.828  17.634
 2212TIP3    H230832   5.804   4.787  17.537
 2213TIP3   OH230833   5.288   6.496  17.332
 2213TIP3    H130834   5.366   6.558  17.281
 2213TIP3    H230835   5.328   6.506  17.424
 2214TIP3   OH230836   5.255   4.948  17.222
 2214TIP3    H130837   5.184   4.967  17.297
 2214TIP3    H230838   5.354   4.910  17.266
 2215TIP3   OH230839   6.421   4.961  18.509
 2215TIP3    H130840   6.310   4.984  18.484
 2215TIP3    H230841   6.475   4.970  18.423
 2216TIP3   OH230842   6.402   6.540  18.053
 2216TIP3    H130843   6.412   6.624  17.984
 2216TIP3    H230844   6.516   6.522  18.072
 2217TIP3   OH230845   4.931   4.636  17.968
 2217TIP3    H130846   4.919   4.615  17.872
 2217TIP3    H230847   4.894   4.534  18.005
 2218TIP3   OH230848   4.729   6.264  17.497
 2218TIP3    H130849   4.666   6.350  17.532
 2218TIP3    H230850   4.837   6.302  17.519
 2219TIP3   OH230851   4.674   6.637  18.686
 2219TIP3    H130852   4.751   6.612  18.756
 2219TIP3    H230853   4.625   6.530  18.672
 2220TIP3   OH230854   5.252   6.493  18.825
 2220TIP3    H130855   5.357   6.450  18.850
 2220TIP3    H230856   5.236   6.444  18.738
 2221TIP3   OH230857   5.698   6.467  17.040
 2221TIP3    H130858   5.632   6.401  17.099
 2221TIP3    H230859   5.782   6.395  17.012
 2222TIP3   OH230860   6.018   6.324  18.733
 2222TIP3    H130861   5.978   6.216  18.759
 2222TIP3    H230862   6.119   6.328  18.784
 2223TIP3   OH230863   4.650   5.872  18.795
 2223TIP3    H130864   4.613   5.761  18.797
 2223TIP3    H230865   4.596   5.910  18.713
 2224TIP3   OH230866   5.473   5.874  18.699
 2224TIP3    H130867   5.461   5.930  18.614
 2224TIP3    H230868   5.453   5.760  18.677
 2225TIP3   OH230869   6.144   5.861  18.491
 2225TIP3    H130870   6.244   5.923  18.489
 2225TIP3    H230871   6.066   5.947  18.483
 2226TIP3   OH230872   4.812   5.519  18.746
 2226TIP3    H130873   4.825   5.406  18.763
 2226TIP3    H230874   4.852   5.569  18.829
 2227TIP3   OH230875   5.352   5.638  17.216
 2227TIP3    H130876   5.280   5.641  17.292
 2227TIP3    H230877   5.387   5.527  17.216
 2228TIP3   OH230878   5.238   5.407  18.422
 2228TIP3    H130879   5.174   5.504  18.429
 2228TIP3    H230880   5.335   5.453  18.382
 2229TIP3   OH230881   5.910   5.749  18.793
 2229TIP3    H130882   5.993   5.682  18.754
 2229TIP3    H230883   5.852   5.671  18.848
 2230TIP3   OH230884   5.318   5.104  18.530
 2230TIP3    H130885   5.334   5.029  18.455
 2230TIP3    H230886   5.288   5.203  18.483
 2231TIP3   OH230887   5.357   4.876  18.320
 2231TIP3    H130888   5.408   4.937  18.248
 2231TIP3    H230889   5.243   4.878  18.294
 2232TIP3   OH230890   5.510   5.578  18.339
 2232TIP3    H130891   5.610   5.632  18.314
 2232TIP3    H230892   5.431   5.652  18.303
 2233TIP3   OH230893   6.086   5.251  18.814
 2233TIP3    H130894   6.097   5.136  18.807
 2233TIP3    H230895   6.193   5.292  18.799
 2234TIP3   OH230896   6.234   5.653  18.686
 2234TIP3    H130897   6.196   5.725  18.616
 2234TIP3    H230898   6.349   5.648  18.666
 2235TIP3   OH230899   5.130   5.200  18.750
 2235TIP3    H130900   5.028   5.155  18.723
 2235TIP3    H230901   5.200   5.168  18.676
 2236TIP3   OH230902   5.482   4.589  18.360
 2236TIP3    H130903   5.436   4.696  18.343
 2236TIP3    H230904   5.402   4.524  18.313
 2237TIP3   OH230905   5.585   5.105  18.752
 2237TIP3    H130906   5.510   5.080  18.825
 2237TIP3    H230907   5.516   5.082  18.676
 2238TIP3   OH230908   5.934   5.010  18.645
 2238TIP3    H130909   5.820   5.005  18.665
 2238TIP3    H230910   5.975   4.948  18.720
 2239TIP3   OH230911   6.126   4.854  18.833
 2239TIP3    H130912   6.122   4.736  18.822
 2239TIP3    H230913   6.103   4.865  18.929
 2240TIP3   OH230914   4.873   4.992  18.755
 2240TIP3    H130915   4.840   4.897  18.706
 2240TIP3    H230916   4.860   4.956  18.849
 2241TIP3   OH230917   5.423   4.549  18.639
 2241TIP3    H130918   5.508   4.468  18.651
 2241TIP3    H230919   5.438   4.567  18.543
 2242TIP3   OH230920   5.476   4.723  18.879
 2242TIP3    H130921   5.456   4.666  18.794
 2242TIP3    H230922   5.424   4.826  18.865
 2243TIP3   OH230923   5.467   6.737  17.203
 2243TIP3    H130924   5.539   6.752  17.127
 2243TIP3    H230925   5.384   6.815  17.181
 2244TIP3   OH230926   4.571   6.719  17.600
 2244TIP3    H130927   4.471   6.684  17.557
 2244TIP3    H230928   4.567   6.655  17.681
 2245TIP3   OH230929   4.655   6.496  17.809
 2245TIP3    H130930   4.566   6.431  17.843
 2245TIP3    H230931   4.709   6.527  17.892
 2246TIP3   OH230932   6.740   6.601  18.074
 2246TIP3    H130933   6.773   6.622  18.166
 2246TIP3    H230934   6.832   6.642  18.025
 2247TIP3   OH230935   6.695   6.538  18.377
 2247TIP3    H130936   6.648   6.448  18.327
 2247TIP3    H230937   6.716   6.485  18.462
 2248TIP3   OH230938   6.524   6.042  18.866
 2248TIP3    H130939   6.413   6.042  18.898
 2248TIP3    H230940   6.572   6.130  18.920
 2249TIP3   OH230941   6.654   5.926  18.057
 2249TIP3    H130942   6.739   5.852  18.029
 2249TIP3    H230943   6.691   6.029  18.020
 2250TIP3   OH230944   6.514   6.280  18.299
 2250TIP3    H130945   6.432   6.326  18.356
 2250TIP3    H230946   6.455   6.258  18.216
 2251TIP3   OH230947   6.464   5.260  17.086
 2251TIP3    H130948   6.556   5.332  17.080
 2251TIP3    H230949   6.508   5.159  17.053
 2252TIP3   OH230950   4.632   5.706  18.045
 2252TIP3    H130951   4.632   5.669  17.952
 2252TIP3    H230952   4.739   5.670  18.074
 2253TIP3   OH230953   6.581   5.657  18.610
 2253TIP3    H130954   6.635   5.556  18.634
 2253TIP3    H230955   6.666   5.737  18.596
 2254TIP3   OH230956   6.692   5.358  18.695
 2254TIP3    H130957   6.593   5.309  18.660
 2254TIP3    H230958   6.767   5.269  18.681
 2255TIP3   OH230959   6.515   5.315  18.330
 2255TIP3    H130960   6.403   5.350  18.324
 2255TIP3    H230961   6.575   5.404  18.290
 2256TIP3   OH230962   4.618   5.112  18.638
 2256TIP3    H130963   4.715   5.089  18.689
 2256TIP3    H230964   4.554   5.014  18.653
 2257TIP3   OH230965   6.744   4.600  18.811
 2257TIP3    H130966   6.800   4.518  18.758
 2257TIP3    H230967   6.752   4.694  18.752
 2258TIP3   OH230968   4.757   4.904  17.990
 2258TIP3    H130969   4.814   4.802  17.984
 2258TIP3    H230970   4.840   4.982  17.970
 2259TIP3   OH230971   4.566   5.287  18.061
 2259TIP3    H130972   4.645   5.255  17.995
 2259TIP3    H230973   4.622   5.378  18.099
 2260TIP3   OH230974   6.694   4.873  18.669
 2260TIP3    H130975   6.584   4.903  18.702
 2260TIP3    H230976   6.665   4.818  18.587
 2261TIP3   OH230977   4.592   4.868  17.479
 2261TIP3    H130978   4.504   4.805  17.444
 2261TIP3    H230979   4.649   4.901  17.398
 2262TIP3   OH230980   6.361   6.590  17.656
 2262TIP3    H130981   6.420   6.538  17.586
 2262TIP3    H230982   6.438   6.668  17.690
 2263TIP3   OH230983   4.592   4.652  18.286
 2263TIP3    H130984   4.516   4.625  18.356
 2263TIP3    H230985   4.540   4.741  18.241
 2264TIP3   OH230986   4.858   6.234  18.692
 2264TIP3    H130987   4.756   6.275  18.660
 2264TIP3    H230988   4.832   6.192  18.779
 2265TIP3   OH230989   5.177   6.436  18.355
 2265TIP3    H130990   5.201   6.545  18.325
 2265TIP3    H230991   5.282   6.388  18.359
 2266TIP3   OH230992   5.705   6.559  18.609
 2266TIP3    H130993   5.708   6.526  18.704
 2266TIP3    H230994   5.815   6.599  18.598
 2267TIP3   OH230995   5.978   6.719  18.547
 2267TIP3    H130996   6.076   6.659  18.534
 2267TIP3    H230997   6.007   6.779  18.629
 2268TIP3   OH230998   6.602   4.591  18.470
 2268TIP3    H130999   6.514   4.630  18.417
 2268TIP3    H231000   6.624   4.486  18.429
 2269TIP3   OH231001   4.900   6.773  18.324
 2269TIP3    H131002   4.802   6.832  18.298
 2269TIP3    H231003   4.888   6.764  18.420
 2270TIP3   OH231004   5.191   6.715  18.218
 2270TIP3    H131005   5.081   6.736  18.251
 2270TIP3    H231006   5.192   6.782  18.138
 2271TIP3   OH231007   5.724   6.670  18.101
 2271TIP3    H131008   5.656   6.734  18.044
 2271TIP3    H231009   5.752   6.745  18.172
 2272TIP3   OH231010   6.007   6.535  18.277
 2272TIP3    H131011   5.941   6.624  18.309
 2272TIP3    H231012   6.112   6.589  18.274
 2273TIP3   OH231013   6.282   6.726  18.255
 2273TIP3    H131014   6.299   6.839  18.233
 2273TIP3    H231015   6.342   6.672  18.183
 2274TIP3   OH231016   4.817   6.584  18.031
 2274TIP3    H131017   4.794   6.523  18.113
 2274TIP3    H231018   4.925   6.546  18.008
 2275TIP3   OH231019   5.081   6.475  17.917
 2275TIP3    H131020   5.069   6.359  17.929
 2275TIP3    H231021   5.197   6.488  17.932
 2276TIP3   OH231022   5.388   6.486  17.982
 2276TIP3    H131023   5.412   6.374  17.964
 2276TIP3    H231024   5.389   6.493  18.079
 2277TIP3   OH231025   5.828   4.721  17.884
 2277TIP3    H131026   5.728   4.700  17.930
 2277TIP3    H231027   5.821   4.642  17.813
 2278TIP3   OH231028   4.860   4.598  17.689
 2278TIP3    H131029   4.751   4.578  17.658
 2278TIP3    H231030   4.913   4.494  17.673
 2279TIP3   OH231031   5.353   4.562  17.651
 2279TIP3    H131032   5.429   4.602  17.587
 2279TIP3    H231033   5.417   4.565  17.732
 2280TIP3   OH231034   5.524   4.903  17.362
 2280TIP3    H131035   5.568   4.822  17.422
 2280TIP3    H231036   5.610   4.980  17.365
 2281TIP3   OH231037   4.838   4.680  18.620
 2281TIP3    H131038   4.786   4.577  18.626
 2281TIP3    H231039   4.925   4.669  18.687
 2282TIP3   OH231040   5.077   4.600  18.805
 2282TIP3    H131041   5.188   4.585  18.779
 2282TIP3    H231042   5.052   4.487  18.823
 2283TIP3   OH231043   6.108   4.523  18.815
 2283TIP3    H131044   6.098   4.433  18.878
 2283TIP3    H231045   6.217   4.504  18.782
 2284TIP3   OH231046   6.485   6.450  18.643
 2284TIP3    H131047   6.406   6.442  18.569
 2284TIP3    H231048   6.462   6.558  18.673
 2285TIP3   OH231049   8.251   5.707  17.629
 2285TIP3    H131050   8.292   5.804  17.671
 2285TIP3    H231051   8.142   5.742  17.613
 2286TIP3   OH231052   8.099   5.582  17.988
 2286TIP3    H131053   8.122   5.520  18.069
 2286TIP3    H231054   8.021   5.515  17.941
 2287TIP3   OH231055   7.151   5.585  18.152
 2287TIP3    H131056   7.150   5.485  18.202
 2287TIP3    H231057   7.225   5.647  18.206
 2288TIP3   OH231058   8.538   5.945  17.882
 2288TIP3    H131059   8.537   5.868  17.956
 2288TIP3    H231060   8.524   6.046  17.930
 2289TIP3   OH231061   7.273   6.130  17.978
 2289TIP3    H131062   7.243   6.017  17.962
 2289TIP3    H231063   7.388   6.113  17.981
 2290TIP3   OH231064   6.932   5.579  17.773
 2290TIP3    H131065   7.002   5.496  17.814
 2290TIP3    H231066   7.006   5.666  17.759
 2291TIP3   OH231067   7.895   5.851  18.078
 2291TIP3    H131068   7.952   5.773  18.023
 2291TIP3    H231069   7.987   5.905  18.120
 2292TIP3   OH231070   8.941   4.908  18.105
 2292TIP3    H131071   8.934   4.984  18.178
 2292TIP3    H231072   9.014   4.963  18.046
 2293TIP3   OH231073   8.304   5.230  18.090
 2293TIP3    H131074   8.353   5.130  18.120
 2293TIP3    H231075   8.282   5.202  17.996
 2294TIP3   OH231076   7.464   4.968  17.775
 2294TIP3    H131077   7.466   5.074  17.730
 2294TIP3    H231078   7.402   4.904  17.710
 2295TIP3   OH231079   8.398   5.014  17.644
 2295TIP3    H131080   8.438   4.969  17.729
 2295TIP3    H231081   8.496   5.066  17.614
 2296TIP3   OH231082   7.102   5.341  17.895
 2296TIP3    H131083   7.171   5.270  17.947
 2296TIP3    H231084   7.102   5.282  17.809
 2297TIP3   OH231085   7.639   5.473  17.830
 2297TIP3    H131086   7.730   5.425  17.877
 2297TIP3    H231087   7.615   5.390  17.764
 2298TIP3   OH231088   8.936   5.022  18.379
 2298TIP3    H131089   8.880   5.112  18.337
 2298TIP3    H231090   9.024   5.081  18.419
 2299TIP3   OH231091   7.337   4.894  18.216
 2299TIP3    H131092   7.289   4.948  18.139
 2299TIP3    H231093   7.260   4.921  18.287
 2300TIP3   OH231094   8.153   6.010  17.553
 2300TIP3    H131095   8.120   6.019  17.459
 2300TIP3    H231096   8.122   6.113  17.586
 2301TIP3   OH231097   7.600   5.792  18.174
 2301TIP3    H131098   7.550   5.888  18.213
 2301TIP3    H231099   7.692   5.842  18.128
 2302TIP3   OH231100   8.572   4.978  17.862
 2302TIP3    H131101   8.524   4.902  17.925
 2302TIP3    H231102   8.686   4.960  17.871
 2303TIP3   OH231103   7.284   5.096  17.991
 2303TIP3    H131104   7.361   5.167  18.039
 2303TIP3    H231105   7.354   5.054  17.920
 2304TIP3   OH231106   7.440   6.040  18.282
 2304TIP3    H131107   7.426   6.149  18.248
 2304TIP3    H231108   7.337   6.028  18.330
 2305TIP3   OH231109   8.585   6.210  18.062
 2305TIP3    H131110   8.472   6.234  18.080
 2305TIP3    H231111   8.616   6.311  18.022
 2306TIP3   OH231112   8.620   4.853  18.180
 2306TIP3    H131113   8.522   4.888  18.131
 2306TIP3    H231114   8.704   4.870  18.114
 2307TIP3   OH231115   7.752   4.567  17.947
 2307TIP3    H131116   7.723   4.456  17.936
 2307TIP3    H231117   7.646   4.613  17.973
 2308TIP3   OH231118   8.706   5.989  18.449
 2308TIP3    H131119   8.718   5.917  18.371
 2308TIP3    H231120   8.711   6.094  18.402
 2309TIP3   OH231121   8.885   5.560  18.235
 2309TIP3    H131122   8.822   5.658  18.223
 2309TIP3    H231123   8.975   5.580  18.173
 2310TIP3   OH231124   8.476   5.549  17.478
 2310TIP3    H131125   8.405   5.626  17.523
 2310TIP3    H231126   8.562   5.542  17.545
 2311TIP3   OH231127   8.473   5.444  18.418
 2311TIP3    H131128   8.434   5.543  18.458
 2311TIP3    H231129   8.402   5.440  18.341
 2312TIP3   OH231130   7.480   5.701  17.697
 2312TIP3    H131131   7.417   5.642  17.631
 2312TIP3    H231132   7.549   5.617  17.733
 2313TIP3   OH231133   7.632   6.102  17.961
 2313TIP3    H131134   7.643   6.067  17.869
 2313TIP3    H231135   7.722   6.047  18.004
 2314TIP3   OH231136   7.495   5.533  18.068
 2314TIP3    H131137   7.542   5.540  17.978
 2314TIP3    H231138   7.543   5.629  18.111
 2315TIP3   OH231139   8.280   6.242  18.128
 2315TIP3    H131140   8.262   6.314  18.204
 2315TIP3    H231141   8.260   6.137  18.167
 2316TIP3   OH231142   7.626   6.092  18.504
 2316TIP3    H131143   7.543   6.149  18.556
 2316TIP3    H231144   7.568   6.070  18.421
 2317TIP3   OH231145   7.270   5.644  18.419
 2317TIP3    H131146   7.302   5.734  18.473
 2317TIP3    H231147   7.183   5.603  18.474
 2318TIP3   OH231148   7.426   6.317  18.584
 2318TIP3    H131149   7.396   6.331  18.491
 2318TIP3    H231150   7.322   6.286  18.625
 2319TIP3   OH231151   8.737   4.600  17.278
 2319TIP3    H131152   8.644   4.561  17.232
 2319TIP3    H231153   8.816   4.597  17.206
 2320TIP3   OH231154   7.297   5.579  17.497
 2320TIP3    H131155   7.337   5.666  17.444
 2320TIP3    H231156   7.255   5.504  17.433
 2321TIP3   OH231157   8.951   6.289  17.177
 2321TIP3    H131158   8.920   6.330  17.265
 2321TIP3    H231159   9.064   6.263  17.184
 2322TIP3   OH231160   6.908   5.915  18.348
 2322TIP3    H131161   6.854   5.911  18.262
 2322TIP3    H231162   6.938   5.803  18.365
 2323TIP3   OH231163   6.839   6.221  18.022
 2323TIP3    H131164   6.948   6.185  18.014
 2323TIP3    H231165   6.852   6.316  18.075
 2324TIP3   OH231166   9.035   6.312  18.615
 2324TIP3    H131167   9.022   6.211  18.569
 2324TIP3    H231168   8.928   6.320  18.657
 2325TIP3   OH231169   7.937   6.240  18.504
 2325TIP3    H131170   7.943   6.336  18.559
 2325TIP3    H231171   7.825   6.203  18.512
 2326TIP3   OH231172   7.247   6.557  17.660
 2326TIP3    H131173   7.277   6.517  17.749
 2326TIP3    H231174   7.142   6.506  17.649
 2327TIP3   OH231175   8.663   5.303  18.636
 2327TIP3    H131176   8.605   5.341  18.558
 2327TIP3    H231177   8.692   5.192  18.612
 2328TIP3   OH231178   7.184   6.043  18.438
 2328TIP3    H131179   7.184   5.996  18.530
 2328TIP3    H231180   7.076   6.016  18.406
 2329TIP3   OH231181   7.494   4.706  18.045
 2329TIP3    H131182   7.388   4.715  18.002
 2329TIP3    H231183   7.469   4.757  18.131
 2330TIP3   OH231184   8.069   4.618  18.350
 2330TIP3    H131185   8.114   4.562  18.428
 2330TIP3    H231186   7.952   4.614  18.367
 2331TIP3   OH231187   8.404   5.082  18.448
 2331TIP3    H131188   8.348   5.029  18.524
 2331TIP3    H231189   8.410   5.191  18.479
 2332TIP3   OH231190   8.568   5.598  17.090
 2332TIP3    H131191   8.514   5.683  17.045
 2332TIP3    H231192   8.566   5.633  17.184
 2333TIP3   OH231193   8.051   5.022  17.127
 2333TIP3    H131194   7.990   4.978  17.201
 2333TIP3    H231195   7.969   5.008  17.058
 2334TIP3   OH231196   7.495   5.243  18.155
 2334TIP3    H131197   7.399   5.252  18.210
 2334TIP3    H231198   7.502   5.357  18.124
 2335TIP3   OH231199   7.447   5.248  17.650
 2335TIP3    H131200   7.333   5.261  17.631
 2335TIP3    H231201   7.494   5.250  17.559
 2336TIP3   OH231202   8.140   5.364  17.506
 2336TIP3    H131203   8.176   5.474  17.515
 2336TIP3    H231204   8.237   5.306  17.482
 2337TIP3   OH231205   8.008   5.368  18.655
 2337TIP3    H131206   7.960   5.269  18.692
 2337TIP3    H231207   8.101   5.380  18.712
 2338TIP3   OH231208   8.261   5.285  17.808
 2338TIP3    H131209   8.233   5.382  17.759
 2338TIP3    H231210   8.284   5.208  17.737
 2339TIP3   OH231211   7.194   5.264  18.271
 2339TIP3    H131212   7.237   5.317  18.350
 2339TIP3    H231213   7.156   5.162  18.307
 2340TIP3   OH231214   7.480   5.068  17.024
 2340TIP3    H131215   7.544   4.978  17.058
 2340TIP3    H231216   7.417   5.015  16.953
 2341TIP3   OH231217   6.815   4.931  17.740
 2341TIP3    H131218   6.900   4.937  17.807
 2341TIP3    H231219   6.869   4.945  17.654
 2342TIP3   OH231220   6.947   5.023  17.261
 2342TIP3    H131221   7.037   5.074  17.218
 2342TIP3    H231222   6.868   5.108  17.251
 2343TIP3   OH231223   8.179   5.462  18.238
 2343TIP3    H131224   8.236   5.376  18.188
 2343TIP3    H231225   8.106   5.399  18.294
 2344TIP3   OH231226   7.795   4.987  17.764
 2344TIP3    H131227   7.679   4.985  17.781
 2344TIP3    H231228   7.838   4.916  17.831
 2345TIP3   OH231229   7.116   5.180  17.652
 2345TIP3    H131230   7.052   5.208  17.576
 2345TIP3    H231231   7.172   5.086  17.619
 2346TIP3   OH231232   7.589   5.236  17.411
 2346TIP3    H131233   7.699   5.206  17.431
 2346TIP3    H231234   7.570   5.183  17.327
 2347TIP3   OH231235   8.341   4.889  18.062
 2347TIP3    H131236   8.260   4.878  18.132
 2347TIP3    H231237   8.275   4.847  17.988
 2348TIP3   OH231238   7.410   5.353  17.142
 2348TIP3    H131239   7.322   5.281  17.118
 2348TIP3    H231240   7.496   5.304  17.090
 2349TIP3   OH231241   8.702   6.722  18.724
 2349TIP3    H131242   8.755   6.767  18.645
 2349TIP3    H231243   8.782   6.748  18.792
 2350TIP3   OH231244   7.216   5.860  18.667
 2350TIP3    H131245   7.301   5.874  18.733
 2350TIP3    H231246   7.122   5.846  18.726
 2351TIP3   OH231247   7.909   5.314  17.924
 2351TIP3    H131248   7.990   5.257  17.871
 2351TIP3    H231249   7.873   5.230  17.985
 2352TIP3   OH231250   7.272   4.855  17.570
 2352TIP3    H131251   7.224   4.758  17.608
 2352TIP3    H231252   7.356   4.810  17.514
 2353TIP3   OH231253   7.765   5.087  18.176
 2353TIP3    H131254   7.667   5.153  18.180
 2353TIP3    H231255   7.844   5.155  18.219
 2354TIP3   OH231256   7.829   5.848  17.360
 2354TIP3    H131257   7.742   5.776  17.329
 2354TIP3    H231258   7.784   5.880  17.446
 2355TIP3   OH231259   8.713   5.838  18.220
 2355TIP3    H131260   8.772   5.885  18.146
 2355TIP3    H231261   8.620   5.791  18.175
 2356TIP3   OH231262   8.381   4.984  17.172
 2356TIP3    H131263   8.270   5.010  17.147
 2356TIP3    H231264   8.418   5.082  17.214
 2357TIP3   OH231265   7.990   5.923  18.462
 2357TIP3    H131266   7.978   5.872  18.548
 2357TIP3    H231267   7.981   6.036  18.486
 2358TIP3   OH231268   8.428   5.262  17.354
 2358TIP3    H131269   8.504   5.200  17.406
 2358TIP3    H231270   8.455   5.371  17.386
 2359TIP3   OH231271   7.285   5.797  17.943
 2359TIP3    H131272   7.352   5.766  17.868
 2359TIP3    H231273   7.270   5.695  17.991
 2360TIP3   OH231274   8.060   6.049  17.299
 2360TIP3    H131275   8.021   6.157  17.321
 2360TIP3    H231276   7.967   5.977  17.309
 2361TIP3   OH231277   6.906   5.610  18.469
 2361TIP3    H131278   6.895   5.532  18.541
 2361TIP3    H231279   6.841   5.562  18.398
 2362TIP3   OH231280   7.734   5.540  18.640
 2362TIP3    H131281   7.682   5.471  18.576
 2362TIP3    H231282   7.842   5.494  18.644
 2363TIP3   OH231283   8.327   6.181  18.483
 2363TIP3    H131284   8.225   6.203  18.441
 2363TIP3    H231285   8.310   6.236  18.568
 2364TIP3   OH231286   8.981   5.942  18.569
 2364TIP3    H131287   8.878   5.980  18.530
 2364TIP3    H231288   9.047   5.928  18.488
 2365TIP3   OH231289   8.480   5.696  18.058
 2365TIP3    H131290   8.370   5.712  18.031
 2365TIP3    H231291   8.508   5.608  17.999
 2366TIP3   OH231292   7.541   6.230  17.650
 2366TIP3    H131293   7.565   6.332  17.605
 2366TIP3    H231294   7.426   6.227  17.640
 2367TIP3   OH231295   7.690   5.932  17.602
 2367TIP3    H131296   7.640   6.032  17.631
 2367TIP3    H231297   7.626   5.850  17.651
 2368TIP3   OH231298   7.775   6.431  18.327
 2368TIP3    H131299   7.856   6.497  18.284
 2368TIP3    H231300   7.844   6.367  18.387
 2369TIP3   OH231301   7.555   6.534  17.560
 2369TIP3    H131302   7.447   6.536  17.598
 2369TIP3    H231303   7.594   6.640  17.588
 2370TIP3   OH231304   8.153   5.924  18.219
 2370TIP3    H131305   8.096   5.916  18.306
 2370TIP3    H231306   8.204   5.821  18.219
 2371TIP3   OH231307   8.525   6.469  18.456
 2371TIP3    H131308   8.426   6.412  18.435
 2371TIP3    H231309   8.536   6.546  18.381
 2372TIP3   OH231310   7.112   4.964  18.407
 2372TIP3    H131311   7.026   5.023  18.453
 2372TIP3    H231312   7.111   4.865  18.459
 2373TIP3   OH231313   8.591   5.820  17.289
 2373TIP3    H131314   8.520   5.848  17.362
 2373TIP3    H231315   8.683   5.888  17.305
 2374TIP3   OH231316   7.067   6.372  18.242
 2374TIP3    H131317   7.142   6.283  18.247
 2374TIP3    H231318   7.094   6.432  18.321
 2375TIP3   OH231319   7.746   6.223  16.978
 2375TIP3    H131320   7.691   6.158  16.911
 2375TIP3    H231321   7.754   6.151  17.052
 2376TIP3   OH231322   8.150   4.950  18.330
 2376TIP3    H131323   8.257   4.964  18.370
 2376TIP3    H231324   8.122   4.843  18.362
 2377TIP3   OH231325   8.232   4.878  17.442
 2377TIP3    H131326   8.284   4.925  17.366
 2377TIP3    H231327   8.303   4.914  17.514
 2378TIP3   OH231328   7.981   6.371  17.322
 2378TIP3    H131329   7.866   6.391  17.329
 2378TIP3    H231330   8.011   6.437  17.247
 2379TIP3   OH231331   7.891   5.154  17.511
 2379TIP3    H131332   7.967   5.242  17.526
 2379TIP3    H231333   7.892   5.096  17.596
 2380TIP3   OH231334   8.014   5.251  18.394
 2380TIP3    H131335   8.011   5.282  18.489
 2380TIP3    H231336   8.071   5.149  18.392
 2381TIP3   OH231337   8.053   4.753  17.637
 2381TIP3    H131338   7.950   4.780  17.595
 2381TIP3    H231339   8.129   4.794  17.569
 2382TIP3   OH231340   7.660   6.425  17.326
 2382TIP3    H131341   7.684   6.524  17.276
 2382TIP3    H231342   7.620   6.472  17.410
 2383TIP3   OH231343   8.681   4.972  18.537
 2383TIP3    H131344   8.584   4.993  18.485
 2383TIP3    H231345   8.766   4.986  18.470
 2384TIP3   OH231346   8.532   5.443  17.895
 2384TIP3    H131347   8.443   5.369  17.881
 2384TIP3    H231348   8.593   5.382  17.963
 2385TIP3   OH231349   7.057   5.272  17.051
 2385TIP3    H131350   6.988   5.368  17.048
 2385TIP3    H231351   6.998   5.195  16.999
 2386TIP3   OH231352   8.695   6.535  18.060
 2386TIP3    H131353   8.675   6.625  17.999
 2386TIP3    H231354   8.813   6.533  18.061
 2387TIP3   OH231355   7.190   4.644  17.968
 2387TIP3    H131356   7.183   4.600  17.876
 2387TIP3    H231357   7.154   4.549  18.018
 2388TIP3   OH231358   7.026   6.307  17.588
 2388TIP3    H131359   6.928   6.364  17.602
 2388TIP3    H231360   7.056   6.341  17.499
 2389TIP3   OH231361   6.932   6.618  18.685
 2389TIP3    H131362   7.007   6.600  18.760
 2389TIP3    H231363   6.881   6.514  18.677
 2390TIP3   OH231364   7.470   6.444  18.837
 2390TIP3    H131365   7.579   6.470  18.856
 2390TIP3    H231366   7.469   6.440  18.739
 2391TIP3   OH231367   8.020   6.403  17.023
 2391TIP3    H131368   7.932   6.335  16.991
 2391TIP3    H231369   8.107   6.329  17.044
 2392TIP3   OH231370   8.261   6.314  18.725
 2392TIP3    H131371   8.226   6.208  18.757
 2392TIP3    H231372   8.358   6.325  18.780
 2393TIP3   OH231373   6.914   5.873  18.776
 2393TIP3    H131374   6.866   5.766  18.782
 2393TIP3    H231375   6.854   5.918  18.701
 2394TIP3   OH231376   7.726   5.860  18.676
 2394TIP3    H131377   7.699   5.929  18.600
 2394TIP3    H231378   7.711   5.750  18.641
 2395TIP3   OH231379   8.426   5.833  18.486
 2395TIP3    H131380   8.533   5.884  18.491
 2395TIP3    H231381   8.363   5.930  18.498
 2396TIP3   OH231382   7.090   5.515  18.760
 2396TIP3    H131383   7.188   5.455  18.769
 2396TIP3    H231384   7.096   5.586  18.838
 2397TIP3   OH231385   7.588   5.671  17.256
 2397TIP3    H131386   7.550   5.574  17.299
 2397TIP3    H231387   7.632   5.623  17.175
 2398TIP3   OH231388   7.489   5.407  18.410
 2398TIP3    H131389   7.420   5.501  18.412
 2398TIP3    H231390   7.584   5.461  18.372
 2399TIP3   OH231391   7.768   5.446  17.030
 2399TIP3    H131392   7.690   5.458  16.959
 2399TIP3    H231393   7.855   5.401  16.977
 2400TIP3   OH231394   8.144   5.732  18.794
 2400TIP3    H131395   8.216   5.684  18.729
 2400TIP3    H231396   8.120   5.640  18.853
 2401TIP3   OH231397   7.595   5.118  18.530
 2401TIP3    H131398   7.602   5.032  18.462
 2401TIP3    H231399   7.550   5.208  18.478
 2402TIP3   OH231400   7.624   4.884  18.339
 2402TIP3    H131401   7.686   4.943  18.270
 2402TIP3    H231402   7.514   4.885  18.301
 2403TIP3   OH231403   7.772   5.588  18.336
 2403TIP3    H131404   7.873   5.623  18.299
 2403TIP3    H231405   7.699   5.660  18.288
 2404TIP3   OH231406   8.381   5.251  18.828
 2404TIP3    H131407   8.447   5.164  18.796
 2404TIP3    H231408   8.458   5.336  18.814
 2405TIP3   OH231409   8.471   5.645  18.703
 2405TIP3    H131410   8.440   5.706  18.623
 2405TIP3    H231411   8.580   5.615  18.676
 2406TIP3   OH231412   7.397   5.213  18.749
 2406TIP3    H131413   7.295   5.159  18.729
 2406TIP3    H231414   7.465   5.172  18.676
 2407TIP3   OH231415   7.741   4.586  18.346
 2407TIP3    H131416   7.710   4.699  18.352
 2407TIP3    H231417   7.643   4.538  18.314
 2408TIP3   OH231418   7.852   5.096  18.747
 2408TIP3    H131419   7.778   5.064  18.818
 2408TIP3    H231420   7.782   5.086  18.670
 2409TIP3   OH231421   8.197   4.988  18.649
 2409TIP3    H131422   8.087   5.008  18.676
 2409TIP3    H231423   8.240   4.939  18.731
 2410TIP3   OH231424   8.396   4.859  18.831
 2410TIP3    H131425   8.380   4.742  18.838
 2410TIP3    H231426   8.365   4.900  18.919
 2411TIP3   OH231427   7.145   4.996  18.747
 2411TIP3    H131428   7.141   4.895  18.697
 2411TIP3    H231429   7.118   4.960  18.839
 2412TIP3   OH231430   7.696   4.550  18.628
 2412TIP3    H131431   7.780   4.471  18.641
 2412TIP3    H231432   7.699   4.556  18.530
 2413TIP3   OH231433   7.744   4.698  18.878
 2413TIP3    H131434   7.723   4.654  18.789
 2413TIP3    H231435   7.686   4.801  18.870
 2414TIP3   OH231436   7.738   6.701  17.217
 2414TIP3    H131437   7.855   6.708  17.203
 2414TIP3    H231438   7.705   6.805  17.184
 2415TIP3   OH231439   6.763   6.710  17.600
 2415TIP3    H131440   6.716   6.613  17.565
 2415TIP3    H231441   6.826   6.665  17.673
 2416TIP3   OH231442   6.893   6.517  17.792
 2416TIP3    H131443   6.809   6.456  17.836
 2416TIP3    H231444   6.973   6.523  17.863
 2417TIP3   OH231445   9.029   6.563  18.117
 2417TIP3    H131446   9.023   6.610  18.206
 2417TIP3    H231447   9.049   6.658  18.064
 2418TIP3   OH231448   8.950   6.527  18.398
 2418TIP3    H131449   8.900   6.449  18.338
 2418TIP3    H231450   8.986   6.456  18.469
 2419TIP3   OH231451   8.764   6.024  18.875
 2419TIP3    H131452   8.656   6.040  18.912
 2419TIP3    H231453   8.804   6.133  18.871
 2420TIP3   OH231454   8.928   5.821  17.373
 2420TIP3    H131455   9.022   5.890  17.388
 2420TIP3    H231456   8.930   5.759  17.455
 2421TIP3   OH231457   8.987   5.610  17.577
 2421TIP3    H131458   8.873   5.582  17.573
 2421TIP3    H231459   9.000   5.610  17.672
 2422TIP3   OH231460   8.990   5.915  18.084
 2422TIP3    H131461   9.095   5.900  18.044
 2422TIP3    H231462   8.984   6.034  18.073
 2423TIP3   OH231463   8.762   6.283  18.311
 2423TIP3    H131464   8.669   6.336  18.348
 2423TIP3    H231465   8.729   6.265  18.218
 2424TIP3   OH231466   8.980   5.532  17.215
 2424TIP3    H131467   9.061   5.576  17.155
 2424TIP3    H231468   8.939   5.628  17.259
 2425TIP3   OH231469   8.711   5.450  17.665
 2425TIP3    H131470   8.716   5.334  17.673
 2425TIP3    H231471   8.654   5.477  17.748
 2426TIP3   OH231472   6.882   5.690  18.033
 2426TIP3    H131473   6.886   5.656  17.940
 2426TIP3    H231474   6.991   5.657  18.062
 2427TIP3   OH231475   8.807   5.664  18.610
 2427TIP3    H131476   8.899   5.596  18.592
 2427TIP3    H231477   8.854   5.770  18.599
 2428TIP3   OH231478   8.983   5.398  18.630
 2428TIP3    H131479   8.866   5.396  18.643
 2428TIP3    H231480   9.007   5.285  18.652
 2429TIP3   OH231481   8.663   5.135  17.517
 2429TIP3    H131482   8.681   5.018  17.508
 2429TIP3    H231483   8.772   5.174  17.523
 2430TIP3   OH231484   8.708   5.245  18.040
 2430TIP3    H131485   8.822   5.226  18.021
 2430TIP3    H231486   8.707   5.224  18.135
 2431TIP3   OH231487   8.747   5.292  18.333
 2431TIP3    H131488   8.640   5.335  18.351
 2431TIP3    H231489   8.800   5.390  18.302
 2432TIP3   OH231490   6.886   5.116  18.630
 2432TIP3    H131491   6.986   5.100  18.677
 2432TIP3    H231492   6.824   5.022  18.662
 2433TIP3   OH231493   9.002   4.532  18.825
 2433TIP3    H131494   9.049   4.471  18.753
 2433TIP3    H231495   8.992   4.637  18.781
 2434TIP3   OH231496   8.710   4.822  17.481
 2434TIP3    H131497   8.732   4.758  17.562
 2434TIP3    H231498   8.702   4.735  17.414
 2435TIP3   OH231499   7.016   4.908  17.979
 2435TIP3    H131500   7.079   4.807  17.970
 2435TIP3    H231501   7.105   4.982  17.993
 2436TIP3   OH231502   6.826   5.287  18.050
 2436TIP3    H131503   6.919   5.255  17.999
 2436TIP3    H231504   6.869   5.378  18.097
 2437TIP3   OH231505   8.930   4.806  18.707
 2437TIP3    H131506   8.837   4.872  18.734
 2437TIP3    H231507   8.904   4.782  18.615
 2438TIP3   OH231508   6.850   4.867  17.474
 2438TIP3    H131509   6.740   4.864  17.443
 2438TIP3    H231510   6.902   4.908  17.394
 2439TIP3   OH231511   6.858   4.637  18.285
 2439TIP3    H131512   6.780   4.627  18.358
 2439TIP3    H231513   6.810   4.708  18.221
 2440TIP3   OH231514   7.121   6.241  18.688
 2440TIP3    H131515   7.021   6.262  18.641
 2440TIP3    H231516   7.084   6.210  18.775
 2441TIP3   OH231517   7.451   6.383  18.306
 2441TIP3    H131518   7.451   6.500  18.302
 2441TIP3    H231519   7.566   6.367  18.320
 2442TIP3   OH231520   7.952   6.571  18.624
 2442TIP3    H131521   7.968   6.541  18.717
 2442TIP3    H231522   8.063   6.605  18.598
 2443TIP3   OH231523   8.225   6.731  18.572
 2443TIP3    H131524   8.320   6.679  18.536
 2443TIP3    H231525   8.263   6.772  18.659
 2444TIP3   OH231526   8.821   4.597  18.484
 2444TIP3    H131527   8.730   4.646  18.440
 2444TIP3    H231528   8.826   4.492  18.444
 2445TIP3   OH231529   7.140   6.768  18.318
 2445TIP3    H131530   7.042   6.822  18.286
 2445TIP3    H231531   7.127   6.788  18.413
 2446TIP3   OH231532   7.429   6.706  18.229
 2446TIP3    H131533   7.316   6.728  18.257
 2446TIP3    H231534   7.444   6.786  18.160
 2447TIP3   OH231535   7.996   6.672  18.149
 2447TIP3    H131536   7.903   6.724  18.110
 2447TIP3    H231537   8.018   6.746  18.223
 2448TIP3   OH231538   8.238   6.504  18.297
 2448TIP3    H131539   8.155   6.546  18.238
 2448TIP3    H231540   8.317   6.588  18.292
 2449TIP3   OH231541   8.561   6.686  18.266
 2449TIP3    H131542   8.560   6.798  18.243
 2449TIP3    H231543   8.614   6.638  18.187
 2450TIP3   OH231544   7.093   6.575  18.018
 2450TIP3    H131545   7.084   6.506  18.098
 2450TIP3    H231546   7.199   6.539  17.984
 2451TIP3   OH231547   7.348   6.458  17.893
 2451TIP3    H131548   7.331   6.344  17.916
 2451TIP3    H231549   7.462   6.474  17.916
 2452TIP3   OH231550   7.639   6.476  17.999
 2452TIP3    H131551   7.656   6.361  18.012
 2452TIP3    H231552   7.637   6.516  18.091
 2453TIP3   OH231553   8.112   4.788  17.910
 2453TIP3    H131554   8.024   4.717  17.931
 2453TIP3    H231555   8.105   4.790  17.812
 2454TIP3   OH231556   8.653   4.520  17.895
 2454TIP3    H131557   8.694   4.600  17.831
 2454TIP3    H231558   8.539   4.528  17.868
 2455TIP3   OH231559   8.803   4.694  17.709
 2455TIP3    H131560   8.891   4.616  17.697
 2455TIP3    H231561   8.867   4.783  17.748
 2456TIP3   OH231562   7.144   4.579  17.707
 2456TIP3    H131563   7.033   4.562  17.679
 2456TIP3    H231564   7.194   4.477  17.680
 2457TIP3   OH231565   7.016   4.608  17.231
 2457TIP3    H131566   7.103   4.680  17.199
 2457TIP3    H231567   6.946   4.687  17.270
 2458TIP3   OH231568   7.643   4.591  17.690
 2458TIP3    H131569   7.703   4.649  17.621
 2458TIP3    H231570   7.698   4.630  17.770
 2459TIP3   OH231571   8.368   4.598  17.799
 2459TIP3    H131572   8.335   4.601  17.707
 2459TIP3    H231573   8.281   4.532  17.836
 2460TIP3   OH231574   6.985   6.542  17.343
 2460TIP3    H131575   6.961   6.488  17.260
 2460TIP3    H231576   7.006   6.654  17.314
 2461TIP3   OH231577   7.781   4.787  17.485
 2461TIP3    H131578   7.765   4.754  17.392
 2461TIP3    H231579   7.771   4.902  17.475
 2462TIP3   OH231580   8.046   6.698  17.143
 2462TIP3    H131581   8.156   6.686  17.170
 2462TIP3    H231582   8.034   6.608  17.080
 2463TIP3   OH231583   7.104   4.686  18.629
 2463TIP3    H131584   7.039   4.590  18.636
 2463TIP3    H231585   7.198   4.658  18.684
 2464TIP3   OH231586   7.336   4.601  18.813
 2464TIP3    H131587   7.447   4.576  18.789
 2464TIP3    H231588   7.301   4.493  18.840
 2465TIP3   OH231589   8.383   4.525  18.828
 2465TIP3    H131590   8.378   4.460  18.910
 2465TIP3    H231591   8.484   4.483  18.790
 2466TIP3   OH231592   8.735   6.382  18.647
 2466TIP3    H131593   8.666   6.402  18.568
 2466TIP3    H231594   8.752   6.491  18.679
 2467TIP3   OH231595   9.046   5.304  17.492
 2467TIP3    H131596   9.035   5.401  17.545
 2467TIP3    H231597   9.040   5.351  17.403
 2468TIP3   OH231598   9.101   5.861  18.334
 2468TIP3    H131599   9.042   5.850  18.249
 2468TIP3    H231600   9.109   5.750  18.367
 2469TIP3   OH231601   9.053   6.216  18.019
 2469TIP3    H131602   9.168   6.223  17.994
 2469TIP3    H231603   9.037   6.323  18.057
 2470TIP3   OH231604   9.016   4.940  17.735
 2470TIP3    H131605   9.131   4.969  17.743
 2470TIP3    H231606   9.000   4.956  17.641
 2471TIP3   OH231607   9.110   5.564  18.437
 2471TIP3    H131608   9.091   5.492  18.514
 2471TIP3    H231609   9.014   5.542  18.385
 2472TIP3   OH231610   9.172   5.790  18.740
 2472TIP3    H131611   9.104   5.705  18.778
 2472TIP3    H231612   9.094   5.850  18.686
 2473TIP3   OH231613   8.986   6.731  17.646
 2473TIP3    H131614   8.888   6.706  17.591
 2473TIP3    H231615   8.999   6.626  17.693
 2474TIP3   OH231616   9.046   6.468  17.791
 2474TIP3    H131617   9.052   6.354  17.809
 2474TIP3    H231618   9.154   6.503  17.819
 2475TIP3   OH231619   9.148   5.588  18.068
 2475TIP3    H131620   9.118   5.629  17.982
 2475TIP3    H231621   9.240   5.658  18.087
 2476TIP3   OH231622   9.053   5.095  18.677
 2476TIP3    H131623   9.169   5.099  18.661
 2476TIP3    H231624   9.036   4.981  18.696
 2477TIP3   OH231625   9.020   5.238  18.044
 2477TIP3    H131626   9.136   5.224  18.026
 2477TIP3    H231627   9.023   5.353  18.063
 2478TIP3   OH231628   9.016   4.853  17.407
 2478TIP3    H131629   8.903   4.855  17.435
 2478TIP3    H231630   9.026   4.746  17.369
 2479TIP3   OH231631   8.971   4.618  18.241
 2479TIP3    H131632   8.956   4.632  18.337
 2479TIP3    H231633   8.935   4.722  18.206
 2480TIP3   OH231634   1.456   8.000  17.637
 2480TIP3    H131635   1.450   8.096  17.581
 2480TIP3    H231636   1.363   7.943  17.605
 2481TIP3   OH231637   1.309   7.838  17.985
 2481TIP3    H131638   1.321   7.790  18.076
 2481TIP3    H231639   1.229   7.768  17.946
 2482TIP3   OH231640   0.392   7.817  18.146
 2482TIP3    H131641   0.378   7.726  18.206
 2482TIP3    H231642   0.482   7.868  18.189
 2483TIP3   OH231643   0.424   8.376  17.962
 2483TIP3    H131644   0.408   8.262  17.940
 2483TIP3    H231645   0.538   8.369  17.978
 2484TIP3   OH231646   0.190   7.627  17.537
 2484TIP3    H131647   0.095   7.688  17.557
 2484TIP3    H231648   0.154   7.522  17.565
 2485TIP3   OH231649   0.136   7.848  17.820
 2485TIP3    H131650   0.205   7.753  17.805
 2485TIP3    H231651   0.192   7.932  17.773
 2486TIP3   OH231652   1.090   8.148  18.087
 2486TIP3    H131653   1.144   8.086  18.018
 2486TIP3    H231654   1.186   8.189  18.134
 2487TIP3   OH231655   2.141   7.128  18.100
 2487TIP3    H131656   2.149   7.212  18.168
 2487TIP3    H231657   2.225   7.162  18.038
 2488TIP3   OH231658   1.547   7.504  18.098
 2488TIP3    H131659   1.552   7.390  18.120
 2488TIP3    H231660   1.541   7.495  18.000
 2489TIP3   OH231661   1.597   7.282  17.657
 2489TIP3    H131662   1.660   7.256  17.737
 2489TIP3    H231663   1.675   7.345  17.608
 2490TIP3   OH231664   0.301   7.576  17.830
 2490TIP3    H131665   0.354   7.512  17.898
 2490TIP3    H231666   0.233   7.490  17.790
 2491TIP3   OH231667   0.808   7.771  17.813
 2491TIP3    H131668   0.902   7.734  17.859
 2491TIP3    H231669   0.803   7.699  17.736
 2492TIP3   OH231670   2.146   7.321  18.336
 2492TIP3    H131671   2.088   7.412  18.292
 2492TIP3    H231672   2.172   7.372  18.420
 2493TIP3   OH231673   0.542   7.123  18.199
 2493TIP3    H131674   0.518   7.206  18.134
 2493TIP3    H231675   0.485   7.166  18.276
 2494TIP3   OH231676   0.841   8.071  18.237
 2494TIP3    H131677   0.773   8.165  18.253
 2494TIP3    H231678   0.925   8.118  18.179
 2495TIP3   OH231679   1.804   7.267  17.863
 2495TIP3    H131680   1.801   7.157  17.893
 2495TIP3    H231681   1.908   7.307  17.894
 2496TIP3   OH231682   0.490   7.376  18.008
 2496TIP3    H131683   0.547   7.456  18.064
 2496TIP3    H231684   0.571   7.355  17.942
 2497TIP3   OH231685   0.674   8.335  18.300
 2497TIP3    H131686   0.659   8.447  18.274
 2497TIP3    H231687   0.569   8.312  18.337
 2498TIP3   OH231688   0.101   8.256  17.355
 2498TIP3    H131689   0.126   8.282  17.261
 2498TIP3    H231690   0.158   8.339  17.403
 2499TIP3   OH231691   1.807   8.489  18.110
 2499TIP3    H131692   1.694   8.507  18.127
 2499TIP3    H231693   1.836   8.578  18.052
 2500TIP3   OH231694   1.802   7.051  18.189
 2500TIP3    H131695   1.720   7.123  18.154
 2500TIP3    H231696   1.891   7.067  18.127
 2501TIP3   OH231697   0.954   6.838  17.934
 2501TIP3    H131698   0.930   6.731  17.901
 2501TIP3    H231699   0.910   6.833  18.023
 2502TIP3   OH231700   1.937   8.254  18.442
 2502TIP3    H131701   1.949   8.162  18.381
 2502TIP3    H231702   1.962   8.341  18.381
 2503TIP3   OH231703   1.298   7.898  17.388
 2503TIP3    H131704   1.228   7.986  17.357
 2503TIP3    H231705   1.388   7.898  17.324
 2504TIP3   OH231706   2.178   7.834  18.232
 2504TIP3    H131707   2.105   7.925  18.236
 2504TIP3    H231708   2.252   7.873  18.163
 2505TIP3   OH231709   1.720   7.892  17.501
 2505TIP3    H131710   1.632   7.946  17.550
 2505TIP3    H231711   1.790   7.856  17.572
 2506TIP3   OH231712   1.708   7.715  18.410
 2506TIP3    H131713   1.666   7.817  18.438
 2506TIP3    H231714   1.640   7.696  18.332
 2507TIP3   OH231715   0.708   8.034  17.679
 2507TIP3    H131716   0.642   7.979  17.611
 2507TIP3    H231717   0.750   7.940  17.727
 2508TIP3   OH231718   0.858   8.365  17.967
 2508TIP3    H131719   0.882   8.368  17.872
 2508TIP3    H231720   0.947   8.304  18.005
 2509TIP3   OH231721   0.749   7.826  18.081
 2509TIP3    H131722   0.778   7.859  17.991
 2509TIP3    H231723   0.781   7.920  18.134
 2510TIP3   OH231724   0.840   8.344  18.536
 2510TIP3    H131725   0.751   8.405  18.576
 2510TIP3    H231726   0.804   8.339  18.441
 2511TIP3   OH231727   1.577   7.829  17.272
 2511TIP3    H131728   1.608   7.798  17.363
 2511TIP3    H231729   1.645   7.921  17.264
 2512TIP3   OH231730   0.518   7.909  18.426
 2512TIP3    H131731   0.505   7.996  18.490
 2512TIP3    H231732   0.412   7.859  18.430
 2513TIP3   OH231733   0.622   8.584  18.614
 2513TIP3    H131734   0.611   8.593  18.517
 2513TIP3    H231735   0.509   8.570  18.639
 2514TIP3   OH231736   1.992   6.821  17.326
 2514TIP3    H131737   1.880   6.846  17.348
 2514TIP3    H231738   2.026   6.910  17.268
 2515TIP3   OH231739   0.546   7.853  17.493
 2515TIP3    H131740   0.484   7.932  17.442
 2515TIP3    H231741   0.502   7.754  17.459
 2516TIP3   OH231742   0.181   8.131  18.371
 2516TIP3    H131743   0.066   8.120  18.353
 2516TIP3    H231744   0.220   8.021  18.361
 2517TIP3   OH231745   0.148   8.522  17.967
 2517TIP3    H131746   0.244   8.452  17.968
 2517TIP3    H231747   0.160   8.573  18.054
 2518TIP3   OH231748   2.227   8.569  18.604
 2518TIP3    H131749   2.214   8.453  18.615
 2518TIP3    H231750   2.118   8.603  18.631
 2519TIP3   OH231751   1.140   8.492  18.456
 2519TIP3    H131752   1.154   8.585  18.514
 2519TIP3    H231753   1.042   8.443  18.489
 2520TIP3   OH231754   1.190   9.071  17.437
 2520TIP3    H131755   1.222   9.001  17.366
 2520TIP3    H231756   1.256   9.166  17.421
 2521TIP3   OH231757   0.467   8.790  17.639
 2521TIP3    H131758   0.487   8.782  17.736
 2521TIP3    H231759   0.362   8.736  17.633
 2522TIP3   OH231760   1.884   7.536  18.620
 2522TIP3    H131761   1.814   7.580  18.550
 2522TIP3    H231762   1.878   7.423  18.598
 2523TIP3   OH231763   0.372   8.368  18.421
 2523TIP3    H131764   0.362   8.340  18.515
 2523TIP3    H231765   0.292   8.291  18.388
 2524TIP3   OH231766   1.266   6.881  18.345
 2524TIP3    H131767   1.310   6.822  18.422
 2524TIP3    H231768   1.151   6.877  18.362
 2525TIP3   OH231769   1.607   7.378  18.488
 2525TIP3    H131770   1.540   7.309  18.549
 2525TIP3    H231771   1.544   7.476  18.491
 2526TIP3   OH231772   0.703   7.526  18.152
 2526TIP3    H131773   0.616   7.540  18.216
 2526TIP3    H231774   0.726   7.639  18.130
 2527TIP3   OH231775   1.325   7.634  17.539
 2527TIP3    H131776   1.320   7.733  17.485
 2527TIP3    H231777   1.424   7.586  17.503
 2528TIP3   OH231778   1.228   7.622  18.673
 2528TIP3    H131779   1.180   7.522  18.706
 2528TIP3    H231780   1.321   7.632  18.729
 2529TIP3   OH231781   1.504   7.552  17.822
 2529TIP3    H131782   1.475   7.650  17.776
 2529TIP3    H231783   1.524   7.480  17.747
 2530TIP3   OH231784   0.428   7.529  18.289
 2530TIP3    H131785   0.472   7.589  18.363
 2530TIP3    H231786   0.378   7.436  18.333
 2531TIP3   OH231787   0.142   7.328  17.756
 2531TIP3    H131788   0.179   7.236  17.809
 2531TIP3    H231789   0.146   7.286  17.664
 2532TIP3   OH231790   0.112   7.416  17.241
 2532TIP3    H131791   0.212   7.450  17.203
 2532TIP3    H231792   0.142   7.380  17.330
 2533TIP3   OH231793   1.368   7.715  18.234
 2533TIP3    H131794   1.446   7.640  18.194
 2533TIP3    H231795   1.312   7.648  18.300
 2534TIP3   OH231796   0.775   7.465  17.442
 2534TIP3    H131797   0.882   7.433  17.415
 2534TIP3    H231798   0.730   7.495  17.355
 2535TIP3   OH231799   1.525   7.165  18.059
 2535TIP3    H131800   1.442   7.132  18.121
 2535TIP3    H231801   1.499   7.102  17.980
 2536TIP3   OH231802   0.720   7.529  17.171
 2536TIP3    H131803   0.618   7.550  17.129
 2536TIP3    H231804   0.793   7.591  17.116
 2537TIP3   OH231805   1.848   9.038  18.702
 2537TIP3    H131806   1.873   9.067  18.611
 2537TIP3    H231807   1.957   9.052  18.742
 2538TIP3   OH231808   0.452   8.122  18.651
 2538TIP3    H131809   0.552   8.138  18.700
 2538TIP3    H231810   0.374   8.156  18.719
 2539TIP3   OH231811   1.148   7.571  17.899
 2539TIP3    H131812   1.255   7.542  17.868
 2539TIP3    H231813   1.144   7.513  17.983
 2540TIP3   OH231814   0.985   7.369  18.185
 2540TIP3    H131815   0.900   7.445  18.203
 2540TIP3    H231816   1.076   7.418  18.230
 2541TIP3   OH231817   1.052   8.113  17.351
 2541TIP3    H131818   0.947   8.072  17.331
 2541TIP3    H231819   1.036   8.176  17.433
 2542TIP3   OH231820   1.950   8.078  18.226
 2542TIP3    H131821   2.000   8.126  18.146
 2542TIP3    H231822   1.843   8.054  18.190
 2543TIP3   OH231823   1.224   8.179  18.465
 2543TIP3    H131824   1.214   8.128  18.551
 2543TIP3    H231825   1.214   8.293  18.486
 2544TIP3   OH231826   1.579   7.543  17.391
 2544TIP3    H131827   1.685   7.494  17.400
 2544TIP3    H231828   1.582   7.585  17.300
 2545TIP3   OH231829   0.521   8.081  17.908
 2545TIP3    H131830   0.587   8.084  17.826
 2545TIP3    H231831   0.539   7.974  17.942
 2546TIP3   OH231832   0.211   7.804  18.422
 2546TIP3    H131833   0.208   7.782  18.518
 2546TIP3    H231834   0.096   7.811  18.400
 2547TIP3   OH231835   0.968   7.817  18.648
 2547TIP3    H131836   0.912   7.744  18.590
 2547TIP3    H231837   1.074   7.763  18.652
 2548TIP3   OH231838   1.538   8.447  18.478
 2548TIP3    H131839   1.459   8.482  18.414
 2548TIP3    H231840   1.502   8.500  18.560
 2549TIP3   OH231841   2.137   7.526  17.367
 2549TIP3    H131842   2.112   7.504  17.274
 2549TIP3    H231843   2.164   7.640  17.363
 2550TIP3   OH231844   2.208   8.232  18.579
 2550TIP3    H131845   2.093   8.245  18.558
 2550TIP3    H231846   2.251   8.228  18.488
 2551TIP3   OH231847   2.041   8.531  17.316
 2551TIP3    H131848   1.967   8.450  17.349
 2551TIP3    H231849   1.990   8.558  17.231
 2552TIP3   OH231850   1.694   7.921  18.088
 2552TIP3    H131851   1.583   7.904  18.064
 2552TIP3    H231852   1.746   7.843  18.029
 2553TIP3   OH231853   0.762   8.474  17.652
 2553TIP3    H131854   0.779   8.575  17.602
 2553TIP3    H231855   0.647   8.464  17.648
 2554TIP3   OH231856   0.216   7.832  17.095
 2554TIP3    H131857   0.317   7.891  17.105
 2554TIP3    H231858   0.181   7.817  17.186
 2555TIP3   OH231859   0.970   8.212  17.614
 2555TIP3    H131860   0.889   8.297  17.621
 2555TIP3    H231861   0.904   8.117  17.623
 2556TIP3   OH231862   0.994   8.688  18.281
 2556TIP3    H131863   1.042   8.795  18.286
 2556TIP3    H231864   1.069   8.622  18.333
 2557TIP3   OH231865   0.760   8.773  17.542
 2557TIP3    H131866   0.650   8.794  17.576
 2557TIP3    H231867   0.818   8.845  17.601
 2558TIP3   OH231868   1.369   8.207  18.219
 2558TIP3    H131869   1.332   8.196  18.313
 2558TIP3    H231870   1.438   8.113  18.209
 2559TIP3   OH231871   1.733   8.758  18.465
 2559TIP3    H131872   1.639   8.695  18.436
 2559TIP3    H231873   1.747   8.839  18.395
 2560TIP3   OH231874   0.326   7.246  18.397
 2560TIP3    H131875   0.280   7.292  18.478
 2560TIP3    H231876   0.294   7.134  18.405
 2561TIP3   OH231877   0.282   8.627  18.245
 2561TIP3    H131878   0.354   8.543  18.277
 2561TIP3    H231879   0.283   8.698  18.320
 2562TIP3   OH231880   0.889   8.471  17.234
 2562TIP3    H131881   0.942   8.370  17.210
 2562TIP3    H231882   0.937   8.490  17.321
 2563TIP3   OH231883   0.376   8.041  17.305
 2563TIP3    H131884   0.286   8.117  17.307
 2563TIP3    H231885   0.451   8.096  17.247
 2564TIP3   OH231886   1.355   7.198  18.329
 2564TIP3    H131887   1.465   7.214  18.358
 2564TIP3    H231888   1.333   7.084  18.348
 2565TIP3   OH231889   1.408   7.156  17.457
 2565TIP3    H131890   1.434   7.187  17.367
 2565TIP3    H231891   1.490   7.204  17.514
 2566TIP3   OH231892   1.156   7.362  17.574
 2566TIP3    H131893   1.213   7.450  17.530
 2566TIP3    H231894   1.100   7.418  17.643
 2567TIP3   OH231895   1.253   7.492  18.409
 2567TIP3    H131896   1.266   7.516  18.504
 2567TIP3    H231897   1.274   7.374  18.405
 2568TIP3   OH231898   1.235   6.973  17.614
 2568TIP3    H131899   1.174   7.058  17.656
 2568TIP3    H231900   1.314   7.043  17.566
 2569TIP3   OH231901   1.901   7.212  18.503
 2569TIP3    H131902   1.789   7.243  18.486
 2569TIP3    H231903   1.956   7.252  18.423
 2570TIP3   OH231904   1.795   7.680  17.901
 2570TIP3    H131905   1.704   7.608  17.892
 2570TIP3    H231906   1.873   7.615  17.949
 2571TIP3   OH231907   0.294   7.530  16.999
 2571TIP3    H131908   0.305   7.644  17.021
 2571TIP3    H231909   0.179   7.523  16.995
 2572TIP3   OH231910   1.889   8.821  18.076
 2572TIP3    H131911   1.897   8.892  17.997
 2572TIP3    H231912   1.997   8.780  18.077
 2573TIP3   OH231913   0.247   8.496  17.510
 2573TIP3    H131914   0.146   8.538  17.540
 2573TIP3    H231915   0.276   8.581  17.446
 2574TIP3   OH231916   0.143   8.892  18.664
 2574TIP3    H131917   0.251   8.916  18.694
 2574TIP3    H231918   0.128   8.789  18.705
 2575TIP3   OH231919   0.782   8.707  18.848
 2575TIP3    H131920   0.881   8.652  18.825
 2575TIP3    H231921   0.721   8.690  18.767
 2576TIP3   OH231922   1.482   8.569  18.731
 2576TIP3    H131923   1.434   8.464  18.750
 2576TIP3    H231924   1.577   8.563  18.787
 2577TIP3   OH231925   0.216   8.182  18.828
 2577TIP3    H131926   0.218   8.069  18.805
 2577TIP3    H231927   0.107   8.201  18.796
 2578TIP3   OH231928   0.954   8.126  18.705
 2578TIP3    H131929   0.923   8.186  18.624
 2578TIP3    H231930   0.949   8.012  18.677
 2579TIP3   OH231931   1.297   8.338  16.983
 2579TIP3    H131932   1.324   8.370  17.074
 2579TIP3    H231933   1.224   8.251  17.002
 2580TIP3   OH231934   1.626   8.101  18.477
 2580TIP3    H131935   1.732   8.153  18.474
 2580TIP3    H231936   1.560   8.198  18.481
 2581TIP3   OH231937   0.268   7.778  18.756
 2581TIP3    H131938   0.350   7.696  18.748
 2581TIP3    H231939   0.282   7.816  18.848
 2582TIP3   OH231940   0.740   7.661  18.426
 2582TIP3    H131941   0.674   7.756  18.446
 2582TIP3    H231942   0.832   7.711  18.380
 2583TIP3   OH231943   0.935   7.715  17.041
 2583TIP3    H131944   0.950   7.828  17.021
 2583TIP3    H231945   1.016   7.692  17.107
 2584TIP3   OH231946   1.381   7.981  18.799
 2584TIP3    H131947   1.475   7.922  18.769
 2584TIP3    H231948   1.333   7.901  18.860
 2585TIP3   OH231949   0.797   7.375  18.545
 2585TIP3    H131950   0.804   7.297  18.473
 2585TIP3    H231951   0.792   7.477  18.496
 2586TIP3   OH231952   0.827   7.139  18.319
 2586TIP3    H131953   0.886   7.207  18.255
 2586TIP3    H231954   0.724   7.122  18.273
 2587TIP3   OH231955   1.001   7.830  18.328
 2587TIP3    H131956   1.096   7.886  18.296
 2587TIP3    H231957   0.923   7.914  18.306
 2588TIP3   OH231958   1.518   7.542  18.837
 2588TIP3    H131959   1.553   7.434  18.818
 2588TIP3    H231960   1.616   7.597  18.859
 2589TIP3   OH231961   1.717   7.921  18.688
 2589TIP3    H131962   1.664   7.982  18.616
 2589TIP3    H231963   1.825   7.913  18.651
 2590TIP3   OH231964   0.516   7.544  18.710
 2590TIP3    H131965   0.462   7.445  18.736
 2590TIP3    H231966   0.605   7.501  18.659
 2591TIP3   OH231967   0.941   6.845  18.345
 2591TIP3    H131968   0.910   6.959  18.340
 2591TIP3    H231969   0.851   6.796  18.300
 2592TIP3   OH231970   1.069   7.348  18.740
 2592TIP3    H131971   1.006   7.320  18.819
 2592TIP3    H231972   0.986   7.345  18.671
 2593TIP3   OH231973   1.397   7.258  18.656
 2593TIP3    H131974   1.282   7.259  18.673
 2593TIP3    H231975   1.434   7.195  18.733
 2594TIP3   OH231976   1.584   7.099  18.835
 2594TIP3    H131977   1.582   6.982  18.830
 2594TIP3    H231978   1.567   7.117  18.931
 2595TIP3   OH231979   0.368   7.247  18.771
 2595TIP3    H131980   0.395   7.147  18.727
 2595TIP3    H231981   0.322   7.204  18.855
 2596TIP3   OH231982   0.929   6.816  18.630
 2596TIP3    H131983   1.025   6.748  18.638
 2596TIP3    H231984   0.920   6.816  18.532
 2597TIP3   OH231985   0.935   6.958  18.875
 2597TIP3    H131986   0.935   6.904  18.787
 2597TIP3    H231987   0.880   7.058  18.858
 2598TIP3   OH231988   0.196   8.334  17.096
 2598TIP3    H131989   0.274   8.412  17.060
 2598TIP3    H231990   0.175   8.263  17.021
 2599TIP3   OH231991   0.049   8.970  17.527
 2599TIP3    H131992  -0.059   9.005  17.553
 2599TIP3    H231993   0.055   8.873  17.580
 2600TIP3   OH231994   0.190   8.750  17.781
 2600TIP3    H131995   0.167   8.639  17.806
 2600TIP3    H231996   0.217   8.795  17.868
 2601TIP3   OH231997   2.244   8.884  18.050
 2601TIP3    H131998   2.269   8.923  18.141
 2601TIP3    H231999   2.269   8.976  17.995
 2602TIP3   OH232000   2.161   8.796  18.407
 2602TIP3    H132001   2.135   8.714  18.340
 2602TIP3    H232002   2.209   8.725  18.474
 2603TIP3   OH232003   1.990   8.326  18.841
 2603TIP3    H132004   1.888   8.316  18.888
 2603TIP3    H232005   2.030   8.426  18.876
 2604TIP3   OH232006   2.149   8.095  17.383
 2604TIP3    H132007   2.252   8.149  17.399
 2604TIP3    H232008   2.150   8.014  17.452
 2605TIP3   OH232009   2.173   7.884  17.590
 2605TIP3    H132010   2.083   7.810  17.606
 2605TIP3    H232011   2.212   7.903  17.680
 2606TIP3   OH232012   2.125   8.195  18.035
 2606TIP3    H132013   2.212   8.116  18.028
 2606TIP3    H232014   2.186   8.293  18.024
 2607TIP3   OH232015   1.997   8.537  18.312
 2607TIP3    H132016   1.918   8.590  18.369
 2607TIP3    H232017   1.932   8.501  18.236
 2608TIP3   OH232018   2.059   7.529  17.077
 2608TIP3    H132019   2.041   7.600  17.002
 2608TIP3    H232020   1.963   7.462  17.075
 2609TIP3   OH232021   1.934   7.692  17.651
 2609TIP3    H132022   1.912   7.580  17.624
 2609TIP3    H232023   1.895   7.697  17.743
 2610TIP3   OH232024   0.192   8.040  18.030
 2610TIP3    H132025   0.184   7.960  17.959
 2610TIP3    H232026   0.293   8.008  18.072
 2611TIP3   OH232027   2.058   7.931  18.605
 2611TIP3    H132028   2.110   7.826  18.620
 2611TIP3    H232029   2.146   8.000  18.577
 2612TIP3   OH232030   2.183   7.628  18.631
 2612TIP3    H132031   2.069   7.596  18.628
 2612TIP3    H232032   2.237   7.526  18.646
 2613TIP3   OH232033   1.868   7.421  17.512
 2613TIP3    H132034   1.888   7.303  17.514
 2613TIP3    H232035   1.962   7.451  17.460
 2614TIP3   OH232036   2.008   7.477  18.035
 2614TIP3    H132037   2.126   7.494  18.041
 2614TIP3    H232038   1.980   7.504  18.127
 2615TIP3   OH232039   1.974   7.580  18.284
 2615TIP3    H132040   1.872   7.627  18.312
 2615TIP3    H232041   2.036   7.679  18.268
 2616TIP3   OH232042   0.143   7.334  18.604
 2616TIP3    H132043   0.228   7.345  18.672
 2616TIP3    H232044   0.132   7.219  18.602
 2617TIP3   OH232045   2.266   6.881  18.852
 2617TIP3    H132046   2.316   6.791  18.808
 2617TIP3    H232047   2.249   6.961  18.781
 2618TIP3   OH232048   1.962   7.117  17.527
 2618TIP3    H132049   1.994   7.049  17.602
 2618TIP3    H232050   1.890   7.048  17.478
 2619TIP3   OH232051   0.241   7.148  17.969
 2619TIP3    H132052   0.266   7.063  18.031
 2619TIP3    H232053   0.245   7.247  18.022
 2620TIP3   OH232054   0.097   7.544  18.035
 2620TIP3    H132055   0.151   7.582  17.954
 2620TIP3    H232056   0.126   7.627  18.097
 2621TIP3   OH232057   2.174   7.080  18.658
 2621TIP3    H132058   2.093   7.128  18.718
 2621TIP3    H232059   2.120   7.109  18.575
 2622TIP3   OH232060   2.168   7.073  17.199
 2622TIP3    H132061   2.158   7.004  17.120
 2622TIP3    H232062   2.264   7.133  17.176
 2623TIP3   OH232063   0.151   7.182  17.519
 2623TIP3    H132064   0.047   7.130  17.525
 2623TIP3    H232065   0.217   7.093  17.488
 2624TIP3   OH232066   1.830   8.864  17.653
 2624TIP3    H132067   1.924   8.837  17.597
 2624TIP3    H232068   1.877   8.923  17.726
 2625TIP3   OH232069   0.076   6.902  18.305
 2625TIP3    H132070  -0.030   6.880  18.342
 2625TIP3    H232071   0.046   6.965  18.227
 2626TIP3   OH232072   0.313   8.520  18.693
 2626TIP3    H132073   0.208   8.526  18.655
 2626TIP3    H232074   0.293   8.507  18.788
 2627TIP3   OH232075   0.685   8.648  18.358
 2627TIP3    H132076   0.670   8.758  18.324
 2627TIP3    H232077   0.802   8.644  18.352
 2628TIP3   OH232078   1.190   8.758  18.618
 2628TIP3    H132079   1.192   8.748  18.716
 2628TIP3    H232080   1.283   8.828  18.602
 2629TIP3   OH232081   1.486   8.987  18.555
 2629TIP3    H132082   1.584   8.926  18.538
 2629TIP3    H232083   1.493   8.992  18.653
 2630TIP3   OH232084   2.021   6.854  18.476
 2630TIP3    H132085   1.955   6.929  18.425
 2630TIP3    H232086   1.980   6.752  18.443
 2631TIP3   OH232087   0.367   9.072  18.339
 2631TIP3    H132088   0.282   9.086  18.273
 2631TIP3    H232089   0.306   9.040  18.416
 2632TIP3   OH232090   0.632   8.938  18.248
 2632TIP3    H132091   0.534   8.977  18.290
 2632TIP3    H232092   0.631   9.002  18.167
 2633TIP3   OH232093   1.224   8.959  18.131
 2633TIP3    H132094   1.117   8.971  18.092
 2633TIP3    H232095   1.228   9.052  18.192
 2634TIP3   OH232096   1.468   8.789  18.238
 2634TIP3    H132097   1.379   8.854  18.202
 2634TIP3    H232098   1.547   8.870  18.258
 2635TIP3   OH232099   1.741   9.011  18.275
 2635TIP3    H132100   1.727   9.127  18.273
 2635TIP3    H232101   1.793   8.987  18.189
 2636TIP3   OH232102   0.313   8.810  18.032
 2636TIP3    H132103   0.312   8.750  18.116
 2636TIP3    H232104   0.406   8.764  17.985
 2637TIP3   OH232105   0.570   8.717  17.885
 2637TIP3    H132106   0.568   8.600  17.888
 2637TIP3    H232107   0.676   8.734  17.928
 2638TIP3   OH232108   0.842   8.696  18.029
 2638TIP3    H132109   0.870   8.582  18.019
 2638TIP3    H232110   0.882   8.719  18.119
 2639TIP3   OH232111   1.286   6.994  17.911
 2639TIP3    H132112   1.172   7.008  17.898
 2639TIP3    H232113   1.314   6.938  17.829
 2640TIP3   OH232114   1.902   6.791  17.888
 2640TIP3    H132115   1.974   6.868  17.843
 2640TIP3    H232116   1.796   6.820  17.850
 2641TIP3   OH232117   2.100   6.961  17.737
 2641TIP3    H132118   2.176   6.890  17.689
 2641TIP3    H232119   2.166   7.060  17.745
 2642TIP3   OH232120   1.596   6.858  17.807
 2642TIP3    H132121   1.570   6.864  17.713
 2642TIP3    H232122   1.535   6.763  17.834
 2643TIP3   OH232123   1.667   6.875  17.371
 2643TIP3    H132124   1.615   6.884  17.282
 2643TIP3    H232125   1.636   6.767  17.400
 2644TIP3   OH232126   0.239   8.747  17.350
 2644TIP3    H132127   0.130   8.748  17.319
 2644TIP3    H232128   0.280   8.843  17.306
 2645TIP3   OH232129   1.062   7.114  17.353
 2645TIP3    H132130   1.129   7.052  17.412
 2645TIP3    H232131   1.117   7.214  17.347
 2646TIP3   OH232132   2.057   8.802  17.473
 2646TIP3    H132133   2.056   8.696  17.428
 2646TIP3    H232134   2.057   8.874  17.395
 2647TIP3   OH232135   0.305   6.918  18.636
 2647TIP3    H132136   0.252   6.812  18.645
 2647TIP3    H232137   0.409   6.895  18.676
 2648TIP3   OH232138   0.581   6.848  18.819
 2648TIP3    H132139   0.694   6.842  18.793
 2648TIP3    H232140   0.563   6.737  18.839
 2649TIP3   OH232141   1.574   6.776  18.812
 2649TIP3    H132142   1.579   6.702  18.888
 2649TIP3    H232143   1.684   6.764  18.779
 2650TIP3   OH232144   1.938   8.683  18.675
 2650TIP3    H132145   1.847   8.690  18.614
 2650TIP3    H232146   1.968   8.795  18.684
 2651TIP3   OH232147   3.724   7.966  17.657
 2651TIP3    H132148   3.707   8.075  17.687
 2651TIP3    H232149   3.632   7.954  17.598
 2652TIP3   OH232150   3.586   7.852  18.009
 2652TIP3    H132151   3.583   7.780  18.087
 2652TIP3    H232152   3.502   7.804  17.954
 2653TIP3   OH232153   2.617   7.834  18.161
 2653TIP3    H132154   2.645   7.741  18.214
 2653TIP3    H232155   2.710   7.903  18.173
 2654TIP3   OH232156   3.978   8.197  17.854
 2654TIP3    H132157   3.960   8.110  17.918
 2654TIP3    H232158   3.978   8.291  17.911
 2655TIP3   OH232159   2.761   8.380  17.988
 2655TIP3    H132160   2.726   8.275  17.951
 2655TIP3    H232161   2.876   8.360  17.982
 2656TIP3   OH232162   2.369   7.585  17.544
 2656TIP3    H132163   2.326   7.693  17.553
 2656TIP3    H232164   2.272   7.526  17.522
 2657TIP3   OH232165   2.440   7.867  17.817
 2657TIP3    H132166   2.489   7.760  17.834
 2657TIP3    H232167   2.504   7.910  17.746
 2658TIP3   OH232168   3.640   8.825  17.833
 2658TIP3    H132169   3.736   8.774  17.792
 2658TIP3    H232170   3.606   8.737  17.890
 2659TIP3   OH232171   3.360   8.183  18.065
 2659TIP3    H132172   3.396   8.104  18.002
 2659TIP3    H232173   3.458   8.196  18.118
 2660TIP3   OH232174   4.388   7.142  18.140
 2660TIP3    H132175   4.408   7.218  18.213
 2660TIP3    H232176   4.472   7.180  18.080
 2661TIP3   OH232177   3.805   7.496  18.108
 2661TIP3    H132178   3.744   7.423  18.165
 2661TIP3    H232179   3.754   7.477  18.021
 2662TIP3   OH232180   2.948   7.235  17.776
 2662TIP3    H132181   2.959   7.338  17.730
 2662TIP3    H232182   2.881   7.175  17.714
 2663TIP3   OH232183   2.532   7.578  17.883
 2663TIP3    H132184   2.603   7.518  17.942
 2663TIP3    H232185   2.560   7.526  17.797
 2664TIP3   OH232186   3.113   7.756  17.831
 2664TIP3    H132187   3.217   7.708  17.846
 2664TIP3    H232188   3.050   7.660  17.806
 2665TIP3   OH232189   4.426   7.334  18.346
 2665TIP3    H132190   4.379   7.433  18.309
 2665TIP3    H232191   4.453   7.370  18.435
 2666TIP3   OH232192   2.824   7.146  18.202
 2666TIP3    H132193   2.770   7.198  18.127
 2666TIP3    H232194   2.748   7.166  18.275
 2667TIP3   OH232195   3.636   8.287  17.566
 2667TIP3    H132196   3.698   8.282  17.485
 2667TIP3    H232197   3.595   8.396  17.566
 2668TIP3   OH232198   3.089   8.063  18.179
 2668TIP3    H132199   3.028   8.152  18.219
 2668TIP3    H232200   3.174   8.120  18.131
 2669TIP3   OH232201   2.750   7.374  17.997
 2669TIP3    H132202   2.828   7.444  18.045
 2669TIP3    H232203   2.816   7.345  17.919
 2670TIP3   OH232204   2.923   8.321  18.296
 2670TIP3    H132205   2.905   8.431  18.270
 2670TIP3    H232206   2.820   8.294  18.339
 2671TIP3   OH232207   2.418   8.268  17.383
 2671TIP3    H132208   2.357   8.351  17.339
 2671TIP3    H232209   2.452   8.326  17.464
 2672TIP3   OH232210   4.079   8.504  18.093
 2672TIP3    H132211   3.964   8.491  18.105
 2672TIP3    H232212   4.079   8.594  18.033
 2673TIP3   OH232213   4.067   7.061  18.184
 2673TIP3    H132214   4.033   7.171  18.199
 2673TIP3    H232215   4.177   7.074  18.152
 2674TIP3   OH232216   3.217   6.842  17.919
 2674TIP3    H132217   3.198   6.733  17.944
 2674TIP3    H232218   3.120   6.895  17.955
 2675TIP3   OH232219   3.872   8.672  17.712
 2675TIP3    H132220   3.906   8.575  17.664
 2675TIP3    H232221   3.956   8.746  17.678
 2676TIP3   OH232222   4.001   8.413  17.569
 2676TIP3    H132223   3.992   8.338  17.494
 2676TIP3    H232224   4.007   8.338  17.642
 2677TIP3   OH232225   4.186   8.254  18.437
 2677TIP3    H132226   4.217   8.167  18.376
 2677TIP3    H232227   4.214   8.346  18.381
 2678TIP3   OH232228   3.546   7.902  17.416
 2678TIP3    H132229   3.470   7.979  17.376
 2678TIP3    H232230   3.632   7.900  17.350
 2679TIP3   OH232231   4.438   7.820  18.221
 2679TIP3    H132232   4.366   7.913  18.230
 2679TIP3    H232233   4.508   7.865  18.151
 2680TIP3   OH232234   3.972   7.889  17.507
 2680TIP3    H132235   3.886   7.920  17.570
 2680TIP3    H232236   4.044   7.829  17.567
 2681TIP3   OH232237   3.968   7.708  18.411
 2681TIP3    H132238   3.949   7.814  18.446
 2681TIP3    H232239   3.895   7.708  18.335
 2682TIP3   OH232240   2.945   7.963  17.683
 2682TIP3    H132241   2.909   7.914  17.598
 2682TIP3    H232242   3.018   7.880  17.719
 2683TIP3   OH232243   3.107   8.370  17.954
 2683TIP3    H132244   3.127   8.382  17.858
 2683TIP3    H232245   3.208   8.327  17.989
 2684TIP3   OH232246   2.964   7.816  18.061
 2684TIP3    H132247   3.012   7.817  17.971
 2684TIP3    H232248   3.024   7.903  18.106
 2685TIP3   OH232249   3.757   8.506  18.128
 2685TIP3    H132250   3.709   8.591  18.183
 2685TIP3    H232251   3.712   8.411  18.172
 2686TIP3   OH232252   3.101   8.356  18.537
 2686TIP3    H132253   3.024   8.434  18.574
 2686TIP3    H232254   3.059   8.341  18.447
 2687TIP3   OH232255   3.826   7.824  17.281
 2687TIP3    H132256   3.865   7.834  17.373
 2687TIP3    H232257   3.894   7.903  17.240
 2688TIP3   OH232258   2.752   7.901  18.436
 2688TIP3    H132259   2.748   8.006  18.475
 2688TIP3    H232260   2.687   7.844  18.502
 2689TIP3   OH232261   3.518   8.604  17.561
 2689TIP3    H132262   3.569   8.599  17.648
 2689TIP3    H232263   3.467   8.707  17.566
 2690TIP3   OH232264   2.884   8.588  18.599
 2690TIP3    H132265   2.869   8.598  18.503
 2690TIP3    H232266   2.782   8.538  18.625
 2691TIP3   OH232267   4.291   6.799  17.288
 2691TIP3    H132268   4.176   6.799  17.315
 2691TIP3    H232269   4.296   6.896  17.233
 2692TIP3   OH232270   2.818   7.842  17.456
 2692TIP3    H132271   2.779   7.937  17.407
 2692TIP3    H232272   2.761   7.757  17.410
 2693TIP3   OH232273   2.386   8.166  18.355
 2693TIP3    H132274   2.330   8.156  18.271
 2693TIP3    H232275   2.430   8.057  18.366
 2694TIP3   OH232276   2.362   8.460  17.985
 2694TIP3    H132277   2.476   8.441  17.990
 2694TIP3    H232278   2.351   8.555  18.042
 2695TIP3   OH232279   4.486   8.573  18.611
 2695TIP3    H132280   4.466   8.458  18.609
 2695TIP3    H232281   4.381   8.608  18.649
 2696TIP3   OH232282   3.410   8.491  18.473
 2696TIP3    H132283   3.428   8.598  18.513
 2696TIP3    H232284   3.304   8.464  18.504
 2697TIP3   OH232285   3.520   9.000  17.454
 2697TIP3    H132286   3.522   9.025  17.359
 2697TIP3    H232287   3.464   9.090  17.492
 2698TIP3   OH232288   2.743   8.762  17.659
 2698TIP3    H132289   2.785   8.756  17.751
 2698TIP3    H232290   2.653   8.690  17.668
 2699TIP3   OH232291   3.786   8.824  17.432
 2699TIP3    H132292   3.688   8.873  17.467
 2699TIP3    H232293   3.800   8.726  17.483
 2700TIP3   OH232294   4.156   7.526  18.626
 2700TIP3    H132295   4.092   7.580  18.557
 2700TIP3    H232296   4.146   7.415  18.598
 2701TIP3   OH232297   2.658   8.297  18.439
 2701TIP3    H132298   2.654   8.254  18.530
 2701TIP3    H232299   2.550   8.274  18.406
 2702TIP3   OH232300   2.962   6.952  18.036
 2702TIP3    H132301   2.860   6.947  17.989
 2702TIP3    H232302   2.929   7.014  18.115
 2703TIP3   OH232303   3.547   6.883  18.366
 2703TIP3    H132304   3.583   6.832  18.448
 2703TIP3    H232305   3.431   6.890  18.377
 2704TIP3   OH232306   3.845   7.380  18.438
 2704TIP3    H132307   3.796   7.340  18.522
 2704TIP3    H232308   3.821   7.493  18.441
 2705TIP3   OH232309   2.972   7.516  18.150
 2705TIP3    H132310   2.881   7.517  18.212
 2705TIP3    H232311   2.976   7.630  18.123
 2706TIP3   OH232312   2.935   7.535  17.686
 2706TIP3    H132313   2.822   7.523  17.658
 2706TIP3    H232314   2.992   7.543  17.600
 2707TIP3   OH232315   3.632   7.590  17.524
 2707TIP3    H132316   3.601   7.696  17.492
 2707TIP3    H232317   3.716   7.561  17.460
 2708TIP3   OH232318   3.492   7.633  18.652
 2708TIP3    H132319   3.431   7.546  18.695
 2708TIP3    H232320   3.587   7.633  18.709
 2709TIP3   OH232321   3.739   7.529  17.821
 2709TIP3    H132322   3.746   7.639  17.791
 2709TIP3    H232323   3.724   7.477  17.734
 2710TIP3   OH232324   2.692   7.520  18.283
 2710TIP3    H132325   2.718   7.574  18.367
 2710TIP3    H232326   2.651   7.417  18.315
 2711TIP3   OH232327   2.306   7.207  17.760
 2711TIP3    H132328   2.396   7.212  17.821
 2711TIP3    H232329   2.358   7.217  17.672
 2712TIP3   OH232330   2.384   7.333  17.259
 2712TIP3    H132331   2.486   7.301  17.298
 2712TIP3    H232332   2.334   7.396  17.329
 2713TIP3   OH232333   3.643   7.710  18.243
 2713TIP3    H132334   3.713   7.630  18.203
 2713TIP3    H232335   3.570   7.646  18.300
 2714TIP3   OH232336   3.310   7.270  17.770
 2714TIP3    H132337   3.205   7.226  17.793
 2714TIP3    H232338   3.382   7.181  17.799
 2715TIP3   OH232339   2.617   7.424  17.666
 2715TIP3    H132340   2.550   7.472  17.595
 2715TIP3    H232341   2.656   7.326  17.622
 2716TIP3   OH232342   3.060   7.474  17.432
 2716TIP3    H132343   3.175   7.457  17.436
 2716TIP3    H232344   3.047   7.510  17.339
 2717TIP3   OH232345   3.006   7.517  17.173
 2717TIP3    H132346   2.891   7.535  17.168
 2717TIP3    H232347   3.046   7.612  17.126
 2718TIP3   OH232348   4.117   9.023  18.707
 2718TIP3    H132349   4.133   9.060  18.615
 2718TIP3    H232350   4.228   9.037  18.746
 2719TIP3   OH232351   2.694   8.108  18.671
 2719TIP3    H132352   2.772   8.136  18.741
 2719TIP3    H232353   2.597   8.087  18.724
 2720TIP3   OH232354   3.394   7.577  17.946
 2720TIP3    H132355   3.470   7.530  17.885
 2720TIP3    H232356   3.313   7.492  17.955
 2721TIP3   OH232357   2.743   7.139  17.566
 2721TIP3    H132358   2.692   7.049  17.613
 2721TIP3    H232359   2.816   7.082  17.508
 2722TIP3   OH232360   3.236   7.350  18.200
 2722TIP3    H132361   3.146   7.422  18.181
 2722TIP3    H232362   3.322   7.424  18.220
 2723TIP3   OH232363   3.322   8.134  17.341
 2723TIP3    H132364   3.242   8.054  17.315
 2723TIP3    H232365   3.275   8.170  17.427
 2724TIP3   OH232366   4.226   8.063  18.225
 2724TIP3    H132367   4.282   8.120  18.151
 2724TIP3    H232368   4.120   8.057  18.185
 2725TIP3   OH232369   3.443   8.164  18.464
 2725TIP3    H132370   3.449   8.126  18.556
 2725TIP3    H232371   3.439   8.279  18.476
 2726TIP3   OH232372   3.908   7.474  17.376
 2726TIP3    H132373   3.968   7.386  17.336
 2726TIP3    H232374   3.937   7.570  17.328
 2727TIP3   OH232375   2.749   8.080  17.893
 2727TIP3    H132376   2.815   8.051  17.815
 2727TIP3    H232377   2.765   7.987  17.951
 2728TIP3   OH232378   3.511   8.368  17.259
 2728TIP3    H132379   3.491   8.411  17.347
 2728TIP3    H232380   3.451   8.266  17.267
 2729TIP3   OH232381   2.381   7.858  18.463
 2729TIP3    H132382   2.357   7.788  18.540
 2729TIP3    H232383   2.318   7.810  18.392
 2730TIP3   OH232384   3.202   7.805  18.645
 2730TIP3    H132385   3.145   7.724  18.593
 2730TIP3    H232386   3.312   7.765  18.641
 2731TIP3   OH232387   3.803   8.430  18.492
 2731TIP3    H132388   3.706   8.453  18.441
 2731TIP3    H232389   3.784   8.494  18.572
 2732TIP3   OH232390   4.452   7.570  17.304
 2732TIP3    H132391   4.376   7.542  17.233
 2732TIP3    H232392   4.468   7.684  17.280
 2733TIP3   OH232393   4.468   8.236  18.575
 2733TIP3    H132394   4.357   8.249  18.543
 2733TIP3    H232395   4.528   8.225  18.491
 2734TIP3   OH232396   4.260   8.544  17.364
 2734TIP3    H132397   4.166   8.474  17.362
 2734TIP3    H232398   4.282   8.557  17.269
 2735TIP3   OH232399   3.934   7.968  18.048
 2735TIP3    H132400   3.824   7.933  18.037
 2735TIP3    H232401   3.992   7.883  18.001
 2736TIP3   OH232402   3.014   8.470  17.673
 2736TIP3    H132403   3.061   8.570  17.640
 2736TIP3    H232404   2.905   8.477  17.638
 2737TIP3   OH232405   3.188   8.201  17.594
 2737TIP3    H132406   3.134   8.299  17.621
 2737TIP3    H232407   3.132   8.119  17.647
 2738TIP3   OH232408   3.251   8.682  18.300
 2738TIP3    H132409   3.314   8.777  18.278
 2738TIP3    H232410   3.330   8.617  18.349
 2739TIP3   OH232411   3.065   8.766  17.561
 2739TIP3    H132412   2.953   8.788  17.585
 2739TIP3    H232413   3.120   8.856  17.603
 2740TIP3   OH232414   3.620   8.209  18.224
 2740TIP3    H132415   3.564   8.174  18.306
 2740TIP3    H232416   3.674   8.111  18.197
 2741TIP3   OH232417   3.964   8.402  17.164
 2741TIP3    H132418   3.976   8.303  17.214
 2741TIP3    H232419   3.872   8.375  17.107
 2742TIP3   OH232420   3.985   8.765  18.478
 2742TIP3    H132421   3.892   8.704  18.448
 2742TIP3    H232422   4.010   8.838  18.403
 2743TIP3   OH232423   2.593   7.229  18.404
 2743TIP3    H132424   2.506   7.295  18.439
 2743TIP3    H232425   2.581   7.134  18.459
 2744TIP3   OH232426   4.043   8.156  17.353
 2744TIP3    H132427   4.044   8.053  17.403
 2744TIP3    H232428   4.158   8.168  17.334
 2745TIP3   OH232429   2.542   8.609  18.263
 2745TIP3    H132430   2.598   8.510  18.246
 2745TIP3    H232431   2.614   8.658  18.328
 2746TIP3   OH232432   2.641   8.066  17.289
 2746TIP3    H132433   2.562   8.137  17.332
 2746TIP3    H232434   2.713   8.143  17.248
 2747TIP3   OH232435   3.661   7.212  18.275
 2747TIP3    H132436   3.755   7.232  18.329
 2747TIP3    H232437   3.610   7.123  18.322
 2748TIP3   OH232438   3.372   7.363  17.506
 2748TIP3    H132439   3.469   7.429  17.509
 2748TIP3    H232440   3.360   7.328  17.599
 2749TIP3   OH232441   3.492   7.505  18.401
 2749TIP3    H132442   3.503   7.536  18.495
 2749TIP3    H232443   3.553   7.405  18.396
 2750TIP3   OH232444   2.968   7.171  17.279
 2750TIP3    H132445   2.992   7.278  17.312
 2750TIP3    H232446   3.077   7.132  17.263
 2751TIP3   OH232447   4.144   7.244  18.492
 2751TIP3    H132448   4.042   7.289  18.458
 2751TIP3    H232449   4.214   7.247  18.416
 2752TIP3   OH232450   4.039   7.688  17.918
 2752TIP3    H132451   3.954   7.619  17.948
 2752TIP3    H232452   4.135   7.628  17.945
 2753TIP3   OH232453   2.720   7.673  17.123
 2753TIP3    H132454   2.687   7.774  17.082
 2753TIP3    H232455   2.621   7.618  17.139
 2754TIP3   OH232456   4.163   8.852  18.089
 2754TIP3    H132457   4.157   8.898  17.999
 2754TIP3    H232458   4.280   8.849  18.095
 2755TIP3   OH232459   2.656   6.888  17.963
 2755TIP3    H132460   2.652   6.870  17.866
 2755TIP3    H232461   2.617   6.784  17.996
 2756TIP3   OH232462   2.492   8.539  17.516
 2756TIP3    H132463   2.411   8.587  17.572
 2756TIP3    H232464   2.490   8.612  17.439
 2757TIP3   OH232465   2.423   8.887  18.689
 2757TIP3    H132466   2.531   8.886  18.723
 2757TIP3    H232467   2.387   8.777  18.702
 2758TIP3   OH232468   3.017   8.683  18.846
 2758TIP3    H132469   3.130   8.701  18.838
 2758TIP3    H232470   2.978   8.662  18.755
 2759TIP3   OH232471   3.748   8.575  18.733
 2759TIP3    H132472   3.709   8.467  18.759
 2759TIP3    H232473   3.838   8.586  18.794
 2760TIP3   OH232474   4.102   8.638  16.998
 2760TIP3    H132475   4.062   8.551  17.055
 2760TIP3    H232476   4.218   8.615  17.003
 2761TIP3   OH232477   2.381   8.120  18.783
 2761TIP3    H132478   2.347   8.009  18.784
 2761TIP3    H232479   2.316   8.161  18.708
 2762TIP3   OH232480   3.210   8.118  18.698
 2762TIP3    H132481   3.179   8.188  18.622
 2762TIP3    H232482   3.185   8.010  18.666
 2763TIP3   OH232483   3.692   8.296  17.044
 2763TIP3    H132484   3.620   8.347  17.109
 2763TIP3    H232485   3.652   8.334  16.960
 2764TIP3   OH232486   3.893   8.099  18.469
 2764TIP3    H132487   3.995   8.158  18.463
 2764TIP3    H232488   3.823   8.192  18.482
 2765TIP3   OH232489   2.543   7.789  18.762
 2765TIP3    H132490   2.609   7.696  18.762
 2765TIP3    H232491   2.582   7.852  18.839
 2766TIP3   OH232492   2.966   7.669  18.417
 2766TIP3    H132493   2.906   7.769  18.426
 2766TIP3    H232494   3.062   7.711  18.373
 2767TIP3   OH232495   3.646   7.994  18.794
 2767TIP3    H132496   3.707   7.937  18.727
 2767TIP3    H232497   3.608   7.910  18.854
 2768TIP3   OH232498   3.071   7.388  18.527
 2768TIP3    H132499   3.074   7.306  18.456
 2768TIP3    H232500   3.058   7.487  18.473
 2769TIP3   OH232501   3.095   7.139  18.347
 2769TIP3    H132502   3.160   7.207  18.285
 2769TIP3    H232503   2.995   7.130  18.296
 2770TIP3   OH232504   3.257   7.816  18.313
 2770TIP3    H132505   3.366   7.850  18.326
 2770TIP3    H232506   3.205   7.915  18.282
 2771TIP3   OH232507   3.803   7.518  18.809
 2771TIP3    H132508   3.841   7.409  18.805
 2771TIP3    H232509   3.890   7.577  18.849
 2772TIP3   OH232510   3.980   7.913  18.680
 2772TIP3    H132511   3.942   7.981  18.607
 2772TIP3    H232512   4.092   7.902  18.655
 2773TIP3   OH232513   2.890   7.475  18.745
 2773TIP3    H132514   2.782   7.430  18.728
 2773TIP3    H232515   2.950   7.436  18.665
 2774TIP3   OH232516   3.212   6.845  18.350
 2774TIP3    H132517   3.170   6.955  18.356
 2774TIP3    H232518   3.126   6.794  18.302
 2775TIP3   OH232519   3.318   7.369  18.754
 2775TIP3    H132520   3.244   7.333  18.824
 2775TIP3    H232521   3.251   7.350  18.676
 2776TIP3   OH232522   3.658   7.278  18.642
 2776TIP3    H132523   3.547   7.274  18.670
 2776TIP3    H232524   3.709   7.219  18.716
 2777TIP3   OH232525   3.829   7.106  18.816
 2777TIP3    H132526   3.838   6.990  18.816
 2777TIP3    H232527   3.822   7.130  18.912
 2778TIP3   OH232528   2.627   7.282  18.761
 2778TIP3    H132529   2.675   7.187  18.724
 2778TIP3    H232530   2.602   7.248  18.853
 2779TIP3   OH232531   3.211   6.821  18.622
 2779TIP3    H132532   3.293   6.738  18.635
 2779TIP3    H232533   3.211   6.818  18.524
 2780TIP3   OH232534   3.178   6.940  18.878
 2780TIP3    H132535   3.191   6.907  18.784
 2780TIP3    H232536   3.145   7.052  18.869
 2781TIP3   OH232537   3.193   8.959  17.160
 2781TIP3    H132538   3.299   9.008  17.148
 2781TIP3    H232539   3.126   9.030  17.108
 2782TIP3   OH232540   2.281   8.992  17.596
 2782TIP3    H132541   2.176   8.958  17.565
 2782TIP3    H232542   2.282   8.936  17.682
 2783TIP3   OH232543   2.382   8.761  17.814
 2783TIP3    H132544   2.304   8.683  17.848
 2783TIP3    H232545   2.442   8.782  17.896
 2784TIP3   OH232546   4.488   8.891  18.056
 2784TIP3    H132547   4.508   8.963  18.132
 2784TIP3    H232548   4.591   8.886  18.012
 2785TIP3   OH232549   4.415   8.794  18.410
 2785TIP3    H132550   4.388   8.716  18.340
 2785TIP3    H232551   4.451   8.718  18.478
 2786TIP3   OH232552   4.252   8.332  18.843
 2786TIP3    H132553   4.151   8.317  18.893
 2786TIP3    H232554   4.291   8.431  18.882
 2787TIP3   OH232555   4.373   8.130  17.366
 2787TIP3    H132556   4.471   8.185  17.392
 2787TIP3    H232557   4.363   8.056  17.441
 2788TIP3   OH232558   4.444   7.888  17.574
 2788TIP3    H132559   4.343   7.835  17.599
 2788TIP3    H232560   4.496   7.901  17.659
 2789TIP3   OH232561   4.414   8.191  18.045
 2789TIP3    H132562   4.495   8.110  18.028
 2789TIP3    H232563   4.470   8.291  18.023
 2790TIP3   OH232564   4.252   8.539  18.307
 2790TIP3    H132565   4.163   8.592  18.349
 2790TIP3    H232566   4.207   8.526  18.215
 2791TIP3   OH232567   4.466   7.889  17.188
 2791TIP3    H132568   4.421   7.936  17.106
 2791TIP3    H232569   4.441   7.978  17.249
 2792TIP3   OH232570   4.283   7.498  17.087
 2792TIP3    H132571   4.297   7.570  17.012
 2792TIP3    H232572   4.277   7.392  17.050
 2793TIP3   OH232573   4.184   7.710  17.651
 2793TIP3    H132574   4.193   7.600  17.622
 2793TIP3    H232575   4.164   7.703  17.747
 2794TIP3   OH232576   2.369   7.979  18.058
 2794TIP3    H132577   2.378   7.937  17.966
 2794TIP3    H232578   2.474   7.946  18.093
 2795TIP3   OH232579   4.318   7.930  18.607
 2795TIP3    H132580   4.382   7.831  18.620
 2795TIP3    H232581   4.397   8.012  18.590
 2796TIP3   OH232582   4.450   7.638  18.645
 2796TIP3    H132583   4.338   7.597  18.642
 2796TIP3    H232584   4.516   7.543  18.666
 2797TIP3   OH232585   4.268   7.480  18.018
 2797TIP3    H132586   4.385   7.494  18.035
 2797TIP3    H232587   4.230   7.476  18.110
 2798TIP3   OH232588   4.223   7.566  18.274
 2798TIP3    H132589   4.133   7.612  18.326
 2798TIP3    H232590   4.290   7.662  18.259
 2799TIP3   OH232591   2.353   7.351  18.639
 2799TIP3    H132592   2.450   7.367  18.692
 2799TIP3    H232593   2.321   7.243  18.664
 2800TIP3   OH232594   4.512   6.907  18.820
 2800TIP3    H132595   4.558   6.816  18.773
 2800TIP3    H232596   4.499   6.985  18.747
 2801TIP3   OH232597   2.492   7.164  18.017
 2801TIP3    H132598   2.552   7.064  17.999
 2801TIP3    H232599   2.574   7.246  18.003
 2802TIP3   OH232600   2.311   7.540  18.064
 2802TIP3    H132601   2.384   7.516  17.990
 2802TIP3    H232602   2.362   7.634  18.099
 2803TIP3   OH232603   4.440   7.144  18.646
 2803TIP3    H132604   4.348   7.177  18.701
 2803TIP3    H232605   4.386   7.079  18.579
 2804TIP3   OH232606   4.494   7.058  17.134
 2804TIP3    H132607   4.576   7.024  17.072
 2804TIP3    H232608   4.541   7.157  17.168
 2805TIP3   OH232609   2.316   7.130  17.475
 2805TIP3    H132610   2.201   7.117  17.485
 2805TIP3    H232611   2.321   7.122  17.378
 2806TIP3   OH232612   4.078   8.897  17.631
 2806TIP3    H132613   4.181   8.861  17.595
 2806TIP3    H232614   4.111   8.948  17.714
 2807TIP3   OH232615   2.332   6.914  18.306
 2807TIP3    H132616   2.240   6.846  18.285
 2807TIP3    H232617   2.329   6.988  18.230
 2808TIP3   OH232618   2.593   8.491  18.682
 2808TIP3    H132619   2.491   8.480  18.636
 2808TIP3    H232620   2.563   8.490  18.775
 2809TIP3   OH232621   2.923   8.644  18.340
 2809TIP3    H132622   2.917   8.761  18.331
 2809TIP3    H232623   3.040   8.635  18.333
 2810TIP3   OH232624   3.458   8.766  18.602
 2810TIP3    H132625   3.446   8.748  18.699
 2810TIP3    H232626   3.554   8.832  18.602
 2811TIP3   OH232627   3.745   8.980  18.568
 2811TIP3    H132628   3.842   8.918  18.551
 2811TIP3    H232629   3.754   8.988  18.665
 2812TIP3   OH232630   4.327   6.850  18.476
 2812TIP3    H132631   4.248   6.895  18.416
 2812TIP3    H232632   4.338   6.739  18.441
 2813TIP3   OH232633   2.622   9.064  18.321
 2813TIP3    H132634   2.520   9.054  18.273
 2813TIP3    H232635   2.586   9.053  18.412
 2814TIP3   OH232636   2.909   8.951  18.274
 2814TIP3    H132637   2.801   8.990  18.301
 2814TIP3    H232638   2.910   8.988  18.181
 2815TIP3   OH232639   3.508   8.935  18.141
 2815TIP3    H132640   3.419   8.947  18.077
 2815TIP3    H232641   3.511   9.041  18.181
 2816TIP3   OH232642   3.707   8.754  18.295
 2816TIP3    H132643   3.629   8.826  18.252
 2816TIP3    H232644   3.808   8.808  18.273
 2817TIP3   OH232645   4.013   9.017  18.277
 2817TIP3    H132646   3.974   9.124  18.256
 2817TIP3    H232647   4.057   8.980  18.190
 2818TIP3   OH232648   2.580   8.788  18.039
 2818TIP3    H132649   2.551   8.740  18.126
 2818TIP3    H232650   2.675   8.728  18.011
 2819TIP3   OH232651   2.838   8.704  17.904
 2819TIP3    H132652   2.832   8.586  17.916
 2819TIP3    H232653   2.945   8.720  17.944
 2820TIP3   OH232654   3.109   8.694  18.032
 2820TIP3    H132655   3.134   8.580  18.023
 2820TIP3    H232656   3.142   8.719  18.123
 2821TIP3   OH232657   3.473   7.009  17.852
 2821TIP3    H132658   3.388   6.954  17.903
 2821TIP3    H232659   3.527   6.918  17.814
 2822TIP3   OH232660   4.154   6.767  17.850
 2822TIP3    H132661   4.254   6.818  17.824
 2822TIP3    H232662   4.126   6.701  17.773
 2823TIP3   OH232663   2.630   6.872  17.676
 2823TIP3    H132664   2.532   6.865  17.624
 2823TIP3    H232665   2.676   6.766  17.661
 2824TIP3   OH232666   3.052   6.847  17.675
 2824TIP3    H132667   3.128   6.869  17.604
 2824TIP3    H232668   3.113   6.874  17.755
 2825TIP3   OH232669   2.424   8.760  17.325
 2825TIP3    H132670   2.310   8.761  17.309
 2825TIP3    H232671   2.441   8.868  17.358
 2826TIP3   OH232672   2.701   7.154  17.119
 2826TIP3    H132673   2.686   7.048  17.084
 2826TIP3    H232674   2.804   7.144  17.163
 2827TIP3   OH232675   3.293   7.145  17.283
 2827TIP3    H132676   3.283   7.042  17.326
 2827TIP3    H232677   3.308   7.220  17.357
 2828TIP3   OH232678   4.330   8.830  17.492
 2828TIP3    H132679   4.307   8.719  17.460
 2828TIP3    H232680   4.304   8.886  17.408
 2829TIP3   OH232681   2.556   6.917  18.612
 2829TIP3    H132682   2.545   6.804  18.639
 2829TIP3    H232683   2.641   6.946  18.675
 2830TIP3   OH232684   2.819   6.857  18.805
 2830TIP3    H132685   2.934   6.847  18.792
 2830TIP3    H232686   2.801   6.751  18.846
 2831TIP3   OH232687   3.840   6.788  18.801
 2831TIP3    H132688   3.838   6.701  18.866
 2831TIP3    H232689   3.952   6.781  18.769
 2832TIP3   OH232690   4.201   8.689  18.672
 2832TIP3    H132691   4.100   8.692  18.621
 2832TIP3    H232692   4.220   8.802  18.683
 2833TIP3   OH232693   4.926   7.848  18.147
 2833TIP3    H132694   4.919   7.747  18.198
 2833TIP3    H232695   4.967   7.919  18.218
 2834TIP3   OH232696   6.248   8.204  17.863
 2834TIP3    H132697   6.223   8.110  17.918
 2834TIP3    H232698   6.252   8.285  17.932
 2835TIP3   OH232699   4.997   8.401  17.963
 2835TIP3    H132700   4.969   8.288  17.949
 2835TIP3    H232701   5.111   8.387  17.977
 2836TIP3   OH232702   4.595   7.564  17.550
 2836TIP3    H132703   4.564   7.676  17.550
 2836TIP3    H232704   4.525   7.523  17.481
 2837TIP3   OH232705   4.718   7.882  17.797
 2837TIP3    H132706   4.760   7.771  17.809
 2837TIP3    H232707   4.765   7.920  17.715
 2838TIP3   OH232708   5.898   8.831  17.841
 2838TIP3    H132709   6.004   8.780  17.824
 2838TIP3    H232710   5.842   8.746  17.886
 2839TIP3   OH232711   5.605   8.146  18.091
 2839TIP3    H132712   5.648   8.172  18.005
 2839TIP3    H232713   5.700   8.170  18.146
 2840TIP3   OH232714   6.655   7.132  18.124
 2840TIP3    H132715   6.665   7.208  18.198
 2840TIP3    H232716   6.755   7.156  18.077
 2841TIP3   OH232717   6.053   7.510  18.095
 2841TIP3    H132718   6.073   7.396  18.115
 2841TIP3    H232719   6.044   7.502  17.997
 2842TIP3   OH232720   5.185   7.256  17.780
 2842TIP3    H132721   5.132   7.336  17.724
 2842TIP3    H232722   5.180   7.163  17.721
 2843TIP3   OH232723   6.131   7.278  17.649
 2843TIP3    H132724   6.188   7.241  17.729
 2843TIP3    H232725   6.212   7.344  17.609
 2844TIP3   OH232726   4.814   7.588  17.881
 2844TIP3    H132727   4.874   7.507  17.932
 2844TIP3    H232728   4.818   7.541  17.792
 2845TIP3   OH232729   6.683   7.319  18.341
 2845TIP3    H132730   6.643   7.418  18.299
 2845TIP3    H232731   6.686   7.354  18.433
 2846TIP3   OH232732   5.062   7.144  18.218
 2846TIP3    H132733   5.024   7.206  18.141
 2846TIP3    H232734   4.982   7.176  18.287
 2847TIP3   OH232735   5.322   8.050  18.206
 2847TIP3    H132736   5.266   8.140  18.250
 2847TIP3    H232737   5.414   8.106  18.167
 2848TIP3   OH232738   6.317   7.214  17.856
 2848TIP3    H132739   6.324   7.124  17.916
 2848TIP3    H232740   6.413   7.273  17.878
 2849TIP3   OH232741   5.018   7.373  18.008
 2849TIP3    H132742   5.098   7.433  18.061
 2849TIP3    H232743   5.084   7.338  17.931
 2850TIP3   OH232744   5.185   8.326  18.303
 2850TIP3    H132745   5.171   8.431  18.266
 2850TIP3    H232746   5.080   8.303  18.342
 2851TIP3   OH232747   4.711   8.227  17.427
 2851TIP3    H132748   4.694   8.300  17.354
 2851TIP3    H232749   4.721   8.302  17.501
 2852TIP3   OH232750   6.326   8.507  18.108
 2852TIP3    H132751   6.210   8.500  18.109
 2852TIP3    H232752   6.341   8.573  18.030
 2853TIP3   OH232753   6.322   7.070  18.196
 2853TIP3    H132754   6.240   7.126  18.142
 2853TIP3    H232755   6.421   7.094  18.149
 2854TIP3   OH232756   5.489   6.844  17.932
 2854TIP3    H132757   5.443   6.739  17.941
 2854TIP3    H232758   5.394   6.907  17.962
 2855TIP3   OH232759   6.164   8.681  17.753
 2855TIP3    H132760   6.148   8.579  17.708
 2855TIP3    H232761   6.253   8.725  17.699
 2856TIP3   OH232762   6.290   8.418  17.574
 2856TIP3    H132763   6.236   8.357  17.505
 2856TIP3    H232764   6.269   8.345  17.648
 2857TIP3   OH232765   6.444   8.254  18.439
 2857TIP3    H132766   6.455   8.164  18.377
 2857TIP3    H232767   6.479   8.342  18.380
 2858TIP3   OH232768   6.708   7.832  18.231
 2858TIP3    H132769   6.631   7.921  18.238
 2858TIP3    H232770   6.776   7.876  18.159
 2859TIP3   OH232771   6.211   7.813  17.523
 2859TIP3    H132772   6.167   7.919  17.531
 2859TIP3    H232773   6.307   7.814  17.580
 2860TIP3   OH232774   6.229   7.699  18.415
 2860TIP3    H132775   6.211   7.795  18.466
 2860TIP3    H232776   6.143   7.708  18.350
 2861TIP3   OH232777   5.360   8.380  17.975
 2861TIP3    H132778   5.359   8.389  17.876
 2861TIP3    H232779   5.464   8.329  17.995
 2862TIP3   OH232780   5.281   7.800  18.052
 2862TIP3    H132781   5.281   7.852  17.966
 2862TIP3    H232782   5.293   7.891  18.113
 2863TIP3   OH232783   6.008   8.502  18.124
 2863TIP3    H132784   5.958   8.591  18.172
 2863TIP3    H232785   5.966   8.410  18.172
 2864TIP3   OH232786   5.375   8.342  18.522
 2864TIP3    H132787   5.298   8.416  18.565
 2864TIP3    H232788   5.324   8.333  18.434
 2865TIP3   OH232789   5.012   7.927  18.415
 2865TIP3    H132790   5.023   8.017  18.477
 2865TIP3    H232791   4.936   7.864  18.467
 2866TIP3   OH232792   5.162   8.575  18.601
 2866TIP3    H132793   5.155   8.585  18.503
 2866TIP3    H232794   5.052   8.542  18.623
 2867TIP3   OH232795   5.020   7.846  17.501
 2867TIP3    H132796   5.014   7.925  17.431
 2867TIP3    H232797   5.010   7.746  17.452
 2868TIP3   OH232798   4.637   8.171  18.353
 2868TIP3    H132799   4.580   8.146  18.271
 2868TIP3    H232800   4.681   8.065  18.375
 2869TIP3   OH232801   4.625   8.471  18.011
 2869TIP3    H132802   4.738   8.447  17.995
 2869TIP3    H232803   4.630   8.572  18.058
 2870TIP3   OH232804   6.748   8.568  18.629
 2870TIP3    H132805   6.721   8.454  18.632
 2870TIP3    H232806   6.642   8.611  18.658
 2871TIP3   OH232807   5.669   8.494  18.465
 2871TIP3    H132808   5.683   8.598  18.509
 2871TIP3    H232809   5.564   8.458  18.499
 2872TIP3   OH232810   5.717   8.924  17.423
 2872TIP3    H132811   5.832   8.914  17.410
 2872TIP3    H232812   5.711   8.947  17.517
 2873TIP3   OH232813   5.003   8.744  17.666
 2873TIP3    H132814   5.039   8.759  17.759
 2873TIP3    H232815   4.915   8.670  17.680
 2874TIP3   OH232816   6.096   8.867  17.184
 2874TIP3    H132817   6.164   8.820  17.117
 2874TIP3    H232818   6.118   8.801  17.262
 2875TIP3   OH232819   6.036   8.804  17.463
 2875TIP3    H132820   5.992   8.790  17.551
 2875TIP3    H232821   6.107   8.713  17.460
 2876TIP3   OH232822   6.409   7.526  18.636
 2876TIP3    H132823   6.343   7.573  18.566
 2876TIP3    H232824   6.408   7.412  18.611
 2877TIP3   OH232825   4.909   8.300  18.436
 2877TIP3    H132826   4.913   8.252  18.526
 2877TIP3    H232827   4.800   8.273  18.409
 2878TIP3   OH232828   5.203   6.956  18.026
 2878TIP3    H132829   5.096   6.936  17.992
 2878TIP3    H232830   5.177   7.021  18.105
 2879TIP3   OH232831   5.789   6.832  18.339
 2879TIP3    H132832   5.824   6.826  18.431
 2879TIP3    H232833   5.674   6.856  18.346
 2880TIP3   OH232834   6.110   7.391  18.491
 2880TIP3    H132835   6.038   7.345  18.561
 2880TIP3    H232836   6.077   7.502  18.488
 2881TIP3   OH232837   5.231   7.518  18.168
 2881TIP3    H132838   5.148   7.544  18.234
 2881TIP3    H232839   5.238   7.620  18.118
 2882TIP3   OH232840   5.888   7.631  17.519
 2882TIP3    H132841   5.912   7.736  17.486
 2882TIP3    H232842   5.959   7.564  17.466
 2883TIP3   OH232843   5.756   7.633  18.666
 2883TIP3    H132844   5.717   7.530  18.697
 2883TIP3    H232845   5.846   7.651  18.727
 2884TIP3   OH232846   6.026   7.541  17.819
 2884TIP3    H132847   6.006   7.637  17.767
 2884TIP3    H232848   6.018   7.457  17.751
 2885TIP3   OH232849   4.930   7.543  18.289
 2885TIP3    H132850   4.986   7.573  18.370
 2885TIP3    H232851   4.896   7.433  18.311
 2886TIP3   OH232852   5.306   7.307  17.010
 2886TIP3    H132853   5.287   7.238  17.087
 2886TIP3    H232854   5.376   7.237  16.956
 2887TIP3   OH232855   4.511   7.196  17.739
 2887TIP3    H132856   4.596   7.178  17.803
 2887TIP3    H232857   4.555   7.163  17.653
 2888TIP3   OH232858   4.649   7.314  17.248
 2888TIP3    H132859   4.746   7.368  17.219
 2888TIP3    H232860   4.580   7.405  17.270
 2889TIP3   OH232861   5.963   7.766  18.246
 2889TIP3    H132862   5.986   7.672  18.191
 2889TIP3    H232863   5.878   7.723  18.303
 2890TIP3   OH232864   5.520   7.247  17.756
 2890TIP3    H132865   5.404   7.262  17.770
 2890TIP3    H232866   5.561   7.285  17.841
 2891TIP3   OH232867   4.913   7.435  17.637
 2891TIP3    H132868   4.819   7.475  17.588
 2891TIP3    H232869   4.913   7.322  17.609
 2892TIP3   OH232870   5.357   7.444  17.375
 2892TIP3    H132871   5.450   7.507  17.395
 2892TIP3    H232872   5.284   7.519  17.335
 2893TIP3   OH232873   6.059   7.187  18.066
 2893TIP3    H132874   5.971   7.175  18.131
 2893TIP3    H232875   6.005   7.163  17.982
 2894TIP3   OH232876   5.186   7.591  17.156
 2894TIP3    H132877   5.146   7.495  17.114
 2894TIP3    H232878   5.284   7.600  17.104
 2895TIP3   OH232879   6.374   9.037  18.702
 2895TIP3    H132880   6.397   9.066  18.610
 2895TIP3    H232881   6.482   9.047  18.741
 2896TIP3   OH232882   4.954   8.104  18.667
 2896TIP3    H132883   5.035   8.142  18.729
 2896TIP3    H232884   4.860   8.086  18.726
 2897TIP3   OH232885   5.677   7.538  17.904
 2897TIP3    H132886   5.791   7.518  17.905
 2897TIP3    H232887   5.644   7.487  17.986
 2898TIP3   OH232888   5.033   7.108  17.567
 2898TIP3    H132889   4.952   7.045  17.616
 2898TIP3    H232890   5.081   7.028  17.511
 2899TIP3   OH232891   5.501   7.355  18.155
 2899TIP3    H132892   5.413   7.433  18.167
 2899TIP3    H232893   5.585   7.399  18.210
 2900TIP3   OH232894   6.481   8.063  18.234
 2900TIP3    H132895   6.546   8.123  18.169
 2900TIP3    H232896   6.384   8.053  18.182
 2901TIP3   OH232897   5.978   7.283  17.149
 2901TIP3    H132898   5.918   7.366  17.105
 2901TIP3    H232899   6.058   7.345  17.198
 2902TIP3   OH232900   5.717   8.167  18.463
 2902TIP3    H132901   5.716   8.136  18.556
 2902TIP3    H232902   5.692   8.281  18.470
 2903TIP3   OH232903   6.133   7.493  17.336
 2903TIP3    H132904   6.211   7.469  17.407
 2903TIP3    H232905   6.197   7.566  17.284
 2904TIP3   OH232906   5.035   8.082  17.919
 2904TIP3    H132907   5.018   8.044  17.829
 2904TIP3    H232908   5.015   7.987  17.974
 2905TIP3   OH232909   4.648   7.860  18.461
 2905TIP3    H132910   4.636   7.786  18.537
 2905TIP3    H232911   4.583   7.808  18.392
 2906TIP3   OH232912   5.479   7.800  18.633
 2906TIP3    H132913   5.423   7.724  18.578
 2906TIP3    H232914   5.588   7.753  18.637
 2907TIP3   OH232915   6.060   8.432  18.485
 2907TIP3    H132916   5.963   8.462  18.441
 2907TIP3    H232917   6.048   8.491  18.569
 2908TIP3   OH232918   6.690   7.526  17.346
 2908TIP3    H132919   6.692   7.459  17.267
 2908TIP3    H232920   6.702   7.636  17.308
 2909TIP3   OH232921   6.730   8.226  18.579
 2909TIP3    H132922   6.618   8.240  18.549
 2909TIP3    H232923   6.785   8.227  18.493
 2910TIP3   OH232924   6.541   8.516  17.319
 2910TIP3    H132925   6.469   8.442  17.365
 2910TIP3    H232926   6.533   8.482  17.227
 2911TIP3   OH232927   6.194   7.960  18.049
 2911TIP3    H132928   6.121   7.894  18.102
 2911TIP3    H232929   6.257   7.879  18.001
 2912TIP3   OH232930   5.305   8.448  17.717
 2912TIP3    H132931   5.400   8.465  17.661
 2912TIP3    H232932   5.218   8.488  17.662
 2913TIP3   OH232933   4.861   7.872  17.060
 2913TIP3    H132934   4.888   7.950  17.128
 2913TIP3    H232935   4.748   7.853  17.078
 2914TIP3   OH232936   5.521   8.692  18.296
 2914TIP3    H132937   5.585   8.789  18.279
 2914TIP3    H232938   5.603   8.623  18.340
 2915TIP3   OH232939   5.292   8.783  17.534
 2915TIP3    H132940   5.191   8.773  17.585
 2915TIP3    H232941   5.357   8.845  17.597
 2916TIP3   OH232942   5.881   8.213  18.230
 2916TIP3    H132943   5.830   8.186  18.317
 2916TIP3    H232944   5.966   8.134  18.230
 2917TIP3   OH232945   6.251   8.758  18.474
 2917TIP3    H132946   6.157   8.696  18.442
 2917TIP3    H232947   6.270   8.836  18.402
 2918TIP3   OH232948   6.814   8.858  17.149
 2918TIP3    H132949   6.866   8.957  17.125
 2918TIP3    H232950   6.713   8.903  17.185
 2919TIP3   OH232951   4.859   7.248  18.409
 2919TIP3    H132952   4.762   7.297  18.443
 2919TIP3    H232953   4.860   7.150  18.463
 2920TIP3   OH232954   6.342   8.155  17.364
 2920TIP3    H132955   6.323   8.047  17.390
 2920TIP3    H232956   6.461   8.158  17.353
 2921TIP3   OH232957   4.812   8.612  18.268
 2921TIP3    H132958   4.850   8.504  18.265
 2921TIP3    H232959   4.890   8.660  18.328
 2922TIP3   OH232960   5.442   8.522  16.980
 2922TIP3    H132961   5.544   8.476  16.960
 2922TIP3    H232962   5.426   8.495  17.073
 2923TIP3   OH232963   5.328   8.404  17.223
 2923TIP3    H132964   5.422   8.371  17.274
 2923TIP3    H232965   5.321   8.518  17.249
 2924TIP3   OH232966   4.970   8.083  17.278
 2924TIP3    H132967   4.872   8.119  17.322
 2924TIP3    H232968   5.026   8.182  17.256
 2925TIP3   OH232969   5.876   7.205  18.330
 2925TIP3    H132970   5.976   7.241  18.371
 2925TIP3    H232971   5.857   7.100  18.370
 2926TIP3   OH232972   6.012   7.138  17.438
 2926TIP3    H132973   6.001   7.238  17.391
 2926TIP3    H232974   6.055   7.180  17.524
 2927TIP3   OH232975   5.690   7.339  17.524
 2927TIP3    H132976   5.730   7.448  17.536
 2927TIP3    H232977   5.618   7.325  17.600
 2928TIP3   OH232978   5.777   7.510  18.404
 2928TIP3    H132979   5.779   7.532  18.500
 2928TIP3    H232980   5.806   7.396  18.397
 2929TIP3   OH232981   5.750   6.968  17.556
 2929TIP3    H132982   5.708   7.049  17.617
 2929TIP3    H232983   5.850   7.022  17.530
 2930TIP3   OH232984   5.338   8.724  17.280
 2930TIP3    H132985   5.252   8.798  17.262
 2930TIP3    H232986   5.334   8.734  17.379
 2931TIP3   OH232987   5.239   7.153  17.247
 2931TIP3    H132988   5.224   7.242  17.308
 2931TIP3    H232989   5.347   7.120  17.273
 2932TIP3   OH232990   6.412   7.240  18.506
 2932TIP3    H132991   6.300   7.271  18.486
 2932TIP3    H232992   6.466   7.247  18.420
 2933TIP3   OH232993   6.306   7.682  17.893
 2933TIP3    H132994   6.217   7.607  17.885
 2933TIP3    H232995   6.389   7.618  17.938
 2934TIP3   OH232996   6.426   8.852  18.093
 2934TIP3    H132997   6.427   8.905  18.005
 2934TIP3    H232998   6.540   8.822  18.097
 2935TIP3   OH232999   4.888   6.892  17.976
 2935TIP3    H133000   4.882   6.881  17.878
 2935TIP3    H233001   4.861   6.781  18.004
 2936TIP3   OH233002   4.740   8.543  17.555
 2936TIP3    H133003   4.646   8.600  17.583
 2936TIP3    H233004   4.763   8.602  17.472
 2937TIP3   OH233005   4.686   8.890  18.693
 2937TIP3    H133006   4.794   8.881  18.730
 2937TIP3    H233007   4.649   8.779  18.699
 2938TIP3   OH233008   5.272   8.690  18.848
 2938TIP3    H133009   5.386   8.712  18.853
 2938TIP3    H233010   5.255   8.665  18.753
 2939TIP3   OH233011   6.012   8.574  18.734
 2939TIP3    H133012   5.968   8.470  18.761
 2939TIP3    H233013   6.107   8.578  18.789
 2940TIP3   OH233014   4.648   8.123  18.782
 2940TIP3    H133015   4.603   8.016  18.790
 2940TIP3    H233016   4.584   8.165  18.707
 2941TIP3   OH233017   5.466   8.113  18.691
 2941TIP3    H133018   5.436   8.185  18.616
 2941TIP3    H233019   5.443   8.005  18.655
 2942TIP3   OH233020   6.144   8.106  18.479
 2942TIP3    H133021   6.241   8.173  18.473
 2942TIP3    H233022   6.066   8.194  18.488
 2943TIP3   OH233023   4.817   7.766  18.729
 2943TIP3    H133024   4.796   7.660  18.760
 2943TIP3    H233025   4.858   7.825  18.807
 2944TIP3   OH233026   5.220   7.676  18.410
 2944TIP3    H133027   5.173   7.786  18.408
 2944TIP3    H233028   5.327   7.703  18.375
 2945TIP3   OH233029   5.909   8.000  18.806
 2945TIP3    H133030   6.007   7.943  18.786
 2945TIP3    H233031   5.858   7.927  18.869
 2946TIP3   OH233032   5.342   7.375  18.528
 2946TIP3    H133033   5.336   7.288  18.462
 2946TIP3    H233034   5.304   7.465  18.475
 2947TIP3   OH233035   5.354   7.141  18.326
 2947TIP3    H133036   5.411   7.194  18.252
 2947TIP3    H233037   5.243   7.144  18.295
 2948TIP3   OH233038   5.506   7.832  18.324
 2948TIP3    H133039   5.602   7.895  18.314
 2948TIP3    H233040   5.432   7.902  18.274
 2949TIP3   OH233041   6.073   7.525  18.830
 2949TIP3    H133042   6.106   7.415  18.816
 2949TIP3    H233043   6.174   7.582  18.836
 2950TIP3   OH233044   6.244   7.910  18.681
 2950TIP3    H133045   6.198   7.976  18.609
 2950TIP3    H233046   6.358   7.910  18.658
 2951TIP3   OH233047   5.141   7.477  18.761
 2951TIP3    H133048   5.040   7.423  18.738
 2951TIP3    H233049   5.206   7.454  18.682
 2952TIP3   OH233050   5.465   6.844  18.332
 2952TIP3    H133051   5.430   6.956  18.341
 2952TIP3    H233052   5.364   6.797  18.304
 2953TIP3   OH233053   5.599   7.342  18.732
 2953TIP3    H133054   5.525   7.319  18.805
 2953TIP3    H233055   5.525   7.344  18.657
 2954TIP3   OH233056   5.904   7.264  18.655
 2954TIP3    H133057   5.797   7.279  18.694
 2954TIP3    H233058   5.956   7.198  18.724
 2955TIP3   OH233059   6.106   7.104  18.828
 2955TIP3    H133060   6.110   6.986  18.822
 2955TIP3    H233061   6.092   7.123  18.924
 2956TIP3   OH233062   4.888   7.242  18.761
 2956TIP3    H133063   4.858   7.146  18.711
 2956TIP3    H233064   4.862   7.208  18.854
 2957TIP3   OH233065   5.467   6.804  18.634
 2957TIP3    H133066   5.562   6.737  18.641
 2957TIP3    H233067   5.452   6.790  18.538
 2958TIP3   OH233068   5.494   6.965  18.872
 2958TIP3    H133069   5.468   6.920  18.783
 2958TIP3    H233070   5.429   7.063  18.875
 2959TIP3   OH233071   4.546   9.019  17.619
 2959TIP3    H133072   4.456   8.960  17.577
 2959TIP3    H233073   4.556   8.953  17.699
 2960TIP3   OH233074   4.658   8.764  17.816
 2960TIP3    H133075   4.576   8.690  17.849
 2960TIP3    H233076   4.736   8.766  17.889
 2961TIP3   OH233077   6.755   8.860  18.063
 2961TIP3    H133078   6.781   8.935  18.135
 2961TIP3    H233079   6.824   8.893  17.990
 2962TIP3   OH233080   6.674   8.795  18.402
 2962TIP3    H133081   6.641   8.711  18.339
 2962TIP3    H233082   6.737   8.728  18.462
 2963TIP3   OH233083   6.520   8.299  18.848
 2963TIP3    H133084   6.413   8.297  18.890
 2963TIP3    H233085   6.559   8.404  18.878
 2964TIP3   OH233086   6.658   8.112  17.371
 2964TIP3    H133087   6.755   8.179  17.382
 2964TIP3    H233088   6.666   8.048  17.452
 2965TIP3   OH233089   6.707   7.880  17.564
 2965TIP3    H133090   6.616   7.819  17.599
 2965TIP3    H233091   6.762   7.912  17.645
 2966TIP3   OH233092   6.666   8.196  18.052
 2966TIP3    H133093   6.749   8.114  18.038
 2966TIP3    H233094   6.715   8.292  18.013
 2967TIP3   OH233095   6.520   8.531  18.311
 2967TIP3    H133096   6.445   8.592  18.366
 2967TIP3    H233097   6.458   8.521  18.227
 2968TIP3   OH233098   6.712   7.819  17.254
 2968TIP3    H133099   6.660   7.898  17.199
 2968TIP3    H233100   6.758   7.892  17.320
 2969TIP3   OH233101   6.472   7.709  17.659
 2969TIP3    H133102   6.432   7.602  17.638
 2969TIP3    H233103   6.436   7.720  17.752
 2970TIP3   OH233104   4.650   7.957  18.050
 2970TIP3    H133105   4.667   7.933  17.954
 2970TIP3    H233106   4.757   7.930  18.084
 2971TIP3   OH233107   6.580   7.930  18.605
 2971TIP3    H133108   6.641   7.828  18.618
 2971TIP3    H233109   6.661   8.012  18.590
 2972TIP3   OH233110   6.706   7.634  18.622
 2972TIP3    H133111   6.595   7.594  18.629
 2972TIP3    H233112   6.770   7.541  18.647
 2973TIP3   OH233113   6.406   7.412  17.500
 2973TIP3    H133114   6.434   7.298  17.510
 2973TIP3    H233115   6.505   7.448  17.459
 2974TIP3   OH233116   6.526   7.476  18.033
 2974TIP3    H133117   6.642   7.492  18.047
 2974TIP3    H233118   6.487   7.492  18.124
 2975TIP3   OH233119   6.500   7.573  18.293
 2975TIP3    H133120   6.398   7.614  18.329
 2975TIP3    H233121   6.563   7.674  18.283
 2976TIP3   OH233122   4.636   7.387  18.664
 2976TIP3    H133123   4.735   7.338  18.698
 2976TIP3    H233124   4.565   7.294  18.660
 2977TIP3   OH233125   6.793   6.900  18.823
 2977TIP3    H133126   6.844   6.808  18.781
 2977TIP3    H233127   6.763   6.967  18.747
 2978TIP3   OH233128   6.486   7.096  17.499
 2978TIP3    H133129   6.528   7.051  17.584
 2978TIP3    H233130   6.424   7.004  17.463
 2979TIP3   OH233131   4.738   7.182  17.979
 2979TIP3    H133132   4.788   7.076  17.985
 2979TIP3    H233133   4.830   7.253  17.981
 2980TIP3   OH233134   4.584   7.543  18.062
 2980TIP3    H133135   4.658   7.525  17.987
 2980TIP3    H233136   4.632   7.640  18.094
 2981TIP3   OH233137   6.679   7.123  18.638
 2981TIP3    H133138   6.570   7.166  18.635
 2981TIP3    H233139   6.674   7.048  18.565
 2982TIP3   OH233140   6.670   7.079  17.144
 2982TIP3    H133141   6.654   7.115  17.052
 2982TIP3    H233142   6.733   7.164  17.182
 2983TIP3   OH233143   4.592   7.120  17.469
 2983TIP3    H133144   4.481   7.140  17.456
 2983TIP3    H233145   4.632   7.130  17.378
 2984TIP3   OH233146   6.370   8.866  17.621
 2984TIP3    H133147   6.468   8.833  17.575
 2984TIP3    H233148   6.412   8.924  17.698
 2985TIP3   OH233149   4.580   6.916  18.291
 2985TIP3    H133150   4.507   6.877  18.360
 2985TIP3    H233151   4.513   6.989  18.238
 2986TIP3   OH233152   4.856   8.494  18.682
 2986TIP3    H133153   4.752   8.494  18.639
 2986TIP3    H233154   4.830   8.510  18.774
 2987TIP3   OH233155   5.201   8.651  18.347
 2987TIP3    H133156   5.183   8.768  18.342
 2987TIP3    H233157   5.316   8.650  18.332
 2988TIP3   OH233158   5.718   8.765  18.604
 2988TIP3    H133159   5.710   8.746  18.701
 2988TIP3    H233160   5.815   8.831  18.599
 2989TIP3   OH233161   5.999   8.988  18.561
 2989TIP3    H133162   6.088   8.912  18.549
 2989TIP3    H233163   6.010   9.006  18.659
 2990TIP3   OH233164   6.608   6.859  18.468
 2990TIP3    H133165   6.521   6.908  18.420
 2990TIP3    H233166   6.618   6.754  18.425
 2991TIP3   OH233167   4.862   9.072  18.323
 2991TIP3    H133168   4.757   9.080  18.279
 2991TIP3    H233169   4.834   9.036  18.412
 2992TIP3   OH233170   5.150   8.958  18.278
 2992TIP3    H133171   5.050   9.016  18.302
 2992TIP3    H233172   5.162   8.989  18.185
 2993TIP3   OH233173   5.752   8.945  18.154
 2993TIP3    H133174   5.666   8.966  18.090
 2993TIP3    H233175   5.758   9.048  18.201
 2994TIP3   OH233176   5.971   8.768  18.292
 2994TIP3    H133177   5.886   8.832  18.248
 2994TIP3    H233178   6.061   8.842  18.278
 2995TIP3   OH233179   6.260   9.012  18.276
 2995TIP3    H133180   6.239   9.122  18.252
 2995TIP3    H233181   6.317   8.972  18.195
 2996TIP3   OH233182   4.835   8.776  18.043
 2996TIP3    H133183   4.822   8.712  18.127
 2996TIP3    H233184   4.937   8.735  18.008
 2997TIP3   OH233185   5.101   8.719  17.909
 2997TIP3    H133186   5.078   8.606  17.929
 2997TIP3    H233187   5.213   8.724  17.943
 2998TIP3   OH233188   5.378   8.705  18.037
 2998TIP3    H133189   5.410   8.596  18.014
 2998TIP3    H233190   5.410   8.713  18.131
 2999TIP3   OH233191   5.791   7.061  17.886
 2999TIP3    H133192   5.680   7.025  17.890
 2999TIP3    H233193   5.842   6.966  17.851
 3000TIP3   OH233194   6.427   6.787  17.879
 3000TIP3    H133195   6.510   6.858  17.839
 3000TIP3    H233196   6.331   6.842  17.850
 3001TIP3   OH233197   6.620   6.960  17.726
 3001TIP3    H133198   6.685   6.892  17.667
 3001TIP3    H233199   6.696   7.048  17.746
 3002TIP3   OH233200   4.861   6.870  17.694
 3002TIP3    H133201   4.763   6.854  17.643
 3002TIP3    H233202   4.918   6.769  17.673
 3003TIP3   OH233203   5.404   6.869  17.657
 3003TIP3    H133204   5.500   6.851  17.605
 3003TIP3    H233205   5.443   6.860  17.748
 3004TIP3   OH233206   6.112   6.841  17.788
 3004TIP3    H133207   6.114   6.934  17.731
 3004TIP3    H233208   6.166   6.756  17.737
 3005TIP3   OH233209   6.288   6.858  17.409
 3005TIP3    H133210   6.190   6.919  17.413
 3005TIP3    H233211   6.244   6.750  17.414
 3006TIP3   OH233212   4.716   8.750  17.352
 3006TIP3    H133213   4.606   8.749  17.319
 3006TIP3    H233214   4.750   8.855  17.317
 3007TIP3   OH233215   4.918   7.046  17.111
 3007TIP3    H133216   5.009   7.003  17.063
 3007TIP3    H233217   4.970   7.126  17.164
 3008TIP3   OH233218   5.566   7.099  17.318
 3008TIP3    H133219   5.604   7.064  17.404
 3008TIP3    H233220   5.560   7.214  17.334
 3009TIP3   OH233221   6.600   8.810  17.442
 3009TIP3    H133222   6.580   8.713  17.388
 3009TIP3    H233223   6.572   8.894  17.377
 3010TIP3   OH233224   4.841   6.949  18.620
 3010TIP3    H133225   4.780   6.851  18.628
 3010TIP3    H233226   4.931   6.929  18.683
 3011TIP3   OH233227   5.080   6.848  18.800
 3011TIP3    H133228   5.194   6.827  18.784
 3011TIP3    H233229   5.046   6.743  18.833
 3012TIP3   OH233230   6.096   6.774  18.793
 3012TIP3    H133231   6.077   6.701  18.867
 3012TIP3    H233232   6.212   6.757  18.777
 3013TIP3   OH233233   6.461   8.687  18.677
 3013TIP3    H133234   6.370   8.694  18.614
 3013TIP3    H233235   6.491   8.800  18.682
 3014TIP3   OH233236   8.237   7.950  17.646
 3014TIP3    H133237   8.239   8.068  17.654
 3014TIP3    H233238   8.135   7.942  17.602
 3015TIP3   OH233239   8.094   7.817  17.982
 3015TIP3    H133240   8.107   7.780  18.075
 3015TIP3    H233241   7.990   7.778  17.952
 3016TIP3   OH233242   7.153   7.820  18.157
 3016TIP3    H133243   7.170   7.736  18.223
 3016TIP3    H233244   7.240   7.895  18.176
 3017TIP3   OH233245   8.557   8.249  17.878
 3017TIP3    H133246   8.533   8.156  17.933
 3017TIP3    H233247   8.530   8.339  17.935
 3018TIP3   OH233248   7.285   8.377  18.000
 3018TIP3    H133249   7.244   8.273  17.970
 3018TIP3    H233250   7.399   8.357  17.985
 3019TIP3   OH233251   6.895   7.585  17.538
 3019TIP3    H133252   6.852   7.682  17.577
 3019TIP3    H233253   6.824   7.572  17.462
 3020TIP3   OH233254   6.972   7.868  17.811
 3020TIP3    H133255   7.020   7.760  17.821
 3020TIP3    H233256   7.032   7.918  17.739
 3021TIP3   OH233257   8.154   8.844  17.846
 3021TIP3    H133258   8.252   8.784  17.824
 3021TIP3    H233259   8.114   8.780  17.920
 3022TIP3   OH233260   7.885   8.160  18.084
 3022TIP3    H133261   7.922   8.140  17.994
 3022TIP3    H233262   7.986   8.185  18.129
 3023TIP3   OH233263   8.950   7.172  18.086
 3023TIP3    H133264   8.946   7.261  18.149
 3023TIP3    H233265   9.016   7.219  18.016
 3024TIP3   OH233266   8.306   7.482  18.103
 3024TIP3    H133267   8.351   7.373  18.115
 3024TIP3    H233268   8.305   7.486  18.006
 3025TIP3   OH233269   7.466   7.240  17.764
 3025TIP3    H133270   7.475   7.351  17.733
 3025TIP3    H233271   7.397   7.196  17.694
 3026TIP3   OH233272   8.365   7.253  17.663
 3026TIP3    H133273   8.429   7.226  17.743
 3026TIP3    H233274   8.441   7.320  17.615
 3027TIP3   OH233275   7.037   7.552  17.873
 3027TIP3    H133276   7.112   7.500  17.934
 3027TIP3    H233277   7.081   7.516  17.787
 3028TIP3   OH233278   7.631   7.764  17.833
 3028TIP3    H133279   7.730   7.710  17.857
 3028TIP3    H233280   7.589   7.680  17.773
 3029TIP3   OH233281   8.950   7.284  18.376
 3029TIP3    H133282   8.884   7.372  18.341
 3029TIP3    H233283   9.017   7.343  18.438
 3030TIP3   OH233284   7.356   7.129  18.193
 3030TIP3    H133285   7.304   7.194  18.124
 3030TIP3    H233286   7.286   7.152  18.269
 3031TIP3   OH233287   8.174   8.251  17.566
 3031TIP3    H133288   8.154   8.239  17.470
 3031TIP3    H233289   8.142   8.364  17.580
 3032TIP3   OH233290   7.606   8.065  18.188
 3032TIP3    H133291   7.552   8.155  18.231
 3032TIP3    H233292   7.694   8.117  18.139
 3033TIP3   OH233293   8.584   7.240  17.871
 3033TIP3    H133294   8.582   7.128  17.890
 3033TIP3    H233295   8.694   7.270  17.895
 3034TIP3   OH233296   7.289   7.360  17.999
 3034TIP3    H133297   7.366   7.435  18.040
 3034TIP3    H233298   7.348   7.322  17.919
 3035TIP3   OH233299   7.451   8.320  18.300
 3035TIP3    H133300   7.434   8.430  18.271
 3035TIP3    H233301   7.345   8.298  18.342
 3036TIP3   OH233302   6.950   8.243  17.382
 3036TIP3    H133303   6.979   8.305  17.304
 3036TIP3    H233304   6.956   8.323  17.453
 3037TIP3   OH233305   8.572   8.525  18.093
 3037TIP3    H133306   8.455   8.512  18.091
 3037TIP3    H233307   8.579   8.624  18.043
 3038TIP3   OH233308   8.628   7.126  18.206
 3038TIP3    H133309   8.520   7.147  18.170
 3038TIP3    H233310   8.693   7.126  18.125
 3039TIP3   OH233311   7.759   6.822  17.936
 3039TIP3    H133312   7.735   6.708  17.936
 3039TIP3    H233313   7.651   6.863  17.961
 3040TIP3   OH233314   8.392   8.660  17.752
 3040TIP3    H133315   8.417   8.566  17.701
 3040TIP3    H233316   8.462   8.737  17.706
 3041TIP3   OH233317   8.538   8.401  17.578
 3041TIP3    H133318   8.502   8.314  17.522
 3041TIP3    H233319   8.572   8.344  17.658
 3042TIP3   OH233320   8.692   8.248  18.444
 3042TIP3    H133321   8.688   8.164  18.373
 3042TIP3    H233322   8.731   8.335  18.389
 3043TIP3   OH233323   8.052   7.880  17.386
 3043TIP3    H133324   7.992   7.980  17.373
 3043TIP3    H233325   8.153   7.900  17.339
 3044TIP3   OH233326   8.874   7.802  18.214
 3044TIP3    H133327   8.809   7.901  18.221
 3044TIP3    H233328   8.969   7.844  18.166
 3045TIP3   OH233329   8.506   7.906  17.496
 3045TIP3    H133330   8.412   7.926  17.553
 3045TIP3    H233331   8.569   7.837  17.556
 3046TIP3   OH233332   8.480   7.706  18.419
 3046TIP3    H133333   8.431   7.796  18.465
 3046TIP3    H233334   8.414   7.704  18.339
 3047TIP3   OH233335   7.466   7.979  17.680
 3047TIP3    H133336   7.434   7.920  17.599
 3047TIP3    H233337   7.536   7.902  17.725
 3048TIP3   OH233338   7.627   8.380  17.941
 3048TIP3    H133339   7.652   8.412  17.849
 3048TIP3    H233340   7.726   8.336  17.978
 3049TIP3   OH233341   7.483   7.823  18.070
 3049TIP3    H133342   7.523   7.822  17.977
 3049TIP3    H233343   7.549   7.908  18.110
 3050TIP3   OH233344   8.245   8.508  18.104
 3050TIP3    H133345   8.227   8.596  18.168
 3050TIP3    H233346   8.220   8.412  18.158
 3051TIP3   OH233347   7.627   8.364  18.528
 3051TIP3    H133348   7.552   8.441  18.567
 3051TIP3    H233349   7.579   8.346  18.439
 3052TIP3   OH233350   8.345   7.816  17.284
 3052TIP3    H133351   8.419   7.838  17.359
 3052TIP3    H233352   8.404   7.864  17.209
 3053TIP3   OH233353   7.283   7.892  18.440
 3053TIP3    H133354   7.277   8.000  18.476
 3053TIP3    H233355   7.193   7.844  18.487
 3054TIP3   OH233356   8.101   8.578  17.640
 3054TIP3    H133357   8.156   8.618  17.718
 3054TIP3    H233358   8.026   8.663  17.621
 3055TIP3   OH233359   7.402   8.586  18.605
 3055TIP3    H133360   7.392   8.603  18.508
 3055TIP3    H233361   7.303   8.526  18.626
 3056TIP3   OH233362   7.338   7.841  17.453
 3056TIP3    H133363   7.286   7.939  17.425
 3056TIP3    H233364   7.272   7.760  17.409
 3057TIP3   OH233365   6.911   8.166  18.357
 3057TIP3    H133366   6.865   8.155  18.268
 3057TIP3    H233367   6.947   8.056  18.373
 3058TIP3   OH233368   6.902   8.467  17.997
 3058TIP3    H133369   7.016   8.444  18.001
 3058TIP3    H233370   6.893   8.558  18.057
 3059TIP3   OH233371   9.029   8.575  18.613
 3059TIP3    H133372   9.010   8.471  18.573
 3059TIP3    H233373   8.930   8.592  18.665
 3060TIP3   OH233374   7.943   8.476  18.471
 3060TIP3    H133375   7.963   8.580  18.512
 3060TIP3    H233376   7.831   8.453  18.496
 3061TIP3   OH233377   8.035   8.947  17.461
 3061TIP3    H133378   7.984   8.926  17.375
 3061TIP3    H233379   7.991   9.050  17.481
 3062TIP3   OH233380   7.252   8.766  17.652
 3062TIP3    H133381   7.282   8.754  17.746
 3062TIP3    H233382   7.176   8.677  17.641
 3063TIP3   OH233383   8.449   8.864  17.175
 3063TIP3    H133384   8.395   8.797  17.110
 3063TIP3    H233385   8.396   8.825  17.256
 3064TIP3   OH233386   8.311   8.798  17.420
 3064TIP3    H133387   8.213   8.854  17.449
 3064TIP3    H233388   8.315   8.707  17.481
 3065TIP3   OH233389   8.676   7.552  18.636
 3065TIP3    H133390   8.597   7.582  18.569
 3065TIP3    H233391   8.695   7.438  18.616
 3066TIP3   OH233392   7.183   8.298  18.445
 3066TIP3    H133393   7.180   8.256  18.537
 3066TIP3    H233394   7.075   8.273  18.410
 3067TIP3   OH233395   7.471   6.919  18.021
 3067TIP3    H133396   7.362   6.926  17.985
 3067TIP3    H233397   7.457   6.992  18.097
 3068TIP3   OH233398   8.063   6.874  18.353
 3068TIP3    H133399   8.096   6.830  18.440
 3068TIP3    H233400   7.945   6.882  18.363
 3069TIP3   OH233401   8.389   7.370  18.467
 3069TIP3    H133402   8.330   7.324  18.543
 3069TIP3    H233403   8.393   7.483  18.490
 3070TIP3   OH233404   8.490   7.940  17.054
 3070TIP3    H133405   8.494   7.885  16.969
 3070TIP3    H233406   8.585   8.006  17.043
 3071TIP3   OH233407   7.500   7.535  18.165
 3071TIP3    H133408   7.403   7.523  18.220
 3071TIP3    H233409   7.487   7.650  18.141
 3072TIP3   OH233410   7.492   7.535  17.659
 3072TIP3    H133411   7.376   7.531  17.640
 3072TIP3    H233412   7.535   7.513  17.569
 3073TIP3   OH233413   8.183   7.588  17.480
 3073TIP3    H133414   8.132   7.685  17.443
 3073TIP3    H233415   8.285   7.636  17.506
 3074TIP3   OH233416   8.009   7.636  18.675
 3074TIP3    H133417   7.967   7.532  18.706
 3074TIP3    H233418   8.098   7.649  18.737
 3075TIP3   OH233419   8.273   7.555  17.823
 3075TIP3    H133420   8.254   7.658  17.780
 3075TIP3    H233421   8.274   7.482  17.747
 3076TIP3   OH233422   7.217   7.525  18.283
 3076TIP3    H133423   7.243   7.571  18.369
 3076TIP3    H233424   7.169   7.423  18.309
 3077TIP3   OH233425   6.836   7.202  17.750
 3077TIP3    H133426   6.907   7.217  17.827
 3077TIP3    H233427   6.895   7.254  17.678
 3078TIP3   OH233428   6.919   7.300  17.261
 3078TIP3    H133429   7.001   7.327  17.194
 3078TIP3    H233430   6.900   7.410  17.290
 3079TIP3   OH233431   8.184   7.736  18.238
 3079TIP3    H133432   8.239   7.645  18.194
 3079TIP3    H233433   8.116   7.679  18.300
 3080TIP3   OH233434   7.828   7.182  17.742
 3080TIP3    H133435   7.711   7.182  17.732
 3080TIP3    H233436   7.840   7.237  17.827
 3081TIP3   OH233437   7.159   7.439  17.646
 3081TIP3    H133438   7.076   7.478  17.584
 3081TIP3    H233439   7.190   7.334  17.608
 3082TIP3   OH233440   7.562   7.464  17.403
 3082TIP3    H133441   7.679   7.462  17.412
 3082TIP3    H233442   7.543   7.535  17.328
 3083TIP3   OH233443   8.334   7.148  18.091
 3083TIP3    H133444   8.240   7.148  18.150
 3083TIP3    H233445   8.288   7.112  18.005
 3084TIP3   OH233446   7.457   7.603  17.117
 3084TIP3    H133447   7.403   7.568  17.035
 3084TIP3    H233448   7.564   7.622  17.079
 3085TIP3   OH233449   8.666   9.017  18.723
 3085TIP3    H133450   8.701   9.050  18.634
 3085TIP3    H233451   8.766   9.022  18.774
 3086TIP3   OH233452   7.225   8.098  18.667
 3086TIP3    H133453   7.301   8.144  18.730
 3086TIP3    H233454   7.128   8.083  18.722
 3087TIP3   OH233455   7.916   7.558  17.897
 3087TIP3    H133456   8.030   7.550  17.876
 3087TIP3    H233457   7.916   7.531  17.991
 3088TIP3   OH233458   7.259   7.142  17.570
 3088TIP3    H133459   7.204   7.050  17.610
 3088TIP3    H233460   7.308   7.096  17.491
 3089TIP3   OH233461   7.763   7.357  18.183
 3089TIP3    H133462   7.669   7.432  18.180
 3089TIP3    H233463   7.841   7.421  18.231
 3090TIP3   OH233464   7.836   8.124  17.342
 3090TIP3    H133465   7.752   8.045  17.324
 3090TIP3    H233466   7.805   8.159  17.433
 3091TIP3   OH233467   8.698   8.075  18.228
 3091TIP3    H133468   8.760   8.116  18.153
 3091TIP3    H233469   8.598   8.042  18.182
 3092TIP3   OH233470   8.016   8.162  18.483
 3092TIP3    H133471   7.985   8.130  18.572
 3092TIP3    H233472   8.000   8.279  18.487
 3093TIP3   OH233473   7.268   8.082  17.899
 3093TIP3    H133474   7.336   8.065  17.819
 3093TIP3    H233475   7.301   7.996  17.958
 3094TIP3   OH233476   8.125   8.264  17.298
 3094TIP3    H133477   8.098   8.370  17.264
 3094TIP3    H233478   8.017   8.213  17.297
 3095TIP3   OH233479   6.924   7.844  18.453
 3095TIP3    H133480   6.894   7.781  18.532
 3095TIP3    H233481   6.851   7.805  18.384
 3096TIP3   OH233482   7.727   7.805  18.650
 3096TIP3    H133483   7.680   7.733  18.584
 3096TIP3    H233484   7.840   7.770  18.649
 3097TIP3   OH233485   8.336   8.442  18.488
 3097TIP3    H133486   8.227   8.449  18.456
 3097TIP3    H233487   8.322   8.489  18.577
 3098TIP3   OH233488   8.893   7.559  17.343
 3098TIP3    H133489   8.888   7.519  17.250
 3098TIP3    H233490   8.938   7.664  17.328
 3099TIP3   OH233491   8.960   8.221  18.572
 3099TIP3    H133492   8.846   8.248  18.551
 3099TIP3    H233493   9.005   8.218  18.481
 3100TIP3   OH233494   8.738   8.522  17.320
 3100TIP3    H133495   8.695   8.513  17.411
 3100TIP3    H233496   8.646   8.480  17.270
 3101TIP3   OH233497   8.472   7.963  18.054
 3101TIP3    H133498   8.358   7.951  18.037
 3101TIP3    H233499   8.515   7.880  17.995
 3102TIP3   OH233500   7.542   8.461  17.673
 3102TIP3    H133501   7.568   8.564  17.629
 3102TIP3    H233502   7.429   8.455  17.649
 3103TIP3   OH233503   7.044   7.882  17.181
 3103TIP3    H133504   7.105   7.846  17.102
 3103TIP3    H233505   6.938   7.854  17.151
 3104TIP3   OH233506   7.718   8.200  17.599
 3104TIP3    H133507   7.666   8.303  17.613
 3104TIP3    H233508   7.648   8.128  17.647
 3105TIP3   OH233509   7.776   8.688  18.305
 3105TIP3    H133510   7.837   8.783  18.282
 3105TIP3    H233511   7.861   8.616  18.335
 3106TIP3   OH233512   7.562   8.747  17.563
 3106TIP3    H133513   7.460   8.791  17.592
 3106TIP3    H233514   7.630   8.843  17.570
 3107TIP3   OH233515   8.154   8.206  18.226
 3107TIP3    H133516   8.101   8.188  18.314
 3107TIP3    H233517   8.228   8.117  18.228
 3108TIP3   OH233518   8.479   8.363  17.170
 3108TIP3    H133519   8.501   8.285  17.242
 3108TIP3    H233520   8.365   8.347  17.170
 3109TIP3   OH233521   8.502   8.762  18.474
 3109TIP3    H133522   8.413   8.693  18.444
 3109TIP3    H233523   8.522   8.837  18.401
 3110TIP3   OH233524   9.011   8.804  17.137
 3110TIP3    H133525   9.072   8.899  17.118
 3110TIP3    H233526   8.911   8.852  17.168
 3111TIP3   OH233527   7.121   7.225  18.403
 3111TIP3    H133528   7.024   7.282  18.428
 3111TIP3    H233529   7.106   7.123  18.450
 3112TIP3   OH233530   8.569   8.176  17.361
 3112TIP3    H133531   8.534   8.070  17.392
 3112TIP3    H233532   8.683   8.168  17.383
 3113TIP3   OH233533   7.074   8.617  18.265
 3113TIP3    H133534   7.135   8.519  18.255
 3113TIP3    H233535   7.141   8.674  18.329
 3114TIP3   OH233536   8.149   7.199  18.337
 3114TIP3    H133537   8.252   7.222  18.380
 3114TIP3    H233538   8.124   7.090  18.363
 3115TIP3   OH233539   8.208   7.160  17.449
 3115TIP3    H133540   8.294   7.106  17.403
 3115TIP3    H233541   8.262   7.178  17.535
 3116TIP3   OH233542   7.876   7.357  17.486
 3116TIP3    H133543   7.979   7.409  17.501
 3116TIP3    H233544   7.856   7.306  17.571
 3117TIP3   OH233545   8.021   7.513  18.397
 3117TIP3    H133546   8.011   7.541  18.492
 3117TIP3    H233547   8.078   7.411  18.398
 3118TIP3   OH233548   7.986   6.973  17.603
 3118TIP3    H133549   7.920   7.051  17.653
 3118TIP3    H233550   8.069   7.042  17.564
 3119TIP3   OH233551   7.482   7.126  17.301
 3119TIP3    H133552   7.469   7.241  17.310
 3119TIP3    H233553   7.597   7.114  17.307
 3120TIP3   OH233554   8.674   7.238  18.528
 3120TIP3    H133555   8.572   7.259  18.482
 3120TIP3    H233556   8.750   7.252  18.455
 3121TIP3   OH233557   8.542   7.723  17.872
 3121TIP3    H133558   8.446   7.657  17.872
 3121TIP3    H233559   8.603   7.662  17.938
 3122TIP3   OH233560   7.024   7.540  17.059
 3122TIP3    H133561   7.126   7.596  17.047
 3122TIP3    H233562   7.007   7.510  16.965
 3123TIP3   OH233563   8.712   8.845  18.085
 3123TIP3    H133564   8.684   8.897  17.999
 3123TIP3    H233565   8.826   8.824  18.071
 3124TIP3   OH233566   7.160   6.894  17.962
 3124TIP3    H133567   7.165   6.880  17.864
 3124TIP3    H233568   7.138   6.784  17.991
 3125TIP3   OH233569   7.002   8.534  17.569
 3125TIP3    H133570   6.926   8.610  17.607
 3125TIP3    H233571   7.020   8.586  17.482
 3126TIP3   OH233572   6.947   8.892  18.691
 3126TIP3    H133573   7.054   8.885  18.730
 3126TIP3    H233574   6.913   8.779  18.691
 3127TIP3   OH233575   7.522   8.717  18.841
 3127TIP3    H133576   7.638   8.718  18.846
 3127TIP3    H233577   7.500   8.676  18.751
 3128TIP3   OH233578   8.273   8.575  18.733
 3128TIP3    H133579   8.230   8.471  18.759
 3128TIP3    H233580   8.369   8.580  18.789
 3129TIP3   OH233581   6.917   8.125  18.779
 3129TIP3    H133582   6.869   8.020  18.786
 3129TIP3    H233583   6.852   8.171  18.707
 3130TIP3   OH233584   7.735   8.124  18.706
 3130TIP3    H133585   7.704   8.185  18.627
 3130TIP3    H233586   7.708   8.012  18.682
 3131TIP3   OH233587   8.423   8.089  18.477
 3131TIP3    H133588   8.530   8.138  18.486
 3131TIP3    H233589   8.359   8.188  18.489
 3132TIP3   OH233590   7.080   7.776  18.769
 3132TIP3    H133591   7.186   7.728  18.761
 3132TIP3    H233592   7.100   7.847  18.846
 3133TIP3   OH233593   7.598   7.898  17.247
 3133TIP3    H133594   7.522   7.866  17.314
 3133TIP3    H233595   7.570   7.823  17.176
 3134TIP3   OH233596   7.511   7.662  18.443
 3134TIP3    H133597   7.442   7.757  18.453
 3134TIP3    H233598   7.592   7.704  18.383
 3135TIP3   OH233599   7.721   7.711  17.008
 3135TIP3    H133600   7.715   7.712  16.911
 3135TIP3    H233601   7.811   7.780  17.027
 3136TIP3   OH233602   8.147   7.999  18.799
 3136TIP3    H133603   8.225   7.956  18.735
 3136TIP3    H233604   8.128   7.904  18.854
 3137TIP3   OH233605   7.560   7.344  18.530
 3137TIP3    H133606   7.600   7.271  18.460
 3137TIP3    H233607   7.549   7.446  18.485
 3138TIP3   OH233608   7.633   7.136  18.326
 3138TIP3    H133609   7.688   7.195  18.252
 3138TIP3    H233610   7.524   7.133  18.291
 3139TIP3   OH233611   7.769   7.844  18.328
 3139TIP3    H133612   7.871   7.898  18.321
 3139TIP3    H233613   7.699   7.921  18.282
 3140TIP3   OH233614   8.363   7.510  18.826
 3140TIP3    H133615   8.431   7.417  18.819
 3140TIP3    H233616   8.434   7.589  18.863
 3141TIP3   OH233617   8.467   7.907  18.694
 3141TIP3    H133618   8.448   7.970  18.613
 3141TIP3    H233619   8.580   7.878  18.681
 3142TIP3   OH233620   7.393   7.478  18.749
 3142TIP3    H133621   7.290   7.421  18.746
 3142TIP3    H233622   7.445   7.440  18.667
 3143TIP3   OH233623   7.738   6.841  18.332
 3143TIP3    H133624   7.702   6.954  18.336
 3143TIP3    H233625   7.637   6.790  18.305
 3144TIP3   OH233626   7.858   7.344  18.750
 3144TIP3    H133627   7.793   7.321  18.830
 3144TIP3    H233628   7.786   7.314  18.680
 3145TIP3   OH233629   8.182   7.252  18.663
 3145TIP3    H133630   8.069   7.252  18.691
 3145TIP3    H233631   8.234   7.205  18.741
 3146TIP3   OH233632   8.404   7.114  18.828
 3146TIP3    H133633   8.396   6.996  18.822
 3146TIP3    H233634   8.381   7.135  18.922
 3147TIP3   OH233635   7.145   7.247  18.758
 3147TIP3    H133636   7.133   7.153  18.700
 3147TIP3    H233637   7.129   7.201  18.848
 3148TIP3   OH233638   7.688   6.798  18.598
 3148TIP3    H133639   7.786   6.742  18.625
 3148TIP3    H233640   7.703   6.800  18.501
 3149TIP3   OH233641   7.771   7.004  18.858
 3149TIP3    H133642   7.708   6.925  18.810
 3149TIP3    H233643   7.687   7.080  18.885
 3150TIP3   OH233644   6.797   8.981  17.603
 3150TIP3    H133645   6.718   8.933  17.543
 3150TIP3    H233646   6.785   8.910  17.679
 3151TIP3   OH233647   6.899   8.747  17.803
 3151TIP3    H133648   6.824   8.675  17.849
 3151TIP3    H233649   6.989   8.749  17.867
 3152TIP3   OH233650   9.050   8.822  18.084
 3152TIP3    H133651   9.078   8.851  18.175
 3152TIP3    H233652   9.036   8.930  18.049
 3153TIP3   OH233653   8.952   8.792  18.386
 3153TIP3    H133654   8.890   8.712  18.336
 3153TIP3    H233655   9.024   8.722  18.434
 3154TIP3   OH233656   8.736   8.323  18.849
 3154TIP3    H133657   8.648   8.339  18.914
 3154TIP3    H233658   8.801   8.418  18.864
 3155TIP3   OH233659   8.880   8.094  17.412
 3155TIP3    H133660   8.983   8.143  17.430
 3155TIP3    H233661   8.885   7.999  17.471
 3156TIP3   OH233662   8.965   7.864  17.583
 3156TIP3    H133663   8.854   7.831  17.596
 3156TIP3    H233664   9.002   7.871  17.675
 3157TIP3   OH233665   8.965   8.171  18.079
 3157TIP3    H133666   9.071   8.150  18.040
 3157TIP3    H233667   8.959   8.284  18.050
 3158TIP3   OH233668   8.774   8.542  18.306
 3158TIP3    H133669   8.682   8.581  18.356
 3158TIP3    H233670   8.729   8.534  18.216
 3159TIP3   OH233671   8.822   7.502  17.075
 3159TIP3    H133672   8.761   7.586  17.032
 3159TIP3    H233673   8.758   7.406  17.057
 3160TIP3   OH233674   8.688   7.700  17.635
 3160TIP3    H133675   8.671   7.589  17.605
 3160TIP3    H233676   8.652   7.696  17.729
 3161TIP3   OH233677   6.904   7.966  18.054
 3161TIP3    H133678   6.914   7.937  17.958
 3161TIP3    H233679   7.009   7.922  18.084
 3162TIP3   OH233680   8.808   7.930  18.617
 3162TIP3    H133681   8.885   7.844  18.594
 3162TIP3    H233682   8.868   8.027  18.594
 3163TIP3   OH233683   8.983   7.669  18.632
 3163TIP3    H133684   8.867   7.655  18.648
 3163TIP3    H233685   9.016   7.556  18.651
 3164TIP3   OH233686   8.627   7.240  17.033
 3164TIP3    H133687   8.696   7.152  17.062
 3164TIP3    H233688   8.617   7.208  16.940
 3165TIP3   OH233689   8.682   7.411  17.504
 3165TIP3    H133690   8.684   7.295  17.489
 3165TIP3    H233691   8.758   7.451  17.435
 3166TIP3   OH233692   8.677   7.517  18.041
 3166TIP3    H133693   8.792   7.500  18.027
 3166TIP3    H233694   8.670   7.499  18.137
 3167TIP3   OH233695   8.742   7.544  18.326
 3167TIP3    H133696   8.638   7.592  18.349
 3167TIP3    H233697   8.790   7.636  18.279
 3168TIP3   OH233698   6.872   7.373  18.657
 3168TIP3    H133699   6.971   7.356  18.707
 3168TIP3    H233700   6.815   7.271  18.670
 3169TIP3   OH233701   8.996   6.820  18.832
 3169TIP3    H133702   9.061   6.752  18.775
 3169TIP3    H233703   8.984   6.916  18.775
 3170TIP3   OH233704   8.688   7.087  17.486
 3170TIP3    H133705   8.713   7.032  17.570
 3170TIP3    H233706   8.724   7.008  17.420
 3171TIP3   OH233707   7.007   7.176  18.009
 3171TIP3    H133708   7.051   7.067  18.005
 3171TIP3    H233709   7.104   7.242  18.010
 3172TIP3   OH233710   6.830   7.544  18.075
 3172TIP3    H133711   6.887   7.523  17.992
 3172TIP3    H233712   6.887   7.642  18.102
 3173TIP3   OH233713   8.933   7.079  18.693
 3173TIP3    H133714   8.839   7.147  18.719
 3173TIP3    H233715   8.902   7.046  18.604
 3174TIP3   OH233716   6.814   7.070  17.436
 3174TIP3    H133717   6.704   7.108  17.455
 3174TIP3    H233718   6.851   7.148  17.371
 3175TIP3   OH233719   8.582   8.862  17.627
 3175TIP3    H133720   8.663   8.864  17.555
 3175TIP3    H233721   8.638   8.916  17.700
 3176TIP3   OH233722   6.848   6.910  18.289
 3176TIP3    H133723   6.780   6.881  18.364
 3176TIP3    H233724   6.788   6.994  18.243
 3177TIP3   OH233725   7.110   8.472  18.689
 3177TIP3    H133726   7.007   8.467  18.645
 3177TIP3    H233727   7.082   8.497  18.780
 3178TIP3   OH233728   7.458   8.646  18.349
 3178TIP3    H133729   7.452   8.761  18.327
 3178TIP3    H233730   7.576   8.641  18.360
 3179TIP3   OH233731   8.000   8.764  18.597
 3179TIP3    H133732   7.980   8.744  18.692
 3179TIP3    H233733   8.093   8.836  18.601
 3180TIP3   OH233734   8.264   8.986  18.556
 3180TIP3    H133735   8.353   8.920  18.525
 3180TIP3    H233736   8.292   8.990  18.652
 3181TIP3   OH233737   8.824   6.856  18.487
 3181TIP3    H133738   8.729   6.900  18.443
 3181TIP3    H233739   8.834   6.751  18.443
 3182TIP3   OH233740   7.122   9.036  18.318
 3182TIP3    H133741   7.014   9.036  18.279
 3182TIP3    H233742   7.094   9.028  18.412
 3183TIP3   OH233743   7.424   8.947  18.271
 3183TIP3    H133744   7.319   8.995  18.294
 3183TIP3    H233745   7.442   8.996  18.184
 3184TIP3   OH233746   8.008   8.938  18.150
 3184TIP3    H133747   7.926   8.966  18.082
 3184TIP3    H233748   8.015   9.038  18.200
 3185TIP3   OH233749   8.244   8.766  18.276
 3185TIP3    H133750   8.158   8.833  18.242
 3185TIP3    H233751   8.335   8.836  18.258
 3186TIP3   OH233752   8.551   9.036  18.262
 3186TIP3    H133753   8.539   9.138  18.214
 3186TIP3    H233754   8.611   8.970  18.196
 3187TIP3   OH233755   7.096   8.779  18.018
 3187TIP3    H133756   7.078   8.719  18.101
 3187TIP3    H233757   7.201   8.737  17.989
 3188TIP3   OH233758   7.366   8.706  17.894
 3188TIP3    H133759   7.360   8.590  17.907
 3188TIP3    H233760   7.474   8.725  17.931
 3189TIP3   OH233761   7.636   8.701  18.031
 3189TIP3    H133762   7.666   8.588  18.020
 3189TIP3    H233763   7.648   8.718  18.127
 3190TIP3   OH233764   8.166   7.021  17.870
 3190TIP3    H133765   8.082   6.996  17.933
 3190TIP3    H233766   8.105   7.036  17.788
 3191TIP3   OH233767   8.640   6.798  17.906
 3191TIP3    H133768   8.713   6.859  17.847
 3191TIP3    H233769   8.564   6.761  17.841
 3192TIP3   OH233770   8.816   6.984  17.732
 3192TIP3    H133771   8.891   6.904  17.695
 3192TIP3    H233772   8.896   7.064  17.761
 3193TIP3   OH233773   7.150   6.864  17.684
 3193TIP3    H133774   7.046   6.863  17.640
 3193TIP3    H233775   7.189   6.755  17.664
 3194TIP3   OH233776   6.978   6.853  17.238
 3194TIP3    H133777   6.928   6.930  17.177
 3194TIP3    H233778   6.920   6.881  17.319
 3195TIP3   OH233779   7.627   6.827  17.663
 3195TIP3    H133780   7.709   6.877  17.607
 3195TIP3    H233781   7.667   6.844  17.753
 3196TIP3   OH233782   7.010   8.753  17.366
 3196TIP3    H133783   6.912   8.741  17.315
 3196TIP3    H233784   7.062   8.839  17.317
 3197TIP3   OH233785   7.828   7.068  17.338
 3197TIP3    H133786   7.891   7.009  17.403
 3197TIP3    H233787   7.840   7.178  17.369
 3198TIP3   OH233788   8.833   8.831  17.464
 3198TIP3    H133789   8.819   8.722  17.429
 3198TIP3    H233790   8.830   8.891  17.380
 3199TIP3   OH233791   7.079   6.949  18.584
 3199TIP3    H133792   7.026   6.847  18.603
 3199TIP3    H233793   7.166   6.936  18.651
 3200TIP3   OH233794   7.306   6.852  18.745
 3200TIP3    H133795   7.409   6.838  18.703
 3200TIP3    H233796   7.336   6.817  18.836
 3201TIP3   OH233797   8.381   6.784  18.810
 3201TIP3    H133798   8.372   6.736  18.899
 3201TIP3    H233799   8.482   6.734  18.779
 3202TIP3   OH233800   8.732   8.682  18.671
 3202TIP3    H133801   8.651   8.708  18.604
 3202TIP3    H233802   8.761   8.788  18.703
 3203TIP3   OH233803   9.098   7.552  17.556
 3203TIP3    H133804   9.059   7.662  17.560
 3203TIP3    H233805   9.042   7.517  17.476
 3204TIP3   OH233806   9.082   8.120  18.339
 3204TIP3    H133807   9.028   8.108  18.252
 3204TIP3    H233808   9.092   8.009  18.371
 3205TIP3   OH233809   9.064   8.450  18.009
 3205TIP3    H133810   9.174   8.452  17.975
 3205TIP3    H233811   9.064   8.548  18.063
 3206TIP3   OH233812   9.060   7.204  17.743
 3206TIP3    H133813   9.144   7.286  17.735
 3206TIP3    H233814   9.037   7.183  17.648
 3207TIP3   OH233815   9.101   7.820  18.419
 3207TIP3    H133816   9.092   7.754  18.500
 3207TIP3    H233817   9.006   7.787  18.370
 3208TIP3   OH233818   9.144   8.081  18.752
 3208TIP3    H133819   9.127   7.967  18.742
 3208TIP3    H233820   9.062   8.128  18.691
 3209TIP3   OH233821   8.988   9.014  17.659
 3209TIP3    H133822   8.911   8.972  17.593
 3209TIP3    H233823   9.001   8.918  17.715
 3210TIP3   OH233824   9.062   8.747  17.795
 3210TIP3    H133825   9.011   8.653  17.834
 3210TIP3    H233826   9.162   8.748  17.847
 3211TIP3   OH233827   9.144   7.876  18.085
 3211TIP3    H133828   9.134   7.889  17.989
 3211TIP3    H233829   9.241   7.939  18.099
 3212TIP3   OH233830   9.049   7.368  18.658
 3212TIP3    H133831   9.166   7.361  18.646
 3212TIP3    H233832   9.023   7.255  18.671
 3213TIP3   OH233833   8.999   7.500  18.039
 3213TIP3    H133834   9.116   7.493  18.033
 3213TIP3    H233835   8.987   7.610  18.066
 3214TIP3   OH233836   9.036   7.096  17.488
 3214TIP3    H133837   8.933   7.146  17.471
 3214TIP3    H233838   9.056   7.044  17.402
 3215TIP3   OH233839   8.975   6.878  18.247
 3215TIP3    H133840   8.950   6.906  18.340
 3215TIP3    H233841   8.941   6.974  18.197
 3216TIP3   OH233842   0.959   9.022  18.003
 3216TIP3    H133843   0.954   8.958  17.920
 3216TIP3    H233844   0.845   9.055  18.014
 3217TIP3   OH233845   2.057   8.981  17.258
 3217TIP3    H133846   1.943   8.993  17.243
 3217TIP3    H233847   2.089   9.092  17.247
 3218TIP3   OH233848   0.688  -0.046  18.040
 3218TIP3    H133849   0.575  -0.061  18.011
 3218TIP3    H233850   0.703   0.071  18.037
 3219TIP3   OH233851   1.286   9.098  18.364
 3219TIP3    H133852   1.379   9.066  18.419
 3219TIP3    H233853   1.205   9.025  18.398
 3220TIP3   OH233854   0.383   9.106  17.968
 3220TIP3    H133855   0.365   9.095  17.870
 3220TIP3    H233856   0.338   9.001  17.997
 3221TIP3   OH233857   0.947   9.000  18.338
 3221TIP3    H133858   0.935   9.115  18.323
 3221TIP3    H233859   0.870   8.956  18.275
 3222TIP3   OH233860   0.896   8.977  18.605
 3222TIP3    H133861   0.971   8.908  18.650
 3222TIP3    H233862   0.924   8.962  18.510
 3223TIP3   OH233863   2.154   9.036  18.769
 3223TIP3    H133864   2.255   8.999  18.727
 3223TIP3    H233865   2.201   9.114  18.831
 3224TIP3   OH233866   0.059   9.119  18.277
 3224TIP3    H133867  -0.018   9.174  18.332
 3224TIP3    H233868   0.083   9.202  18.212
 3225TIP3   OH233869   1.994   9.071  18.443
 3225TIP3    H133870   1.919   9.042  18.372
 3225TIP3    H233871   2.062   8.974  18.446
 3226TIP3   OH233872   1.897   9.030  17.879
 3226TIP3    H133873   1.913   9.144  17.899
 3226TIP3    H233874   1.788   9.037  17.846
 3227TIP3   OH233875   0.323   9.058  17.706
 3227TIP3    H133876   0.226   9.034  17.654
 3227TIP3    H233877   0.396   8.980  17.665
 3228TIP3   OH233878   0.245   9.034  17.228
 3228TIP3    H133879   0.274   9.149  17.225
 3228TIP3    H233880   0.163   9.042  17.296
 3229TIP3   OH233881   0.876   9.013  17.708
 3229TIP3    H133882   0.946   9.074  17.651
 3229TIP3    H233883   0.787   9.088  17.720
 3230TIP3   OH233884   1.546   9.034  17.810
 3230TIP3    H133885   1.469   9.034  17.737
 3230TIP3    H233886   1.500   8.956  17.869
 3231TIP3   OH233887   1.670   9.053  17.363
 3231TIP3    H133888   1.622   9.067  17.276
 3231TIP3    H233889   1.630   8.950  17.392
 3232TIP3   OH233890   0.524   9.017  18.727
 3232TIP3    H133891   0.623   8.981  18.685
 3232TIP3    H233892   0.509   8.935  18.797
 3233TIP3   OH233893   1.584   8.927  18.807
 3233TIP3    H133894   1.607   8.897  18.900
 3233TIP3    H233895   1.694   8.944  18.775
 3234TIP3   OH233896   3.251   9.018  18.004
 3234TIP3    H133897   3.239   8.939  17.933
 3234TIP3    H233898   3.137   9.040  18.024
 3235TIP3   OH233899   4.246   8.981  17.268
 3235TIP3    H133900   4.136   8.992  17.301
 3235TIP3    H233901   4.276   9.092  17.255
 3236TIP3   OH233902   2.952   9.138  18.050
 3236TIP3    H133903   2.838   9.122  18.025
 3236TIP3    H233904   2.963   9.256  18.041
 3237TIP3   OH233905   3.539   9.110  18.377
 3237TIP3    H133906   3.624   9.059  18.431
 3237TIP3    H233907   3.448   9.043  18.401
 3238TIP3   OH233908   2.635   9.088  17.956
 3238TIP3    H133909   2.626   9.079  17.859
 3238TIP3    H233910   2.604   8.977  17.983
 3239TIP3   OH233911   3.221   9.000  18.354
 3239TIP3    H133912   3.222   9.118  18.342
 3239TIP3    H233913   3.120   8.974  18.308
 3240TIP3   OH233914   3.144   8.966  18.612
 3240TIP3    H133915   3.239   8.928  18.659
 3240TIP3    H233916   3.180   8.957  18.519
 3241TIP3   OH233917   4.417   9.035  18.783
 3241TIP3    H133918   4.519   8.988  18.755
 3241TIP3    H233919   4.452   9.139  18.817
 3242TIP3   OH233920   2.298   9.084  18.275
 3242TIP3    H133921   2.207   9.091  18.335
 3242TIP3    H233922   2.318   9.197  18.252
 3243TIP3   OH233923   4.255   9.078  18.459
 3243TIP3    H133924   4.189   9.052  18.381
 3243TIP3    H233925   4.304   8.974  18.477
 3244TIP3   OH233926   4.168   9.023  17.870
 3244TIP3    H133927   4.216   9.128  17.882
 3244TIP3    H233928   4.055   9.055  17.872
 3245TIP3   OH233929   2.582   9.047  17.689
 3245TIP3    H133930   2.477   9.030  17.648
 3245TIP3    H233931   2.641   8.954  17.651
 3246TIP3   OH233932   3.178   9.018  17.708
 3246TIP3    H133933   3.236   9.110  17.677
 3246TIP3    H233934   3.071   9.062  17.712
 3247TIP3   OH233935   3.852   9.074  17.778
 3247TIP3    H133936   3.786   9.090  17.700
 3247TIP3    H233937   3.794   8.983  17.820
 3248TIP3   OH233938   3.953   9.088  17.348
 3248TIP3    H133939   3.880   9.042  17.282
 3248TIP3    H233940   3.932   9.012  17.421
 3249TIP3   OH233941   2.819   9.013  18.704
 3249TIP3    H133942   2.920   8.953  18.694
 3249TIP3    H233943   2.774   8.964  18.785
 3250TIP3   OH233944   3.848   8.934  18.815
 3250TIP3    H133945   3.866   8.908  18.909
 3250TIP3    H233946   3.960   8.944  18.784
 3251TIP3   OH233947   5.501   9.042  18.013
 3251TIP3    H133948   5.489   8.959  17.945
 3251TIP3    H233949   5.389   9.052  18.042
 3252TIP3   OH233950   6.536   9.023  17.255
 3252TIP3    H133951   6.425   9.053  17.272
 3252TIP3    H233952   6.584   9.130  17.268
 3253TIP3   OH233953   5.203   9.146  18.047
 3253TIP3    H133954   5.088   9.142  18.023
 3253TIP3    H233955   5.221   9.263  18.049
 3254TIP3   OH233956   5.801   9.118  18.382
 3254TIP3    H133957   5.888   9.073  18.438
 3254TIP3    H233958   5.716   9.042  18.407
 3255TIP3   OH233959   4.891   9.090  17.973
 3255TIP3    H133960   4.891   9.071  17.876
 3255TIP3    H233961   4.870   8.981  18.005
 3256TIP3   OH233962   5.482   9.013  18.353
 3256TIP3    H133963   5.474   9.127  18.329
 3256TIP3    H233964   5.376   8.975  18.325
 3257TIP3   OH233965   5.406   8.975  18.605
 3257TIP3    H133966   5.483   8.905  18.649
 3257TIP3    H233967   5.449   8.978  18.514
 3258TIP3   OH233968   6.671   9.032  18.774
 3258TIP3    H133969   6.772   9.000  18.729
 3258TIP3    H233970   6.715   9.112  18.835
 3259TIP3   OH233971   4.542   9.098  18.262
 3259TIP3    H133972   4.468   9.106  18.337
 3259TIP3    H233973   4.566   9.212  18.243
 3260TIP3   OH233974   6.522   9.077  18.448
 3260TIP3    H133975   6.444   9.060  18.376
 3260TIP3    H233976   6.580   8.974  18.444
 3261TIP3   OH233977   6.440   9.010  17.862
 3261TIP3    H133978   6.461   9.125  17.866
 3261TIP3    H233979   6.324   9.017  17.850
 3262TIP3   OH233980   4.860   9.026  17.701
 3262TIP3    H133981   4.756   9.024  17.654
 3262TIP3    H233982   4.906   8.923  17.671
 3263TIP3   OH233983   4.710   9.055  17.263
 3263TIP3    H133984   4.760   9.150  17.228
 3263TIP3    H233985   4.636   9.088  17.331
 3264TIP3   OH233986   5.410   9.001  17.712
 3264TIP3    H133987   5.460   9.083  17.654
 3264TIP3    H233988   5.328   9.068  17.750
 3265TIP3   OH233989   6.110   9.064  17.774
 3265TIP3    H133990   6.055   9.089  17.691
 3265TIP3    H233991   6.038   8.981  17.812
 3266TIP3   OH233992   6.220   9.090  17.345
 3266TIP3    H133993   6.161   9.034  17.273
 3266TIP3    H233994   6.197   9.023  17.421
 3267TIP3   OH233995   5.076   9.016  18.701
 3267TIP3    H133996   5.171   8.951  18.682
 3267TIP3    H233997   5.028   8.958  18.776
 3268TIP3   OH233998   6.101   8.958  18.810
 3268TIP3    H133999   6.121   8.922  18.902
 3268TIP3    H234000   6.211   8.954  18.775
 3269TIP3   OH234001   7.758   9.026  18.011
 3269TIP3    H134002   7.747   8.933  17.953
 3269TIP3    H234003   7.645   9.050  18.034
 3270TIP3   OH234004   8.785   8.990  17.241
 3270TIP3    H134005   8.670   8.978  17.247
 3270TIP3    H234006   8.797   9.108  17.248
 3271TIP3   OH234007   7.458   9.142  18.057
 3271TIP3    H134008   7.356   9.122  18.010
 3271TIP3    H234009   7.466   9.259  18.048
 3272TIP3   OH234010   8.071   9.104  18.376
 3272TIP3    H134011   8.153   9.065  18.440
 3272TIP3    H234012   7.988   9.025  18.391
 3273TIP3   OH234013   7.166   9.082  17.938
 3273TIP3    H134014   7.139   9.072  17.843
 3273TIP3    H234015   7.133   8.977  17.973
 3274TIP3   OH234016   7.762   9.018  18.352
 3274TIP3    H134017   7.751   9.134  18.334
 3274TIP3    H234018   7.654   8.981  18.331
 3275TIP3   OH234019   7.693   8.982  18.610
 3275TIP3    H134020   7.772   8.926  18.662
 3275TIP3    H234021   7.738   8.975  18.519
 3276TIP3   OH234022   9.012   9.006  18.800
 3276TIP3    H134023   9.112   8.990  18.751
 3276TIP3    H234024   9.040   9.094  18.860
 3277TIP3   OH234025   6.803   9.084  18.264
 3277TIP3    H134026   6.728   9.089  18.339
 3277TIP3    H234027   6.821   9.199  18.246
 3278TIP3   OH234028   8.780   9.061  18.454
 3278TIP3    H134029   8.710   9.064  18.376
 3278TIP3    H234030   8.828   8.953  18.444
 3279TIP3   OH234031   8.665   9.017  17.865
 3279TIP3    H134032   8.726   9.118  17.864
 3279TIP3    H234033   8.560   9.055  17.836
 3280TIP3   OH234034   7.108   9.050  17.667
 3280TIP3    H134035   7.000   9.025  17.633
 3280TIP3    H234036   7.164   8.952  17.641
 3281TIP3   OH234037   7.655   9.023  17.676
 3281TIP3    H134038   7.696   9.124  17.640
 3281TIP3    H234039   7.588   9.062  17.746
 3282TIP3   OH234040   8.370   9.073  17.744
 3282TIP3    H134041   8.387   9.031  17.654
 3282TIP3    H234042   8.294   8.995  17.782
 3283TIP3   OH234043   8.485   9.100  17.378
 3283TIP3    H134044   8.490   9.077  17.283
 3283TIP3    H234045   8.443   8.998  17.410
 3284TIP3   OH234046   7.339   9.023  18.698
 3284TIP3    H134047   7.427   8.950  18.677
 3284TIP3    H234048   7.292   8.969  18.776
 3285TIP3   OH234049   8.378   8.938  18.801
 3285TIP3    H134050   8.390   8.918  18.898
 3285TIP3    H234051   8.491   8.935  18.776
 3286TIP3   OH234052   8.935   9.098  18.200
 3286TIP3    H134053   8.939   9.109  18.296
 3286TIP3    H234054   8.966   9.205  18.173
 3287TIP3   OH234055   1.477   1.196  19.532
 3287TIP3    H134056   1.460   1.312  19.537
 3287TIP3    H234057   1.368   1.154  19.533
 3288TIP3   OH234058   1.243   1.157  19.944
 3288TIP3    H134059   1.273   1.063  19.999
 3288TIP3    H234060   1.256   1.111  19.855
 3289TIP3   OH234061   1.679   1.424  19.704
 3289TIP3    H134062   1.638   1.336  19.759
 3289TIP3    H234063   1.722   1.500  19.770
 3290TIP3   OH234064   0.468   1.579  19.840
 3290TIP3    H134065   0.455   1.466  19.814
 3290TIP3    H234066   0.582   1.578  19.862
 3291TIP3   OH234067   0.150   0.779  19.366
 3291TIP3    H134068   0.131   0.877  19.415
 3291TIP3    H234069   0.052   0.725  19.392
 3292TIP3   OH234070   0.128   1.079  19.664
 3292TIP3    H134071   0.196   0.988  19.692
 3292TIP3    H234072   0.204   1.134  19.605
 3293TIP3   OH234073   1.399   2.102  19.775
 3293TIP3    H134074   1.477   2.047  19.717
 3293TIP3    H234075   1.351   2.009  19.815
 3294TIP3   OH234076   1.129   1.472  19.964
 3294TIP3    H134077   1.145   1.369  19.918
 3294TIP3    H234078   1.211   1.459  20.033
 3295TIP3   OH234079   1.418   0.661  19.943
 3295TIP3    H134080   1.526   0.707  19.953
 3295TIP3    H234081   1.378   0.724  19.868
 3296TIP3   OH234082   0.704   0.479  19.677
 3296TIP3    H134083   0.732   0.571  19.620
 3296TIP3    H234084   0.641   0.414  19.613
 3297TIP3   OH234085   1.620   0.463  19.486
 3297TIP3    H134086   1.694   0.427  19.555
 3297TIP3    H234087   1.616   0.577  19.510
 3298TIP3   OH234088   0.287   0.799  19.714
 3298TIP3    H134089   0.344   0.724  19.769
 3298TIP3    H234090   0.286   0.739  19.630
 3299TIP3   OH234091   0.814   0.950  19.710
 3299TIP3    H134092   0.914   0.898  19.732
 3299TIP3    H234093   0.779   0.882  19.635
 3300TIP3   OH234094   1.379   1.502  19.423
 3300TIP3    H134095   1.354   1.470  19.332
 3300TIP3    H234096   1.349   1.616  19.422
 3301TIP3   OH234097   1.808   0.392  19.696
 3301TIP3    H134098   1.814   0.386  19.794
 3301TIP3    H234099   1.871   0.491  19.690
 3302TIP3   OH234100   0.485   0.580  19.871
 3302TIP3    H134101   0.528   0.686  19.882
 3302TIP3    H234102   0.548   0.536  19.797
 3303TIP3   OH234103   0.143   1.451  19.257
 3303TIP3    H134104   0.134   1.519  19.177
 3303TIP3    H234105   0.174   1.530  19.325
 3304TIP3   OH234106   1.818   1.624  19.876
 3304TIP3    H134107   1.742   1.567  19.934
 3304TIP3    H234108   1.870   1.693  19.941
 3305TIP3   OH234109   1.001   0.095  19.788
 3305TIP3    H134110   1.024  -0.018  19.807
 3305TIP3    H234111   0.907   0.112  19.846
 3306TIP3   OH234112   1.570   1.908  19.615
 3306TIP3    H134113   1.610   1.805  19.584
 3306TIP3    H234114   1.669   1.972  19.607
 3307TIP3   OH234115   1.746   1.660  19.496
 3307TIP3    H134116   1.706   1.590  19.425
 3307TIP3    H234117   1.748   1.585  19.571
 3308TIP3   OH234118   1.267   1.088  19.304
 3308TIP3    H134119   1.206   1.188  19.291
 3308TIP3    H234120   1.373   1.120  19.272
 3309TIP3   OH234121   1.285   0.990  18.976
 3309TIP3    H134122   1.356   1.038  19.044
 3309TIP3    H234123   1.304   0.877  18.992
 3310TIP3   OH234124   1.732   1.070  19.379
 3310TIP3    H134125   1.650   1.115  19.440
 3310TIP3    H234126   1.804   1.018  19.442
 3311TIP3   OH234127   0.685   1.198  19.565
 3311TIP3    H134128   0.629   1.144  19.492
 3311TIP3    H234129   0.740   1.112  19.613
 3312TIP3   OH234130   0.878   1.648  19.837
 3312TIP3    H134131   0.866   1.602  19.749
 3312TIP3    H234132   0.965   1.584  19.877
 3313TIP3   OH234133   0.654   1.045  19.927
 3313TIP3    H134134   0.701   1.009  19.843
 3313TIP3    H234135   0.748   1.050  19.984
 3314TIP3   OH234136   1.546   1.056  19.149
 3314TIP3    H134137   1.612   1.058  19.231
 3314TIP3    H234138   1.620   1.099  19.081
 3315TIP3   OH234139   1.295   1.813  19.452
 3315TIP3    H134140   1.362   1.854  19.524
 3315TIP3    H234141   1.234   1.907  19.425
 3316TIP3   OH234142   2.017   0.092  19.154
 3316TIP3    H134143   1.912   0.132  19.180
 3316TIP3    H234144   2.063   0.192  19.119
 3317TIP3   OH234145   0.508   1.066  19.341
 3317TIP3    H134146   0.497   1.168  19.291
 3317TIP3    H234147   0.498   0.989  19.270
 3318TIP3   OH234148   2.138   1.732  18.994
 3318TIP3    H134149   2.173   1.842  19.007
 3318TIP3    H234150   2.242   1.676  19.006
 3319TIP3   OH234151   0.162   1.742  19.875
 3319TIP3    H134152   0.250   1.664  19.879
 3319TIP3    H234153   0.188   1.808  19.951
 3320TIP3   OH234154   1.247   2.141  19.336
 3320TIP3    H134155   1.243   2.152  19.238
 3320TIP3    H234156   1.217   2.251  19.363
 3321TIP3   OH234157   0.484   2.014  19.515
 3321TIP3    H134158   0.510   1.973  19.605
 3321TIP3    H234159   0.371   1.986  19.510
 3322TIP3   OH234160   1.596   2.072  19.032
 3322TIP3    H134161   1.656   1.980  18.996
 3322TIP3    H234162   1.600   2.052  19.129
 3323TIP3   OH234163   1.559   2.068  19.302
 3323TIP3    H134164   1.445   2.089  19.321
 3323TIP3    H234165   1.578   1.980  19.362
 3324TIP3   OH234166   0.733   0.199  19.927
 3324TIP3    H134167   0.631   0.248  19.903
 3324TIP3    H234168   0.797   0.296  19.943
 3325TIP3   OH234169   1.750   1.192  18.967
 3325TIP3    H134170   1.728   1.208  18.872
 3325TIP3    H234171   1.866   1.204  18.968
 3326TIP3   OH234172   1.204   0.413  18.999
 3326TIP3    H134173   1.146   0.361  19.073
 3326TIP3    H234174   1.165   0.350  18.925
 3327TIP3   OH234175   0.701   0.744  19.536
 3327TIP3    H134176   0.588   0.715  19.521
 3327TIP3    H234177   0.752   0.713  19.451
 3328TIP3   OH234178   1.397   0.802  19.366
 3328TIP3    H134179   1.352   0.904  19.337
 3328TIP3    H234180   1.472   0.774  19.295
 3329TIP3   OH234181   1.607   0.709  19.653
 3329TIP3    H134182   1.520   0.788  19.637
 3329TIP3    H234183   1.544   0.622  19.691
 3330TIP3   OH234184   0.797   0.443  18.874
 3330TIP3    H134185   0.761   0.404  18.962
 3330TIP3    H234186   0.700   0.493  18.842
 3331TIP3   OH234187   0.088   0.516  19.633
 3331TIP3    H134188   0.138   0.481  19.717
 3331TIP3    H234189   0.136   0.440  19.571
 3332TIP3   OH234190   0.162   0.508  19.153
 3332TIP3    H134191   0.214   0.566  19.078
 3332TIP3    H234192   0.106   0.595  19.196
 3333TIP3   OH234193   1.051   0.467  19.624
 3333TIP3    H134194   0.954   0.452  19.676
 3333TIP3    H234195   1.128   0.434  19.694
 3334TIP3   OH234196   0.394   0.620  19.506
 3334TIP3    H134197   0.318   0.653  19.437
 3334TIP3    H234198   0.420   0.512  19.475
 3335TIP3   OH234199   0.835   0.662  19.302
 3335TIP3    H134200   0.952   0.671  19.311
 3335TIP3    H234201   0.806   0.737  19.233
 3336TIP3   OH234202   1.514   0.312  19.938
 3336TIP3    H134203   1.502   0.421  19.973
 3336TIP3    H234204   1.406   0.299  19.903
 3337TIP3   OH234205   0.678   0.857  19.016
 3337TIP3    H134206   0.629   0.768  18.969
 3337TIP3    H234207   0.781   0.870  18.972
 3338TIP3   OH234208   1.081   0.724  19.873
 3338TIP3    H134209   1.148   0.776  19.805
 3338TIP3    H234210   1.159   0.650  19.912
 3339TIP3   OH234211   0.550   0.358  19.435
 3339TIP3    H134212   0.497   0.260  19.468
 3339TIP3    H234213   0.643   0.318  19.389
 3340TIP3   OH234214   1.084   1.350  19.266
 3340TIP3    H134215   0.994   1.296  19.221
 3340TIP3    H234216   1.027   1.392  19.345
 3341TIP3   OH234217   1.495   0.478  19.093
 3341TIP3    H134218   1.384   0.491  19.060
 3341TIP3    H234219   1.531   0.587  19.115
 3342TIP3   OH234220   1.627   0.733  19.190
 3342TIP3    H134221   1.704   0.713  19.261
 3342TIP3    H234222   1.672   0.829  19.149
 3343TIP3   OH234223   0.481   1.271  19.768
 3343TIP3    H134224   0.546   1.267  19.686
 3343TIP3    H234225   0.556   1.226  19.834
 3344TIP3   OH234226   1.301   1.510  19.136
 3344TIP3    H134227   1.247   1.615  19.147
 3344TIP3    H234228   1.220   1.438  19.176
 3345TIP3   OH234229   2.164   0.757  19.184
 3345TIP3    H134230   2.112   0.714  19.103
 3345TIP3    H234231   2.190   0.868  19.158
 3346TIP3   OH234232   1.944   1.781  19.211
 3346TIP3    H134233   1.918   1.706  19.282
 3346TIP3    H234234   2.012   1.720  19.150
 3347TIP3   OH234235   1.620   1.164  19.883
 3347TIP3    H134236   1.514   1.134  19.850
 3347TIP3    H234237   1.691   1.098  19.826
 3348TIP3   OH234238   0.743   1.696  19.546
 3348TIP3    H134239   0.775   1.792  19.496
 3348TIP3    H234240   0.636   1.682  19.512
 3349TIP3   OH234241   0.296   1.088  19.056
 3349TIP3    H134242   0.361   1.176  19.093
 3349TIP3    H234243   0.191   1.112  19.088
 3350TIP3   OH234244   0.910   1.435  19.471
 3350TIP3    H134245   0.841   1.523  19.504
 3350TIP3    H234246   0.875   1.345  19.525
 3351TIP3   OH234247   0.790   1.981  19.426
 3351TIP3    H134248   0.676   2.003  19.447
 3351TIP3    H234249   0.834   2.083  19.458
 3352TIP3   OH234250   1.708   1.550  19.015
 3352TIP3    H134251   1.727   1.500  19.103
 3352TIP3    H234252   1.595   1.526  19.005
 3353TIP3   OH234253   2.218   2.064  19.057
 3353TIP3    H134254   2.296   2.142  19.026
 3353TIP3    H234255   2.131   2.138  19.087
 3354TIP3   OH234256   1.801   1.378  19.243
 3354TIP3    H134257   1.776   1.268  19.273
 3354TIP3    H234258   1.918   1.369  19.234
 3355TIP3   OH234259   0.978   1.712  18.868
 3355TIP3    H134260   0.971   1.649  18.788
 3355TIP3    H234261   0.913   1.648  18.930
 3356TIP3   OH234262   0.826   1.608  19.111
 3356TIP3    H134263   0.906   1.571  19.174
 3356TIP3    H234264   0.830   1.723  19.134
 3357TIP3   OH234265   0.444   1.327  19.178
 3357TIP3    H134266   0.338   1.361  19.212
 3357TIP3    H234267   0.469   1.410  19.113
 3358TIP3   OH234268   1.429   0.317  19.319
 3358TIP3    H134269   1.428   0.398  19.249
 3358TIP3    H234270   1.501   0.367  19.385
 3359TIP3   OH234271   1.178   1.816  19.152
 3359TIP3    H134272   1.074   1.866  19.168
 3359TIP3    H234273   1.249   1.908  19.157
 3360TIP3   OH234274   1.154   0.596  19.379
 3360TIP3    H134275   1.252   0.662  19.396
 3360TIP3    H234276   1.123   0.571  19.471
 3361TIP3   OH234277   1.207   0.233  19.486
 3361TIP3    H134278   1.190   0.338  19.524
 3361TIP3    H234279   1.301   0.251  19.427
 3362TIP3   OH234280   0.869   1.912  19.171
 3362TIP3    H134281   0.889   2.003  19.110
 3362TIP3    H234282   0.829   1.972  19.248
 3363TIP3   OH234283   0.680   0.406  19.118
 3363TIP3    H134284   0.658   0.500  19.172
 3363TIP3    H234285   0.780   0.373  19.161
 3364TIP3   OH234286   1.784   0.949  19.747
 3364TIP3    H134287   1.696   0.876  19.729
 3364TIP3    H234288   1.831   0.890  19.821
 3365TIP3   OH234289   0.509   1.607  19.020
 3365TIP3    H134290   0.616   1.621  19.062
 3365TIP3    H234291   0.536   1.536  18.946
 3366TIP3   OH234292   0.271   0.756  18.979
 3366TIP3    H134293   0.323   0.859  18.996
 3366TIP3    H234294   0.203   0.780  18.903
 3367TIP3   OH234295   1.906   2.052  19.946
 3367TIP3    H134296   1.921   2.144  19.888
 3367TIP3    H234297   2.009   2.040  19.989
 3368TIP3   OH234298   0.418   0.180  19.833
 3368TIP3    H134299   0.382   0.186  19.740
 3368TIP3    H234300   0.409   0.064  19.843
 3369TIP3   OH234301   0.234   1.728  19.397
 3369TIP3    H134302   0.142   1.790  19.424
 3369TIP3    H234303   0.293   1.812  19.350
 3370TIP3   OH234304   1.229   1.948  18.856
 3370TIP3    H134305   1.169   1.852  18.882
 3370TIP3    H234306   1.322   1.898  18.813
 3371TIP3   OH234307   1.774   1.855  18.876
 3371TIP3    H134308   1.789   1.772  18.945
 3371TIP3    H234309   1.874   1.854  18.827
 3372TIP3   OH234310   0.678   1.354  18.865
 3372TIP3    H134311   0.720   1.334  18.954
 3372TIP3    H234312   0.779   1.351  18.812
 3373TIP3   OH234313   1.352   1.542  18.857
 3373TIP3    H134314   1.312   1.526  18.947
 3373TIP3    H234315   1.346   1.430  18.826
 3374TIP3   OH234316   0.834   1.165  19.134
 3374TIP3    H134317   0.752   1.091  19.165
 3374TIP3    H234318   0.893   1.098  19.072
 3375TIP3   OH234319   0.978   0.950  18.904
 3375TIP3    H134320   0.977   1.016  18.823
 3375TIP3    H234321   1.093   0.959  18.928
 3376TIP3   OH234322   2.069   1.198  18.857
 3376TIP3    H134323   2.046   1.166  18.765
 3376TIP3    H234324   2.059   1.316  18.853
 3377TIP3   OH234325   0.936   2.185  19.058
 3377TIP3    H134326   1.052   2.195  19.063
 3377TIP3    H234327   0.916   2.261  18.986
 3378TIP3   OH234328   0.186   1.607  19.025
 3378TIP3    H134329   0.302   1.622  19.027
 3378TIP3    H234330   0.174   1.549  18.940
 3379TIP3   OH234331   0.104   2.198  19.480
 3379TIP3    H134332  -0.011   2.218  19.485
 3379TIP3    H234333   0.121   2.123  19.553
 3380TIP3   OH234334   0.156   1.975  19.687
 3380TIP3    H134335   0.168   1.876  19.740
 3380TIP3    H234336   0.215   2.047  19.748
 3381TIP3   OH234337   2.131   1.328  19.244
 3381TIP3    H134338   2.231   1.386  19.263
 3381TIP3    H234339   2.124   1.258  19.324
 3382TIP3   OH234340   2.142   1.139  19.459
 3382TIP3    H134341   2.074   1.052  19.493
 3382TIP3    H234342   2.236   1.126  19.518
 3383TIP3   OH234343   2.262   1.445  19.928
 3383TIP3    H134344   2.297   1.369  19.860
 3383TIP3    H234345   2.182   1.507  19.882
 3384TIP3   OH234346   2.232   1.069  19.087
 3384TIP3    H134347   2.161   1.075  19.010
 3384TIP3    H234348   2.188   1.154  19.143
 3385TIP3   OH234349   1.980   0.766  18.929
 3385TIP3    H134350   2.017   0.821  18.851
 3385TIP3    H234351   1.960   0.654  18.899
 3386TIP3   OH234352   1.948   0.875  19.517
 3386TIP3    H134353   1.907   0.791  19.457
 3386TIP3    H234354   1.891   0.854  19.602
 3387TIP3   OH234355   0.193   1.300  19.911
 3387TIP3    H134356   0.210   1.277  19.817
 3387TIP3    H234357   0.264   1.217  19.948
 3388TIP3   OH234358   1.946   0.456  18.888
 3388TIP3    H134359   2.021   0.377  18.924
 3388TIP3    H234360   1.841   0.404  18.891
 3389TIP3   OH234361   1.892   0.650  19.348
 3389TIP3    H134362   1.907   0.534  19.356
 3389TIP3    H234363   1.999   0.679  19.315
 3390TIP3   OH234364   1.978   0.667  19.832
 3390TIP3    H134365   2.087   0.701  19.857
 3390TIP3    H234366   1.915   0.674  19.915
 3391TIP3   OH234367   1.984   0.325  19.376
 3391TIP3    H134368   1.974   0.284  19.467
 3391TIP3    H234369   1.883   0.289  19.334
 3392TIP3   OH234370   0.190   0.412  19.878
 3392TIP3    H134371   0.265   0.324  19.895
 3392TIP3    H234372   0.259   0.503  19.899
 3393TIP3   OH234373   0.130   0.740  19.965
 3393TIP3    H134374   0.146   0.734  19.870
 3393TIP3    H234375   0.073   0.844  19.970
 3394TIP3   OH234376   2.202   0.305  19.033
 3394TIP3    H134377   2.244   0.224  18.969
 3394TIP3    H234378   2.296   0.365  19.065
 3395TIP3   OH234379   0.163   0.324  19.380
 3395TIP3    H134380   0.046   0.320  19.371
 3395TIP3    H234381   0.187   0.403  19.312
 3396TIP3   OH234382   1.810   2.106  19.556
 3396TIP3    H134383   1.898   2.078  19.496
 3396TIP3    H234384   1.860   2.177  19.621
 3397TIP3   OH234385   0.319   2.096  19.907
 3397TIP3    H134386   0.344   2.125  19.998
 3397TIP3    H234387   0.415   2.035  19.883
 3398TIP3   OH234388   0.526   1.914  19.766
 3398TIP3    H134389   0.496   1.801  19.778
 3398TIP3    H234390   0.637   1.916  19.798
 3399TIP3   OH234391   0.841   1.974  19.868
 3399TIP3    H134392   0.868   1.862  19.844
 3399TIP3    H234393   0.886   1.985  19.957
 3400TIP3   OH234394   1.241   0.326  19.798
 3400TIP3    H134395   1.177   0.228  19.801
 3400TIP3    H234396   1.318   0.296  19.728
 3401TIP3   OH234397   1.873   0.108  19.817
 3401TIP3    H134398   1.963   0.164  19.773
 3401TIP3    H234399   1.786   0.168  19.779
 3402TIP3   OH234400   2.099   0.191  19.612
 3402TIP3    H134401   2.168   0.118  19.565
 3402TIP3    H234402   2.154   0.294  19.596
 3403TIP3   OH234403   0.348   0.162  19.568
 3403TIP3    H134404   0.272   0.198  19.500
 3403TIP3    H234405   0.340   0.044  19.558
 3404TIP3   OH234406   0.114   0.139  19.131
 3404TIP3    H134407   0.185   0.173  19.059
 3404TIP3    H234408   0.155   0.204  19.206
 3405TIP3   OH234409   0.911   0.124  19.488
 3405TIP3    H134410   1.025   0.156  19.488
 3405TIP3    H234411   0.870   0.179  19.566
 3406TIP3   OH234412   1.489   0.181  19.660
 3406TIP3    H134413   1.576   0.191  19.597
 3406TIP3    H234414   1.531   0.106  19.723
 3407TIP3   OH234415   1.726   0.205  19.233
 3407TIP3    H134416   1.613   0.239  19.226
 3407TIP3    H234417   1.714   0.092  19.253
 3408TIP3   OH234418   0.228   2.015  19.236
 3408TIP3    H134419   0.113   2.023  19.220
 3408TIP3    H234420   0.259   2.124  19.207
 3409TIP3   OH234421   0.377   0.223  18.976
 3409TIP3    H134422   0.464   0.192  18.914
 3409TIP3    H234423   0.438   0.277  19.046
 3410TIP3   OH234424   1.019   0.350  19.227
 3410TIP3    H134425   1.051   0.264  19.287
 3410TIP3    H234426   1.068   0.444  19.273
 3411TIP3   OH234427   1.277   2.132  19.066
 3411TIP3    H134428   1.391   2.136  19.044
 3411TIP3    H234429   1.242   2.069  18.988
 3412TIP3   OH234430   2.038   2.028  19.362
 3412TIP3    H134431   2.012   1.936  19.303
 3412TIP3    H234432   2.039   2.116  19.297
 3413TIP3   OH234433   0.372   2.066  18.925
 3413TIP3    H134434   0.358   2.095  19.017
 3413TIP3    H234435   0.457   1.988  18.934
 3414TIP3   OH234436   3.695   1.186  19.551
 3414TIP3    H134437   3.698   1.302  19.559
 3414TIP3    H234438   3.608   1.172  19.488
 3415TIP3   OH234439   3.568   1.070  19.870
 3415TIP3    H134440   3.558   1.019  19.957
 3415TIP3    H234441   3.499   1.007  19.812
 3416TIP3   OH234442   3.936   1.420  19.701
 3416TIP3    H134443   3.905   1.333  19.762
 3416TIP3    H234444   3.977   1.498  19.765
 3417TIP3   OH234445   2.782   1.602  19.887
 3417TIP3    H134446   2.754   1.493  19.859
 3417TIP3    H234447   2.898   1.604  19.873
 3418TIP3   OH234448   2.398   0.774  19.417
 3418TIP3    H134449   2.359   0.883  19.420
 3418TIP3    H234450   2.298   0.715  19.417
 3419TIP3   OH234451   2.408   1.070  19.603
 3419TIP3    H134452   2.455   0.980  19.653
 3419TIP3    H234453   2.500   1.116  19.557
 3420TIP3   OH234454   3.653   2.095  19.735
 3420TIP3    H134455   3.722   2.032  19.676
 3420TIP3    H234456   3.625   2.010  19.796
 3421TIP3   OH234457   3.416   1.396  19.980
 3421TIP3    H134458   3.463   1.346  19.902
 3421TIP3    H234459   3.496   1.368  20.046
 3422TIP3   OH234460   3.780   0.689  19.980
 3422TIP3    H134461   3.803   0.576  19.983
 3422TIP3    H234462   3.774   0.707  19.884
 3423TIP3   OH234463   2.954   0.461  19.670
 3423TIP3    H134464   2.969   0.565  19.626
 3423TIP3    H234465   2.892   0.402  19.602
 3424TIP3   OH234466   3.836   0.508  19.524
 3424TIP3    H134467   3.906   0.449  19.587
 3424TIP3    H234468   3.912   0.583  19.487
 3425TIP3   OH234469   2.550   0.822  19.732
 3425TIP3    H134470   2.618   0.756  19.788
 3425TIP3    H234471   2.551   0.754  19.652
 3426TIP3   OH234472   3.108   0.960  19.699
 3426TIP3    H134473   3.186   0.887  19.739
 3426TIP3    H234474   3.050   0.884  19.642
 3427TIP3   OH234475   3.619   1.474  19.425
 3427TIP3    H134476   3.599   1.472  19.329
 3427TIP3    H234477   3.595   1.586  19.447
 3428TIP3   OH234478   4.033   0.430  19.717
 3428TIP3    H134479   3.989   0.401  19.803
 3428TIP3    H234480   4.147   0.432  19.738
 3429TIP3   OH234481   2.768   0.588  19.868
 3429TIP3    H134482   2.794   0.698  19.850
 3429TIP3    H234483   2.810   0.535  19.787
 3430TIP3   OH234484   2.438   1.452  19.256
 3430TIP3    H134485   2.430   1.518  19.175
 3430TIP3    H234486   2.448   1.534  19.325
 3431TIP3   OH234487   4.073   1.614  19.876
 3431TIP3    H134488   4.012   1.553  19.943
 3431TIP3    H234489   4.124   1.691  19.933
 3432TIP3   OH234490   3.271   0.089  19.801
 3432TIP3    H134491   3.283  -0.028  19.813
 3432TIP3    H234492   3.184   0.107  19.864
 3433TIP3   OH234493   3.834   1.891  19.595
 3433TIP3    H134494   3.889   1.790  19.574
 3433TIP3    H234495   3.924   1.966  19.580
 3434TIP3   OH234496   4.025   1.638  19.486
 3434TIP3    H134497   4.009   1.558  19.416
 3434TIP3    H234498   4.015   1.568  19.564
 3435TIP3   OH234499   3.529   1.085  19.283
 3435TIP3    H134500   3.476   1.188  19.270
 3435TIP3    H234501   3.622   1.092  19.224
 3436TIP3   OH234502   3.548   0.966  18.984
 3436TIP3    H134503   3.641   1.016  19.026
 3436TIP3    H234504   3.586   0.857  18.972
 3437TIP3   OH234505   3.984   1.079  19.388
 3437TIP3    H134506   3.902   1.124  19.448
 3437TIP3    H234507   4.068   1.049  19.450
 3438TIP3   OH234508   2.945   1.183  19.565
 3438TIP3    H134509   2.904   1.122  19.488
 3438TIP3    H234510   3.008   1.102  19.612
 3439TIP3   OH234511   3.118   1.630  19.842
 3439TIP3    H134512   3.096   1.602  19.749
 3439TIP3    H234513   3.192   1.548  19.869
 3440TIP3   OH234514   2.929   1.018  19.918
 3440TIP3    H134515   2.999   1.007  19.839
 3440TIP3    H234516   2.980   1.102  19.972
 3441TIP3   OH234517   3.818   1.040  19.152
 3441TIP3    H134518   3.881   1.063  19.233
 3441TIP3    H234519   3.882   1.097  19.082
 3442TIP3   OH234520   3.542   1.782  19.455
 3442TIP3    H134521   3.630   1.823  19.511
 3442TIP3    H234522   3.496   1.880  19.423
 3443TIP3   OH234523   4.270   0.104  19.180
 3443TIP3    H134524   4.165   0.156  19.189
 3443TIP3    H234525   4.326   0.190  19.131
 3444TIP3   OH234526   2.788   1.064  19.339
 3444TIP3    H134527   2.770   1.170  19.298
 3444TIP3    H234528   2.747   0.994  19.270
 3445TIP3   OH234529   4.405   1.746  18.985
 3445TIP3    H134530   4.438   1.858  19.003
 3445TIP3    H234531   4.508   1.693  19.003
 3446TIP3   OH234532   2.356   1.751  19.832
 3446TIP3    H134533   2.438   1.675  19.860
 3446TIP3    H234534   2.327   1.805  19.913
 3447TIP3   OH234535   3.510   2.138  19.334
 3447TIP3    H134536   3.504   2.160  19.238
 3447TIP3    H234537   3.498   2.249  19.368
 3448TIP3   OH234538   2.730   2.017  19.505
 3448TIP3    H134539   2.754   1.997  19.600
 3448TIP3    H234540   2.626   1.966  19.495
 3449TIP3   OH234541   3.872   2.080  19.026
 3449TIP3    H134542   3.928   1.982  18.992
 3449TIP3    H234543   3.876   2.065  19.122
 3450TIP3   OH234544   3.824   2.056  19.301
 3450TIP3    H134545   3.712   2.086  19.312
 3450TIP3    H234546   3.834   1.966  19.362
 3451TIP3   OH234547   2.965   0.184  19.933
 3451TIP3    H134548   2.870   0.214  19.880
 3451TIP3    H234549   3.012   0.289  19.946
 3452TIP3   OH234550   4.002   1.189  18.972
 3452TIP3    H134551   3.982   1.206  18.877
 3452TIP3    H234552   4.118   1.205  18.971
 3453TIP3   OH234553   3.446   0.410  19.026
 3453TIP3    H134554   3.407   0.332  19.090
 3453TIP3    H234555   3.385   0.383  18.947
 3454TIP3   OH234556   2.959   0.743  19.559
 3454TIP3    H134557   2.846   0.714  19.540
 3454TIP3    H234558   3.008   0.734  19.469
 3455TIP3   OH234559   3.646   0.820  19.394
 3455TIP3    H134560   3.596   0.918  19.356
 3455TIP3    H234561   3.713   0.786  19.319
 3456TIP3   OH234562   3.746   0.737  19.699
 3456TIP3    H134563   3.726   0.815  19.628
 3456TIP3    H234564   3.763   0.641  19.643
 3457TIP3   OH234565   3.034   0.440  18.876
 3457TIP3    H134566   2.993   0.413  18.964
 3457TIP3    H234567   2.948   0.509  18.842
 3458TIP3   OH234568   2.297   0.472  19.609
 3458TIP3    H134569   2.370   0.446  19.681
 3458TIP3    H234570   2.348   0.420  19.533
 3459TIP3   OH234571   2.398   0.510  19.157
 3459TIP3    H134572   2.473   0.559  19.094
 3459TIP3    H234573   2.333   0.604  19.180
 3460TIP3   OH234574   3.304   0.451  19.612
 3460TIP3    H134575   3.196   0.415  19.638
 3460TIP3    H234576   3.366   0.415  19.689
 3461TIP3   OH234577   2.629   0.608  19.537
 3461TIP3    H134578   2.549   0.666  19.483
 3461TIP3    H234579   2.656   0.516  19.480
 3462TIP3   OH234580   3.066   0.704  19.307
 3462TIP3    H134581   3.172   0.680  19.269
 3462TIP3    H234582   3.008   0.744  19.229
 3463TIP3   OH234583   3.778   0.319  19.942
 3463TIP3    H134584   3.760   0.310  20.037
 3463TIP3    H234585   3.666   0.318  19.908
 3464TIP3   OH234586   2.936   0.826  19.016
 3464TIP3    H134587   2.906   0.770  18.933
 3464TIP3    H234588   3.042   0.864  18.986
 3465TIP3   OH234589   3.410   0.758  19.844
 3465TIP3    H134590   3.496   0.740  19.778
 3465TIP3    H234591   3.430   0.666  19.901
 3466TIP3   OH234592   2.803   0.355  19.431
 3466TIP3    H134593   2.758   0.257  19.472
 3466TIP3    H234594   2.882   0.308  19.371
 3467TIP3   OH234595   3.336   1.363  19.244
 3467TIP3    H134596   3.250   1.301  19.202
 3467TIP3    H234597   3.282   1.388  19.330
 3468TIP3   OH234598   3.761   0.474  19.030
 3468TIP3    H134599   3.642   0.474  19.034
 3468TIP3    H234600   3.788   0.574  19.077
 3469TIP3   OH234601   3.852   0.713  19.187
 3469TIP3    H134602   3.948   0.701  19.242
 3469TIP3    H234603   3.868   0.820  19.148
 3470TIP3   OH234604   2.717   1.306  19.794
 3470TIP3    H134605   2.774   1.304  19.710
 3470TIP3    H234606   2.786   1.241  19.852
 3471TIP3   OH234607   3.570   1.520  19.130
 3471TIP3    H134608   3.523   1.627  19.145
 3471TIP3    H234609   3.485   1.452  19.166
 3472TIP3   OH234610   4.438   0.746  19.194
 3472TIP3    H134611   4.385   0.708  19.113
 3472TIP3    H234612   4.456   0.859  19.173
 3473TIP3   OH234613   4.189   1.795  19.196
 3473TIP3    H134614   4.171   1.718  19.268
 3473TIP3    H234615   4.264   1.742  19.136
 3474TIP3   OH234616   3.884   1.168  19.880
 3474TIP3    H134617   3.774   1.128  19.866
 3474TIP3    H234618   3.946   1.091  19.826
 3475TIP3   OH234619   2.995   1.690  19.581
 3475TIP3    H134620   3.055   1.789  19.572
 3475TIP3    H234621   2.911   1.709  19.517
 3476TIP3   OH234622   2.563   1.108  19.015
 3476TIP3    H134623   2.610   1.172  19.087
 3476TIP3    H234624   2.448   1.111  19.030
 3477TIP3   OH234625   3.160   1.410  19.470
 3477TIP3    H134626   3.112   1.506  19.508
 3477TIP3    H234627   3.103   1.325  19.519
 3478TIP3   OH234628   3.044   1.984  19.427
 3478TIP3    H134629   2.928   1.997  19.439
 3478TIP3    H234630   3.082   2.084  19.469
 3479TIP3   OH234631   3.968   1.553  19.011
 3479TIP3    H134632   3.985   1.520  19.103
 3479TIP3    H234633   3.858   1.517  18.999
 3480TIP3   OH234634   4.475   2.063  19.050
 3480TIP3    H134635   4.549   2.137  19.009
 3480TIP3    H234636   4.392   2.137  19.082
 3481TIP3   OH234637   4.061   1.366  19.251
 3481TIP3    H134638   4.039   1.252  19.264
 3481TIP3    H234639   4.176   1.366  19.234
 3482TIP3   OH234640   3.240   1.739  18.862
 3482TIP3    H134641   3.228   1.667  18.787
 3482TIP3    H234642   3.166   1.694  18.927
 3483TIP3   OH234643   3.092   1.612  19.110
 3483TIP3    H134644   3.186   1.564  19.151
 3483TIP3    H234645   3.106   1.724  19.140
 3484TIP3   OH234646   2.722   1.315  19.172
 3484TIP3    H134647   2.616   1.362  19.193
 3484TIP3    H234648   2.773   1.402  19.122
 3485TIP3   OH234649   3.691   0.355  19.329
 3485TIP3    H134650   3.685   0.439  19.263
 3485TIP3    H234651   3.758   0.403  19.399
 3486TIP3   OH234652   3.455   1.826  19.160
 3486TIP3    H134653   3.349   1.872  19.181
 3486TIP3    H234654   3.518   1.924  19.145
 3487TIP3   OH234655   3.380   0.584  19.362
 3487TIP3    H134656   3.473   0.652  19.384
 3487TIP3    H234657   3.344   0.547  19.450
 3488TIP3   OH234658   3.457   0.220  19.469
 3488TIP3    H134659   3.431   0.316  19.520
 3488TIP3    H234660   3.558   0.254  19.427
 3489TIP3   OH234661   3.139   1.914  19.166
 3489TIP3    H134662   3.154   2.011  19.110
 3489TIP3    H234663   3.092   1.963  19.246
 3490TIP3   OH234664   2.921   0.380  19.135
 3490TIP3    H134665   2.903   0.473  19.191
 3490TIP3    H234666   3.030   0.354  19.165
 3491TIP3   OH234667   4.010   0.919  19.741
 3491TIP3    H134668   3.920   0.844  19.748
 3491TIP3    H234669   4.088   0.869  19.801
 3492TIP3   OH234670   2.755   1.602  19.019
 3492TIP3    H134671   2.840   1.644  19.076
 3492TIP3    H234672   2.819   1.546  18.952
 3493TIP3   OH234673   2.536   0.754  18.985
 3493TIP3    H134674   2.590   0.854  19.003
 3493TIP3    H234675   2.453   0.787  18.924
 3494TIP3   OH234676   4.171   2.038  19.945
 3494TIP3    H134677   4.183   2.129  19.884
 3494TIP3    H234678   4.271   2.038  19.994
 3495TIP3   OH234679   2.670   0.175  19.782
 3495TIP3    H134680   2.681   0.173  19.684
 3495TIP3    H234681   2.638   0.062  19.796
 3496TIP3   OH234682   2.501   1.762  19.432
 3496TIP3    H134683   2.408   1.830  19.446
 3496TIP3    H234684   2.542   1.808  19.350
 3497TIP3   OH234685   3.506   1.951  18.862
 3497TIP3    H134686   3.443   1.854  18.876
 3497TIP3    H234687   3.602   1.906  18.820
 3498TIP3   OH234688   4.030   1.850  18.879
 3498TIP3    H134689   4.049   1.774  18.950
 3498TIP3    H234690   4.133   1.855  18.833
 3499TIP3   OH234691   2.942   1.382  18.864
 3499TIP3    H134692   2.981   1.349  18.952
 3499TIP3    H234693   3.040   1.367  18.810
 3500TIP3   OH234694   3.617   1.542  18.845
 3500TIP3    H134695   3.578   1.525  18.936
 3500TIP3    H234696   3.611   1.430  18.813
 3501TIP3   OH234697   3.096   1.175  19.125
 3501TIP3    H134698   3.013   1.111  19.167
 3501TIP3    H234699   3.144   1.097  19.064
 3502TIP3   OH234700   3.232   0.938  18.929
 3502TIP3    H134701   3.241   0.961  18.834
 3502TIP3    H234702   3.343   0.953  18.959
 3503TIP3   OH234703   4.315   1.193  18.863
 3503TIP3    H134704   4.297   1.165  18.769
 3503TIP3    H234705   4.312   1.312  18.860
 3504TIP3   OH234706   3.205   2.206  19.069
 3504TIP3    H134707   3.323   2.203  19.069
 3504TIP3    H234708   3.186   2.266  18.987
 3505TIP3   OH234709   2.416   1.572  19.003
 3505TIP3    H134710   2.533   1.576  18.994
 3505TIP3    H234711   2.382   1.502  18.928
 3506TIP3   OH234712   2.298   2.176  19.456
 3506TIP3    H134713   2.197   2.120  19.432
 3506TIP3    H234714   2.322   2.119  19.540
 3507TIP3   OH234715   2.381   1.990  19.658
 3507TIP3    H134716   2.352   1.886  19.699
 3507TIP3    H234717   2.442   2.040  19.731
 3508TIP3   OH234718   4.394   1.337  19.242
 3508TIP3    H134719   4.495   1.396  19.256
 3508TIP3    H234720   4.392   1.266  19.321
 3509TIP3   OH234721   4.408   1.150  19.467
 3509TIP3    H134722   4.332   1.076  19.511
 3509TIP3    H234723   4.501   1.145  19.526
 3510TIP3   OH234724   4.519   1.442  19.944
 3510TIP3    H134725   4.577   1.374  19.883
 3510TIP3    H234726   4.447   1.504  19.887
 3511TIP3   OH234727   4.490   1.067  19.089
 3511TIP3    H134728   4.406   1.067  19.021
 3511TIP3    H234729   4.460   1.164  19.138
 3512TIP3   OH234730   4.280   0.769  18.949
 3512TIP3    H134731   4.309   0.826  18.867
 3512TIP3    H234732   4.250   0.662  18.915
 3513TIP3   OH234733   4.205   0.895  19.532
 3513TIP3    H134734   4.151   0.806  19.488
 3513TIP3    H234735   4.145   0.900  19.616
 3514TIP3   OH234736   2.336   1.120  19.870
 3514TIP3    H134737   2.393   1.097  19.787
 3514TIP3    H234738   2.424   1.144  19.932
 3515TIP3   OH234739   4.226   0.476  18.870
 3515TIP3    H134740   4.291   0.388  18.901
 3515TIP3    H234741   4.117   0.427  18.872
 3516TIP3   OH234742   4.116   0.649  19.369
 3516TIP3    H134743   4.156   0.538  19.372
 3516TIP3    H234744   4.216   0.702  19.340
 3517TIP3   OH234745   4.223   0.730  19.872
 3517TIP3    H134746   4.339   0.720  19.872
 3517TIP3    H234747   4.190   0.628  19.915
 3518TIP3   OH234748   4.220   0.334  19.397
 3518TIP3    H134749   4.248   0.275  19.478
 3518TIP3    H234750   4.144   0.263  19.353
 3519TIP3   OH234751   2.450   0.410  19.883
 3519TIP3    H134752   2.521   0.316  19.886
 3519TIP3    H234753   2.528   0.493  19.897
 3520TIP3   OH234754   2.288   0.794  19.885
 3520TIP3    H134755   2.372   0.779  19.820
 3520TIP3    H234756   2.297   0.910  19.901
 3521TIP3   OH234757   4.458   0.298  19.030
 3521TIP3    H134758   4.501   0.218  18.966
 3521TIP3    H234759   4.525   0.390  19.015
 3522TIP3   OH234760   2.329   0.284  19.378
 3522TIP3    H134761   2.214   0.276  19.358
 3522TIP3    H234762   2.368   0.342  19.300
 3523TIP3   OH234763   4.079   2.104  19.550
 3523TIP3    H134764   4.163   2.081  19.485
 3523TIP3    H234765   4.134   2.172  19.615
 3524TIP3   OH234766   2.575   2.104  19.867
 3524TIP3    H134767   2.602   2.112  19.963
 3524TIP3    H234768   2.669   2.045  19.832
 3525TIP3   OH234769   2.809   1.924  19.758
 3525TIP3    H134770   2.797   1.808  19.769
 3525TIP3    H234771   2.912   1.942  19.802
 3526TIP3   OH234772   3.104   1.976  19.857
 3526TIP3    H134773   3.133   1.864  19.844
 3526TIP3    H234774   3.100   1.980  19.953
 3527TIP3   OH234775   3.499   0.322  19.794
 3527TIP3    H134776   3.442   0.218  19.800
 3527TIP3    H234777   3.586   0.289  19.733
 3528TIP3   OH234778   4.130   0.109  19.802
 3528TIP3    H134779   4.202   0.133  19.728
 3528TIP3    H234780   4.028   0.155  19.772
 3529TIP3   OH234781   4.357   0.186  19.605
 3529TIP3    H134782   4.416   0.102  19.558
 3529TIP3    H234783   4.428   0.281  19.595
 3530TIP3   OH234784   2.641   0.124  19.526
 3530TIP3    H134785   2.552   0.142  19.464
 3530TIP3    H234786   2.630   0.008  19.542
 3531TIP3   OH234787   2.489   0.116  19.161
 3531TIP3    H134788   2.506   0.157  19.070
 3531TIP3    H234789   2.381   0.152  19.180
 3532TIP3   OH234790   3.176   0.120  19.548
 3532TIP3    H134791   3.271   0.155  19.497
 3532TIP3    H234792   3.218   0.126  19.640
 3533TIP3   OH234793   3.772   0.181  19.663
 3533TIP3    H134794   3.836   0.150  19.587
 3533TIP3    H234795   3.778   0.084  19.717
 3534TIP3   OH234796   3.971   0.211  19.238
 3534TIP3    H134797   3.858   0.236  19.227
 3534TIP3    H234798   3.964   0.100  19.265
 3535TIP3   OH234799   2.478   1.974  19.230
 3535TIP3    H134800   2.370   1.972  19.194
 3535TIP3    H234801   2.508   2.083  19.207
 3536TIP3   OH234802   2.635   0.276  18.962
 3536TIP3    H134803   2.712   0.214  18.908
 3536TIP3    H234804   2.704   0.306  19.036
 3537TIP3   OH234805   3.244   0.334  19.237
 3537TIP3    H134806   3.312   0.263  19.290
 3537TIP3    H234807   3.296   0.437  19.258
 3538TIP3   OH234808   3.554   2.138  19.068
 3538TIP3    H134809   3.668   2.137  19.045
 3538TIP3    H234810   3.518   2.077  18.989
 3539TIP3   OH234811   4.298   2.035  19.352
 3539TIP3    H134812   4.267   1.948  19.290
 3539TIP3    H234813   4.296   2.128  19.291
 3540TIP3   OH234814   2.599   2.068  18.917
 3540TIP3    H134815   2.573   2.125  18.999
 3540TIP3    H234816   2.698   2.012  18.943
 3541TIP3   OH234817   5.950   1.190  19.545
 3541TIP3    H134818   5.951   1.307  19.553
 3541TIP3    H234819   5.863   1.177  19.481
 3542TIP3   OH234820   5.830   1.066  19.872
 3542TIP3    H134821   5.824   1.016  19.961
 3542TIP3    H234822   5.750   1.008  19.820
 3543TIP3   OH234823   6.196   1.422  19.696
 3543TIP3    H134824   6.163   1.330  19.750
 3543TIP3    H234825   6.247   1.490  19.764
 3544TIP3   OH234826   5.046   1.597  19.880
 3544TIP3    H134827   5.022   1.488  19.849
 3544TIP3    H234828   5.162   1.601  19.869
 3545TIP3   OH234829   4.644   0.776  19.453
 3545TIP3    H134830   4.596   0.881  19.463
 3545TIP3    H234831   4.550   0.714  19.427
 3546TIP3   OH234832   4.685   1.073  19.608
 3546TIP3    H134833   4.734   0.984  19.656
 3546TIP3    H234834   4.771   1.118  19.556
 3547TIP3   OH234835   5.927   2.090  19.745
 3547TIP3    H134836   5.998   2.020  19.694
 3547TIP3    H234837   5.875   2.010  19.800
 3548TIP3   OH234838   5.689   1.409  19.990
 3548TIP3    H134839   5.729   1.362  19.908
 3548TIP3    H234840   5.762   1.362  20.054
 3549TIP3   OH234841   6.029   0.688  19.970
 3549TIP3    H134842   6.058   0.576  19.979
 3549TIP3    H234843   6.016   0.697  19.873
 3550TIP3   OH234844   5.208   0.473  19.668
 3550TIP3    H134845   5.220   0.569  19.611
 3550TIP3    H234846   5.152   0.403  19.605
 3551TIP3   OH234847   6.101   0.515  19.514
 3551TIP3    H134848   6.169   0.457  19.579
 3551TIP3    H234849   6.176   0.594  19.482
 3552TIP3   OH234850   4.757   0.790  19.753
 3552TIP3    H134851   4.838   0.732  19.802
 3552TIP3    H234852   4.775   0.746  19.663
 3553TIP3   OH234853   5.382   0.959  19.699
 3553TIP3    H134854   5.464   0.888  19.736
 3553TIP3    H234855   5.333   0.886  19.634
 3554TIP3   OH234856   5.880   1.482  19.415
 3554TIP3    H134857   5.854   1.482  19.320
 3554TIP3    H234858   5.857   1.595  19.436
 3555TIP3   OH234859   6.287   0.427  19.713
 3555TIP3    H134860   6.251   0.407  19.804
 3555TIP3    H234861   6.402   0.433  19.726
 3556TIP3   OH234862   5.028   0.588  19.874
 3556TIP3    H134863   5.053   0.697  19.846
 3556TIP3    H234864   5.070   0.528  19.796
 3557TIP3   OH234865   4.708   1.453  19.257
 3557TIP3    H134866   4.698   1.522  19.179
 3557TIP3    H234867   4.721   1.532  19.328
 3558TIP3   OH234868   6.347   1.606  19.874
 3558TIP3    H134869   6.299   1.560  19.956
 3558TIP3    H234870   6.382   1.709  19.905
 3559TIP3   OH234871   5.530   0.091  19.807
 3559TIP3    H134872   5.538  -0.026  19.816
 3559TIP3    H234873   5.438   0.113  19.866
 3560TIP3   OH234874   6.094   1.891  19.601
 3560TIP3    H134875   6.152   1.795  19.571
 3560TIP3    H234876   6.175   1.974  19.582
 3561TIP3   OH234877   6.283   1.648  19.495
 3561TIP3    H134878   6.266   1.567  19.426
 3561TIP3    H234879   6.272   1.579  19.574
 3562TIP3   OH234880   5.788   1.090  19.287
 3562TIP3    H134881   5.735   1.190  19.261
 3562TIP3    H234882   5.893   1.099  19.246
 3563TIP3   OH234883   5.820   0.965  18.989
 3563TIP3    H134884   5.892   1.013  19.054
 3563TIP3    H234885   5.845   0.852  18.995
 3564TIP3   OH234886   6.254   1.100  19.391
 3564TIP3    H134887   6.162   1.129  19.447
 3564TIP3    H234888   6.329   1.061  19.457
 3565TIP3   OH234889   5.216   1.186  19.562
 3565TIP3    H134890   5.172   1.128  19.485
 3565TIP3    H234891   5.279   1.104  19.608
 3566TIP3   OH234892   5.383   1.631  19.839
 3566TIP3    H134893   5.360   1.604  19.745
 3566TIP3    H234894   5.453   1.546  19.866
 3567TIP3   OH234895   5.179   0.995  19.915
 3567TIP3    H134896   5.255   1.003  19.840
 3567TIP3    H234897   5.233   1.055  19.985
 3568TIP3   OH234898   6.082   1.044  19.157
 3568TIP3    H134899   6.155   1.073  19.230
 3568TIP3    H234900   6.142   1.092  19.080
 3569TIP3   OH234901   5.816   1.786  19.448
 3569TIP3    H134902   5.897   1.825  19.510
 3569TIP3    H234903   5.756   1.882  19.426
 3570TIP3   OH234904   6.536   0.103  19.181
 3570TIP3    H134905   6.428   0.148  19.185
 3570TIP3    H234906   6.592   0.191  19.134
 3571TIP3   OH234907   5.050   1.070  19.344
 3571TIP3    H134908   5.038   1.175  19.300
 3571TIP3    H234909   5.017   0.998  19.273
 3572TIP3   OH234910   6.672   1.726  19.004
 3572TIP3    H134911   6.701   1.840  19.012
 3572TIP3    H234912   6.780   1.679  19.009
 3573TIP3   OH234913   4.601   1.745  19.835
 3573TIP3    H134914   4.692   1.696  19.878
 3573TIP3    H234915   4.542   1.790  19.910
 3574TIP3   OH234916   5.772   2.142  19.351
 3574TIP3    H134917   5.771   2.165  19.255
 3574TIP3    H234918   5.755   2.251  19.386
 3575TIP3   OH234919   4.985   2.018  19.508
 3575TIP3    H134920   5.009   1.990  19.601
 3575TIP3    H234921   4.878   1.972  19.496
 3576TIP3   OH234922   6.138   2.076  19.026
 3576TIP3    H134923   6.191   1.981  18.987
 3576TIP3    H234924   6.142   2.051  19.121
 3577TIP3   OH234925   6.083   2.062  19.307
 3577TIP3    H134926   5.969   2.090  19.321
 3577TIP3    H234927   6.095   1.974  19.371
 3578TIP3   OH234928   5.234   0.188  19.927
 3578TIP3    H134929   5.137   0.204  19.874
 3578TIP3    H234930   5.269   0.300  19.939
 3579TIP3   OH234931   6.260   1.192  18.966
 3579TIP3    H134932   6.234   1.212  18.873
 3579TIP3    H234933   6.376   1.206  18.963
 3580TIP3   OH234934   5.704   0.409  19.016
 3580TIP3    H134935   5.681   0.343  19.093
 3580TIP3    H234936   5.653   0.348  18.945
 3581TIP3   OH234937   5.225   0.749  19.544
 3581TIP3    H134938   5.110   0.728  19.532
 3581TIP3    H234939   5.266   0.728  19.453
 3582TIP3   OH234940   5.910   0.821  19.390
 3582TIP3    H134941   5.852   0.910  19.348
 3582TIP3    H234942   5.980   0.786  19.317
 3583TIP3   OH234943   6.008   0.740  19.697
 3583TIP3    H134944   5.993   0.823  19.630
 3583TIP3    H234945   6.022   0.648  19.637
 3584TIP3   OH234946   5.310   0.448  18.874
 3584TIP3    H134947   5.270   0.408  18.961
 3584TIP3    H234948   5.222   0.521  18.851
 3585TIP3   OH234949   4.549   0.469  19.609
 3585TIP3    H134950   4.615   0.450  19.687
 3585TIP3    H234951   4.618   0.428  19.538
 3586TIP3   OH234952   4.685   0.511  19.166
 3586TIP3    H134953   4.756   0.551  19.096
 3586TIP3    H234954   4.618   0.605  19.183
 3587TIP3   OH234955   5.564   0.456  19.624
 3587TIP3    H134956   5.454   0.432  19.652
 3587TIP3    H234957   5.620   0.421  19.706
 3588TIP3   OH234958   4.916   0.637  19.539
 3588TIP3    H134959   4.825   0.692  19.497
 3588TIP3    H234960   4.940   0.552  19.474
 3589TIP3   OH234961   5.333   0.698  19.298
 3589TIP3    H134962   5.441   0.683  19.264
 3589TIP3    H234963   5.278   0.750  19.224
 3590TIP3   OH234964   6.047   0.324  19.948
 3590TIP3    H134965   6.032   0.316  20.045
 3590TIP3    H234966   5.935   0.320  19.918
 3591TIP3   OH234967   5.189   0.821  19.033
 3591TIP3    H134968   5.132   0.740  18.981
 3591TIP3    H234969   5.285   0.836  18.980
 3592TIP3   OH234970   5.670   0.760  19.840
 3592TIP3    H134971   5.750   0.749  19.770
 3592TIP3    H234972   5.699   0.668  19.896
 3593TIP3   OH234973   5.056   0.360  19.430
 3593TIP3    H134974   5.002   0.266  19.470
 3593TIP3    H234975   5.147   0.306  19.392
 3594TIP3   OH234976   5.596   1.360  19.242
 3594TIP3    H134977   5.510   1.291  19.205
 3594TIP3    H234978   5.546   1.391  19.328
 3595TIP3   OH234979   6.007   0.473  19.047
 3595TIP3    H134980   5.888   0.475  19.043
 3595TIP3    H234981   6.035   0.580  19.080
 3596TIP3   OH234982   6.118   0.719  19.184
 3596TIP3    H134983   6.214   0.701  19.238
 3596TIP3    H234984   6.138   0.826  19.149
 3597TIP3   OH234985   4.964   1.292  19.784
 3597TIP3    H134986   4.982   1.259  19.693
 3597TIP3    H234987   5.054   1.246  19.832
 3598TIP3   OH234988   5.828   1.524  19.130
 3598TIP3    H134989   5.784   1.631  19.151
 3598TIP3    H234990   5.744   1.452  19.164
 3599TIP3   OH234991   6.694   0.756  19.188
 3599TIP3    H134992   6.641   0.714  19.108
 3599TIP3    H234993   6.712   0.869  19.160
 3600TIP3   OH234994   6.456   1.795  19.211
 3600TIP3    H134995   6.430   1.717  19.279
 3600TIP3    H234996   6.521   1.734  19.148
 3601TIP3   OH234997   6.144   1.160  19.882
 3601TIP3    H134998   6.032   1.126  19.866
 3601TIP3    H234999   6.208   1.085  19.828
 3602TIP3   OH235000   5.268   1.697  19.573
 3602TIP3    H135001   5.322   1.801  19.568
 3602TIP3    H235002   5.176   1.716  19.517
 3603TIP3   OH235003   4.814   1.104  19.024
 3603TIP3    H135004   4.865   1.176  19.089
 3603TIP3    H235005   4.699   1.105  19.046
 3604TIP3   OH235006   5.432   1.418  19.467
 3604TIP3    H135007   5.380   1.512  19.505
 3604TIP3    H235008   5.374   1.331  19.509
 3605TIP3   OH235009   5.298   1.994  19.427
 3605TIP3    H135010   5.184   2.003  19.448
 3605TIP3    H235011   5.339   2.090  19.473
 3606TIP3   OH235012   6.234   1.550  19.014
 3606TIP3    H135013   6.236   1.500  19.103
 3606TIP3    H235014   6.127   1.516  18.985
 3607TIP3   OH235015   6.740   2.058  19.054
 3607TIP3    H135016   6.809   2.130  19.005
 3607TIP3    H235017   6.658   2.132  19.088
 3608TIP3   OH235018   6.318   1.386  19.242
 3608TIP3    H135019   6.293   1.285  19.288
 3608TIP3    H235020   6.433   1.378  19.227
 3609TIP3   OH235021   5.510   1.712  18.867
 3609TIP3    H135022   5.492   1.645  18.790
 3609TIP3    H235023   5.442   1.658  18.933
 3610TIP3   OH235024   5.359   1.621  19.105
 3610TIP3    H135025   5.449   1.571  19.150
 3610TIP3    H235026   5.375   1.733  19.135
 3611TIP3   OH235027   4.985   1.310  19.171
 3611TIP3    H135028   4.884   1.358  19.201
 3611TIP3    H235029   5.032   1.399  19.119
 3612TIP3   OH235030   5.957   0.349  19.329
 3612TIP3    H135031   5.941   0.437  19.268
 3612TIP3    H235032   6.018   0.401  19.402
 3613TIP3   OH235033   5.710   1.823  19.164
 3613TIP3    H135034   5.608   1.876  19.185
 3613TIP3    H235035   5.777   1.915  19.149
 3614TIP3   OH235036   5.644   0.578  19.378
 3614TIP3    H135037   5.741   0.638  19.400
 3614TIP3    H235038   5.596   0.557  19.466
 3615TIP3   OH235039   5.708   0.226  19.457
 3615TIP3    H135040   5.698   0.324  19.509
 3615TIP3    H235041   5.810   0.251  19.411
 3616TIP3   OH235042   5.393   1.920  19.168
 3616TIP3    H135043   5.399   2.015  19.108
 3616TIP3    H235044   5.335   1.969  19.243
 3617TIP3   OH235045   5.210   0.400  19.128
 3617TIP3    H135046   5.179   0.480  19.194
 3617TIP3    H235047   5.321   0.380  19.160
 3618TIP3   OH235048   6.281   0.919  19.736
 3618TIP3    H135049   6.194   0.842  19.756
 3618TIP3    H235050   6.365   0.880  19.798
 3619TIP3   OH235051   5.009   1.610  19.016
 3619TIP3    H135052   5.095   1.660  19.067
 3619TIP3    H235053   5.071   1.555  18.946
 3620TIP3   OH235054   4.810   0.754  18.959
 3620TIP3    H135055   4.855   0.858  18.982
 3620TIP3    H235056   4.727   0.788  18.898
 3621TIP3   OH235057   6.426   2.047  19.947
 3621TIP3    H135058   6.440   2.138  19.886
 3621TIP3    H235059   6.529   2.042  19.989
 3622TIP3   OH235060   4.956   0.172  19.779
 3622TIP3    H135061   4.952   0.172  19.681
 3622TIP3    H235062   4.914   0.061  19.792
 3623TIP3   OH235063   4.764   1.751  19.423
 3623TIP3    H135064   4.674   1.820  19.445
 3623TIP3    H235065   4.806   1.811  19.346
 3624TIP3   OH235066   5.765   1.960  18.866
 3624TIP3    H135067   5.705   1.860  18.881
 3624TIP3    H235068   5.857   1.915  18.817
 3625TIP3   OH235069   6.300   1.843  18.876
 3625TIP3    H135070   6.320   1.769  18.949
 3625TIP3    H235071   6.406   1.859  18.839
 3626TIP3   OH235072   5.209   1.373  18.853
 3626TIP3    H135073   5.263   1.352  18.937
 3626TIP3    H235074   5.298   1.348  18.791
 3627TIP3   OH235075   5.881   1.538  18.844
 3627TIP3    H135076   5.839   1.529  18.934
 3627TIP3    H235077   5.868   1.426  18.815
 3628TIP3   OH235078   5.365   1.165  19.122
 3628TIP3    H135079   5.281   1.099  19.161
 3628TIP3    H235080   5.412   1.090  19.057
 3629TIP3   OH235081   5.508   0.952  18.923
 3629TIP3    H135082   5.502   0.986  18.830
 3629TIP3    H235083   5.624   0.961  18.939
 3630TIP3   OH235084   6.596   1.188  18.870
 3630TIP3    H135085   6.570   1.164  18.777
 3630TIP3    H235086   6.598   1.307  18.869
 3631TIP3   OH235087   5.453   2.204  19.070
 3631TIP3    H135088   5.564   2.202  19.100
 3631TIP3    H235089   5.464   2.272  18.990
 3632TIP3   OH235090   4.676   1.572  19.002
 3632TIP3    H135091   4.794   1.585  18.997
 3632TIP3    H235092   4.656   1.506  18.921
 3633TIP3   OH235093   4.560   2.171  19.453
 3633TIP3    H135094   4.456   2.122  19.432
 3633TIP3    H235095   4.584   2.111  19.535
 3634TIP3   OH235096   4.636   1.982  19.658
 3634TIP3    H135097   4.606   1.883  19.705
 3634TIP3    H235098   4.700   2.033  19.728
 3635TIP3   OH235099   6.655   1.340  19.237
 3635TIP3    H135100   6.756   1.397  19.252
 3635TIP3    H235101   6.653   1.267  19.315
 3636TIP3   OH235102   6.660   1.153  19.462
 3636TIP3    H135103   6.587   1.075  19.502
 3636TIP3    H235104   6.754   1.141  19.521
 3637TIP3   OH235105   6.767   1.439  19.934
 3637TIP3    H135106   6.840   1.390  19.871
 3637TIP3    H235107   6.701   1.508  19.879
 3638TIP3   OH235108   6.756   1.060  19.087
 3638TIP3    H135109   6.680   1.066  19.012
 3638TIP3    H235110   6.722   1.154  19.137
 3639TIP3   OH235111   6.534   0.757  18.929
 3639TIP3    H135112   6.544   0.812  18.845
 3639TIP3    H235113   6.491   0.649  18.908
 3640TIP3   OH235114   6.475   0.899  19.531
 3640TIP3    H135115   6.428   0.805  19.490
 3640TIP3    H235116   6.414   0.901  19.615
 3641TIP3   OH235117   4.597   1.122  19.866
 3641TIP3    H135118   4.650   1.117  19.778
 3641TIP3    H235119   4.690   1.120  19.926
 3642TIP3   OH235120   6.473   0.452  18.896
 3642TIP3    H135121   6.548   0.373  18.930
 3642TIP3    H235122   6.370   0.396  18.890
 3643TIP3   OH235123   6.373   0.660  19.361
 3643TIP3    H135124   6.406   0.546  19.361
 3643TIP3    H235125   6.474   0.708  19.332
 3644TIP3   OH235126   6.486   0.726  19.867
 3644TIP3    H135127   6.601   0.712  19.864
 3644TIP3    H235128   6.451   0.626  19.912
 3645TIP3   OH235129   6.481   0.344  19.388
 3645TIP3    H135130   6.511   0.280  19.466
 3645TIP3    H235131   6.404   0.277  19.340
 3646TIP3   OH235132   4.726   0.414  19.849
 3646TIP3    H135133   4.798   0.322  19.854
 3646TIP3    H235134   4.798   0.498  19.878
 3647TIP3   OH235135   4.552   0.725  19.967
 3647TIP3    H135136   4.588   0.695  19.877
 3647TIP3    H235137   4.578   0.838  19.963
 3648TIP3   OH235138   6.736   0.292  19.035
 3648TIP3    H135139   6.780   0.220  18.966
 3648TIP3    H235140   6.816   0.376  19.044
 3649TIP3   OH235141   4.602   0.280  19.372
 3649TIP3    H135142   4.487   0.280  19.366
 3649TIP3    H235143   4.631   0.342  19.292
 3650TIP3   OH235144   6.323   2.102  19.540
 3650TIP3    H135145   6.422   2.076  19.491
 3650TIP3    H235146   6.359   2.177  19.608
 3651TIP3   OH235147   4.834   2.099  19.863
 3651TIP3    H135148   4.846   2.102  19.962
 3651TIP3    H235149   4.928   2.035  19.839
 3652TIP3   OH235150   5.070   1.920  19.761
 3652TIP3    H135151   5.064   1.805  19.776
 3652TIP3    H235152   5.174   1.944  19.799
 3653TIP3   OH235153   5.371   1.976  19.862
 3653TIP3    H135154   5.400   1.866  19.841
 3653TIP3    H235155   5.368   1.973  19.959
 3654TIP3   OH235156   5.759   0.330  19.805
 3654TIP3    H135157   5.700   0.228  19.809
 3654TIP3    H235158   5.840   0.302  19.739
 3655TIP3   OH235159   6.388   0.119  19.798
 3655TIP3    H135160   6.463   0.145  19.725
 3655TIP3    H235161   6.290   0.170  19.767
 3656TIP3   OH235162   6.618   0.198  19.598
 3656TIP3    H135163   6.673   0.109  19.554
 3656TIP3    H235164   6.696   0.286  19.590
 3657TIP3   OH235165   4.894   0.126  19.524
 3657TIP3    H135166   4.806   0.148  19.462
 3657TIP3    H235167   4.888   0.008  19.528
 3658TIP3   OH235168   4.758   0.124  19.152
 3658TIP3    H135169   4.766   0.174  19.063
 3658TIP3    H235170   4.654   0.160  19.182
 3659TIP3   OH235171   5.434   0.130  19.554
 3659TIP3    H135172   5.525   0.163  19.500
 3659TIP3    H235173   5.483   0.127  19.644
 3660TIP3   OH235174   6.035   0.186  19.662
 3660TIP3    H135175   6.100   0.157  19.587
 3660TIP3    H235176   6.046   0.090  19.718
 3661TIP3   OH235177   6.239   0.215  19.231
 3661TIP3    H135178   6.127   0.247  19.219
 3661TIP3    H235179   6.224   0.104  19.259
 3662TIP3   OH235180   4.732   1.980  19.234
 3662TIP3    H135181   4.615   1.992  19.232
 3662TIP3    H235182   4.760   2.089  19.206
 3663TIP3   OH235183   4.909   0.280  18.961
 3663TIP3    H135184   4.975   0.210  18.903
 3663TIP3    H235185   4.982   0.288  19.037
 3664TIP3   OH235186   5.509   0.340  19.239
 3664TIP3    H135187   5.566   0.265  19.297
 3664TIP3    H235188   5.560   0.442  19.267
 3665TIP3   OH235189   5.821   2.132  19.085
 3665TIP3    H135190   5.933   2.131  19.056
 3665TIP3    H235191   5.776   2.092  19.001
 3666TIP3   OH235192   6.565   2.029  19.362
 3666TIP3    H135193   6.534   1.939  19.304
 3666TIP3    H235194   6.568   2.116  19.296
 3667TIP3   OH235195   4.884   2.071  18.919
 3667TIP3    H135196   4.856   2.117  19.005
 3667TIP3    H235197   4.972   2.002  18.945
 3668TIP3   OH235198   8.243   1.171  19.546
 3668TIP3    H135199   8.248   1.285  19.564
 3668TIP3    H235200   8.150   1.165  19.488
 3669TIP3   OH235201   8.090   1.058  19.861
 3669TIP3    H135202   8.090   1.015  19.953
 3669TIP3    H235203   8.020   0.984  19.816
 3670TIP3   OH235204   8.442   1.424  19.684
 3670TIP3    H135205   8.399   1.338  19.741
 3670TIP3    H235206   8.491   1.489  19.755
 3671TIP3   OH235207   7.304   1.590  19.883
 3671TIP3    H135208   7.286   1.483  19.842
 3671TIP3    H235209   7.420   1.600  19.874
 3672TIP3   OH235210   6.907   0.780  19.445
 3672TIP3    H135211   6.864   0.884  19.465
 3672TIP3    H235212   6.812   0.721  19.419
 3673TIP3   OH235213   6.943   1.068  19.604
 3673TIP3    H135214   6.994   0.979  19.652
 3673TIP3    H235215   7.031   1.115  19.555
 3674TIP3   OH235216   8.251   2.092  19.803
 3674TIP3    H135217   8.300   2.032  19.727
 3674TIP3    H235218   8.165   2.017  19.824
 3675TIP3   OH235219   7.934   1.404  19.990
 3675TIP3    H135220   7.970   1.355  19.907
 3675TIP3    H235221   8.022   1.380  20.050
 3676TIP3   OH235222   8.292   0.670  19.977
 3676TIP3    H135223   8.329   0.559  19.984
 3676TIP3    H235224   8.328   0.697  19.887
 3677TIP3   OH235225   7.477   0.472  19.677
 3677TIP3    H135226   7.494   0.569  19.621
 3677TIP3    H235227   7.418   0.404  19.613
 3678TIP3   OH235228   8.389   0.503  19.493
 3678TIP3    H135229   8.437   0.474  19.580
 3678TIP3    H235230   8.450   0.598  19.469
 3679TIP3   OH235231   7.013   0.787  19.749
 3679TIP3    H135232   7.099   0.737  19.800
 3679TIP3    H235233   7.034   0.742  19.661
 3680TIP3   OH235234   7.644   0.964  19.701
 3680TIP3    H135235   7.729   0.900  19.739
 3680TIP3    H235236   7.597   0.883  19.640
 3681TIP3   OH235237   8.153   1.469  19.432
 3681TIP3    H135238   8.125   1.480  19.338
 3681TIP3    H235239   8.114   1.571  19.468
 3682TIP3   OH235240   8.518   0.434  19.729
 3682TIP3    H135241   8.467   0.418  19.816
 3682TIP3    H235242   8.632   0.413  19.746
 3683TIP3   OH235243   7.282   0.584  19.872
 3683TIP3    H135244   7.316   0.694  19.853
 3683TIP3    H235245   7.334   0.527  19.798
 3684TIP3   OH235246   6.967   1.454  19.255
 3684TIP3    H135247   6.958   1.525  19.177
 3684TIP3    H235248   6.978   1.532  19.327
 3685TIP3   OH235249   8.618   1.582  19.879
 3685TIP3    H135250   8.574   1.519  19.953
 3685TIP3    H235251   8.658   1.674  19.927
 3686TIP3   OH235252   7.789   0.089  19.802
 3686TIP3    H135253   7.804  -0.026  19.819
 3686TIP3    H235254   7.699   0.109  19.863
 3687TIP3   OH235255   8.360   1.896  19.601
 3687TIP3    H135256   8.389   1.788  19.569
 3687TIP3    H235257   8.459   1.956  19.580
 3688TIP3   OH235258   8.533   1.634  19.477
 3688TIP3    H135259   8.519   1.548  19.413
 3688TIP3    H235260   8.555   1.572  19.558
 3689TIP3   OH235261   8.063   1.092  19.295
 3689TIP3    H135262   8.011   1.194  19.273
 3689TIP3    H235263   8.170   1.103  19.255
 3690TIP3   OH235264   8.089   0.974  18.974
 3690TIP3    H135265   8.162   1.025  19.039
 3690TIP3    H235266   8.102   0.863  18.998
 3691TIP3   OH235267   8.510   1.123  19.376
 3691TIP3    H135268   8.429   1.152  19.443
 3691TIP3    H235269   8.576   1.051  19.431
 3692TIP3   OH235270   7.478   1.184  19.566
 3692TIP3    H135271   7.441   1.128  19.486
 3692TIP3    H235272   7.549   1.106  19.609
 3693TIP3   OH235273   7.642   1.632  19.832
 3693TIP3    H135274   7.619   1.603  19.739
 3693TIP3    H235275   7.709   1.542  19.861
 3694TIP3   OH235276   7.444   0.984  19.919
 3694TIP3    H135277   7.507   1.001  19.838
 3694TIP3    H235278   7.483   1.069  19.977
 3695TIP3   OH235279   8.335   1.043  19.152
 3695TIP3    H135280   8.405   1.075  19.226
 3695TIP3    H235281   8.393   1.092  19.076
 3696TIP3   OH235282   8.070   1.782  19.458
 3696TIP3    H135283   8.128   1.823  19.535
 3696TIP3    H235284   8.017   1.879  19.426
 3697TIP3   OH235285   8.771   0.107  19.088
 3697TIP3    H135286   8.676   0.158  19.122
 3697TIP3    H235287   8.851   0.190  19.107
 3698TIP3   OH235288   7.313   1.073  19.338
 3698TIP3    H135289   7.295   1.176  19.293
 3698TIP3    H235290   7.286   0.997  19.267
 3699TIP3   OH235291   8.930   1.770  18.987
 3699TIP3    H135292   8.968   1.882  19.004
 3699TIP3    H235293   9.036   1.720  18.994
 3700TIP3   OH235294   6.870   1.748  19.844
 3700TIP3    H135295   6.956   1.686  19.883
 3700TIP3    H235296   6.817   1.794  19.921
 3701TIP3   OH235297   8.028   2.138  19.330
 3701TIP3    H135298   8.017   2.150  19.232
 3701TIP3    H235299   8.008   2.250  19.357
 3702TIP3   OH235300   7.256   2.008  19.506
 3702TIP3    H135301   7.280   1.992  19.601
 3702TIP3    H235302   7.147   1.966  19.498
 3703TIP3   OH235303   8.364   2.069  19.027
 3703TIP3    H135304   8.428   1.980  18.988
 3703TIP3    H235305   8.378   2.048  19.123
 3704TIP3   OH235306   8.340   2.048  19.299
 3704TIP3    H135307   8.226   2.066  19.315
 3704TIP3    H235308   8.364   1.969  19.367
 3705TIP3   OH235309   7.495   0.192  19.930
 3705TIP3    H135310   7.408   0.210  19.865
 3705TIP3    H235311   7.537   0.301  19.941
 3706TIP3   OH235312   8.508   1.188  18.967
 3706TIP3    H135313   8.478   1.199  18.872
 3706TIP3    H235314   8.622   1.210  18.962
 3707TIP3   OH235315   7.970   0.427  19.013
 3707TIP3    H135316   7.939   0.358  19.087
 3707TIP3    H235317   7.931   0.367  18.938
 3708TIP3   OH235318   7.495   0.750  19.551
 3708TIP3    H135319   7.380   0.726  19.544
 3708TIP3    H235320   7.532   0.728  19.459
 3709TIP3   OH235321   8.186   0.823  19.397
 3709TIP3    H135322   8.129   0.913  19.355
 3709TIP3    H235323   8.251   0.787  19.322
 3710TIP3   OH235324   8.285   0.736  19.686
 3710TIP3    H135325   8.252   0.814  19.618
 3710TIP3    H235326   8.288   0.640  19.629
 3711TIP3   OH235327   7.576   0.461  18.893
 3711TIP3    H135328   7.523   0.414  18.973
 3711TIP3    H235329   7.487   0.528  18.860
 3712TIP3   OH235330   6.814   0.476  19.623
 3712TIP3    H135331   6.868   0.461  19.710
 3712TIP3    H235332   6.890   0.431  19.562
 3713TIP3   OH235333   6.919   0.512  19.151
 3713TIP3    H135334   6.997   0.556  19.089
 3713TIP3    H235335   6.862   0.610  19.178
 3714TIP3   OH235336   7.819   0.463  19.612
 3714TIP3    H135337   7.720   0.416  19.645
 3714TIP3    H235338   7.891   0.438  19.687
 3715TIP3   OH235339   7.183   0.647  19.537
 3715TIP3    H135340   7.090   0.701  19.496
 3715TIP3    H235341   7.210   0.566  19.469
 3716TIP3   OH235342   7.589   0.701  19.301
 3716TIP3    H135343   7.699   0.677  19.273
 3716TIP3    H235344   7.541   0.754  19.224
 3717TIP3   OH235345   8.299   0.330  19.941
 3717TIP3    H135346   8.263   0.308  20.032
 3717TIP3    H235347   8.195   0.314  19.898
 3718TIP3   OH235348   7.466   0.839  19.035
 3718TIP3    H135349   7.433   0.748  18.982
 3718TIP3    H235350   7.564   0.870  18.985
 3719TIP3   OH235351   7.937   0.760  19.836
 3719TIP3    H135352   8.021   0.737  19.772
 3719TIP3    H235353   7.967   0.684  19.905
 3720TIP3   OH235354   7.324   0.361  19.440
 3720TIP3    H135355   7.265   0.270  19.479
 3720TIP3    H235356   7.408   0.301  19.397
 3721TIP3   OH235357   7.864   1.366  19.241
 3721TIP3    H135358   7.774   1.306  19.200
 3721TIP3    H235359   7.811   1.393  19.326
 3722TIP3   OH235360   8.275   0.464  19.069
 3722TIP3    H135361   8.164   0.481  19.043
 3722TIP3    H235362   8.311   0.572  19.096
 3723TIP3   OH235363   8.387   0.714  19.189
 3723TIP3    H135364   8.494   0.707  19.230
 3723TIP3    H235365   8.393   0.811  19.136
 3724TIP3   OH235366   7.241   1.291  19.789
 3724TIP3    H135367   7.276   1.260  19.700
 3724TIP3    H235368   7.314   1.236  19.848
 3725TIP3   OH235369   8.100   1.528  19.138
 3725TIP3    H135370   8.054   1.634  19.160
 3725TIP3    H235371   8.014   1.456  19.169
 3726TIP3   OH235372   8.956   0.742  19.180
 3726TIP3    H135373   8.900   0.694  19.103
 3726TIP3    H235374   8.984   0.847  19.141
 3727TIP3   OH235375   8.765   1.784  19.222
 3727TIP3    H135376   8.695   1.694  19.244
 3727TIP3    H235377   8.826   1.750  19.144
 3728TIP3   OH235378   8.380   1.201  19.874
 3728TIP3    H135379   8.278   1.145  19.853
 3728TIP3    H235380   8.456   1.136  19.821
 3729TIP3   OH235381   7.530   1.696  19.576
 3729TIP3    H135382   7.583   1.799  19.560
 3729TIP3    H235383   7.438   1.706  19.519
 3730TIP3   OH235384   7.086   1.090  19.019
 3730TIP3    H135385   7.135   1.163  19.084
 3730TIP3    H235386   6.971   1.097  19.038
 3731TIP3   OH235387   7.682   1.409  19.459
 3731TIP3    H135388   7.644   1.505  19.505
 3731TIP3    H235389   7.625   1.324  19.506
 3732TIP3   OH235390   7.567   1.982  19.430
 3732TIP3    H135391   7.451   1.993  19.442
 3732TIP3    H235392   7.602   2.084  19.466
 3733TIP3   OH235393   8.494   1.579  19.014
 3733TIP3    H135394   8.513   1.523  19.098
 3733TIP3    H235395   8.386   1.541  18.999
 3734TIP3   OH235396   9.031   2.070  19.033
 3734TIP3    H135397   9.060   2.173  18.992
 3734TIP3    H235398   8.928   2.102  19.068
 3735TIP3   OH235399   8.610   1.392  19.225
 3735TIP3    H135400   8.574   1.285  19.247
 3735TIP3    H235401   8.728   1.378  19.217
 3736TIP3   OH235402   7.768   1.717  18.864
 3736TIP3    H135403   7.744   1.658  18.782
 3736TIP3    H235404   7.704   1.655  18.928
 3737TIP3   OH235405   7.624   1.608  19.102
 3737TIP3    H135406   7.718   1.564  19.143
 3737TIP3    H235407   7.633   1.720  19.133
 3738TIP3   OH235408   7.237   1.314  19.161
 3738TIP3    H135409   7.135   1.361  19.192
 3738TIP3    H235410   7.286   1.406  19.118
 3739TIP3   OH235411   8.203   0.347  19.331
 3739TIP3    H135412   8.198   0.432  19.264
 3739TIP3    H235413   8.281   0.392  19.394
 3740TIP3   OH235414   7.970   1.838  19.167
 3740TIP3    H135415   7.861   1.878  19.184
 3740TIP3    H235416   8.026   1.938  19.147
 3741TIP3   OH235417   7.894   0.581  19.370
 3741TIP3    H135418   7.985   0.647  19.395
 3741TIP3    H235419   7.850   0.551  19.458
 3742TIP3   OH235420   7.975   0.220  19.468
 3742TIP3    H135421   7.960   0.329  19.497
 3742TIP3    H235422   8.080   0.233  19.423
 3743TIP3   OH235423   7.654   1.912  19.166
 3743TIP3    H135424   7.666   2.005  19.105
 3743TIP3    H235425   7.600   1.966  19.240
 3744TIP3   OH235426   7.445   0.391  19.134
 3744TIP3    H135427   7.423   0.473  19.200
 3744TIP3    H235428   7.556   0.370  19.158
 3745TIP3   OH235429   8.524   0.974  19.736
 3745TIP3    H135430   8.435   0.900  19.725
 3745TIP3    H235431   8.590   0.912  19.798
 3746TIP3   OH235432   7.280   1.603  19.018
 3746TIP3    H135433   7.366   1.650  19.072
 3746TIP3    H235434   7.344   1.544  18.953
 3747TIP3   OH235435   7.074   0.751  18.955
 3747TIP3    H135436   7.124   0.852  18.982
 3747TIP3    H235437   6.986   0.793  18.902
 3748TIP3   OH235438   8.725   2.035  19.942
 3748TIP3    H135439   8.730   2.111  19.868
 3748TIP3    H235440   8.836   2.038  19.976
 3749TIP3   OH235441   7.214   0.174  19.777
 3749TIP3    H135442   7.210   0.172  19.679
 3749TIP3    H235443   7.174   0.065  19.793
 3750TIP3   OH235444   7.031   1.751  19.427
 3750TIP3    H135445   6.938   1.819  19.444
 3750TIP3    H235446   7.073   1.808  19.349
 3751TIP3   OH235447   8.018   1.950  18.861
 3751TIP3    H135448   7.961   1.850  18.882
 3751TIP3    H235449   8.119   1.908  18.825
 3752TIP3   OH235450   8.567   1.872  18.887
 3752TIP3    H135451   8.591   1.782  18.947
 3752TIP3    H235452   8.660   1.871  18.828
 3753TIP3   OH235453   7.462   1.375  18.854
 3753TIP3    H135454   7.495   1.334  18.940
 3753TIP3    H235455   7.555   1.345  18.797
 3754TIP3   OH235456   8.143   1.531  18.842
 3754TIP3    H135457   8.101   1.526  18.933
 3754TIP3    H235458   8.123   1.418  18.816
 3755TIP3   OH235459   7.622   1.170  19.126
 3755TIP3    H135460   7.546   1.097  19.166
 3755TIP3    H235461   7.678   1.097  19.066
 3756TIP3   OH235462   7.780   0.949  18.913
 3756TIP3    H135463   7.769   0.985  18.821
 3756TIP3    H235464   7.896   0.964  18.924
 3757TIP3   OH235465   8.844   1.198  18.869
 3757TIP3    H135466   8.802   1.187  18.778
 3757TIP3    H235467   8.857   1.315  18.877
 3758TIP3   OH235468   7.717   2.192  19.062
 3758TIP3    H135469   7.831   2.197  19.085
 3758TIP3    H235470   7.715   2.269  18.989
 3759TIP3   OH235471   6.949   1.573  18.999
 3759TIP3    H135472   7.068   1.574  18.996
 3759TIP3    H235473   6.923   1.510  18.919
 3760TIP3   OH235474   6.815   2.189  19.457
 3760TIP3    H135475   6.716   2.129  19.435
 3760TIP3    H235476   6.846   2.131  19.539
 3761TIP3   OH235477   6.900   1.986  19.656
 3761TIP3    H135478   6.860   1.886  19.697
 3761TIP3    H235479   6.952   2.039  19.734
 3762TIP3   OH235480   8.934   1.336  19.244
 3762TIP3    H135481   9.041   1.370  19.266
 3762TIP3    H235482   8.917   1.256  19.315
 3763TIP3   OH235483   8.956   1.117  19.452
 3763TIP3    H135484   8.849   1.069  19.465
 3763TIP3    H235485   9.006   1.091  19.537
 3764TIP3   OH235486   9.050   1.396  19.949
 3764TIP3    H135487   9.161   1.412  19.921
 3764TIP3    H235488   9.001   1.499  19.924
 3765TIP3   OH235489   8.986   1.062  19.093
 3765TIP3    H135490   8.920   1.075  19.013
 3765TIP3    H235491   8.982   1.171  19.128
 3766TIP3   OH235492   8.768   0.744  18.951
 3766TIP3    H135493   8.783   0.809  18.873
 3766TIP3    H235494   8.742   0.638  18.912
 3767TIP3   OH235495   8.706   0.932  19.527
 3767TIP3    H135496   8.773   0.840  19.543
 3767TIP3    H235497   8.635   0.931  19.606
 3768TIP3   OH235498   6.863   1.112  19.862
 3768TIP3    H135499   6.906   1.109  19.771
 3768TIP3    H235500   6.961   1.123  19.914
 3769TIP3   OH235501   8.712   0.445  18.851
 3769TIP3    H135502   8.758   0.376  18.920
 3769TIP3    H235503   8.599   0.414  18.850
 3770TIP3   OH235504   8.680   0.642  19.342
 3770TIP3    H135505   8.693   0.526  19.353
 3770TIP3    H235506   8.791   0.673  19.331
 3771TIP3   OH235507   8.674   0.734  19.857
 3771TIP3    H135508   8.790   0.726  19.839
 3771TIP3    H235509   8.659   0.632  19.904
 3772TIP3   OH235510   8.732   0.325  19.367
 3772TIP3    H135511   8.740   0.245  19.438
 3772TIP3    H235512   8.633   0.293  19.321
 3773TIP3   OH235513   6.983   0.400  19.852
 3773TIP3    H135514   7.057   0.308  19.855
 3773TIP3    H235515   7.054   0.486  19.880
 3774TIP3   OH235516   6.818   0.738  19.962
 3774TIP3    H135517   6.866   0.733  19.872
 3774TIP3    H235518   6.830   0.852  19.980
 3775TIP3   OH235519   8.975   0.336  19.031
 3775TIP3    H135520   9.025   0.242  18.985
 3775TIP3    H235521   9.008   0.425  18.976
 3776TIP3   OH235522   6.874   0.278  19.374
 3776TIP3    H135523   6.758   0.268  19.371
 3776TIP3    H235524   6.892   0.341  19.294
 3777TIP3   OH235525   8.608   2.106  19.546
 3777TIP3    H135526   8.669   2.082  19.464
 3777TIP3    H235527   8.692   2.152  19.602
 3778TIP3   OH235528   7.097   2.102  19.869
 3778TIP3    H135529   7.120   2.108  19.965
 3778TIP3    H235530   7.188   2.038  19.837
 3779TIP3   OH235531   7.342   1.926  19.760
 3779TIP3    H135532   7.339   1.810  19.765
 3779TIP3    H235533   7.451   1.948  19.792
 3780TIP3   OH235534   7.636   1.963  19.860
 3780TIP3    H135535   7.646   1.846  19.861
 3780TIP3    H235536   7.619   1.985  19.953
 3781TIP3   OH235537   8.018   0.329  19.792
 3781TIP3    H135538   7.950   0.233  19.808
 3781TIP3    H235539   8.096   0.283  19.728
 3782TIP3   OH235540   8.677   0.110  19.812
 3782TIP3    H135541   8.738   0.114  19.728
 3782TIP3    H235542   8.572   0.144  19.786
 3783TIP3   OH235543   8.838   0.137  19.578
 3783TIP3    H135544   8.921   0.061  19.551
 3783TIP3    H235545   8.898   0.239  19.581
 3784TIP3   OH235546   7.151   0.127  19.524
 3784TIP3    H135547   7.063   0.146  19.462
 3784TIP3    H235548   7.148   0.010  19.530
 3785TIP3   OH235549   7.028   0.121  19.151
 3785TIP3    H135550   7.034   0.163  19.060
 3785TIP3    H235551   6.918   0.143  19.173
 3786TIP3   OH235552   7.697   0.126  19.548
 3786TIP3    H135553   7.790   0.163  19.497
 3786TIP3    H235554   7.744   0.124  19.639
 3787TIP3   OH235555   8.273   0.176  19.666
 3787TIP3    H135556   8.374   0.198  19.623
 3787TIP3    H235557   8.293   0.074  19.710
 3788TIP3   OH235558   8.485   0.202  19.239
 3788TIP3    H135559   8.372   0.236  19.234
 3788TIP3    H235560   8.473   0.090  19.265
 3789TIP3   OH235561   7.000   1.986  19.236
 3789TIP3    H135562   6.884   2.002  19.229
 3789TIP3    H235563   7.036   2.089  19.201
 3790TIP3   OH235564   7.165   0.290  18.954
 3790TIP3    H135565   7.237   0.221  18.902
 3790TIP3    H235566   7.226   0.304  19.036
 3791TIP3   OH235567   7.774   0.340  19.230
 3791TIP3    H135568   7.830   0.263  19.285
 3791TIP3    H235569   7.825   0.439  19.262
 3792TIP3   OH235570   8.047   2.146  19.064
 3792TIP3    H135571   8.160   2.146  19.034
 3792TIP3    H235572   8.006   2.078  18.990
 3793TIP3   OH235573   8.800   2.071  19.336
 3793TIP3    H135574   8.794   1.967  19.291
 3793TIP3    H235575   8.801   2.146  19.260
 3794TIP3   OH235576   7.140   2.072  18.918
 3794TIP3    H135577   7.110   2.119  19.004
 3794TIP3    H235578   7.234   2.008  18.941
 3795TIP3   OH235579   9.055   0.808  19.455
 3795TIP3    H135580   9.040   0.918  19.428
 3795TIP3    H235581   9.026   0.755  19.373
 3796TIP3   OH235582   9.060   1.715  19.879
 3796TIP3    H135583   9.178   1.722  19.877
 3796TIP3    H235584   9.031   1.771  19.960
 3797TIP3   OH235585   8.994   0.442  19.615
 3797TIP3    H135586   9.090   0.502  19.644
 3797TIP3    H235587   9.019   0.430  19.521
 3798TIP3   OH235588   9.006   2.203  19.505
 3798TIP3    H135589   8.938   2.143  19.442
 3798TIP3    H235590   9.020   2.123  19.577
 3799TIP3   OH235591   9.053   2.022  19.726
 3799TIP3    H135592   9.010   1.914  19.736
 3799TIP3    H235593   9.169   2.004  19.724
 3800TIP3   OH235594   9.167   1.049  19.897
 3800TIP3    H135595   9.198   1.097  19.812
 3800TIP3    H235596   9.186   1.138  19.957
 3801TIP3   OH235597   8.996   0.733  19.868
 3801TIP3    H135598   9.091   0.666  19.874
 3801TIP3    H235599   9.041   0.836  19.894
 3802TIP3   OH235600   9.062   0.349  19.344
 3802TIP3    H135601   8.946   0.346  19.349
 3802TIP3    H235602   9.078   0.350  19.247
 3803TIP3   OH235603   1.441   3.456  19.532
 3803TIP3    H135604   1.447   3.572  19.543
 3803TIP3    H235605   1.350   3.448  19.474
 3804TIP3   OH235606   1.316   3.335  19.873
 3804TIP3    H135607   1.306   3.286  19.960
 3804TIP3    H235608   1.235   3.281  19.821
 3805TIP3   OH235609   1.672   3.685  19.701
 3805TIP3    H135610   1.645   3.592  19.756
 3805TIP3    H235611   1.720   3.758  19.767
 3806TIP3   OH235612   0.458   3.850  19.850
 3806TIP3    H135613   0.449   3.737  19.822
 3806TIP3    H235614   0.571   3.853  19.877
 3807TIP3   OH235615   0.145   3.017  19.369
 3807TIP3    H135616   0.172   3.113  19.419
 3807TIP3    H235617   0.037   2.996  19.404
 3808TIP3   OH235618   0.122   3.338  19.676
 3808TIP3    H135619   0.176   3.240  19.707
 3808TIP3    H235620   0.204   3.389  19.622
 3809TIP3   OH235621   1.390   4.364  19.744
 3809TIP3    H135622   1.458   4.298  19.685
 3809TIP3    H235623   1.340   4.277  19.792
 3810TIP3   OH235624   1.159   3.661  19.979
 3810TIP3    H135625   1.213   3.605  19.908
 3810TIP3    H235626   1.240   3.652  20.048
 3811TIP3   OH235627   1.494   2.986  19.971
 3811TIP3    H135628   1.523   2.872  19.974
 3811TIP3    H235629   1.487   3.001  19.875
 3812TIP3   OH235630   0.707   2.714  19.707
 3812TIP3    H135631   0.716   2.815  19.656
 3812TIP3    H235632   0.654   2.648  19.639
 3813TIP3   OH235633   1.543   2.773  19.516
 3813TIP3    H135634   1.609   2.728  19.590
 3813TIP3    H235635   1.622   2.848  19.482
 3814TIP3   OH235636   0.284   3.055  19.722
 3814TIP3    H135637   0.344   2.972  19.770
 3814TIP3    H235638   0.299   3.014  19.632
 3815TIP3   OH235639   0.815   3.209  19.694
 3815TIP3    H135640   0.907   3.155  19.732
 3815TIP3    H235641   0.773   3.121  19.638
 3816TIP3   OH235642   1.368   3.746  19.412
 3816TIP3    H135643   1.342   3.745  19.317
 3816TIP3    H235644   1.342   3.859  19.433
 3817TIP3   OH235645   1.757   2.696  19.696
 3817TIP3    H135646   1.684   2.669  19.770
 3817TIP3    H235647   1.860   2.665  19.732
 3818TIP3   OH235648   0.462   2.851  19.865
 3818TIP3    H135649   0.514   2.933  19.918
 3818TIP3    H235650   0.551   2.803  19.815
 3819TIP3   OH235651   0.137   3.710  19.253
 3819TIP3    H135652   0.132   3.776  19.172
 3819TIP3    H235653   0.172   3.790  19.320
 3820TIP3   OH235654   1.810   3.883  19.872
 3820TIP3    H135655   1.780   3.809  19.943
 3820TIP3    H235656   1.860   3.965  19.925
 3821TIP3   OH235657   1.019   2.336  19.824
 3821TIP3    H135658   1.046   2.224  19.828
 3821TIP3    H235659   0.902   2.338  19.845
 3822TIP3   OH235660   1.561   4.164  19.599
 3822TIP3    H135661   1.616   4.067  19.572
 3822TIP3    H235662   1.648   4.241  19.578
 3823TIP3   OH235663   1.754   3.908  19.491
 3823TIP3    H135664   1.715   3.833  19.425
 3823TIP3    H235665   1.750   3.841  19.571
 3824TIP3   OH235666   1.271   3.359  19.276
 3824TIP3    H135667   1.220   3.463  19.258
 3824TIP3    H235668   1.379   3.371  19.239
 3825TIP3   OH235669   1.308   3.227  18.966
 3825TIP3    H135670   1.366   3.268  19.045
 3825TIP3    H235671   1.339   3.115  18.967
 3826TIP3   OH235672   1.734   3.364  19.384
 3826TIP3    H135673   1.656   3.385  19.455
 3826TIP3    H235674   1.817   3.301  19.431
 3827TIP3   OH235675   0.683   3.451  19.567
 3827TIP3    H135676   0.629   3.400  19.491
 3827TIP3    H235677   0.742   3.362  19.609
 3828TIP3   OH235678   0.872   3.898  19.834
 3828TIP3    H135679   0.854   3.858  19.744
 3828TIP3    H235680   0.950   3.821  19.870
 3829TIP3   OH235681   0.677   3.312  19.922
 3829TIP3    H135682   0.718   3.270  19.837
 3829TIP3    H235683   0.775   3.341  19.968
 3830TIP3   OH235684   1.556   3.336  19.151
 3830TIP3    H135685   1.632   3.354  19.226
 3830TIP3    H235686   1.620   3.374  19.074
 3831TIP3   OH235687   1.285   4.050  19.451
 3831TIP3    H135688   1.349   4.087  19.526
 3831TIP3    H235689   1.224   4.145  19.427
 3832TIP3   OH235690   2.021   2.268  19.175
 3832TIP3    H135691   1.908   2.281  19.199
 3832TIP3    H235692   2.056   2.375  19.150
 3833TIP3   OH235693   0.530   3.318  19.335
 3833TIP3    H135694   0.517   3.420  19.286
 3833TIP3    H235695   0.493   3.242  19.270
 3834TIP3   OH235696   2.152   4.000  18.983
 3834TIP3    H135697   2.176   4.111  19.005
 3834TIP3    H235698   2.248   3.948  19.019
 3835TIP3   OH235699   0.162   4.006  19.883
 3835TIP3    H135700   0.248   3.926  19.876
 3835TIP3    H235701   0.198   4.062  19.962
 3836TIP3   OH235702   1.258   4.422  19.339
 3836TIP3    H135703   1.255   4.433  19.241
 3836TIP3    H235704   1.223   4.530  19.365
 3837TIP3   OH235705   0.484   4.268  19.514
 3837TIP3    H135706   0.503   4.231  19.606
 3837TIP3    H235707   0.368   4.256  19.506
 3838TIP3   OH235708   1.618   4.339  19.026
 3838TIP3    H135709   1.680   4.248  18.992
 3838TIP3    H235710   1.613   4.316  19.123
 3839TIP3   OH235711   1.565   4.325  19.295
 3839TIP3    H135712   1.453   4.350  19.315
 3839TIP3    H235713   1.586   4.242  19.361
 3840TIP3   OH235714   0.701   2.401  19.846
 3840TIP3    H135715   0.594   2.435  19.817
 3840TIP3    H235716   0.734   2.494  19.901
 3841TIP3   OH235717   1.748   3.455  18.964
 3841TIP3    H135718   1.726   3.473  18.869
 3841TIP3    H235719   1.864   3.475  18.966
 3842TIP3   OH235720   1.224   2.680  18.971
 3842TIP3    H135721   1.174   2.676  19.058
 3842TIP3    H235722   1.172   2.585  18.932
 3843TIP3   OH235723   0.713   2.971  19.546
 3843TIP3    H135724   0.598   2.962  19.525
 3843TIP3    H235725   0.760   2.968  19.454
 3844TIP3   OH235726   1.387   3.096  19.388
 3844TIP3    H135727   1.334   3.187  19.345
 3844TIP3    H235728   1.456   3.059  19.315
 3845TIP3   OH235729   1.465   3.042  19.693
 3845TIP3    H135730   1.439   3.132  19.634
 3845TIP3    H235731   1.470   2.953  19.628
 3846TIP3   OH235732   0.784   2.717  18.916
 3846TIP3    H135733   0.719   2.646  18.975
 3846TIP3    H235734   0.703   2.772  18.865
 3847TIP3   OH235735   0.095   2.677  19.625
 3847TIP3    H135736   0.143   2.681  19.715
 3847TIP3    H235737   0.140   2.578  19.592
 3848TIP3   OH235738   0.127   2.790  19.139
 3848TIP3    H135739   0.203   2.827  19.071
 3848TIP3    H235740   0.119   2.886  19.194
 3849TIP3   OH235741   1.046   2.720  19.605
 3849TIP3    H135742   0.944   2.705  19.649
 3849TIP3    H235743   1.120   2.669  19.670
 3850TIP3   OH235744   0.400   2.906  19.500
 3850TIP3    H135745   0.317   2.916  19.430
 3850TIP3    H235746   0.409   2.788  19.498
 3851TIP3   OH235747   0.826   2.936  19.292
 3851TIP3    H135748   0.940   2.926  19.271
 3851TIP3    H235749   0.781   3.001  19.219
 3852TIP3   OH235750   1.543   2.671  19.896
 3852TIP3    H135751   1.547   2.642  19.991
 3852TIP3    H235752   1.430   2.651  19.875
 3853TIP3   OH235753   0.678   3.086  19.027
 3853TIP3    H135754   0.624   3.022  18.960
 3853TIP3    H235755   0.779   3.114  18.981
 3854TIP3   OH235756   1.136   3.047  19.827
 3854TIP3    H135757   1.181   3.024  19.740
 3854TIP3    H235758   1.210   2.987  19.884
 3855TIP3   OH235759   0.482   2.605  19.485
 3855TIP3    H135760   0.402   2.521  19.506
 3855TIP3    H235761   0.529   2.555  19.408
 3856TIP3   OH235762   1.080   3.619  19.252
 3856TIP3    H135763   0.992   3.560  19.208
 3856TIP3    H235764   1.025   3.649  19.336
 3857TIP3   OH235765   1.510   2.735  19.079
 3857TIP3    H135766   1.410   2.743  19.028
 3857TIP3    H235767   1.540   2.849  19.089
 3858TIP3   OH235768   1.589   3.013  19.175
 3858TIP3    H135769   1.673   2.976  19.235
 3858TIP3    H235770   1.624   3.120  19.148
 3859TIP3   OH235771   0.491   3.551  19.763
 3859TIP3    H135772   0.551   3.527  19.681
 3859TIP3    H235773   0.557   3.496  19.829
 3860TIP3   OH235774   1.300   3.788  19.124
 3860TIP3    H135775   1.260   3.895  19.149
 3860TIP3    H235776   1.218   3.719  19.165
 3861TIP3   OH235777   2.179   2.972  19.176
 3861TIP3    H135778   2.110   2.964  19.097
 3861TIP3    H235779   2.209   3.085  19.174
 3862TIP3   OH235780   1.968   4.031  19.212
 3862TIP3    H135781   1.945   3.952  19.279
 3862TIP3    H235782   2.023   3.972  19.141
 3863TIP3   OH235783   1.640   3.421  19.881
 3863TIP3    H135784   1.528   3.388  19.871
 3863TIP3    H235785   1.698   3.337  19.828
 3864TIP3   OH235786   0.750   3.956  19.544
 3864TIP3    H135787   0.781   4.058  19.501
 3864TIP3    H235788   0.642   3.948  19.512
 3865TIP3   OH235789   0.282   3.346  19.018
 3865TIP3    H135790   0.347   3.434  19.054
 3865TIP3    H235791   0.181   3.359  19.065
 3866TIP3   OH235792   0.900   3.668  19.483
 3866TIP3    H135793   0.845   3.767  19.510
 3866TIP3    H235794   0.844   3.586  19.534
 3867TIP3   OH235795   0.790   4.242  19.429
 3867TIP3    H135796   0.677   4.264  19.448
 3867TIP3    H235797   0.839   4.338  19.466
 3868TIP3   OH235798   1.704   3.827  19.000
 3868TIP3    H135799   1.720   3.778  19.088
 3868TIP3    H235800   1.595   3.791  18.986
 3869TIP3   OH235801   2.213   4.336  19.045
 3869TIP3    H135802   2.268   4.416  18.992
 3869TIP3    H235803   2.131   4.403  19.088
 3870TIP3   OH235804   1.802   3.649  19.232
 3870TIP3    H135805   1.776   3.546  19.271
 3870TIP3    H235806   1.919   3.638  19.220
 3871TIP3   OH235807   0.986   3.982  18.867
 3871TIP3    H135808   0.983   3.913  18.788
 3871TIP3    H235809   0.914   3.923  18.926
 3872TIP3   OH235810   0.815   3.870  19.101
 3872TIP3    H135811   0.907   3.826  19.146
 3872TIP3    H235812   0.827   3.984  19.129
 3873TIP3   OH235813   0.433   3.572  19.172
 3873TIP3    H135814   0.337   3.616  19.215
 3873TIP3    H235815   0.468   3.659  19.113
 3874TIP3   OH235816   1.454   2.581  19.306
 3874TIP3    H135817   1.470   2.651  19.228
 3874TIP3    H235818   1.500   2.646  19.378
 3875TIP3   OH235819   1.194   4.092  19.165
 3875TIP3    H135820   1.087   4.134  19.187
 3875TIP3    H235821   1.253   4.190  19.149
 3876TIP3   OH235822   1.135   2.837  19.363
 3876TIP3    H135823   1.204   2.929  19.381
 3876TIP3    H235824   1.094   2.807  19.452
 3877TIP3   OH235825   1.193   2.456  19.425
 3877TIP3    H135826   1.162   2.548  19.481
 3877TIP3    H235827   1.289   2.503  19.381
 3878TIP3   OH235828   0.871   4.169  19.166
 3878TIP3    H135829   0.892   4.270  19.116
 3878TIP3    H235830   0.824   4.218  19.247
 3879TIP3   OH235831   0.667   2.597  19.146
 3879TIP3    H135832   0.677   2.698  19.196
 3879TIP3    H235833   0.776   2.556  19.154
 3880TIP3   OH235834   1.770   3.185  19.738
 3880TIP3    H135835   1.673   3.120  19.749
 3880TIP3    H235836   1.844   3.121  19.795
 3881TIP3   OH235837   0.504   3.864  19.012
 3881TIP3    H135838   0.611   3.880  19.053
 3881TIP3    H235839   0.533   3.793  18.938
 3882TIP3   OH235840   0.280   3.000  18.969
 3882TIP3    H135841   0.308   3.109  18.994
 3882TIP3    H235842   0.194   3.014  18.905
 3883TIP3   OH235843   1.906   4.320  19.951
 3883TIP3    H135844   1.920   4.408  19.887
 3883TIP3    H235845   2.011   4.308  19.989
 3884TIP3   OH235846   0.377   2.389  19.789
 3884TIP3    H135847   0.374   2.362  19.693
 3884TIP3    H235848   0.364   2.282  19.827
 3885TIP3   OH235849   0.244   3.974  19.384
 3885TIP3    H135850   0.161   4.037  19.425
 3885TIP3    H235851   0.300   4.058  19.335
 3886TIP3   OH235852   1.242   4.214  18.863
 3886TIP3    H135853   1.176   4.120  18.880
 3886TIP3    H235854   1.337   4.165  18.821
 3887TIP3   OH235855   1.786   4.112  18.879
 3887TIP3    H135856   1.788   4.014  18.933
 3887TIP3    H235857   1.885   4.104  18.828
 3888TIP3   OH235858   0.680   3.628  18.863
 3888TIP3    H135859   0.730   3.600  18.949
 3888TIP3    H235860   0.774   3.613  18.803
 3889TIP3   OH235861   1.351   3.798  18.839
 3889TIP3    H135862   1.310   3.784  18.930
 3889TIP3    H235863   1.351   3.685  18.808
 3890TIP3   OH235864   0.835   3.421  19.117
 3890TIP3    H135865   0.768   3.346  19.165
 3890TIP3    H235866   0.883   3.348  19.052
 3891TIP3   OH235867   0.970   3.212  18.919
 3891TIP3    H135868   0.977   3.251  18.827
 3891TIP3    H235869   1.084   3.211  18.943
 3892TIP3   OH235870   2.081   3.457  18.866
 3892TIP3    H135871   2.054   3.421  18.775
 3892TIP3    H235872   2.060   3.575  18.859
 3893TIP3   OH235873   0.948   4.453  19.080
 3893TIP3    H135874   1.064   4.470  19.076
 3893TIP3    H235875   0.910   4.534  19.018
 3894TIP3   OH235876   0.188   3.869  19.024
 3894TIP3    H135877   0.306   3.880  19.027
 3894TIP3    H235878   0.176   3.808  18.942
 3895TIP3   OH235879   0.103   4.450  19.488
 3895TIP3    H135880  -0.012   4.469  19.493
 3895TIP3    H235881   0.119   4.378  19.563
 3896TIP3   OH235882   0.167   4.231  19.693
 3896TIP3    H135883   0.170   4.128  19.741
 3896TIP3    H235884   0.224   4.297  19.759
 3897TIP3   OH235885   2.125   3.586  19.241
 3897TIP3    H135886   2.230   3.636  19.259
 3897TIP3    H235887   2.122   3.509  19.316
 3898TIP3   OH235888   2.154   3.383  19.459
 3898TIP3    H135889   2.068   3.329  19.508
 3898TIP3    H235890   2.246   3.364  19.518
 3899TIP3   OH235891   2.252   3.721  19.938
 3899TIP3    H135892   2.297   3.631  19.888
 3899TIP3    H235893   2.184   3.775  19.874
 3900TIP3   OH235894   2.233   3.320  19.082
 3900TIP3    H135895   2.165   3.348  19.006
 3900TIP3    H235896   2.204   3.407  19.144
 3901TIP3   OH235897   1.987   2.984  18.933
 3901TIP3    H135898   2.015   3.056  18.860
 3901TIP3    H235899   1.964   2.885  18.885
 3902TIP3   OH235900   1.926   3.151  19.509
 3902TIP3    H135901   1.889   3.049  19.474
 3902TIP3    H235902   1.878   3.154  19.600
 3903TIP3   OH235903   0.227   3.528  19.934
 3903TIP3    H135904   0.227   3.487  19.843
 3903TIP3    H235905   0.310   3.458  19.970
 3904TIP3   OH235906   1.934   2.672  18.841
 3904TIP3    H135907   1.979   2.629  18.924
 3904TIP3    H235908   1.823   2.641  18.844
 3905TIP3   OH235909   1.838   2.909  19.344
 3905TIP3    H135910   1.860   2.796  19.366
 3905TIP3    H235911   1.940   2.934  19.304
 3906TIP3   OH235912   1.952   2.983  19.866
 3906TIP3    H135913   2.069   2.971  19.878
 3906TIP3    H235914   1.921   2.874  19.892
 3907TIP3   OH235915   1.940   2.593  19.361
 3907TIP3    H135916   1.988   2.537  19.437
 3907TIP3    H235917   1.870   2.509  19.328
 3908TIP3   OH235918   0.188   2.656  19.882
 3908TIP3    H135919   0.235   2.548  19.879
 3908TIP3    H235920   0.280   2.719  19.916
 3909TIP3   OH235921   0.118   3.019  19.981
 3909TIP3    H135922   0.154   3.002  19.890
 3909TIP3    H235923   0.082   3.130  19.975
 3910TIP3   OH235924   2.176   2.563  19.030
 3910TIP3    H135925   2.216   2.495  18.958
 3910TIP3    H235926   2.261   2.642  19.038
 3911TIP3   OH235927   0.126   2.551  19.314
 3911TIP3    H135928   0.019   2.546  19.354
 3911TIP3    H235929   0.110   2.632  19.244
 3912TIP3   OH235930   1.801   4.372  19.540
 3912TIP3    H135931   1.895   4.339  19.488
 3912TIP3    H235932   1.848   4.439  19.608
 3913TIP3   OH235933   0.332   4.367  19.903
 3913TIP3    H135934   0.368   4.397  19.993
 3913TIP3    H235935   0.425   4.300  19.876
 3914TIP3   OH235936   0.533   4.169  19.761
 3914TIP3    H135937   0.503   4.056  19.768
 3914TIP3    H235938   0.642   4.172  19.796
 3915TIP3   OH235939   0.850   4.241  19.875
 3915TIP3    H135940   0.890   4.138  19.841
 3915TIP3    H235941   0.884   4.236  19.967
 3916TIP3   OH235942   1.246   2.572  19.782
 3916TIP3    H135943   1.168   2.494  19.817
 3916TIP3    H235944   1.322   2.498  19.743
 3917TIP3   OH235945   1.914   2.326  19.768
 3917TIP3    H135946   1.976   2.374  19.694
 3917TIP3    H235947   1.805   2.363  19.749
 3918TIP3   OH235948   2.098   2.426  19.566
 3918TIP3    H135949   2.180   2.360  19.522
 3918TIP3    H235950   2.160   2.525  19.585
 3919TIP3   OH235951   0.385   2.317  19.533
 3919TIP3    H135952   0.284   2.291  19.484
 3919TIP3    H235953   0.443   2.214  19.523
 3920TIP3   OH235954   0.263   2.318  19.166
 3920TIP3    H135955   0.254   2.369  19.079
 3920TIP3    H235956   0.214   2.401  19.224
 3921TIP3   OH235957   0.866   2.269  19.540
 3921TIP3    H135958   0.964   2.326  19.517
 3921TIP3    H235959   0.869   2.264  19.636
 3922TIP3   OH235960   1.610   2.363  19.676
 3922TIP3    H135961   1.572   2.382  19.587
 3922TIP3    H235962   1.559   2.262  19.701
 3923TIP3   OH235963   1.741   2.345  19.295
 3923TIP3    H135964   1.654   2.389  19.243
 3923TIP3    H235965   1.697   2.240  19.324
 3924TIP3   OH235966   0.228   4.278  19.241
 3924TIP3    H135967   0.112   4.284  19.237
 3924TIP3    H235968   0.248   4.390  19.213
 3925TIP3   OH235969   0.365   2.532  18.971
 3925TIP3    H135970   0.454   2.478  18.927
 3925TIP3    H235971   0.409   2.550  19.060
 3926TIP3   OH235972   1.038   2.585  19.203
 3926TIP3    H135973   1.068   2.515  19.278
 3926TIP3    H235974   1.056   2.689  19.246
 3927TIP3   OH235975   1.280   4.404  19.072
 3927TIP3    H135976   1.391   4.410  19.040
 3927TIP3    H235977   1.240   4.342  18.994
 3928TIP3   OH235978   2.035   4.288  19.360
 3928TIP3    H135979   2.006   4.195  19.305
 3928TIP3    H235980   2.032   4.375  19.294
 3929TIP3   OH235981   0.359   4.348  18.932
 3929TIP3    H135982   0.341   4.357  19.027
 3929TIP3    H235983   0.442   4.266  18.931
 3930TIP3   OH235984   3.712   3.464  19.531
 3930TIP3    H135985   3.712   3.580  19.549
 3930TIP3    H235986   3.613   3.452  19.483
 3931TIP3   OH235987   3.584   3.341  19.865
 3931TIP3    H135988   3.574   3.286  19.951
 3931TIP3    H235989   3.494   3.301  19.815
 3932TIP3   OH235990   3.936   3.695  19.683
 3932TIP3    H135991   3.916   3.602  19.742
 3932TIP3    H235992   3.986   3.769  19.747
 3933TIP3   OH235993   2.768   3.863  19.871
 3933TIP3    H135994   2.747   3.752  19.842
 3933TIP3    H235995   2.884   3.869  19.861
 3934TIP3   OH235996   2.389   3.026  19.449
 3934TIP3    H135997   2.346   3.130  19.472
 3934TIP3    H235998   2.293   2.972  19.417
 3935TIP3   OH235999   2.468   3.341  19.649
 3935TIP3    H136000   2.510   3.247  19.697
 3935TIP3    H236001   2.528   3.428  19.691
 3936TIP3   OH236002   3.648   4.362  19.733
 3936TIP3    H136003   3.727   4.298  19.682
 3936TIP3    H236004   3.619   4.279  19.795
 3937TIP3   OH236005   3.440   3.678  19.979
 3937TIP3    H136006   3.490   3.600  19.919
 3937TIP3    H236007   3.503   3.660  20.059
 3938TIP3   OH236008   3.757   2.976  19.972
 3938TIP3    H136009   3.781   2.862  19.981
 3938TIP3    H236010   3.739   2.987  19.876
 3939TIP3   OH236011   2.964   2.722  19.699
 3939TIP3    H136012   2.995   2.818  19.650
 3939TIP3    H236013   2.906   2.659  19.631
 3940TIP3   OH236014   3.815   2.765  19.520
 3940TIP3    H136015   3.881   2.722  19.594
 3940TIP3    H236016   3.889   2.844  19.487
 3941TIP3   OH236017   2.522   3.007  19.754
 3941TIP3    H136018   2.582   2.926  19.803
 3941TIP3    H236019   2.519   2.963  19.664
 3942TIP3   OH236020   3.116   3.197  19.692
 3942TIP3    H136021   3.202   3.134  19.734
 3942TIP3    H236022   3.061   3.115  19.638
 3943TIP3   OH236023   3.619   3.752  19.415
 3943TIP3    H136024   3.588   3.742  19.321
 3943TIP3    H236025   3.602   3.868  19.431
 3944TIP3   OH236026   4.033   2.704  19.701
 3944TIP3    H136027   3.968   2.676  19.779
 3944TIP3    H236028   4.140   2.671  19.731
 3945TIP3   OH236029   2.766   2.842  19.890
 3945TIP3    H136030   2.789   2.954  19.877
 3945TIP3    H236031   2.820   2.792  19.813
 3946TIP3   OH236032   2.435   3.702  19.263
 3946TIP3    H136033   2.425   3.769  19.183
 3946TIP3    H236034   2.453   3.781  19.333
 3947TIP3   OH236035   4.069   3.887  19.871
 3947TIP3    H136036   4.028   3.820  19.943
 3947TIP3    H236037   4.126   3.967  19.922
 3948TIP3   OH236038   3.263   2.326  19.804
 3948TIP3    H136039   3.276   2.212  19.818
 3948TIP3    H236040   3.156   2.350  19.842
 3949TIP3   OH236041   3.850   4.163  19.616
 3949TIP3    H136042   3.874   4.067  19.565
 3949TIP3    H236043   3.947   4.228  19.599
 3950TIP3   OH236044   4.042   3.890  19.439
 3950TIP3    H136045   4.000   3.815  19.372
 3950TIP3    H236046   4.021   3.827  19.520
 3951TIP3   OH236047   3.524   3.353  19.273
 3951TIP3    H136048   3.475   3.460  19.265
 3951TIP3    H236049   3.630   3.370  19.232
 3952TIP3   OH236050   3.590   3.240  18.961
 3952TIP3    H136051   3.659   3.280  19.033
 3952TIP3    H236052   3.604   3.125  18.971
 3953TIP3   OH236053   4.006   3.376  19.382
 3953TIP3    H136054   3.914   3.406  19.440
 3953TIP3    H236055   4.075   3.318  19.446
 3954TIP3   OH236056   2.959   3.440  19.563
 3954TIP3    H136057   2.916   3.379  19.489
 3954TIP3    H236058   3.034   3.364  19.603
 3955TIP3   OH236059   3.114   3.884  19.839
 3955TIP3    H136060   3.100   3.852  19.746
 3955TIP3    H236061   3.193   3.809  19.870
 3956TIP3   OH236062   2.924   3.220  19.908
 3956TIP3    H136063   3.002   3.226  19.836
 3956TIP3    H236064   2.942   3.320  19.953
 3957TIP3   OH236065   3.817   3.336  19.156
 3957TIP3    H136066   3.892   3.359  19.230
 3957TIP3    H236067   3.878   3.379  19.079
 3958TIP3   OH236068   3.559   4.064  19.457
 3958TIP3    H136069   3.565   4.085  19.552
 3958TIP3    H236070   3.505   4.160  19.425
 3959TIP3   OH236071   4.291   2.274  19.174
 3959TIP3    H136072   4.177   2.291  19.194
 3959TIP3    H236073   4.332   2.381  19.150
 3960TIP3   OH236074   2.792   3.312  19.312
 3960TIP3    H136075   2.824   3.421  19.285
 3960TIP3    H236076   2.677   3.326  19.308
 3961TIP3   OH236077   4.453   4.015  18.956
 3961TIP3    H136078   4.451   4.120  19.001
 3961TIP3    H236079   4.547   3.972  19.004
 3962TIP3   OH236080   2.339   4.015  19.832
 3962TIP3    H136081   2.435   3.958  19.856
 3962TIP3    H236082   2.298   4.050  19.918
 3963TIP3   OH236083   3.509   4.406  19.341
 3963TIP3    H136084   3.515   4.423  19.244
 3963TIP3    H236085   3.487   4.518  19.372
 3964TIP3   OH236086   2.732   4.285  19.506
 3964TIP3    H136087   2.754   4.265  19.601
 3964TIP3    H236088   2.628   4.232  19.494
 3965TIP3   OH236089   3.881   4.343  19.026
 3965TIP3    H136090   3.930   4.246  18.988
 3965TIP3    H236091   3.878   4.319  19.121
 3966TIP3   OH236092   3.823   4.330  19.296
 3966TIP3    H136093   3.710   4.352  19.315
 3966TIP3    H236094   3.844   4.244  19.359
 3967TIP3   OH236095   2.947   2.436  19.886
 3967TIP3    H136096   2.856   2.442  19.824
 3967TIP3    H236097   2.941   2.540  19.926
 3968TIP3   OH236098   3.992   3.458  18.963
 3968TIP3    H136099   3.970   3.463  18.867
 3968TIP3    H236100   4.109   3.467  18.961
 3969TIP3   OH236101   3.486   2.677  18.982
 3969TIP3    H136102   3.425   2.670  19.064
 3969TIP3    H236103   3.418   2.610  18.927
 3970TIP3   OH236104   2.977   2.976  19.540
 3970TIP3    H136105   2.869   2.924  19.539
 3970TIP3    H236106   3.019   2.956  19.449
 3971TIP3   OH236107   3.643   3.103  19.391
 3971TIP3    H136108   3.593   3.191  19.339
 3971TIP3    H236109   3.714   3.061  19.321
 3972TIP3   OH236110   3.702   3.041  19.691
 3972TIP3    H136111   3.690   3.130  19.628
 3972TIP3    H236112   3.733   2.956  19.630
 3973TIP3   OH236113   3.054   2.729  18.907
 3973TIP3    H136114   2.993   2.653  18.963
 3973TIP3    H236115   2.971   2.776  18.851
 3974TIP3   OH236116   2.267   2.692  19.616
 3974TIP3    H136117   2.350   2.694  19.684
 3974TIP3    H236118   2.323   2.666  19.535
 3975TIP3   OH236119   2.418   2.767  19.132
 3975TIP3    H136120   2.485   2.816  19.064
 3975TIP3    H236121   2.334   2.850  19.141
 3976TIP3   OH236122   3.311   2.731  19.601
 3976TIP3    H136123   3.217   2.717  19.658
 3976TIP3    H236124   3.391   2.676  19.656
 3977TIP3   OH236125   2.672   2.879  19.496
 3977TIP3    H136126   2.567   2.917  19.466
 3977TIP3    H236127   2.665   2.761  19.485
 3978TIP3   OH236128   3.095   2.930  19.301
 3978TIP3    H136129   3.203   2.902  19.338
 3978TIP3    H236130   3.128   2.959  19.212
 3979TIP3   OH236131   3.815   2.660  19.899
 3979TIP3    H136132   3.805   2.627  19.992
 3979TIP3    H236133   3.703   2.657  19.871
 3980TIP3   OH236134   2.921   3.065  19.049
 3980TIP3    H136135   2.882   2.999  18.975
 3980TIP3    H236136   3.012   3.109  19.002
 3981TIP3   OH236137   3.408   3.028  19.829
 3981TIP3    H136138   3.482   3.038  19.755
 3981TIP3    H236139   3.470   2.964  19.891
 3982TIP3   OH236140   2.765   2.574  19.470
 3982TIP3    H136141   2.693   2.491  19.508
 3982TIP3    H236142   2.824   2.504  19.410
 3983TIP3   OH236143   3.343   3.613  19.240
 3983TIP3    H136144   3.250   3.568  19.193
 3983TIP3    H236145   3.290   3.650  19.323
 3984TIP3   OH236146   3.775   2.726  19.080
 3984TIP3    H136147   3.671   2.736  19.034
 3984TIP3    H236148   3.812   2.838  19.084
 3985TIP3   OH236149   3.858   3.011  19.176
 3985TIP3    H136150   3.938   2.972  19.239
 3985TIP3    H236151   3.896   3.119  19.159
 3986TIP3   OH236152   2.707   3.548  19.794
 3986TIP3    H136153   2.756   3.542  19.706
 3986TIP3    H236154   2.795   3.522  19.855
 3987TIP3   OH236155   3.563   3.794  19.128
 3987TIP3    H136156   3.505   3.896  19.142
 3987TIP3    H236157   3.482   3.714  19.153
 3988TIP3   OH236158   4.438   2.976  19.177
 3988TIP3    H136159   4.375   2.974  19.094
 3988TIP3    H236160   4.478   3.086  19.178
 3989TIP3   OH236161   4.247   4.001  19.205
 3989TIP3    H136162   4.178   3.990  19.284
 3989TIP3    H236163   4.274   3.890  19.192
 3990TIP3   OH236164   3.900   3.438  19.873
 3990TIP3    H136165   3.790   3.398  19.865
 3990TIP3    H236166   3.961   3.361  19.819
 3991TIP3   OH236167   2.993   3.967  19.572
 3991TIP3    H136168   3.053   4.068  19.566
 3991TIP3    H236169   2.916   3.985  19.501
 3992TIP3   OH236170   2.576   3.353  19.015
 3992TIP3    H136171   2.623   3.443  19.065
 3992TIP3    H236172   2.460   3.367  19.026
 3993TIP3   OH236173   3.180   3.704  19.461
 3993TIP3    H136174   3.113   3.788  19.498
 3993TIP3    H236175   3.157   3.616  19.520
 3994TIP3   OH236176   3.043   4.243  19.421
 3994TIP3    H136177   2.930   4.261  19.445
 3994TIP3    H236178   3.088   4.345  19.453
 3995TIP3   OH236179   3.971   3.823  19.017
 3995TIP3    H136180   3.970   3.766  19.103
 3995TIP3    H236181   3.858   3.806  18.993
 3996TIP3   OH236182   4.482   4.330  19.053
 3996TIP3    H136183   4.546   4.405  19.002
 3996TIP3    H236184   4.397   4.402  19.085
 3997TIP3   OH236185   4.064   3.655  19.239
 3997TIP3    H136186   4.038   3.554  19.284
 3997TIP3    H236187   4.181   3.648  19.235
 3998TIP3   OH236188   3.245   3.979  18.870
 3998TIP3    H136189   3.245   3.913  18.790
 3998TIP3    H236190   3.179   3.916  18.931
 3999TIP3   OH236191   3.094   3.888  19.106
 3999TIP3    H136192   3.184   3.854  19.161
 3999TIP3    H236193   3.101   4.004  19.126
 4000TIP3   OH236194   2.712   3.588  19.150
 4000TIP3    H136195   2.609   3.616  19.192
 4000TIP3    H236196   2.752   3.692  19.119
 4001TIP3   OH236197   3.767   2.555  19.307
 4001TIP3    H136198   3.746   2.628  19.232
 4001TIP3    H236199   3.790   2.627  19.381
 4002TIP3   OH236200   3.437   4.092  19.159
 4002TIP3    H136201   3.332   4.144  19.173
 4002TIP3    H236202   3.505   4.186  19.154
 4003TIP3   OH236203   3.394   2.848  19.364
 4003TIP3    H136204   3.468   2.939  19.374
 4003TIP3    H236205   3.373   2.812  19.456
 4004TIP3   OH236206   3.476   2.467  19.411
 4004TIP3    H136207   3.437   2.540  19.478
 4004TIP3    H236208   3.576   2.521  19.380
 4005TIP3   OH236209   3.122   4.190  19.155
 4005TIP3    H136210   3.143   4.291  19.105
 4005TIP3    H236211   3.077   4.237  19.236
 4006TIP3   OH236212   2.920   2.578  19.129
 4006TIP3    H136213   2.957   2.663  19.187
 4006TIP3    H236214   3.018   2.513  19.122
 4007TIP3   OH236215   4.022   3.185  19.741
 4007TIP3    H136216   3.934   3.114  19.761
 4007TIP3    H236217   4.105   3.138  19.800
 4008TIP3   OH236218   2.779   3.895  19.027
 4008TIP3    H136219   2.758   3.988  19.082
 4008TIP3    H236220   2.894   3.880  19.052
 4009TIP3   OH236221   2.551   3.002  18.962
 4009TIP3    H136222   2.596   3.109  18.976
 4009TIP3    H236223   2.459   3.023  18.906
 4010TIP3   OH236224   4.165   4.308  19.939
 4010TIP3    H136225   4.183   4.412  19.896
 4010TIP3    H236226   4.266   4.292  19.986
 4011TIP3   OH236227   2.659   2.406  19.769
 4011TIP3    H136228   2.640   2.359  19.680
 4011TIP3    H236229   2.658   2.310  19.825
 4012TIP3   OH236230   2.507   4.030  19.435
 4012TIP3    H136231   2.412   4.091  19.462
 4012TIP3    H236232   2.526   4.080  19.349
 4013TIP3   OH236233   3.494   4.211  18.861
 4013TIP3    H136234   3.433   4.112  18.883
 4013TIP3    H236235   3.587   4.166  18.812
 4014TIP3   OH236236   4.030   4.111  18.873
 4014TIP3    H136237   4.046   4.027  18.941
 4014TIP3    H236238   4.133   4.122  18.831
 4015TIP3   OH236239   2.945   3.653  18.853
 4015TIP3    H136240   2.975   3.618  18.942
 4015TIP3    H236241   3.044   3.625  18.804
 4016TIP3   OH236242   3.601   3.808  18.837
 4016TIP3    H136243   3.574   3.796  18.931
 4016TIP3    H236244   3.606   3.692  18.812
 4017TIP3   OH236245   3.089   3.433  19.121
 4017TIP3    H136246   3.017   3.356  19.164
 4017TIP3    H236247   3.144   3.361  19.058
 4018TIP3   OH236248   3.210   3.222  18.927
 4018TIP3    H136249   3.187   3.251  18.834
 4018TIP3    H236250   3.328   3.215  18.927
 4019TIP3   OH236251   4.324   3.468  18.862
 4019TIP3    H136252   4.307   3.431  18.770
 4019TIP3    H236253   4.303   3.584  18.856
 4020TIP3   OH236254   3.206   4.474  19.080
 4020TIP3    H136255   3.323   4.470  19.075
 4020TIP3    H236256   3.181   4.558  19.015
 4021TIP3   OH236257   2.407   3.814  19.015
 4021TIP3    H136258   2.510   3.794  18.974
 4021TIP3    H236259   2.336   3.758  18.950
 4022TIP3   OH236260   2.299   4.433  19.455
 4022TIP3    H136261   2.197   4.381  19.434
 4022TIP3    H236262   2.324   4.378  19.540
 4023TIP3   OH236263   2.395   4.247  19.658
 4023TIP3    H136264   2.357   4.148  19.703
 4023TIP3    H236265   2.449   4.302  19.732
 4024TIP3   OH236266   4.392   3.586  19.236
 4024TIP3    H136267   4.498   3.635  19.252
 4024TIP3    H236268   4.387   3.511  19.313
 4025TIP3   OH236269   4.421   3.378  19.451
 4025TIP3    H136270   4.339   3.316  19.498
 4025TIP3    H236271   4.506   3.386  19.517
 4026TIP3   OH236272   4.472   3.709  19.927
 4026TIP3    H136273   4.559   3.642  19.890
 4026TIP3    H236274   4.448   3.791  19.861
 4027TIP3   OH236275   4.496   3.337  19.075
 4027TIP3    H136276   4.410   3.353  19.010
 4027TIP3    H236277   4.464   3.416  19.143
 4028TIP3   OH236278   4.270   3.001  18.919
 4028TIP3    H136279   4.297   3.073  18.846
 4028TIP3    H236280   4.241   2.902  18.872
 4029TIP3   OH236281   4.194   3.163  19.519
 4029TIP3    H136282   4.158   3.061  19.479
 4029TIP3    H236283   4.139   3.161  19.606
 4030TIP3   OH236284   2.356   3.416  19.889
 4030TIP3    H136285   2.394   3.383  19.801
 4030TIP3    H236286   2.448   3.392  19.945
 4031TIP3   OH236287   4.202   2.681  18.842
 4031TIP3    H136288   4.248   2.636  18.924
 4031TIP3    H236289   4.093   2.640  18.839
 4032TIP3   OH236290   4.099   2.915  19.355
 4032TIP3    H136291   4.116   2.800  19.372
 4032TIP3    H236292   4.200   2.938  19.311
 4033TIP3   OH236293   4.214   2.986  19.876
 4033TIP3    H136294   4.332   2.974  19.868
 4033TIP3    H236295   4.187   2.875  19.900
 4034TIP3   OH236296   4.196   2.591  19.366
 4034TIP3    H136297   4.244   2.539  19.444
 4034TIP3    H236298   4.141   2.500  19.327
 4035TIP3   OH236299   2.472   2.664  19.852
 4035TIP3    H136300   2.525   2.563  19.825
 4035TIP3    H236301   2.551   2.704  19.916
 4036TIP3   OH236302   2.269   2.983  19.949
 4036TIP3    H136303   2.327   2.933  19.876
 4036TIP3    H236304   2.310   3.092  19.947
 4037TIP3   OH236305   4.438   2.546  19.035
 4037TIP3    H136306   4.476   2.485  18.958
 4037TIP3    H236307   4.536   2.598  19.066
 4038TIP3   OH236308   2.287   2.552  19.309
 4038TIP3    H136309   2.177   2.591  19.312
 4038TIP3    H236310   2.329   2.616  19.236
 4039TIP3   OH236311   4.075   4.375  19.547
 4039TIP3    H136312   4.169   4.344  19.495
 4039TIP3    H236313   4.118   4.441  19.619
 4040TIP3   OH236314   2.568   4.362  19.869
 4040TIP3    H136315   2.597   4.373  19.964
 4040TIP3    H236316   2.663   4.303  19.836
 4041TIP3   OH236317   2.801   4.199  19.754
 4041TIP3    H136318   2.789   4.084  19.763
 4041TIP3    H236319   2.903   4.217  19.801
 4042TIP3   OH236320   3.086   4.232  19.868
 4042TIP3    H136321   3.130   4.126  19.848
 4042TIP3    H236322   3.094   4.236  19.964
 4043TIP3   OH236323   3.523   2.560  19.767
 4043TIP3    H136324   3.449   2.476  19.797
 4043TIP3    H236325   3.622   2.496  19.769
 4044TIP3   OH236326   4.174   2.318  19.766
 4044TIP3    H136327   4.235   2.375  19.695
 4044TIP3    H236328   4.063   2.354  19.748
 4045TIP3   OH236329   4.366   2.428  19.565
 4045TIP3    H136330   4.448   2.365  19.518
 4045TIP3    H236331   4.427   2.527  19.585
 4046TIP3   OH236332   2.603   2.305  19.519
 4046TIP3    H136333   2.503   2.278  19.471
 4046TIP3    H236334   2.658   2.201  19.516
 4047TIP3   OH236335   2.472   2.316  19.131
 4047TIP3    H136336   2.503   2.395  19.065
 4047TIP3    H236337   2.404   2.381  19.190
 4048TIP3   OH236338   3.133   2.273  19.542
 4048TIP3    H136339   3.228   2.312  19.499
 4048TIP3    H236340   3.163   2.273  19.636
 4049TIP3   OH236341   3.868   2.357  19.682
 4049TIP3    H136342   3.828   2.383  19.594
 4049TIP3    H236343   3.820   2.251  19.699
 4050TIP3   OH236344   4.013   2.327  19.294
 4050TIP3    H136345   3.916   2.393  19.289
 4050TIP3    H236346   3.967   2.226  19.325
 4051TIP3   OH236347   2.470   4.228  19.223
 4051TIP3    H136348   2.353   4.240  19.215
 4051TIP3    H236349   2.498   4.332  19.186
 4052TIP3   OH236350   2.624   2.562  18.959
 4052TIP3    H136351   2.687   2.489  18.903
 4052TIP3    H236352   2.686   2.554  19.041
 4053TIP3   OH236353   3.282   2.612  19.189
 4053TIP3    H136354   3.324   2.522  19.239
 4053TIP3    H236355   3.320   2.701  19.243
 4054TIP3   OH236356   3.548   4.399  19.071
 4054TIP3    H136357   3.660   4.411  19.041
 4054TIP3    H236358   3.510   4.336  18.994
 4055TIP3   OH236359   4.288   4.277  19.352
 4055TIP3    H136360   4.279   4.190  19.285
 4055TIP3    H236361   4.286   4.372  19.294
 4056TIP3   OH236362   2.599   4.295  18.914
 4056TIP3    H136363   2.584   4.362  18.992
 4056TIP3    H236364   2.706   4.250  18.930
 4057TIP3   OH236365   5.998   3.469  19.513
 4057TIP3    H136366   5.966   3.582  19.493
 4057TIP3    H236367   5.894   3.427  19.543
 4058TIP3   OH236368   5.816   3.404  19.969
 4058TIP3    H136369   5.810   3.298  20.008
 4058TIP3    H236370   5.758   3.390  19.885
 4059TIP3   OH236371   6.212   3.691  19.697
 4059TIP3    H136372   6.166   3.606  19.750
 4059TIP3    H236373   6.258   3.762  19.766
 4060TIP3   OH236374   5.028   3.864  19.883
 4060TIP3    H136375   5.004   3.754  19.860
 4060TIP3    H236376   5.143   3.869  19.867
 4061TIP3   OH236377   4.639   3.030  19.443
 4061TIP3    H136378   4.609   3.136  19.475
 4061TIP3    H236379   4.535   2.988  19.417
 4062TIP3   OH236380   4.716   3.336  19.649
 4062TIP3    H136381   4.775   3.251  19.696
 4062TIP3    H236382   4.789   3.427  19.656
 4063TIP3   OH236383   5.899   4.357  19.775
 4063TIP3    H136384   5.969   4.300  19.713
 4063TIP3    H236385   5.870   4.262  19.827
 4064TIP3   OH236386   5.676   3.716  19.957
 4064TIP3    H136387   5.674   3.662  19.871
 4064TIP3    H236388   5.750   3.644  20.003
 4065TIP3   OH236389   6.061   2.984  19.955
 4065TIP3    H136390   6.054   2.868  19.958
 4065TIP3    H236391   6.034   3.005  19.861
 4066TIP3   OH236392   5.221   2.723  19.687
 4066TIP3    H136393   5.246   2.818  19.632
 4066TIP3    H236394   5.166   2.656  19.621
 4067TIP3   OH236395   6.076   2.778  19.520
 4067TIP3    H136396   6.127   2.716  19.593
 4067TIP3    H236397   6.163   2.850  19.501
 4068TIP3   OH236398   4.784   3.007  19.744
 4068TIP3    H136399   4.854   2.928  19.784
 4068TIP3    H236400   4.793   2.975  19.650
 4069TIP3   OH236401   5.294   3.228  19.695
 4069TIP3    H136402   5.408   3.256  19.704
 4069TIP3    H236403   5.299   3.131  19.639
 4070TIP3   OH236404   5.885   3.754  19.436
 4070TIP3    H136405   5.881   3.743  19.338
 4070TIP3    H236406   5.872   3.870  19.446
 4071TIP3   OH236407   6.282   2.699  19.704
 4071TIP3    H136408   6.210   2.686  19.782
 4071TIP3    H236409   6.385   2.676  19.743
 4072TIP3   OH236410   5.020   2.846  19.875
 4072TIP3    H136411   5.050   2.958  19.867
 4072TIP3    H236412   5.077   2.797  19.800
 4073TIP3   OH236413   4.699   3.703  19.245
 4073TIP3    H136414   4.694   3.769  19.164
 4073TIP3    H236415   4.703   3.785  19.315
 4074TIP3   OH236416   6.354   3.876  19.876
 4074TIP3    H136417   6.304   3.817  19.951
 4074TIP3    H236418   6.401   3.965  19.923
 4075TIP3   OH236419   5.513   2.309  19.813
 4075TIP3    H136420   5.520   2.192  19.817
 4075TIP3    H236421   5.402   2.330  19.844
 4076TIP3   OH236422   6.079   4.188  19.609
 4076TIP3    H136423   6.127   4.081  19.598
 4076TIP3    H236424   6.173   4.253  19.581
 4077TIP3   OH236425   6.275   3.925  19.500
 4077TIP3    H136426   6.253   3.853  19.425
 4077TIP3    H236427   6.260   3.850  19.574
 4078TIP3   OH236428   5.780   3.331  19.249
 4078TIP3    H136429   5.741   3.439  19.270
 4078TIP3    H236430   5.881   3.356  19.202
 4079TIP3   OH236431   5.881   3.155  18.952
 4079TIP3    H136432   5.928   3.214  19.026
 4079TIP3    H236433   5.918   3.047  18.969
 4080TIP3   OH236434   6.252   3.330  19.381
 4080TIP3    H136435   6.166   3.377  19.438
 4080TIP3    H236436   6.338   3.317  19.445
 4081TIP3   OH236437   5.186   3.473  19.570
 4081TIP3    H136438   5.172   3.414  19.487
 4081TIP3    H236439   5.232   3.388  19.627
 4082TIP3   OH236440   5.364   3.882  19.839
 4082TIP3    H136441   5.353   3.840  19.748
 4082TIP3    H236442   5.459   3.824  19.870
 4083TIP3   OH236443   5.155   3.272  19.935
 4083TIP3    H136444   5.197   3.266  19.843
 4083TIP3    H236445   5.249   3.308  19.983
 4084TIP3   OH236446   6.090   3.310  19.145
 4084TIP3    H136447   6.163   3.317  19.223
 4084TIP3    H236448   6.154   3.365  19.075
 4085TIP3   OH236449   5.822   4.072  19.450
 4085TIP3    H136450   5.885   4.116  19.524
 4085TIP3    H236451   5.753   4.160  19.426
 4086TIP3   OH236452   6.553   2.263  19.182
 4086TIP3    H136453   6.443   2.280  19.214
 4086TIP3    H236454   6.589   2.372  19.161
 4087TIP3   OH236455   5.068   3.306  19.334
 4087TIP3    H136456   5.041   3.408  19.289
 4087TIP3    H236457   4.996   3.233  19.291
 4088TIP3   OH236458   6.668   3.988  19.002
 4088TIP3    H136459   6.704   4.099  19.014
 4088TIP3    H236460   6.773   3.934  19.007
 4089TIP3   OH236461   4.620   4.012  19.844
 4089TIP3    H136462   4.708   3.954  19.887
 4089TIP3    H236463   4.561   4.055  19.920
 4090TIP3   OH236464   5.765   4.404  19.342
 4090TIP3    H136465   5.770   4.410  19.244
 4090TIP3    H236466   5.744   4.518  19.364
 4091TIP3   OH236467   4.980   4.272  19.507
 4091TIP3    H136468   5.003   4.250  19.601
 4091TIP3    H236469   4.874   4.220  19.498
 4092TIP3   OH236470   6.116   4.326  19.022
 4092TIP3    H136471   6.190   4.240  18.993
 4092TIP3    H236472   6.118   4.314  19.120
 4093TIP3   OH236473   6.076   4.326  19.291
 4093TIP3    H136474   5.963   4.351  19.311
 4093TIP3    H236475   6.096   4.244  19.358
 4094TIP3   OH236476   5.202   2.425  19.894
 4094TIP3    H136477   5.104   2.440  19.840
 4094TIP3    H236478   5.227   2.536  19.919
 4095TIP3   OH236479   6.282   3.460  18.975
 4095TIP3    H136480   6.264   3.469  18.878
 4095TIP3    H236481   6.398   3.466  18.977
 4096TIP3   OH236482   5.744   2.684  18.974
 4096TIP3    H136483   5.700   2.682  19.063
 4096TIP3    H236484   5.694   2.585  18.941
 4097TIP3   OH236485   5.220   2.978  19.537
 4097TIP3    H136486   5.107   2.956  19.520
 4097TIP3    H236487   5.267   2.977  19.447
 4098TIP3   OH236488   5.904   3.095  19.388
 4098TIP3    H136489   5.855   3.185  19.338
 4098TIP3    H236490   5.974   3.052  19.320
 4099TIP3   OH236491   5.996   3.048  19.686
 4099TIP3    H136492   5.951   3.130  19.627
 4099TIP3    H236493   6.010   2.960  19.623
 4100TIP3   OH236494   5.302   2.683  18.869
 4100TIP3    H136495   5.256   2.658  18.958
 4100TIP3    H236496   5.233   2.770  18.837
 4101TIP3   OH236497   4.531   2.696  19.618
 4101TIP3    H136498   4.608   2.700  19.692
 4101TIP3    H236499   4.596   2.732  19.544
 4102TIP3   OH236500   4.673   2.760  19.125
 4102TIP3    H136501   4.736   2.808  19.055
 4102TIP3    H236502   4.591   2.844  19.136
 4103TIP3   OH236503   5.591   2.678  19.572
 4103TIP3    H136504   5.496   2.694  19.627
 4103TIP3    H236505   5.674   2.653  19.638
 4104TIP3   OH236506   4.885   2.857  19.530
 4104TIP3    H136507   4.810   2.904  19.465
 4104TIP3    H236508   4.920   2.758  19.485
 4105TIP3   OH236509   5.348   2.924  19.297
 4105TIP3    H136510   5.465   2.940  19.304
 4105TIP3    H236511   5.315   3.004  19.232
 4106TIP3   OH236512   6.076   2.672  19.905
 4106TIP3    H136513   6.068   2.640  19.999
 4106TIP3    H236514   5.970   2.644  19.873
 4107TIP3   OH236515   5.137   3.072  19.005
 4107TIP3    H136516   5.132   3.026  18.915
 4107TIP3    H236517   5.255   3.067  19.014
 4108TIP3   OH236518   5.644   2.989  19.845
 4108TIP3    H136519   5.681   3.077  19.787
 4108TIP3    H236520   5.742   2.940  19.876
 4109TIP3   OH236521   5.017   2.596  19.452
 4109TIP3    H136522   4.956   2.508  19.495
 4109TIP3    H236523   5.082   2.537  19.390
 4110TIP3   OH236524   5.596   3.596  19.242
 4110TIP3    H136525   5.507   3.542  19.197
 4110TIP3    H236526   5.539   3.643  19.321
 4111TIP3   OH236527   6.043   2.716  19.068
 4111TIP3    H136528   5.945   2.731  19.017
 4111TIP3    H236529   6.071   2.828  19.088
 4112TIP3   OH236530   6.118   2.990  19.173
 4112TIP3    H136531   6.196   2.960  19.241
 4112TIP3    H236532   6.156   3.098  19.153
 4113TIP3   OH236533   4.986   3.548  19.781
 4113TIP3    H136534   5.052   3.547  19.699
 4113TIP3    H236535   5.066   3.518  19.848
 4114TIP3   OH236536   5.836   3.779  19.171
 4114TIP3    H136537   5.777   3.882  19.185
 4114TIP3    H236538   5.748   3.701  19.179
 4115TIP3   OH236539   6.685   2.974  19.184
 4115TIP3    H136540   6.635   2.964  19.095
 4115TIP3    H236541   6.725   3.084  19.180
 4116TIP3   OH236542   6.484   4.049  19.218
 4116TIP3    H136543   6.464   3.964  19.281
 4116TIP3    H236544   6.534   3.994  19.142
 4117TIP3   OH236545   6.169   3.413  19.879
 4117TIP3    H136546   6.054   3.392  19.887
 4117TIP3    H236547   6.198   3.348  19.801
 4118TIP3   OH236548   5.249   3.946  19.577
 4118TIP3    H136549   5.314   4.043  19.576
 4118TIP3    H236550   5.172   3.971  19.508
 4119TIP3   OH236551   4.840   3.385  19.006
 4119TIP3    H136552   4.889   3.415  19.091
 4119TIP3    H236553   4.728   3.368  19.030
 4120TIP3   OH236554   5.442   3.707  19.453
 4120TIP3    H136555   5.369   3.772  19.506
 4120TIP3    H236556   5.479   3.628  19.516
 4121TIP3   OH236557   5.299   4.249  19.429
 4121TIP3    H136558   5.183   4.253  19.445
 4121TIP3    H236559   5.333   4.351  19.469
 4122TIP3   OH236560   6.228   3.818  19.017
 4122TIP3    H136561   6.247   3.779  19.108
 4122TIP3    H236562   6.115   3.791  19.007
 4123TIP3   OH236563   6.734   4.315  19.045
 4123TIP3    H136564   6.780   4.391  18.984
 4123TIP3    H236565   6.644   4.375  19.085
 4124TIP3   OH236566   6.318   3.650  19.248
 4124TIP3    H136567   6.286   3.542  19.271
 4124TIP3    H236568   6.434   3.636  19.231
 4125TIP3   OH236569   5.496   4.006  18.866
 4125TIP3    H136570   5.506   3.919  18.800
 4125TIP3    H236571   5.428   3.953  18.931
 4126TIP3   OH236572   5.342   3.877  19.107
 4126TIP3    H136573   5.434   3.824  19.149
 4126TIP3    H236574   5.357   3.988  19.139
 4127TIP3   OH236575   4.997   3.574  19.181
 4127TIP3    H136576   4.896   3.610  19.220
 4127TIP3    H236577   5.028   3.670  19.130
 4128TIP3   OH236578   5.983   2.592  19.315
 4128TIP3    H136579   6.014   2.634  19.228
 4128TIP3    H236580   6.024   2.674  19.376
 4129TIP3   OH236581   5.690   4.066  19.180
 4129TIP3    H136582   5.599   4.127  19.215
 4129TIP3    H236583   5.765   4.147  19.152
 4130TIP3   OH236584   5.678   2.854  19.355
 4130TIP3    H136585   5.746   2.946  19.378
 4130TIP3    H236586   5.666   2.798  19.441
 4131TIP3   OH236587   5.724   2.453  19.426
 4131TIP3    H136588   5.676   2.530  19.489
 4131TIP3    H236589   5.816   2.516  19.392
 4132TIP3   OH236590   5.380   4.182  19.167
 4132TIP3    H136591   5.393   4.273  19.105
 4132TIP3    H236592   5.330   4.237  19.243
 4133TIP3   OH236593   5.214   2.611  19.125
 4133TIP3    H136594   5.218   2.698  19.190
 4133TIP3    H236595   5.315   2.556  19.143
 4134TIP3   OH236596   6.316   3.186  19.724
 4134TIP3    H136597   6.216   3.131  19.746
 4134TIP3    H236598   6.390   3.132  19.788
 4135TIP3   OH236599   5.015   3.846  19.016
 4135TIP3    H136600   5.101   3.904  19.062
 4135TIP3    H236601   5.082   3.773  18.961
 4136TIP3   OH236602   4.783   3.010  18.946
 4136TIP3    H136603   4.866   3.080  18.982
 4136TIP3    H236604   4.705   3.084  18.909
 4137TIP3   OH236605   6.443   4.304  19.941
 4137TIP3    H136606   6.454   4.394  19.879
 4137TIP3    H236607   6.541   4.306  19.990
 4138TIP3   OH236608   4.919   2.400  19.782
 4138TIP3    H136609   4.900   2.357  19.691
 4138TIP3    H236610   4.907   2.299  19.833
 4139TIP3   OH236611   4.753   4.018  19.435
 4139TIP3    H136612   4.662   4.085  19.454
 4139TIP3    H236613   4.795   4.073  19.357
 4140TIP3   OH236614   5.754   4.218  18.865
 4140TIP3    H136615   5.681   4.127  18.879
 4140TIP3    H236616   5.849   4.165  18.829
 4141TIP3   OH236617   6.287   4.111  18.873
 4141TIP3    H136618   6.296   4.009  18.922
 4141TIP3    H236619   6.385   4.112  18.820
 4142TIP3   OH236620   5.227   3.650  18.879
 4142TIP3    H136621   5.278   3.594  18.953
 4142TIP3    H236622   5.322   3.674  18.824
 4143TIP3   OH236623   5.856   3.834  18.841
 4143TIP3    H136624   5.816   3.804  18.929
 4143TIP3    H236625   5.868   3.726  18.805
 4144TIP3   OH236626   5.364   3.431  19.113
 4144TIP3    H136627   5.270   3.368  19.137
 4144TIP3    H236628   5.431   3.354  19.065
 4145TIP3   OH236629   5.446   3.074  18.963
 4145TIP3    H136630   5.429   3.151  18.889
 4145TIP3    H236631   5.562   3.072  18.964
 4146TIP3   OH236632   6.595   3.466  18.867
 4146TIP3    H136633   6.586   3.425  18.776
 4146TIP3    H236634   6.590   3.583  18.850
 4147TIP3   OH236635   5.450   4.463  19.054
 4147TIP3    H136636   5.563   4.462  19.076
 4147TIP3    H236637   5.452   4.546  18.984
 4148TIP3   OH236638   4.697   3.820  18.989
 4148TIP3    H136639   4.814   3.835  19.000
 4148TIP3    H236640   4.699   3.724  18.934
 4149TIP3   OH236641   4.546   4.424  19.450
 4149TIP3    H136642   4.444   4.368  19.435
 4149TIP3    H236643   4.578   4.376  19.536
 4150TIP3   OH236644   4.643   4.242  19.660
 4150TIP3    H136645   4.616   4.141  19.707
 4150TIP3    H236646   4.705   4.297  19.729
 4151TIP3   OH236647   6.648   3.592  19.235
 4151TIP3    H136648   6.748   3.650  19.251
 4151TIP3    H236649   6.649   3.515  19.310
 4152TIP3   OH236650   6.700   3.392  19.457
 4152TIP3    H136651   6.617   3.316  19.483
 4152TIP3    H236652   6.780   3.379  19.527
 4153TIP3   OH236653   6.728   3.713  19.941
 4153TIP3    H136654   6.804   3.632  19.906
 4153TIP3    H236655   6.707   3.785  19.867
 4154TIP3   OH236656   6.734   3.305  19.093
 4154TIP3    H136657   6.661   3.316  19.017
 4154TIP3    H236658   6.715   3.410  19.135
 4155TIP3   OH236659   6.558   2.992  18.916
 4155TIP3    H136660   6.582   3.065  18.844
 4155TIP3    H236661   6.517   2.897  18.872
 4156TIP3   OH236662   6.509   3.132  19.503
 4156TIP3    H136663   6.452   3.044  19.457
 4156TIP3    H236664   6.443   3.145  19.583
 4157TIP3   OH236665   4.660   3.451  19.894
 4157TIP3    H136666   4.682   3.402  19.807
 4157TIP3    H236667   4.747   3.413  19.949
 4158TIP3   OH236668   6.467   2.682  18.837
 4158TIP3    H136669   6.503   2.634  18.920
 4158TIP3    H236670   6.359   2.635  18.825
 4159TIP3   OH236671   6.394   2.902  19.340
 4159TIP3    H136672   6.413   2.789  19.364
 4159TIP3    H236673   6.492   2.922  19.290
 4160TIP3   OH236674   6.484   2.974  19.862
 4160TIP3    H136675   6.601   2.963  19.866
 4160TIP3    H236676   6.457   2.863  19.890
 4161TIP3   OH236677   6.475   2.579  19.367
 4161TIP3    H136678   6.517   2.526  19.447
 4161TIP3    H236679   6.409   2.490  19.333
 4162TIP3   OH236680   4.728   2.656  19.856
 4162TIP3    H136681   4.778   2.552  19.833
 4162TIP3    H236682   4.817   2.712  19.899
 4163TIP3   OH236683   4.542   2.994  19.946
 4163TIP3    H136684   4.604   2.951  19.871
 4163TIP3    H236685   4.588   3.101  19.951
 4164TIP3   OH236686   6.678   2.552  19.042
 4164TIP3    H136687   6.725   2.496  18.965
 4164TIP3    H236688   6.774   2.606  19.074
 4165TIP3   OH236689   4.559   2.556  19.312
 4165TIP3    H136690   4.450   2.592  19.319
 4165TIP3    H236691   4.601   2.628  19.243
 4166TIP3   OH236692   6.328   4.369  19.528
 4166TIP3    H136693   6.422   4.334  19.477
 4166TIP3    H236694   6.372   4.440  19.595
 4167TIP3   OH236695   4.831   4.367  19.871
 4167TIP3    H136696   4.860   4.384  19.965
 4167TIP3    H236697   4.926   4.307  19.839
 4168TIP3   OH236698   5.074   4.198  19.762
 4168TIP3    H136699   5.066   4.081  19.773
 4168TIP3    H236700   5.184   4.218  19.793
 4169TIP3   OH236701   5.366   4.235  19.857
 4169TIP3    H136702   5.387   4.120  19.854
 4169TIP3    H236703   5.368   4.256  19.951
 4170TIP3   OH236704   5.806   2.538  19.763
 4170TIP3    H136705   5.716   2.476  19.798
 4170TIP3    H236706   5.892   2.461  19.780
 4171TIP3   OH236707   6.419   2.312  19.764
 4171TIP3    H136708   6.487   2.368  19.697
 4171TIP3    H236709   6.314   2.363  19.751
 4172TIP3   OH236710   6.619   2.423  19.571
 4172TIP3    H136711   6.700   2.356  19.525
 4172TIP3    H236712   6.682   2.521  19.590
 4173TIP3   OH236713   4.873   2.315  19.527
 4173TIP3    H136714   4.772   2.299  19.477
 4173TIP3    H236715   4.919   2.206  19.522
 4174TIP3   OH236716   4.753   2.324  19.140
 4174TIP3    H136717   4.789   2.396  19.070
 4174TIP3    H236718   4.676   2.392  19.188
 4175TIP3   OH236719   5.402   2.267  19.557
 4175TIP3    H136720   5.484   2.316  19.503
 4175TIP3    H236721   5.441   2.287  19.648
 4176TIP3   OH236722   6.098   2.370  19.669
 4176TIP3    H136723   6.079   2.382  19.574
 4176TIP3    H236724   6.049   2.266  19.689
 4177TIP3   OH236725   6.280   2.329  19.303
 4177TIP3    H136726   6.199   2.371  19.243
 4177TIP3    H236727   6.228   2.228  19.332
 4178TIP3   OH236728   4.738   4.243  19.237
 4178TIP3    H136729   4.622   4.259  19.229
 4178TIP3    H236730   4.774   4.344  19.196
 4179TIP3   OH236731   4.898   2.581  18.971
 4179TIP3    H136732   4.973   2.506  18.928
 4179TIP3    H236733   4.966   2.628  19.040
 4180TIP3   OH236734   5.561   2.581  19.199
 4180TIP3    H136735   5.602   2.515  19.272
 4180TIP3    H236736   5.574   2.687  19.240
 4181TIP3   OH236737   5.809   4.398  19.075
 4181TIP3    H136738   5.922   4.402  19.049
 4181TIP3    H236739   5.767   4.343  18.995
 4182TIP3   OH236740   6.582   4.292  19.358
 4182TIP3    H136741   6.546   4.202  19.302
 4182TIP3    H236742   6.568   4.384  19.296
 4183TIP3   OH236743   4.855   4.328  18.918
 4183TIP3    H136744   4.841   4.384  19.003
 4183TIP3    H236745   4.958   4.277  18.935
 4184TIP3   OH236746   8.248   3.439  19.535
 4184TIP3    H136747   8.222   3.556  19.538
 4184TIP3    H236748   8.154   3.403  19.486
 4185TIP3   OH236749   8.086   3.358  19.870
 4185TIP3    H136750   8.089   3.307  19.959
 4185TIP3    H236751   8.000   3.295  19.827
 4186TIP3   OH236752   8.467   3.667  19.692
 4186TIP3    H136753   8.410   3.608  19.762
 4186TIP3    H236754   8.516   3.751  19.750
 4187TIP3   OH236755   7.290   3.881  19.881
 4187TIP3    H136756   7.208   3.800  19.898
 4187TIP3    H236757   7.385   3.835  19.923
 4188TIP3   OH236758   6.923   3.047  19.428
 4188TIP3    H136759   6.872   3.151  19.429
 4188TIP3    H236760   6.829   2.982  19.410
 4189TIP3   OH236761   6.964   3.326  19.646
 4189TIP3    H136762   6.972   3.210  19.660
 4189TIP3    H236763   7.015   3.343  19.560
 4190TIP3   OH236764   8.177   4.339  19.737
 4190TIP3    H136765   8.270   4.279  19.701
 4190TIP3    H236766   8.125   4.253  19.784
 4191TIP3   OH236767   7.964   3.682  19.987
 4191TIP3    H136768   8.004   3.600  19.927
 4191TIP3    H236769   8.040   3.671  20.060
 4192TIP3   OH236770   8.246   2.976  19.959
 4192TIP3    H136771   8.248   2.884  20.018
 4192TIP3    H236772   8.201   2.934  19.877
 4193TIP3   OH236773   7.487   2.724  19.688
 4193TIP3    H136774   7.510   2.821  19.636
 4193TIP3    H236775   7.433   2.658  19.622
 4194TIP3   OH236776   8.357   2.777  19.513
 4194TIP3    H136777   8.411   2.719  19.587
 4194TIP3    H236778   8.442   2.849  19.486
 4195TIP3   OH236779   7.016   2.989  19.740
 4195TIP3    H136780   7.102   2.953  19.799
 4195TIP3    H236781   7.058   2.952  19.653
 4196TIP3   OH236782   7.643   3.215  19.698
 4196TIP3    H136783   7.736   3.154  19.728
 4196TIP3    H236784   7.591   3.133  19.641
 4197TIP3   OH236785   8.162   3.727  19.421
 4197TIP3    H136786   8.119   3.734  19.330
 4197TIP3    H236787   8.138   3.838  19.453
 4198TIP3   OH236788   8.532   2.690  19.726
 4198TIP3    H136789   8.522   2.642  19.813
 4198TIP3    H236790   8.647   2.684  19.714
 4199TIP3   OH236791   7.282   2.850  19.874
 4199TIP3    H136792   7.319   2.959  19.867
 4199TIP3    H236793   7.339   2.798  19.800
 4200TIP3   OH236794   6.966   3.707  19.243
 4200TIP3    H136795   6.950   3.767  19.158
 4200TIP3    H236796   6.976   3.792  19.310
 4201TIP3   OH236797   8.610   3.851  19.880
 4201TIP3    H136798   8.564   3.811  19.964
 4201TIP3    H236799   8.626   3.962  19.904
 4202TIP3   OH236800   7.799   2.310  19.799
 4202TIP3    H136801   7.798   2.192  19.797
 4202TIP3    H236802   7.696   2.336  19.841
 4203TIP3   OH236803   8.370   4.146  19.605
 4203TIP3    H136804   8.400   4.045  19.561
 4203TIP3    H236805   8.466   4.211  19.585
 4204TIP3   OH236806   8.537   3.906  19.471
 4204TIP3    H136807   8.515   3.827  19.402
 4204TIP3    H236808   8.561   3.839  19.548
 4205TIP3   OH236809   8.063   3.361  19.268
 4205TIP3    H136810   8.000   3.458  19.254
 4205TIP3    H236811   8.165   3.391  19.224
 4206TIP3   OH236812   8.095   3.226  18.981
 4206TIP3    H136813   8.173   3.281  19.038
 4206TIP3    H236814   8.117   3.115  19.004
 4207TIP3   OH236815   8.524   3.400  19.385
 4207TIP3    H136816   8.411   3.388  19.415
 4207TIP3    H236817   8.573   3.296  19.404
 4208TIP3   OH236818   7.470   3.487  19.580
 4208TIP3    H136819   7.423   3.428  19.505
 4208TIP3    H236820   7.506   3.398  19.637
 4209TIP3   OH236821   7.650   3.866  19.828
 4209TIP3    H136822   7.726   3.865  19.754
 4209TIP3    H236823   7.723   3.842  19.901
 4210TIP3   OH236824   7.434   3.294  19.912
 4210TIP3    H136825   7.516   3.258  19.849
 4210TIP3    H236826   7.492   3.292  19.997
 4211TIP3   OH236827   8.351   3.324  19.156
 4211TIP3    H136828   8.425   3.368  19.221
 4211TIP3    H236829   8.402   3.361  19.071
 4212TIP3   OH236830   8.076   4.039  19.457
 4212TIP3    H136831   8.130   4.085  19.534
 4212TIP3    H236832   8.015   4.130  19.423
 4213TIP3   OH236833   8.788   2.284  19.126
 4213TIP3    H136834   8.674   2.296  19.149
 4213TIP3    H236835   8.830   2.392  19.133
 4214TIP3   OH236836   7.285   3.318  19.357
 4214TIP3    H136837   7.286   3.408  19.293
 4214TIP3    H236838   7.284   3.227  19.297
 4215TIP3   OH236839   8.936   4.030  18.980
 4215TIP3    H136840   8.977   4.139  18.995
 4215TIP3    H236841   9.040   3.974  18.982
 4216TIP3   OH236842   6.898   4.010  19.848
 4216TIP3    H136843   6.995   3.966  19.886
 4216TIP3    H236844   6.852   4.072  19.921
 4217TIP3   OH236845   8.012   4.408  19.334
 4217TIP3    H136846   8.006   4.428  19.238
 4217TIP3    H236847   8.009   4.519  19.368
 4218TIP3   OH236848   7.261   4.288  19.500
 4218TIP3    H136849   7.280   4.270  19.596
 4218TIP3    H236850   7.158   4.236  19.489
 4219TIP3   OH236851   8.365   4.339  19.034
 4219TIP3    H136852   8.426   4.250  18.993
 4219TIP3    H236853   8.383   4.324  19.130
 4220TIP3   OH236854   8.341   4.322  19.309
 4220TIP3    H136855   8.224   4.330  19.314
 4220TIP3    H236856   8.364   4.234  19.369
 4221TIP3   OH236857   7.477   2.432  19.874
 4221TIP3    H136858   7.388   2.418  19.810
 4221TIP3    H236859   7.436   2.528  19.915
 4222TIP3   OH236860   8.513   3.452  18.962
 4222TIP3    H136861   8.488   3.455  18.867
 4222TIP3    H236862   8.628   3.480  18.960
 4223TIP3   OH236863   8.018   2.676  18.974
 4223TIP3    H136864   8.000   2.640  19.065
 4223TIP3    H236865   7.933   2.614  18.933
 4224TIP3   OH236866   7.511   2.996  19.543
 4224TIP3    H136867   7.396   2.987  19.528
 4224TIP3    H236868   7.556   2.987  19.452
 4225TIP3   OH236869   8.195   3.113  19.384
 4225TIP3    H136870   8.137   3.193  19.328
 4225TIP3    H236871   8.258   3.059  19.314
 4226TIP3   OH236872   8.185   3.017  19.662
 4226TIP3    H136873   8.162   3.086  19.586
 4226TIP3    H236874   8.245   2.934  19.614
 4227TIP3   OH236875   7.578   2.731  18.919
 4227TIP3    H136876   7.511   2.670  18.981
 4227TIP3    H236877   7.499   2.791  18.867
 4228TIP3   OH236878   6.787   2.690  19.624
 4228TIP3    H136879   6.853   2.687  19.705
 4228TIP3    H236880   6.865   2.670  19.555
 4229TIP3   OH236881   6.917   2.758  19.140
 4229TIP3    H136882   6.988   2.808  19.074
 4229TIP3    H236883   6.841   2.846  19.152
 4230TIP3   OH236884   7.853   2.758  19.603
 4230TIP3    H136885   7.763   2.753  19.664
 4230TIP3    H236886   7.936   2.705  19.658
 4231TIP3   OH236887   7.171   2.881  19.525
 4231TIP3    H136888   7.090   2.922  19.462
 4231TIP3    H236889   7.193   2.773  19.489
 4232TIP3   OH236890   7.616   2.954  19.296
 4232TIP3    H136891   7.720   2.941  19.254
 4232TIP3    H236892   7.554   3.010  19.227
 4233TIP3   OH236893   8.282   2.539  19.941
 4233TIP3    H136894   8.284   2.608  20.020
 4233TIP3    H236895   8.224   2.608  19.880
 4234TIP3   OH236896   7.465   3.078  19.034
 4234TIP3    H136897   7.418   3.012  18.964
 4234TIP3    H236898   7.559   3.120  18.986
 4235TIP3   OH236899   7.933   3.078  19.816
 4235TIP3    H136900   8.004   3.061  19.739
 4235TIP3    H236901   7.978   2.996  19.874
 4236TIP3   OH236902   7.272   2.592  19.466
 4236TIP3    H136903   7.213   2.507  19.512
 4236TIP3    H236904   7.336   2.528  19.406
 4237TIP3   OH236905   7.866   3.624  19.226
 4237TIP3    H136906   7.772   3.568  19.190
 4237TIP3    H236907   7.820   3.659  19.312
 4238TIP3   OH236908   8.311   2.726  19.075
 4238TIP3    H136909   8.203   2.743  19.039
 4238TIP3    H236910   8.346   2.836  19.094
 4239TIP3   OH236911   8.399   2.995  19.194
 4239TIP3    H136912   8.504   2.977  19.233
 4239TIP3    H236913   8.419   3.076  19.125
 4240TIP3   OH236914   7.256   3.562  19.777
 4240TIP3    H136915   7.195   3.492  19.718
 4240TIP3    H236916   7.327   3.488  19.826
 4241TIP3   OH236917   8.110   3.791  19.125
 4241TIP3    H136918   8.065   3.895  19.153
 4241TIP3    H236919   8.023   3.718  19.153
 4242TIP3   OH236920   8.956   2.993  19.179
 4242TIP3    H136921   8.892   2.958  19.102
 4242TIP3    H236922   8.976   3.103  19.150
 4243TIP3   OH236923   8.771   4.045  19.220
 4243TIP3    H136924   8.699   3.956  19.239
 4243TIP3    H236925   8.827   4.014  19.137
 4244TIP3   OH236926   8.389   3.446  19.872
 4244TIP3    H136927   8.274   3.419  19.864
 4244TIP3    H236928   8.434   3.340  19.859
 4245TIP3   OH236929   7.519   3.958  19.568
 4245TIP3    H136930   7.596   4.039  19.594
 4245TIP3    H236931   7.471   4.015  19.493
 4246TIP3   OH236932   7.099   3.364  19.027
 4246TIP3    H136933   7.145   3.445  19.086
 4246TIP3    H236934   6.984   3.376  19.035
 4247TIP3   OH236935   7.703   3.688  19.443
 4247TIP3    H136936   7.646   3.775  19.488
 4247TIP3    H236937   7.681   3.593  19.496
 4248TIP3   OH236938   7.572   4.236  19.423
 4248TIP3    H136939   7.460   4.267  19.443
 4248TIP3    H236940   7.622   4.337  19.447
 4249TIP3   OH236941   8.498   3.850  19.016
 4249TIP3    H136942   8.519   3.787  19.098
 4249TIP3    H236943   8.395   3.803  18.994
 4250TIP3   OH236944   9.028   4.333  19.038
 4250TIP3    H136945   9.068   4.430  18.996
 4250TIP3    H236946   8.924   4.374  19.067
 4251TIP3   OH236947   8.621   3.661  19.225
 4251TIP3    H136948   8.598   3.559  19.270
 4251TIP3    H236949   8.738   3.650  19.213
 4252TIP3   OH236950   7.772   3.982  18.870
 4252TIP3    H136951   7.762   3.924  18.786
 4252TIP3    H236952   7.699   3.922  18.928
 4253TIP3   OH236953   7.610   3.878  19.102
 4253TIP3    H136954   7.700   3.832  19.150
 4253TIP3    H236955   7.627   3.992  19.126
 4254TIP3   OH236956   7.254   3.581  19.174
 4254TIP3    H136957   7.147   3.619  19.198
 4254TIP3    H236958   7.300   3.672  19.126
 4255TIP3   OH236959   8.240   2.597  19.311
 4255TIP3    H136960   8.278   2.654  19.232
 4255TIP3    H236961   8.276   2.670  19.383
 4256TIP3   OH236962   7.966   4.087  19.174
 4256TIP3    H136963   7.856   4.130  19.186
 4256TIP3    H236964   8.023   4.184  19.153
 4257TIP3   OH236965   7.943   2.826  19.347
 4257TIP3    H136966   7.982   2.933  19.369
 4257TIP3    H236967   7.895   2.792  19.432
 4258TIP3   OH236968   7.975   2.456  19.415
 4258TIP3    H136969   7.939   2.533  19.481
 4258TIP3    H236970   8.070   2.512  19.377
 4259TIP3   OH236971   7.657   4.175  19.167
 4259TIP3    H136972   7.664   4.266  19.104
 4259TIP3    H236973   7.604   4.226  19.243
 4260TIP3   OH236974   7.466   2.600  19.143
 4260TIP3    H136975   7.468   2.696  19.197
 4260TIP3    H236976   7.578   2.566  19.148
 4261TIP3   OH236977   8.456   3.178  19.758
 4261TIP3    H136978   8.377   3.096  19.780
 4261TIP3    H236979   8.556   3.122  19.786
 4262TIP3   OH236980   7.276   3.877  19.013
 4262TIP3    H136981   7.366   3.912  19.068
 4262TIP3    H236982   7.334   3.812  18.947
 4263TIP3   OH236983   7.061   3.000  18.985
 4263TIP3    H136984   7.114   3.098  19.012
 4263TIP3    H236985   6.991   3.037  18.914
 4264TIP3   OH236986   8.711   4.285  19.945
 4264TIP3    H136987   8.690   4.384  19.893
 4264TIP3    H236988   8.816   4.308  19.979
 4265TIP3   OH236989   7.192   2.401  19.769
 4265TIP3    H136990   7.174   2.353  19.681
 4265TIP3    H236991   7.175   2.306  19.825
 4266TIP3   OH236992   7.032   4.037  19.444
 4266TIP3    H136993   6.928   4.079  19.468
 4266TIP3    H236994   7.042   4.086  19.355
 4267TIP3   OH236995   8.022   4.206  18.874
 4267TIP3    H136996   7.957   4.109  18.887
 4267TIP3    H236997   8.118   4.163  18.830
 4268TIP3   OH236998   8.570   4.141  18.885
 4268TIP3    H136999   8.588   4.052  18.947
 4268TIP3    H237000   8.666   4.138  18.830
 4269TIP3   OH237001   7.464   3.654  18.859
 4269TIP3    H137002   7.510   3.610  18.940
 4269TIP3    H237003   7.554   3.640  18.797
 4270TIP3   OH237004   8.144   3.799  18.840
 4270TIP3    H137005   8.107   3.798  18.932
 4270TIP3    H237006   8.126   3.685  18.820
 4271TIP3   OH237007   7.627   3.415  19.123
 4271TIP3    H137008   7.544   3.346  19.160
 4271TIP3    H237009   7.675   3.344  19.056
 4272TIP3   OH237010   7.753   3.209  18.929
 4272TIP3    H137011   7.742   3.227  18.832
 4272TIP3    H237012   7.870   3.223  18.940
 4273TIP3   OH237013   8.830   3.463  18.882
 4273TIP3    H137014   8.801   3.446  18.788
 4273TIP3    H237015   8.852   3.578  18.884
 4274TIP3   OH237016   7.720   4.447  19.053
 4274TIP3    H137017   7.837   4.448  19.060
 4274TIP3    H237018   7.706   4.532  18.986
 4275TIP3   OH237019   6.944   3.829  19.001
 4275TIP3    H137020   7.062   3.847  18.999
 4275TIP3    H237021   6.932   3.754  18.925
 4276TIP3   OH237022   6.828   4.453  19.449
 4276TIP3    H137023   6.731   4.394  19.424
 4276TIP3    H237024   6.846   4.404  19.538
 4277TIP3   OH237025   6.878   4.292  19.678
 4277TIP3    H137026   6.833   4.192  19.708
 4277TIP3    H237027   6.956   4.312  19.750
 4278TIP3   OH237028   8.935   3.586  19.241
 4278TIP3    H137029   9.014   3.659  19.276
 4278TIP3    H237030   8.938   3.505  19.312
 4279TIP3   OH237031   8.960   3.404  19.470
 4279TIP3    H137032   8.866   3.354  19.506
 4279TIP3    H237033   9.036   3.383  19.541
 4280TIP3   OH237034   9.022   3.643  19.878
 4280TIP3    H137035   9.132   3.679  19.886
 4280TIP3    H237036   8.969   3.746  19.887
 4281TIP3   OH237037   8.976   3.318  19.105
 4281TIP3    H137038   8.924   3.346  19.020
 4281TIP3    H237039   8.983   3.426  19.142
 4282TIP3   OH237040   8.777   2.974  18.938
 4282TIP3    H137041   8.792   3.047  18.864
 4282TIP3    H237042   8.744   2.876  18.889
 4283TIP3   OH237043   8.677   3.151  19.514
 4283TIP3    H137044   8.674   3.080  19.435
 4283TIP3    H237045   8.734   3.078  19.573
 4284TIP3   OH237046   6.950   3.478  19.885
 4284TIP3    H137047   6.958   3.414  19.803
 4284TIP3    H237048   7.008   3.415  19.952
 4285TIP3   OH237049   8.706   2.676  18.842
 4285TIP3    H137050   8.699   2.636  18.932
 4285TIP3    H237051   8.600   2.642  18.808
 4286TIP3   OH237052   8.682   2.903  19.352
 4286TIP3    H137053   8.662   2.791  19.375
 4286TIP3    H237054   8.794   2.896  19.324
 4287TIP3   OH237055   8.705   3.001  19.822
 4287TIP3    H137056   8.825   3.006  19.825
 4287TIP3    H237057   8.682   2.929  19.895
 4288TIP3   OH237058   8.698   2.560  19.372
 4288TIP3    H137059   8.735   2.518  19.458
 4288TIP3    H237060   8.634   2.468  19.338
 4289TIP3   OH237061   6.995   2.650  19.847
 4289TIP3    H137062   7.049   2.545  19.835
 4289TIP3    H237063   7.082   2.713  19.885
 4290TIP3   OH237064   6.797   2.995  19.939
 4290TIP3    H137065   6.857   2.946  19.866
 4290TIP3    H237066   6.840   3.103  19.934
 4291TIP3   OH237067   8.972   2.554  19.047
 4291TIP3    H137068   8.990   2.485  18.969
 4291TIP3    H237069   9.018   2.656  19.017
 4292TIP3   OH237070   6.821   2.544  19.317
 4292TIP3    H137071   6.713   2.582  19.330
 4292TIP3    H237072   6.863   2.634  19.263
 4293TIP3   OH237073   8.610   4.356  19.556
 4293TIP3    H137074   8.680   4.330  19.480
 4293TIP3    H237075   8.681   4.420  19.612
 4294TIP3   OH237076   7.104   4.349  19.869
 4294TIP3    H137077   7.133   4.362  19.964
 4294TIP3    H237078   7.200   4.301  19.830
 4295TIP3   OH237079   7.344   4.189  19.752
 4295TIP3    H137080   7.349   4.081  19.787
 4295TIP3    H237081   7.440   4.235  19.795
 4296TIP3   OH237082   7.619   4.265  19.860
 4296TIP3    H137083   7.688   4.174  19.848
 4296TIP3    H237084   7.619   4.278  19.956
 4297TIP3   OH237085   8.024   2.575  19.769
 4297TIP3    H137086   7.957   2.485  19.798
 4297TIP3    H237087   8.122   2.514  19.751
 4298TIP3   OH237088   8.633   2.294  19.786
 4298TIP3    H137089   8.724   2.359  19.754
 4298TIP3    H237090   8.552   2.341  19.726
 4299TIP3   OH237091   8.830   2.446  19.617
 4299TIP3    H137092   8.909   2.378  19.570
 4299TIP3    H237093   8.884   2.551  19.617
 4300TIP3   OH237094   7.135   2.296  19.524
 4300TIP3    H137095   7.039   2.282  19.469
 4300TIP3    H237096   7.182   2.189  19.518
 4301TIP3   OH237097   7.020   2.310  19.150
 4301TIP3    H137098   7.043   2.383  19.077
 4301TIP3    H237099   6.938   2.366  19.200
 4302TIP3   OH237100   7.644   2.288  19.547
 4302TIP3    H137101   7.740   2.306  19.496
 4302TIP3    H237102   7.686   2.297  19.638
 4303TIP3   OH237103   8.327   2.376  19.635
 4303TIP3    H137104   8.310   2.377  19.539
 4303TIP3    H237105   8.297   2.267  19.661
 4304TIP3   OH237106   8.514   2.317  19.287
 4304TIP3    H137107   8.416   2.370  19.259
 4304TIP3    H237108   8.476   2.215  19.323
 4305TIP3   OH237109   6.986   4.226  19.232
 4305TIP3    H137110   6.875   4.260  19.234
 4305TIP3    H237111   7.032   4.321  19.189
 4306TIP3   OH237112   7.157   2.560  18.973
 4306TIP3    H137113   7.225   2.489  18.920
 4306TIP3    H237114   7.216   2.562  19.057
 4307TIP3   OH237115   7.838   2.568  19.181
 4307TIP3    H137116   7.874   2.502  19.255
 4307TIP3    H237117   7.849   2.675  19.222
 4308TIP3   OH237118   8.050   4.412  19.066
 4308TIP3    H137119   8.162   4.411  19.039
 4308TIP3    H237120   8.012   4.338  18.995
 4309TIP3   OH237121   8.810   4.321  19.346
 4309TIP3    H137122   8.808   4.222  19.292
 4309TIP3    H237123   8.809   4.402  19.274
 4310TIP3   OH237124   7.141   4.334  18.909
 4310TIP3    H137125   7.116   4.373  18.998
 4310TIP3    H237126   7.235   4.267  18.926
 4311TIP3   OH237127   9.060   3.088  19.442
 4311TIP3    H137128   9.031   3.196  19.414
 4311TIP3    H237129   9.035   3.025  19.363
 4312TIP3   OH237130   9.062   3.967  19.874
 4312TIP3    H137131   9.180   3.978  19.883
 4312TIP3    H237132   9.023   4.028  19.950
 4313TIP3   OH237133   9.002   2.713  19.576
 4313TIP3    H137134   9.116   2.734  19.597
 4313TIP3    H237135   9.013   2.653  19.491
 4314TIP3   OH237136   9.005   4.466  19.513
 4314TIP3    H137137   8.942   4.403  19.448
 4314TIP3    H237138   9.017   4.390  19.587
 4315TIP3   OH237139   9.064   4.285  19.730
 4315TIP3    H137140   9.010   4.186  19.748
 4315TIP3    H237141   9.178   4.253  19.721
 4316TIP3   OH237142   9.186   3.305  19.913
 4316TIP3    H137143   9.235   3.342  19.829
 4316TIP3    H237144   9.192   3.402  19.967
 4317TIP3   OH237145   9.001   3.050  19.896
 4317TIP3    H137146   9.089   2.982  19.867
 4317TIP3    H237147   9.065   3.146  19.920
 4318TIP3   OH237148   9.017   2.582  19.337
 4318TIP3    H137149   8.900   2.587  19.321
 4318TIP3    H237150   9.061   2.591  19.247
 4319TIP3   OH237151   1.460   5.722  19.522
 4319TIP3    H137152   1.458   5.836  19.544
 4319TIP3    H237153   1.356   5.708  19.482
 4320TIP3   OH237154   1.307   5.593  19.865
 4320TIP3    H137155   1.296   5.550  19.956
 4320TIP3    H237156   1.220   5.536  19.821
 4321TIP3   OH237157   1.672   5.945  19.701
 4321TIP3    H137158   1.638   5.854  19.757
 4321TIP3    H237159   1.712   6.020  19.770
 4322TIP3   OH237160   0.470   6.095  19.847
 4322TIP3    H137161   0.443   5.984  19.819
 4322TIP3    H237162   0.584   6.082  19.861
 4323TIP3   OH237163   0.146   5.281  19.367
 4323TIP3    H137164   0.152   5.377  19.420
 4323TIP3    H237165   0.040   5.249  19.395
 4324TIP3   OH237166   0.137   5.611  19.687
 4324TIP3    H137167   0.184   5.503  19.701
 4324TIP3    H237168   0.232   5.674  19.665
 4325TIP3   OH237169   1.388   6.620  19.749
 4325TIP3    H137170   1.463   6.557  19.694
 4325TIP3    H237171   1.340   6.533  19.798
 4326TIP3   OH237172   1.156   5.915  19.983
 4326TIP3    H137173   1.212   5.849  19.918
 4326TIP3    H237174   1.242   5.935  20.047
 4327TIP3   OH237175   1.478   5.248  19.969
 4327TIP3    H137176   1.514   5.136  19.974
 4327TIP3    H237177   1.475   5.263  19.872
 4328TIP3   OH237178   0.683   4.996  19.700
 4328TIP3    H137179   0.708   5.090  19.646
 4328TIP3    H237180   0.631   4.927  19.633
 4329TIP3   OH237181   1.552   5.042  19.524
 4329TIP3    H137182   1.618   4.993  19.595
 4329TIP3    H237183   1.634   5.110  19.483
 4330TIP3   OH237184   0.278   5.309  19.727
 4330TIP3    H137185   0.343   5.231  19.775
 4330TIP3    H237186   0.294   5.270  19.635
 4331TIP3   OH237187   0.832   5.472  19.703
 4331TIP3    H137188   0.924   5.414  19.738
 4331TIP3    H237189   0.786   5.387  19.646
 4332TIP3   OH237190   1.364   6.012  19.414
 4332TIP3    H137191   1.343   5.996  19.319
 4332TIP3    H237192   1.346   6.128  19.419
 4333TIP3   OH237193   1.770   4.958  19.696
 4333TIP3    H137194   1.698   4.930  19.771
 4333TIP3    H237195   1.873   4.932  19.733
 4334TIP3   OH237196   0.462   5.113  19.885
 4334TIP3    H137197   0.520   5.206  19.919
 4334TIP3    H237198   0.542   5.060  19.828
 4335TIP3   OH237199   0.146   5.975  19.257
 4335TIP3    H137200   0.116   6.040  19.179
 4335TIP3    H237201   0.175   6.058  19.323
 4336TIP3   OH237202   1.811   6.139  19.874
 4336TIP3    H137203   1.770   6.086  19.955
 4336TIP3    H237204   1.877   6.221  19.914
 4337TIP3   OH237205   1.024   4.600  19.811
 4337TIP3    H137206   1.049   4.487  19.811
 4337TIP3    H237207   0.911   4.603  19.841
 4338TIP3   OH237208   1.572   6.427  19.606
 4338TIP3    H137209   1.621   6.323  19.590
 4338TIP3    H237210   1.666   6.497  19.585
 4339TIP3   OH237211   1.739   6.170  19.494
 4339TIP3    H137212   1.711   6.084  19.433
 4339TIP3    H237213   1.744   6.108  19.577
 4340TIP3   OH237214   1.285   5.630  19.265
 4340TIP3    H137215   1.218   5.724  19.248
 4340TIP3    H237216   1.393   5.674  19.250
 4341TIP3   OH237217   1.303   5.478  18.965
 4341TIP3    H137218   1.355   5.516  19.047
 4341TIP3    H237219   1.342   5.368  18.962
 4342TIP3   OH237220   1.740   5.618  19.389
 4342TIP3    H137221   1.644   5.650  19.440
 4342TIP3    H237222   1.811   5.579  19.459
 4343TIP3   OH237223   0.695   5.700  19.554
 4343TIP3    H137224   0.642   5.635  19.485
 4343TIP3    H237225   0.761   5.621  19.601
 4344TIP3   OH237226   0.872   6.157  19.835
 4344TIP3    H137227   0.850   6.112  19.747
 4344TIP3    H237228   0.950   6.082  19.870
 4345TIP3   OH237229   0.664   5.573  19.912
 4345TIP3    H137230   0.722   5.556  19.828
 4345TIP3    H237231   0.748   5.609  19.971
 4346TIP3   OH237232   1.573   5.598  19.158
 4346TIP3    H137233   1.652   5.622  19.227
 4346TIP3    H237234   1.632   5.630  19.076
 4347TIP3   OH237235   1.298   6.319  19.439
 4347TIP3    H137236   1.379   6.346  19.505
 4347TIP3    H237237   1.235   6.415  19.433
 4348TIP3   OH237238   2.014   4.529  19.183
 4348TIP3    H137239   1.900   4.547  19.192
 4348TIP3    H237240   2.057   4.636  19.161
 4349TIP3   OH237241   0.568   5.560  19.313
 4349TIP3    H137242   0.509   5.653  19.280
 4349TIP3    H237243   0.502   5.470  19.287
 4350TIP3   OH237244   2.152   6.246  19.005
 4350TIP3    H137245   2.180   6.360  19.007
 4350TIP3    H237246   2.260   6.200  19.018
 4351TIP3   OH237247   0.157   6.262  19.880
 4351TIP3    H137248   0.240   6.180  19.876
 4351TIP3    H237249   0.203   6.329  19.950
 4352TIP3   OH237250   1.252   6.673  19.342
 4352TIP3    H137251   1.248   6.683  19.244
 4352TIP3    H237252   1.224   6.784  19.367
 4353TIP3   OH237253   0.496   6.533  19.514
 4353TIP3    H137254   0.510   6.494  19.606
 4353TIP3    H237255   0.380   6.536  19.502
 4354TIP3   OH237256   1.594   6.594  19.024
 4354TIP3    H137257   1.652   6.503  18.985
 4354TIP3    H237258   1.604   6.576  19.119
 4355TIP3   OH237259   1.562   6.596  19.299
 4355TIP3    H137260   1.448   6.611  19.322
 4355TIP3    H237261   1.591   6.508  19.357
 4356TIP3   OH237262   0.702   4.666  19.847
 4356TIP3    H137263   0.594   4.686  19.811
 4356TIP3    H237264   0.732   4.771  19.880
 4357TIP3   OH237265   1.754   5.711  18.968
 4357TIP3    H137266   1.728   5.730  18.874
 4357TIP3    H237267   1.871   5.724  18.966
 4358TIP3   OH237268   1.216   4.933  18.965
 4358TIP3    H137269   1.178   4.924  19.057
 4358TIP3    H237270   1.153   4.846  18.927
 4359TIP3   OH237271   0.710   5.251  19.544
 4359TIP3    H137272   0.598   5.222  19.526
 4359TIP3    H237273   0.751   5.244  19.450
 4360TIP3   OH237274   1.364   5.370  19.387
 4360TIP3    H137275   1.331   5.465  19.335
 4360TIP3    H237276   1.440   5.326  19.323
 4361TIP3   OH237277   1.460   5.304  19.697
 4361TIP3    H137278   1.439   5.393  19.636
 4361TIP3    H237279   1.477   5.218  19.633
 4362TIP3   OH237280   0.764   4.973  18.903
 4362TIP3    H137281   0.719   4.902  18.973
 4362TIP3    H237282   0.668   5.009  18.860
 4363TIP3   OH237283   0.085   4.948  19.620
 4363TIP3    H137284   0.131   4.964  19.709
 4363TIP3    H237285   0.139   4.850  19.592
 4364TIP3   OH237286   0.113   5.042  19.135
 4364TIP3    H137287   0.199   5.093  19.082
 4364TIP3    H237288   0.060   5.135  19.172
 4365TIP3   OH237289   1.038   5.006  19.620
 4365TIP3    H137290   0.938   4.988  19.668
 4365TIP3    H237291   1.114   4.939  19.671
 4366TIP3   OH237292   0.404   5.165  19.496
 4366TIP3    H137293   0.320   5.174  19.427
 4366TIP3    H237294   0.412   5.046  19.499
 4367TIP3   OH237295   0.793   5.200  19.291
 4367TIP3    H137296   0.907   5.197  19.270
 4367TIP3    H237297   0.749   5.264  19.219
 4368TIP3   OH237298   1.555   4.945  19.888
 4368TIP3    H137299   1.553   4.914  19.983
 4368TIP3    H237300   1.442   4.932  19.863
 4369TIP3   OH237301   0.680   5.354  19.032
 4369TIP3    H137302   0.625   5.280  18.974
 4369TIP3    H237303   0.780   5.375  18.981
 4370TIP3   OH237304   1.126   5.310  19.810
 4370TIP3    H137305   1.169   5.286  19.722
 4370TIP3    H237306   1.208   5.258  19.864
 4371TIP3   OH237307   0.485   4.862  19.493
 4371TIP3    H137308   0.416   4.771  19.519
 4371TIP3    H237309   0.539   4.810  19.418
 4372TIP3   OH237310   1.084   5.870  19.249
 4372TIP3    H137311   0.996   5.813  19.205
 4372TIP3    H237312   1.028   5.905  19.332
 4373TIP3   OH237313   1.508   4.992  19.069
 4373TIP3    H137314   1.409   5.000  19.017
 4373TIP3    H237315   1.532   5.106  19.087
 4374TIP3   OH237316   1.579   5.272  19.177
 4374TIP3    H137317   1.650   5.226  19.243
 4374TIP3    H237318   1.631   5.374  19.159
 4375TIP3   OH237319   0.487   5.798  19.765
 4375TIP3    H137320   0.551   5.782  19.684
 4375TIP3    H237321   0.548   5.741  19.833
 4376TIP3   OH237322   1.308   6.044  19.148
 4376TIP3    H137323   1.260   6.151  19.164
 4376TIP3    H237324   1.222   5.971  19.179
 4377TIP3   OH237325   2.172   5.238  19.181
 4377TIP3    H137326   2.108   5.233  19.098
 4377TIP3    H237327   2.202   5.351  19.182
 4378TIP3   OH237328   1.952   6.293  19.212
 4378TIP3    H137329   1.920   6.206  19.270
 4378TIP3    H237330   2.022   6.241  19.145
 4379TIP3   OH237331   1.628   5.676  19.881
 4379TIP3    H137332   1.517   5.640  19.869
 4379TIP3    H237333   1.690   5.596  19.830
 4380TIP3   OH237334   0.745   6.199  19.561
 4380TIP3    H137335   0.799   6.299  19.582
 4380TIP3    H237336   0.655   6.241  19.511
 4381TIP3   OH237337   0.277   5.626  19.026
 4381TIP3    H137338   0.325   5.720  19.066
 4381TIP3    H237339   0.167   5.628  19.057
 4382TIP3   OH237340   0.906   5.936  19.460
 4382TIP3    H137341   0.853   6.025  19.507
 4382TIP3    H237342   0.882   5.844  19.516
 4383TIP3   OH237343   0.793   6.502  19.429
 4383TIP3    H137344   0.680   6.522  19.451
 4383TIP3    H237345   0.839   6.601  19.466
 4384TIP3   OH237346   1.711   6.079  18.999
 4384TIP3    H137347   1.722   6.038  19.090
 4384TIP3    H237348   1.600   6.049  18.984
 4385TIP3   OH237349   2.213   6.592  19.046
 4385TIP3    H137350   2.290   6.673  19.019
 4385TIP3    H237351   2.132   6.658  19.091
 4386TIP3   OH237352   1.801   5.911  19.236
 4386TIP3    H137353   1.776   5.809  19.278
 4386TIP3    H237354   1.915   5.894  19.214
 4387TIP3   OH237355   1.000   6.240  18.863
 4387TIP3    H137356   0.996   6.167  18.787
 4387TIP3    H237357   0.935   6.181  18.928
 4388TIP3   OH237358   0.870   6.139  19.102
 4388TIP3    H137359   0.973   6.116  19.144
 4388TIP3    H237360   0.864   6.256  19.123
 4389TIP3   OH237361   0.433   5.856  19.181
 4389TIP3    H137362   0.330   5.879  19.227
 4389TIP3    H237363   0.419   5.920  19.100
 4390TIP3   OH237364   1.441   4.879  19.309
 4390TIP3    H137365   1.472   4.930  19.224
 4390TIP3    H237366   1.490   4.949  19.377
 4391TIP3   OH237367   1.166   6.332  19.158
 4391TIP3    H137368   1.076   6.395  19.196
 4391TIP3    H237369   1.246   6.416  19.150
 4392TIP3   OH237370   1.117   5.114  19.371
 4392TIP3    H137371   1.184   5.208  19.386
 4392TIP3    H237372   1.084   5.078  19.461
 4393TIP3   OH237373   1.188   4.733  19.418
 4393TIP3    H137374   1.159   4.798  19.495
 4393TIP3    H237375   1.280   4.794  19.382
 4394TIP3   OH237376   0.868   6.446  19.165
 4394TIP3    H137377   0.886   6.546  19.111
 4394TIP3    H237378   0.821   6.497  19.245
 4395TIP3   OH237379   0.679   4.861  19.149
 4395TIP3    H137380   0.670   4.958  19.201
 4395TIP3    H237381   0.794   4.842  19.152
 4396TIP3   OH237382   1.763   5.435  19.740
 4396TIP3    H137383   1.668   5.370  19.758
 4396TIP3    H237384   1.842   5.380  19.799
 4397TIP3   OH237385   0.485   6.148  19.014
 4397TIP3    H137386   0.527   6.254  18.993
 4397TIP3    H237387   0.508   6.090  18.930
 4398TIP3   OH237388   0.280   5.261  18.975
 4398TIP3    H137389   0.306   5.371  18.998
 4398TIP3    H237390   0.220   5.276  18.893
 4399TIP3   OH237391   1.898   6.576  19.943
 4399TIP3    H137392   1.918   6.664  19.880
 4399TIP3    H237393   1.999   6.569  19.989
 4400TIP3   OH237394   0.378   4.660  19.786
 4400TIP3    H137395   0.371   4.633  19.691
 4400TIP3    H237396   0.364   4.552  19.823
 4401TIP3   OH237397   0.257   6.238  19.388
 4401TIP3    H137398   0.168   6.275  19.440
 4401TIP3    H237399   0.292   6.337  19.347
 4402TIP3   OH237400   1.238   6.468  18.853
 4402TIP3    H137401   1.180   6.371  18.877
 4402TIP3    H237402   1.336   6.422  18.814
 4403TIP3   OH237403   1.768   6.380  18.870
 4403TIP3    H137404   1.783   6.286  18.926
 4403TIP3    H237405   1.864   6.379  18.815
 4404TIP3   OH237406   0.692   5.897  18.888
 4404TIP3    H137407   0.718   5.791  18.921
 4404TIP3    H237408   0.793   5.920  18.842
 4405TIP3   OH237409   1.364   6.050  18.866
 4405TIP3    H137410   1.315   6.044  18.954
 4405TIP3    H237411   1.355   5.938  18.838
 4406TIP3   OH237412   0.811   5.706  19.126
 4406TIP3    H137413   0.751   5.632  19.183
 4406TIP3    H237414   0.868   5.628  19.071
 4407TIP3   OH237415   0.964   5.478  18.918
 4407TIP3    H137416   0.961   5.520  18.827
 4407TIP3    H237417   1.079   5.474  18.938
 4408TIP3   OH237418   2.078   5.723  18.866
 4408TIP3    H137419   2.045   5.692  18.775
 4408TIP3    H237420   2.069   5.840  18.862
 4409TIP3   OH237421   0.930   6.732  19.067
 4409TIP3    H137422   1.046   6.733  19.074
 4409TIP3    H237423   0.914   6.814  18.998
 4410TIP3   OH237424   0.158   6.124  19.012
 4410TIP3    H137425   0.272   6.152  19.014
 4410TIP3    H237426   0.154   6.061  18.931
 4411TIP3   OH237427   0.107   6.713  19.485
 4411TIP3    H137428  -0.011   6.725  19.495
 4411TIP3    H237429   0.127   6.637  19.558
 4412TIP3   OH237430   0.154   6.496  19.691
 4412TIP3    H137431   0.149   6.392  19.740
 4412TIP3    H237432   0.221   6.556  19.754
 4413TIP3   OH237433   2.123   5.848  19.241
 4413TIP3    H137434   2.225   5.902  19.260
 4413TIP3    H237435   2.117   5.774  19.318
 4414TIP3   OH237436   2.164   5.639  19.458
 4414TIP3    H137437   2.083   5.578  19.509
 4414TIP3    H237438   2.257   5.639  19.518
 4415TIP3   OH237439   2.273   5.983  19.941
 4415TIP3    H137440   2.314   5.893  19.889
 4415TIP3    H237441   2.182   6.020  19.888
 4416TIP3   OH237442   2.230   5.586  19.085
 4416TIP3    H137443   2.153   5.598  19.010
 4416TIP3    H237444   2.198   5.677  19.141
 4417TIP3   OH237445   2.036   5.260  18.928
 4417TIP3    H137446   2.027   5.329  18.852
 4417TIP3    H237447   1.990   5.158  18.894
 4418TIP3   OH237448   1.940   5.405  19.526
 4418TIP3    H137449   1.885   5.316  19.483
 4418TIP3    H237450   1.880   5.414  19.611
 4419TIP3   OH237451   0.216   5.795  19.926
 4419TIP3    H137452   0.206   5.742  19.840
 4419TIP3    H237453   0.286   5.717  19.970
 4420TIP3   OH237454   1.924   4.964  18.869
 4420TIP3    H137455   1.975   4.897  18.937
 4420TIP3    H237456   1.825   4.907  18.847
 4421TIP3   OH237457   1.826   5.165  19.357
 4421TIP3    H137458   1.854   5.054  19.383
 4421TIP3    H237459   1.930   5.190  19.317
 4422TIP3   OH237460   1.963   5.250  19.869
 4422TIP3    H137461   2.081   5.243  19.879
 4422TIP3    H237462   1.938   5.137  19.890
 4423TIP3   OH237463   1.933   4.861  19.365
 4423TIP3    H137464   1.978   4.806  19.442
 4423TIP3    H237465   1.864   4.776  19.331
 4424TIP3   OH237466   0.184   4.920  19.870
 4424TIP3    H137467   0.233   4.814  19.860
 4424TIP3    H237468   0.268   4.978  19.918
 4425TIP3   OH237469   0.118   5.282  19.991
 4425TIP3    H137470   0.144   5.256  19.899
 4425TIP3    H237471   0.066   5.387  19.977
 4426TIP3   OH237472   2.159   4.813  19.040
 4426TIP3    H137473   2.208   4.753  18.965
 4426TIP3    H237474   2.234   4.901  19.051
 4427TIP3   OH237475   0.116   4.814  19.316
 4427TIP3    H137476   0.019   4.848  19.363
 4427TIP3    H237477   0.110   4.883  19.236
 4428TIP3   OH237478   1.814   6.624  19.544
 4428TIP3    H137479   1.904   6.604  19.483
 4428TIP3    H237480   1.859   6.697  19.610
 4429TIP3   OH237481   0.331   6.613  19.899
 4429TIP3    H137482   0.353   6.638  19.992
 4429TIP3    H237483   0.431   6.556  19.877
 4430TIP3   OH237484   0.536   6.422  19.762
 4430TIP3    H137485   0.508   6.310  19.773
 4430TIP3    H237486   0.642   6.426  19.806
 4431TIP3   OH237487   0.842   6.485  19.873
 4431TIP3    H137488   0.880   6.378  19.845
 4431TIP3    H237489   0.895   6.493  19.958
 4432TIP3   OH237490   1.262   4.825  19.769
 4432TIP3    H137491   1.184   4.742  19.796
 4432TIP3    H237492   1.357   4.757  19.767
 4433TIP3   OH237493   1.915   4.585  19.773
 4433TIP3    H137494   1.976   4.634  19.699
 4433TIP3    H237495   1.804   4.619  19.754
 4434TIP3   OH237496   2.101   4.685  19.563
 4434TIP3    H137497   2.185   4.625  19.517
 4434TIP3    H237498   2.160   4.786  19.582
 4435TIP3   OH237499   0.384   4.576  19.528
 4435TIP3    H137500   0.282   4.552  19.481
 4435TIP3    H237501   0.442   4.475  19.513
 4436TIP3   OH237502   0.258   4.582  19.173
 4436TIP3    H137503   0.264   4.630  19.085
 4436TIP3    H237504   0.204   4.666  19.227
 4437TIP3   OH237505   0.871   4.528  19.546
 4437TIP3    H137506   0.966   4.584  19.516
 4437TIP3    H237507   0.881   4.530  19.642
 4438TIP3   OH237508   1.608   4.621  19.683
 4438TIP3    H137509   1.571   4.651  19.596
 4438TIP3    H237510   1.554   4.517  19.697
 4439TIP3   OH237511   1.722   4.620  19.311
 4439TIP3    H137512   1.624   4.682  19.317
 4439TIP3    H237513   1.687   4.508  19.325
 4440TIP3   OH237514   0.228   6.538  19.242
 4440TIP3    H137515   0.113   6.550  19.230
 4440TIP3    H237516   0.260   6.644  19.210
 4441TIP3   OH237517   0.360   4.792  18.969
 4441TIP3    H137518   0.444   4.733  18.922
 4441TIP3    H237519   0.404   4.802  19.058
 4442TIP3   OH237520   1.038   4.859  19.191
 4442TIP3    H137521   1.091   4.792  19.258
 4442TIP3    H237522   1.051   4.962  19.236
 4443TIP3   OH237523   1.273   6.660  19.069
 4443TIP3    H137524   1.386   6.671  19.043
 4443TIP3    H237525   1.240   6.594  18.992
 4444TIP3   OH237526   2.041   6.548  19.356
 4444TIP3    H137527   2.012   6.454  19.301
 4444TIP3    H237528   2.041   6.634  19.288
 4445TIP3   OH237529   0.380   6.542  18.939
 4445TIP3    H137530   0.361   6.593  19.024
 4445TIP3    H237531   0.493   6.517  18.945
 4446TIP3   OH237532   3.718   5.720  19.524
 4446TIP3    H137533   3.713   5.836  19.541
 4446TIP3    H237534   3.617   5.705  19.479
 4447TIP3   OH237535   3.574   5.603  19.865
 4447TIP3    H137536   3.570   5.544  19.949
 4447TIP3    H237537   3.502   5.540  19.809
 4448TIP3   OH237538   3.919   5.954  19.701
 4448TIP3    H137539   3.898   5.863  19.762
 4448TIP3    H237540   3.968   6.031  19.764
 4449TIP3   OH237541   2.772   6.125  19.865
 4449TIP3    H137542   2.747   6.011  19.855
 4449TIP3    H237543   2.888   6.125  19.853
 4450TIP3   OH237544   2.386   5.284  19.464
 4450TIP3    H137545   2.359   5.395  19.476
 4450TIP3    H237546   2.290   5.244  19.420
 4451TIP3   OH237547   2.453   5.598  19.628
 4451TIP3    H137548   2.501   5.509  19.679
 4451TIP3    H237549   2.544   5.665  19.604
 4452TIP3   OH237550   3.661   6.622  19.750
 4452TIP3    H137551   3.736   6.558  19.695
 4452TIP3    H237552   3.610   6.533  19.794
 4453TIP3   OH237553   3.413   5.894  19.994
 4453TIP3    H137554   3.475   5.825  19.936
 4453TIP3    H237555   3.487   5.912  20.067
 4454TIP3   OH237556   3.743   5.242  19.964
 4454TIP3    H137557   3.775   5.129  19.973
 4454TIP3    H237558   3.751   5.255  19.868
 4455TIP3   OH237559   2.970   4.973  19.691
 4455TIP3    H137560   2.988   5.068  19.634
 4455TIP3    H237561   2.898   4.912  19.632
 4456TIP3   OH237562   3.814   5.050  19.528
 4456TIP3    H137563   3.881   4.994  19.596
 4456TIP3    H237564   3.898   5.113  19.486
 4457TIP3   OH237565   2.521   5.284  19.756
 4457TIP3    H137566   2.593   5.206  19.799
 4457TIP3    H237567   2.526   5.246  19.663
 4458TIP3   OH237568   3.112   5.472  19.692
 4458TIP3    H137569   3.198   5.407  19.730
 4458TIP3    H237570   3.047   5.389  19.647
 4459TIP3   OH237571   3.612   5.999  19.419
 4459TIP3    H137572   3.596   5.998  19.323
 4459TIP3    H237573   3.599   6.115  19.434
 4460TIP3   OH237574   4.033   4.963  19.701
 4460TIP3    H137575   3.961   4.933  19.776
 4460TIP3    H237576   4.138   4.931  19.737
 4461TIP3   OH237577   2.758   5.105  19.875
 4461TIP3    H137578   2.794   5.216  19.876
 4461TIP3    H237579   2.814   5.063  19.797
 4462TIP3   OH237580   2.442   5.968  19.270
 4462TIP3    H137581   2.432   6.032  19.188
 4462TIP3    H237582   2.458   6.052  19.336
 4463TIP3   OH237583   4.068   6.146  19.871
 4463TIP3    H137584   4.052   6.068  19.943
 4463TIP3    H237585   4.123   6.228  19.920
 4464TIP3   OH237586   3.260   4.586  19.794
 4464TIP3    H137587   3.288   4.475  19.809
 4464TIP3    H237588   3.149   4.594  19.827
 4465TIP3   OH237589   3.829   6.426  19.602
 4465TIP3    H137590   3.883   6.328  19.575
 4465TIP3    H237591   3.916   6.504  19.581
 4466TIP3   OH237592   4.020   6.178  19.489
 4466TIP3    H137593   4.004   6.103  19.415
 4466TIP3    H237594   4.002   6.107  19.565
 4467TIP3   OH237595   3.524   5.624  19.269
 4467TIP3    H137596   3.470   5.724  19.249
 4467TIP3    H237597   3.631   5.638  19.230
 4468TIP3   OH237598   3.570   5.495  18.967
 4468TIP3    H137599   3.642   5.534  19.038
 4468TIP3    H237600   3.600   5.382  18.964
 4469TIP3   OH237601   3.982   5.605  19.378
 4469TIP3    H137602   3.900   5.645  19.442
 4469TIP3    H237603   4.066   5.562  19.437
 4470TIP3   OH237604   2.954   5.696  19.558
 4470TIP3    H137605   2.908   5.640  19.482
 4470TIP3    H237606   3.029   5.617  19.596
 4471TIP3   OH237607   3.119   6.156  19.836
 4471TIP3    H137608   3.110   6.124  19.743
 4471TIP3    H237609   3.187   6.070  19.870
 4472TIP3   OH237610   2.927   5.488  19.916
 4472TIP3    H137611   2.988   5.496  19.833
 4472TIP3    H237612   2.954   5.588  19.960
 4473TIP3   OH237613   3.811   5.600  19.147
 4473TIP3    H137614   3.882   5.616  19.225
 4473TIP3    H237615   3.883   5.630  19.072
 4474TIP3   OH237616   3.569   6.312  19.443
 4474TIP3    H137617   3.644   6.354  19.510
 4474TIP3    H237618   3.506   6.406  19.421
 4475TIP3   OH237619   4.277   4.525  19.180
 4475TIP3    H137620   4.164   4.555  19.188
 4475TIP3    H237621   4.328   4.628  19.157
 4476TIP3   OH237622   2.777   5.580  19.334
 4476TIP3    H137623   2.759   5.678  19.282
 4476TIP3    H237624   2.749   5.498  19.270
 4477TIP3   OH237625   4.414   6.260  18.993
 4477TIP3    H137626   4.438   6.376  19.003
 4477TIP3    H237627   4.522   6.216  19.005
 4478TIP3   OH237628   2.346   6.272  19.826
 4478TIP3    H137629   2.416   6.190  19.862
 4478TIP3    H237630   2.292   6.306  19.907
 4479TIP3   OH237631   3.517   6.683  19.330
 4479TIP3    H137632   3.511   6.701  19.234
 4479TIP3    H237633   3.488   6.791  19.363
 4480TIP3   OH237634   2.737   6.532  19.509
 4480TIP3    H137635   2.758   6.510  19.604
 4480TIP3    H237636   2.627   6.492  19.499
 4481TIP3   OH237637   3.868   6.600  19.019
 4481TIP3    H137638   3.931   6.510  18.986
 4481TIP3    H237639   3.871   6.583  19.116
 4482TIP3   OH237640   3.823   6.600  19.296
 4482TIP3    H137641   3.708   6.617  19.316
 4482TIP3    H237642   3.846   6.516  19.360
 4483TIP3   OH237643   2.947   4.681  19.884
 4483TIP3    H137644   2.855   4.678  19.824
 4483TIP3    H237645   2.941   4.792  19.910
 4484TIP3   OH237646   4.016   5.712  18.967
 4484TIP3    H137647   3.996   5.735  18.872
 4484TIP3    H237648   4.132   5.729  18.970
 4485TIP3   OH237649   3.479   4.938  18.975
 4485TIP3    H137650   3.431   4.936  19.063
 4485TIP3    H237651   3.412   4.859  18.931
 4486TIP3   OH237652   2.966   5.244  19.552
 4486TIP3    H137653   2.854   5.213  19.535
 4486TIP3    H237654   3.011   5.244  19.460
 4487TIP3   OH237655   3.641   5.365  19.385
 4487TIP3    H137656   3.595   5.458  19.335
 4487TIP3    H237657   3.712   5.323  19.316
 4488TIP3   OH237658   3.712   5.309  19.689
 4488TIP3    H137659   3.704   5.390  19.619
 4488TIP3    H237660   3.731   5.215  19.633
 4489TIP3   OH237661   3.062   4.988  18.905
 4489TIP3    H137662   3.004   4.939  18.979
 4489TIP3    H237663   2.976   5.028  18.849
 4490TIP3   OH237664   2.268   4.952  19.620
 4490TIP3    H137665   2.345   4.957  19.694
 4490TIP3    H237666   2.333   4.981  19.543
 4491TIP3   OH237667   2.401   5.024  19.120
 4491TIP3    H137668   2.478   5.076  19.059
 4491TIP3    H237669   2.326   5.113  19.134
 4492TIP3   OH237670   3.313   4.982  19.597
 4492TIP3    H137671   3.216   4.978  19.650
 4492TIP3    H237672   3.388   4.931  19.659
 4493TIP3   OH237673   2.654   5.129  19.537
 4493TIP3    H137674   2.566   5.185  19.492
 4493TIP3    H237675   2.659   5.023  19.493
 4494TIP3   OH237676   3.067   5.219  19.298
 4494TIP3    H137677   3.173   5.202  19.261
 4494TIP3    H237678   3.014   5.278  19.227
 4495TIP3   OH237679   3.816   4.939  19.897
 4495TIP3    H137680   3.815   4.909  19.991
 4495TIP3    H237681   3.703   4.925  19.875
 4496TIP3   OH237682   2.926   5.347  19.025
 4496TIP3    H137683   2.888   5.273  18.958
 4496TIP3    H237684   3.026   5.378  18.983
 4497TIP3   OH237685   3.408   5.290  19.824
 4497TIP3    H137686   3.488   5.294  19.753
 4497TIP3    H237687   3.466   5.227  19.890
 4498TIP3   OH237688   2.760   4.838  19.466
 4498TIP3    H137689   2.686   4.763  19.508
 4498TIP3    H237690   2.822   4.762  19.415
 4499TIP3   OH237691   3.334   5.885  19.235
 4499TIP3    H137692   3.242   5.828  19.194
 4499TIP3    H237693   3.287   5.910  19.324
 4500TIP3   OH237694   3.767   4.993  19.066
 4500TIP3    H137695   3.658   4.990  19.027
 4500TIP3    H237696   3.785   5.108  19.075
 4501TIP3   OH237697   3.858   5.274  19.177
 4501TIP3    H137698   3.935   5.236  19.243
 4501TIP3    H237699   3.902   5.378  19.155
 4502TIP3   OH237700   2.708   5.809  19.807
 4502TIP3    H137701   2.732   5.802  19.713
 4502TIP3    H237702   2.810   5.782  19.848
 4503TIP3   OH237703   3.572   6.054  19.132
 4503TIP3    H137704   3.528   6.162  19.150
 4503TIP3    H237705   3.485   5.983  19.161
 4504TIP3   OH237706   4.429   5.236  19.182
 4504TIP3    H137707   4.376   5.239  19.094
 4504TIP3    H237708   4.469   5.346  19.187
 4505TIP3   OH237709   4.211   6.310  19.209
 4505TIP3    H137710   4.193   6.227  19.275
 4505TIP3    H237711   4.267   6.256  19.137
 4506TIP3   OH237712   3.895   5.694  19.878
 4506TIP3    H137713   3.784   5.654  19.868
 4506TIP3    H237714   3.954   5.620  19.821
 4507TIP3   OH237715   3.023   6.233  19.552
 4507TIP3    H137716   3.052   6.330  19.502
 4507TIP3    H237717   2.909   6.232  19.533
 4508TIP3   OH237718   2.554   5.603  19.025
 4508TIP3    H137719   2.605   5.666  19.095
 4508TIP3    H237720   2.437   5.617  19.040
 4509TIP3   OH237721   3.156   5.929  19.459
 4509TIP3    H137722   3.122   6.029  19.502
 4509TIP3    H237723   3.109   5.846  19.516
 4510TIP3   OH237724   3.054   6.518  19.433
 4510TIP3    H137725   2.938   6.532  19.443
 4510TIP3    H237726   3.090   6.619  19.474
 4511TIP3   OH237727   3.966   6.092  19.000
 4511TIP3    H137728   3.983   6.047  19.089
 4511TIP3    H237729   3.856   6.064  18.990
 4512TIP3   OH237730   4.475   6.582  19.041
 4512TIP3    H137731   4.532   6.659  18.987
 4512TIP3    H237732   4.393   6.650  19.084
 4513TIP3   OH237733   4.052   5.922  19.234
 4513TIP3    H137734   4.012   5.824  19.272
 4513TIP3    H237735   4.169   5.900  19.231
 4514TIP3   OH237736   3.241   6.239  18.869
 4514TIP3    H137737   3.222   6.175  18.790
 4514TIP3    H237738   3.172   6.185  18.934
 4515TIP3   OH237739   3.086   6.144  19.098
 4515TIP3    H137740   3.179   6.097  19.143
 4515TIP3    H237741   3.100   6.257  19.126
 4516TIP3   OH237742   2.710   5.833  19.163
 4516TIP3    H137743   2.609   5.868  19.206
 4516TIP3    H237744   2.743   5.932  19.118
 4517TIP3   OH237745   3.727   4.872  19.317
 4517TIP3    H137746   3.748   4.927  19.232
 4517TIP3    H237747   3.766   4.948  19.384
 4518TIP3   OH237748   3.452   6.360  19.153
 4518TIP3    H137749   3.344   6.397  19.178
 4518TIP3    H237750   3.509   6.462  19.146
 4519TIP3   OH237751   3.388   5.105  19.349
 4519TIP3    H137752   3.458   5.196  19.369
 4519TIP3    H237753   3.344   5.075  19.437
 4520TIP3   OH237754   3.467   4.727  19.421
 4520TIP3    H137755   3.430   4.810  19.482
 4520TIP3    H237756   3.563   4.783  19.384
 4521TIP3   OH237757   3.131   6.440  19.168
 4521TIP3    H137758   3.144   6.535  19.109
 4521TIP3    H237759   3.086   6.493  19.246
 4522TIP3   OH237760   2.942   4.870  19.136
 4522TIP3    H137761   2.911   4.949  19.202
 4522TIP3    H237762   3.056   4.856  19.159
 4523TIP3   OH237763   4.021   5.454  19.736
 4523TIP3    H137764   3.928   5.388  19.755
 4523TIP3    H237765   4.102   5.401  19.795
 4524TIP3   OH237766   2.762   6.133  19.020
 4524TIP3    H137767   2.852   6.170  19.074
 4524TIP3    H237768   2.822   6.074  18.952
 4525TIP3   OH237769   2.551   5.267  18.955
 4525TIP3    H137770   2.597   5.365  18.993
 4525TIP3    H237771   2.453   5.306  18.915
 4526TIP3   OH237772   4.171   6.571  19.946
 4526TIP3    H137773   4.184   6.662  19.883
 4526TIP3    H237774   4.273   6.569  19.991
 4527TIP3   OH237775   2.657   4.664  19.772
 4527TIP3    H137776   2.641   4.620  19.681
 4527TIP3    H237777   2.644   4.567  19.825
 4528TIP3   OH237778   2.500   6.276  19.427
 4528TIP3    H137779   2.406   6.338  19.452
 4528TIP3    H237780   2.530   6.332  19.345
 4529TIP3   OH237781   3.502   6.467  18.856
 4529TIP3    H137782   3.440   6.371  18.880
 4529TIP3    H237783   3.599   6.421  18.814
 4530TIP3   OH237784   4.040   6.384  18.870
 4530TIP3    H137785   4.054   6.296  18.935
 4530TIP3    H237786   4.144   6.386  18.825
 4531TIP3   OH237787   2.938   5.920  18.859
 4531TIP3    H137788   2.970   5.874  18.943
 4531TIP3    H237789   3.032   5.898  18.803
 4532TIP3   OH237790   3.617   6.071  18.848
 4532TIP3    H137791   3.574   6.052  18.938
 4532TIP3    H237792   3.618   5.959  18.814
 4533TIP3   OH237793   3.092   5.702  19.120
 4533TIP3    H137794   3.008   5.639  19.162
 4533TIP3    H237795   3.144   5.622  19.064
 4534TIP3   OH237796   3.234   5.483  18.918
 4534TIP3    H137797   3.230   5.513  18.823
 4534TIP3    H237798   3.350   5.484  18.934
 4535TIP3   OH237799   4.339   5.728  18.865
 4535TIP3    H137800   4.315   5.690  18.774
 4535TIP3    H237801   4.332   5.846  18.854
 4536TIP3   OH237802   3.196   6.733  19.080
 4536TIP3    H137803   3.313   6.731  19.079
 4536TIP3    H237804   3.179   6.806  19.004
 4537TIP3   OH237805   2.426   6.096  19.011
 4537TIP3    H137806   2.544   6.106  18.998
 4537TIP3    H237807   2.398   6.023  18.936
 4538TIP3   OH237808   2.300   6.696  19.457
 4538TIP3    H137809   2.197   6.642  19.436
 4538TIP3    H237810   2.323   6.646  19.544
 4539TIP3   OH237811   2.374   6.515  19.663
 4539TIP3    H137812   2.342   6.410  19.701
 4539TIP3    H237813   2.411   6.570  19.743
 4540TIP3   OH237814   4.376   5.854  19.244
 4540TIP3    H137815   4.483   5.902  19.256
 4540TIP3    H237816   4.374   5.778  19.319
 4541TIP3   OH237817   4.422   5.651  19.458
 4541TIP3    H137818   4.340   5.586  19.503
 4541TIP3    H237819   4.516   5.644  19.517
 4542TIP3   OH237820   4.459   5.970  19.945
 4542TIP3    H137821   4.530   5.888  19.906
 4542TIP3    H237822   4.441   6.047  19.873
 4543TIP3   OH237823   4.496   5.591  19.080
 4543TIP3    H137824   4.415   5.611  19.012
 4543TIP3    H237825   4.470   5.676  19.143
 4544TIP3   OH237826   4.283   5.261  18.923
 4544TIP3    H137827   4.288   5.332  18.847
 4544TIP3    H237828   4.247   5.159  18.883
 4545TIP3   OH237829   4.201   5.423  19.520
 4545TIP3    H137830   4.157   5.324  19.481
 4545TIP3    H237831   4.144   5.428  19.606
 4546TIP3   OH237832   2.347   5.666  19.869
 4546TIP3    H137833   2.396   5.658  19.780
 4546TIP3    H237834   2.443   5.662  19.926
 4547TIP3   OH237835   4.204   4.950  18.844
 4547TIP3    H137836   4.250   4.901  18.924
 4547TIP3    H237837   4.092   4.920  18.847
 4548TIP3   OH237838   4.097   5.174  19.367
 4548TIP3    H137839   4.118   5.059  19.382
 4548TIP3    H237840   4.193   5.195  19.314
 4549TIP3   OH237841   4.213   5.257  19.867
 4549TIP3    H137842   4.324   5.228  19.850
 4549TIP3    H237843   4.177   5.153  19.901
 4550TIP3   OH237844   4.196   4.874  19.370
 4550TIP3    H137845   4.236   4.817  19.447
 4550TIP3    H237846   4.141   4.789  19.322
 4551TIP3   OH237847   2.468   4.926  19.846
 4551TIP3    H137848   2.521   4.824  19.824
 4551TIP3    H237849   2.551   4.978  19.900
 4552TIP3   OH237850   2.281   5.255  19.953
 4552TIP3    H137851   2.335   5.209  19.874
 4552TIP3    H237852   2.323   5.363  19.950
 4553TIP3   OH237853   4.423   4.808  19.040
 4553TIP3    H137854   4.469   4.752  18.962
 4553TIP3    H237855   4.517   4.865  19.075
 4554TIP3   OH237856   2.311   4.828  19.321
 4554TIP3    H137857   2.198   4.853  19.326
 4554TIP3    H237858   2.345   4.892  19.245
 4555TIP3   OH237859   4.062   6.629  19.537
 4555TIP3    H137860   4.159   6.595  19.489
 4555TIP3    H237861   4.102   6.709  19.598
 4556TIP3   OH237862   2.581   6.630  19.873
 4556TIP3    H137863   2.561   6.594  19.964
 4556TIP3    H237864   2.657   6.548  19.840
 4557TIP3   OH237865   2.796   6.430  19.765
 4557TIP3    H137866   2.748   6.322  19.760
 4557TIP3    H237867   2.900   6.404  19.800
 4558TIP3   OH237868   3.107   6.500  19.883
 4558TIP3    H137869   3.131   6.444  19.800
 4558TIP3    H237870   3.156   6.424  19.944
 4559TIP3   OH237871   3.527   4.828  19.773
 4559TIP3    H137872   3.456   4.740  19.800
 4559TIP3    H237873   3.624   4.766  19.755
 4560TIP3   OH237874   4.178   4.588  19.773
 4560TIP3    H137875   4.240   4.637  19.698
 4560TIP3    H237876   4.067   4.615  19.752
 4561TIP3   OH237877   4.360   4.686  19.564
 4561TIP3    H137878   4.438   4.621  19.515
 4561TIP3    H237879   4.423   4.783  19.585
 4562TIP3   OH237880   2.603   4.570  19.524
 4562TIP3    H137881   2.506   4.546  19.473
 4562TIP3    H237882   2.654   4.463  19.522
 4563TIP3   OH237883   2.500   4.583  19.141
 4563TIP3    H137884   2.530   4.666  19.077
 4563TIP3    H237885   2.414   4.637  19.190
 4564TIP3   OH237886   3.127   4.543  19.541
 4564TIP3    H137887   3.216   4.582  19.489
 4564TIP3    H237888   3.169   4.555  19.631
 4565TIP3   OH237889   3.871   4.616  19.682
 4565TIP3    H137890   3.846   4.638  19.590
 4565TIP3    H237891   3.811   4.518  19.702
 4566TIP3   OH237892   3.994   4.622  19.301
 4566TIP3    H137893   3.894   4.682  19.309
 4566TIP3    H237894   3.960   4.512  19.322
 4567TIP3   OH237895   2.472   6.506  19.237
 4567TIP3    H137896   2.356   6.511  19.230
 4567TIP3    H237897   2.497   6.611  19.198
 4568TIP3   OH237898   2.621   4.811  18.960
 4568TIP3    H137899   2.695   4.740  18.913
 4568TIP3    H237900   2.683   4.838  19.039
 4569TIP3   OH237901   3.280   4.860  19.197
 4569TIP3    H137902   3.320   4.781  19.261
 4569TIP3    H237903   3.314   4.958  19.243
 4570TIP3   OH237904   3.540   6.671  19.056
 4570TIP3    H137905   3.655   6.671  19.039
 4570TIP3    H237906   3.508   6.602  18.980
 4571TIP3   OH237907   4.302   6.550  19.360
 4571TIP3    H137908   4.270   6.458  19.303
 4571TIP3    H237909   4.307   6.636  19.294
 4572TIP3   OH237910   2.622   6.612  18.921
 4572TIP3    H137911   2.599   6.641  19.013
 4572TIP3    H237912   2.705   6.530  18.934
 4573TIP3   OH237913   5.989   5.724  19.521
 4573TIP3    H137914   5.987   5.837  19.549
 4573TIP3    H237915   5.882   5.712  19.484
 4574TIP3   OH237916   5.815   5.582  19.863
 4574TIP3    H137917   5.831   5.569  19.959
 4574TIP3    H237918   5.743   5.495  19.841
 4575TIP3   OH237919   6.187   5.963  19.686
 4575TIP3    H137920   6.175   5.864  19.738
 4575TIP3    H237921   6.238   6.032  19.754
 4576TIP3   OH237922   5.051   6.115  19.878
 4576TIP3    H137923   5.030   6.004  19.853
 4576TIP3    H237924   5.166   6.125  19.865
 4577TIP3   OH237925   4.638   5.252  19.443
 4577TIP3    H137926   4.637   5.360  19.478
 4577TIP3    H237927   4.528   5.243  19.413
 4578TIP3   OH237928   4.720   5.597  19.651
 4578TIP3    H137929   4.762   5.503  19.699
 4578TIP3    H237930   4.796   5.680  19.676
 4579TIP3   OH237931   5.912   6.631  19.751
 4579TIP3    H137932   5.984   6.562  19.700
 4579TIP3    H237933   5.874   6.551  19.812
 4580TIP3   OH237934   5.657   5.951  19.961
 4580TIP3    H137935   5.701   5.890  19.888
 4580TIP3    H237936   5.732   5.908  20.029
 4581TIP3   OH237937   6.022   5.242  19.965
 4581TIP3    H137938   6.035   5.128  19.977
 4581TIP3    H237939   6.013   5.251  19.868
 4582TIP3   OH237940   5.228   4.976  19.689
 4582TIP3    H137941   5.245   5.066  19.627
 4582TIP3    H237942   5.173   4.902  19.630
 4583TIP3   OH237943   6.082   5.045  19.532
 4583TIP3    H137944   6.149   4.985  19.596
 4583TIP3    H237945   6.164   5.111  19.491
 4584TIP3   OH237946   4.768   5.268  19.739
 4584TIP3    H137947   4.843   5.200  19.787
 4584TIP3    H237948   4.795   5.240  19.646
 4585TIP3   OH237949   5.381   5.474  19.697
 4585TIP3    H137950   5.465   5.406  19.734
 4585TIP3    H237951   5.323   5.394  19.642
 4586TIP3   OH237952   5.881   6.013  19.414
 4586TIP3    H137953   5.858   6.004  19.318
 4586TIP3    H237954   5.862   6.128  19.427
 4587TIP3   OH237955   6.301   4.945  19.697
 4587TIP3    H137956   6.230   4.924  19.774
 4587TIP3    H237957   6.406   4.932  19.737
 4588TIP3   OH237958   5.012   5.108  19.871
 4588TIP3    H137959   5.056   5.216  19.880
 4588TIP3    H237960   5.070   5.070  19.792
 4589TIP3   OH237961   4.694   5.963  19.249
 4589TIP3    H137962   4.685   6.028  19.167
 4589TIP3    H237963   4.711   6.044  19.317
 4590TIP3   OH237964   6.338   6.136  19.875
 4590TIP3    H137965   6.289   6.072  19.947
 4590TIP3    H237966   6.412   6.197  19.928
 4591TIP3   OH237967   5.521   4.582  19.800
 4591TIP3    H137968   5.549   4.468  19.807
 4591TIP3    H237969   5.413   4.590  19.839
 4592TIP3   OH237970   6.106   6.444  19.621
 4592TIP3    H137971   6.148   6.344  19.582
 4592TIP3    H237972   6.196   6.516  19.597
 4593TIP3   OH237973   6.268   6.196  19.490
 4593TIP3    H137974   6.240   6.126  19.415
 4593TIP3    H237975   6.259   6.119  19.565
 4594TIP3   OH237976   5.788   5.611  19.263
 4594TIP3    H137977   5.734   5.717  19.260
 4594TIP3    H237978   5.893   5.639  19.226
 4595TIP3   OH237979   5.838   5.496  18.962
 4595TIP3    H137980   5.910   5.550  19.024
 4595TIP3    H237981   5.849   5.387  18.994
 4596TIP3   OH237982   6.260   5.621  19.389
 4596TIP3    H137983   6.168   5.660  19.442
 4596TIP3    H237984   6.330   5.578  19.458
 4597TIP3   OH237985   5.206   5.689  19.557
 4597TIP3    H137986   5.161   5.633  19.479
 4597TIP3    H237987   5.285   5.614  19.592
 4598TIP3   OH237988   5.386   6.156  19.852
 4598TIP3    H137989   5.392   6.116  19.761
 4598TIP3    H237990   5.452   6.074  19.898
 4599TIP3   OH237991   5.208   5.484  19.924
 4599TIP3    H137992   5.258   5.489  19.835
 4599TIP3    H237993   5.240   5.587  19.961
 4600TIP3   OH237994   6.090   5.596  19.160
 4600TIP3    H137995   6.168   5.621  19.232
 4600TIP3    H237996   6.155   5.627  19.080
 4601TIP3   OH237997   5.827   6.324  19.446
 4601TIP3    H137998   5.885   6.352  19.526
 4601TIP3    H237999   5.767   6.420  19.427
 4602TIP3   OH238000   6.528   4.517  19.175
 4602TIP3    H138001   6.418   4.535  19.205
 4602TIP3    H238002   6.547   4.608  19.115
 4603TIP3   OH238003   5.039   5.572  19.339
 4603TIP3    H138004   5.016   5.672  19.292
 4603TIP3    H238005   5.018   5.492  19.270
 4604TIP3   OH238006   6.690   6.258  19.008
 4604TIP3    H138007   6.722   6.372  19.006
 4604TIP3    H238008   6.796   6.205  19.010
 4605TIP3   OH238009   4.624   6.272  19.842
 4605TIP3    H138010   4.715   6.209  19.874
 4605TIP3    H238011   4.596   6.338  19.917
 4606TIP3   OH238012   5.764   6.667  19.336
 4606TIP3    H138013   5.770   6.683  19.239
 4606TIP3    H238014   5.750   6.778  19.368
 4607TIP3   OH238015   4.992   6.544  19.505
 4607TIP3    H138016   5.020   6.523  19.599
 4607TIP3    H238017   4.889   6.488  19.497
 4608TIP3   OH238018   6.128   6.608  19.033
 4608TIP3    H138019   6.188   6.514  18.999
 4608TIP3    H238020   6.138   6.595  19.130
 4609TIP3   OH238021   6.079   6.606  19.309
 4609TIP3    H138022   5.966   6.632  19.326
 4609TIP3    H238023   6.092   6.510  19.363
 4610TIP3   OH238024   5.214   4.691  19.895
 4610TIP3    H138025   5.132   4.679  19.824
 4610TIP3    H238026   5.188   4.798  19.924
 4611TIP3   OH238027   6.280   5.712  18.974
 4611TIP3    H138028   6.257   5.722  18.878
 4611TIP3    H238029   6.396   5.731  18.973
 4612TIP3   OH238030   5.747   4.944  18.976
 4612TIP3    H138031   5.696   4.951  19.064
 4612TIP3    H238032   5.671   4.872  18.934
 4613TIP3   OH238033   5.254   5.254  19.549
 4613TIP3    H138034   5.138   5.267  19.532
 4613TIP3    H238035   5.290   5.242  19.454
 4614TIP3   OH238036   5.903   5.369  19.398
 4614TIP3    H138037   5.855   5.455  19.343
 4614TIP3    H238038   5.971   5.321  19.331
 4615TIP3   OH238039   5.981   5.304  19.701
 4615TIP3    H138040   5.957   5.394  19.641
 4615TIP3    H238041   6.002   5.219  19.636
 4616TIP3   OH238042   5.311   4.999  18.912
 4616TIP3    H138043   5.251   4.936  18.979
 4616TIP3    H238044   5.227   5.033  18.850
 4617TIP3   OH238045   4.520   4.952  19.622
 4617TIP3    H138046   4.590   4.962  19.700
 4617TIP3    H238047   4.590   4.988  19.549
 4618TIP3   OH238048   4.656   5.021  19.124
 4618TIP3    H138049   4.736   5.066  19.064
 4618TIP3    H238050   4.585   5.114  19.135
 4619TIP3   OH238051   5.584   4.973  19.608
 4619TIP3    H138052   5.483   4.967  19.657
 4619TIP3    H238053   5.659   4.936  19.676
 4620TIP3   OH238054   4.936   5.159  19.518
 4620TIP3    H138055   4.835   5.180  19.470
 4620TIP3    H238056   4.973   5.062  19.473
 4621TIP3   OH238057   5.318   5.216  19.298
 4621TIP3    H138058   5.431   5.192  19.280
 4621TIP3    H238059   5.282   5.268  19.216
 4622TIP3   OH238060   6.083   4.925  19.903
 4622TIP3    H138061   6.076   4.925  20.000
 4622TIP3    H238062   5.969   4.915  19.881
 4623TIP3   OH238063   5.179   5.346  19.026
 4623TIP3    H138064   5.138   5.264  18.966
 4623TIP3    H238065   5.285   5.362  18.986
 4624TIP3   OH238066   5.665   5.286  19.821
 4624TIP3    H138067   5.759   5.274  19.762
 4624TIP3    H238068   5.707   5.254  19.908
 4625TIP3   OH238069   5.018   4.843  19.466
 4625TIP3    H138070   4.944   4.768  19.509
 4625TIP3    H238071   5.077   4.766  19.414
 4626TIP3   OH238072   5.602   5.875  19.241
 4626TIP3    H138073   5.512   5.819  19.199
 4626TIP3    H238074   5.551   5.905  19.327
 4627TIP3   OH238075   6.048   4.991  19.067
 4627TIP3    H138076   5.945   4.997  19.020
 4627TIP3    H238077   6.065   5.106  19.086
 4628TIP3   OH238078   6.106   5.269  19.186
 4628TIP3    H138079   6.185   5.234  19.251
 4628TIP3    H238080   6.149   5.374  19.163
 4629TIP3   OH238081   4.973   5.806  19.786
 4629TIP3    H138082   5.009   5.818  19.695
 4629TIP3    H238083   5.068   5.764  19.830
 4630TIP3   OH238084   5.834   6.044  19.128
 4630TIP3    H138085   5.782   6.149  19.135
 4630TIP3    H238086   5.749   5.972  19.159
 4631TIP3   OH238087   6.701   5.215  19.186
 4631TIP3    H138088   6.630   5.222  19.108
 4631TIP3    H238089   6.745   5.322  19.187
 4632TIP3   OH238090   6.461   6.330  19.186
 4632TIP3    H138091   6.448   6.248  19.254
 4632TIP3    H238092   6.547   6.287  19.130
 4633TIP3   OH238093   6.169   5.680  19.880
 4633TIP3    H138094   6.052   5.677  19.892
 4633TIP3    H238095   6.185   5.598  19.811
 4634TIP3   OH238096   5.242   6.223  19.577
 4634TIP3    H138097   5.304   6.322  19.575
 4634TIP3    H238098   5.162   6.247  19.509
 4635TIP3   OH238099   4.829   5.617  19.004
 4635TIP3    H138100   4.880   5.688  19.069
 4635TIP3    H238101   4.714   5.629  19.023
 4636TIP3   OH238102   5.428   5.935  19.466
 4636TIP3    H138103   5.376   6.030  19.503
 4636TIP3    H238104   5.374   5.849  19.513
 4637TIP3   OH238105   5.304   6.515  19.425
 4637TIP3    H138106   5.189   6.527  19.438
 4637TIP3    H238107   5.340   6.618  19.462
 4638TIP3   OH238108   6.235   6.082  19.000
 4638TIP3    H138109   6.250   6.046  19.092
 4638TIP3    H238110   6.124   6.055  18.989
 4639TIP3   OH238111   6.761   6.593  19.043
 4639TIP3    H138112   6.845   6.672  19.028
 4639TIP3    H238113   6.677   6.661  19.080
 4640TIP3   OH238114   6.314   5.930  19.242
 4640TIP3    H138115   6.281   5.826  19.277
 4640TIP3    H238116   6.430   5.914  19.231
 4641TIP3   OH238117   5.506   6.256  18.862
 4641TIP3    H138118   5.490   6.179  18.789
 4641TIP3    H238119   5.426   6.217  18.927
 4642TIP3   OH238120   5.352   6.144  19.107
 4642TIP3    H138121   5.440   6.102  19.160
 4642TIP3    H238122   5.360   6.259  19.129
 4643TIP3   OH238123   4.973   5.828  19.166
 4643TIP3    H138124   4.871   5.873  19.196
 4643TIP3    H238125   5.022   5.921  19.124
 4644TIP3   OH238126   5.965   4.896  19.315
 4644TIP3    H138127   6.012   4.936  19.231
 4644TIP3    H238128   6.020   4.960  19.383
 4645TIP3   OH238129   5.700   6.348  19.144
 4645TIP3    H138130   5.594   6.395  19.168
 4645TIP3    H238131   5.766   6.444  19.139
 4646TIP3   OH238132   5.630   5.119  19.371
 4646TIP3    H138133   5.705   5.207  19.391
 4646TIP3    H238134   5.615   5.068  19.459
 4647TIP3   OH238135   5.729   4.723  19.420
 4647TIP3    H138136   5.689   4.806  19.479
 4647TIP3    H238137   5.830   4.775  19.389
 4648TIP3   OH238138   5.392   6.448  19.164
 4648TIP3    H138139   5.406   6.542  19.106
 4648TIP3    H238140   5.347   6.499  19.244
 4649TIP3   OH238141   5.195   4.873  19.141
 4649TIP3    H138142   5.185   4.968  19.197
 4649TIP3    H238143   5.309   4.849  19.153
 4650TIP3   OH238144   6.294   5.438  19.729
 4650TIP3    H138145   6.200   5.382  19.761
 4650TIP3    H238146   6.372   5.402  19.796
 4651TIP3   OH238147   5.020   6.126  19.019
 4651TIP3    H138148   5.110   6.164  19.072
 4651TIP3    H238149   5.075   6.067  18.949
 4652TIP3   OH238150   4.806   5.269  18.963
 4652TIP3    H138151   4.856   5.364  19.002
 4652TIP3    H238152   4.715   5.312  18.916
 4653TIP3   OH238153   6.422   6.566  19.941
 4653TIP3    H138154   6.448   6.662  19.887
 4653TIP3    H238155   6.518   6.552  19.994
 4654TIP3   OH238156   4.934   4.662  19.770
 4654TIP3    H138157   4.912   4.620  19.679
 4654TIP3    H238158   4.912   4.565  19.821
 4655TIP3   OH238159   4.763   6.284  19.430
 4655TIP3    H138160   4.668   6.347  19.451
 4655TIP3    H238161   4.795   6.341  19.349
 4656TIP3   OH238162   5.771   6.467  18.858
 4656TIP3    H138163   5.702   6.373  18.879
 4656TIP3    H238164   5.867   6.415  18.820
 4657TIP3   OH238165   6.300   6.388  18.883
 4657TIP3    H138166   6.322   6.304  18.949
 4657TIP3    H238167   6.395   6.383  18.827
 4658TIP3   OH238168   5.210   5.900  18.857
 4658TIP3    H138169   5.266   5.888  18.942
 4658TIP3    H238170   5.299   5.869  18.796
 4659TIP3   OH238171   5.880   6.064  18.841
 4659TIP3    H138172   5.838   6.048  18.931
 4659TIP3    H238173   5.887   5.950  18.811
 4660TIP3   OH238174   5.351   5.694  19.124
 4660TIP3    H138175   5.273   5.621  19.163
 4660TIP3    H238176   5.400   5.624  19.057
 4661TIP3   OH238177   5.497   5.477  18.920
 4661TIP3    H138178   5.486   5.504  18.826
 4661TIP3    H238179   5.615   5.480  18.930
 4662TIP3   OH238180   6.605   5.735  18.870
 4662TIP3    H138181   6.577   5.699  18.780
 4662TIP3    H238182   6.594   5.854  18.861
 4663TIP3   OH238183   5.450   6.726  19.055
 4663TIP3    H138184   5.566   6.727  19.069
 4663TIP3    H238185   5.443   6.791  18.975
 4664TIP3   OH238186   4.685   6.096  19.004
 4664TIP3    H138187   4.802   6.097  18.998
 4664TIP3    H238188   4.654   6.034  18.924
 4665TIP3   OH238189   4.549   6.709  19.460
 4665TIP3    H138190   4.453   6.648  19.438
 4665TIP3    H238191   4.586   6.649  19.539
 4666TIP3   OH238192   4.658   6.510  19.650
 4666TIP3    H138193   4.619   6.412  19.693
 4666TIP3    H238194   4.717   6.562  19.724
 4667TIP3   OH238195   6.644   5.848  19.228
 4667TIP3    H138196   6.748   5.899  19.250
 4667TIP3    H238197   6.636   5.771  19.302
 4668TIP3   OH238198   6.680   5.639  19.461
 4668TIP3    H138199   6.605   5.563  19.501
 4668TIP3    H238200   6.766   5.642  19.528
 4669TIP3   OH238201   6.721   5.966  19.916
 4669TIP3    H138202   6.815   5.904  19.886
 4669TIP3    H238203   6.710   6.053  19.853
 4670TIP3   OH238204   6.766   5.591  19.071
 4670TIP3    H138205   6.695   5.612  18.994
 4670TIP3    H238206   6.733   5.678  19.129
 4671TIP3   OH238207   6.516   5.248  18.921
 4671TIP3    H138208   6.558   5.326  18.856
 4671TIP3    H238209   6.485   5.162  18.859
 4672TIP3   OH238210   6.484   5.381  19.521
 4672TIP3    H138211   6.418   5.294  19.485
 4672TIP3    H238212   6.422   5.402  19.604
 4673TIP3   OH238213   4.626   5.702  19.893
 4673TIP3    H138214   4.663   5.668  19.805
 4673TIP3    H238215   4.720   5.677  19.949
 4674TIP3   OH238216   6.445   4.927  18.833
 4674TIP3    H138217   6.472   4.904  18.924
 4674TIP3    H238218   6.328   4.914  18.833
 4675TIP3   OH238219   6.341   5.159  19.365
 4675TIP3    H138220   6.384   5.050  19.383
 4675TIP3    H238221   6.434   5.201  19.317
 4676TIP3   OH238222   6.486   5.239  19.863
 4676TIP3    H138223   6.602   5.228  19.871
 4676TIP3    H238224   6.456   5.130  19.891
 4677TIP3   OH238225   6.464   4.846  19.362
 4677TIP3    H138226   6.505   4.792  19.443
 4677TIP3    H238227   6.398   4.762  19.324
 4678TIP3   OH238228   4.729   4.919  19.850
 4678TIP3    H138229   4.781   4.817  19.825
 4678TIP3    H238230   4.818   4.974  19.895
 4679TIP3   OH238231   4.543   5.252  19.955
 4679TIP3    H138232   4.588   5.194  19.879
 4679TIP3    H238233   4.592   5.357  19.942
 4680TIP3   OH238234   6.730   4.788  19.035
 4680TIP3    H138235   6.738   4.716  18.957
 4680TIP3    H238236   6.731   4.890  18.989
 4681TIP3   OH238237   4.555   4.811  19.308
 4681TIP3    H138238   4.448   4.854  19.321
 4681TIP3    H238239   4.598   4.890  19.245
 4682TIP3   OH238240   6.346   6.630  19.538
 4682TIP3    H138241   6.434   6.593  19.483
 4682TIP3    H238242   6.397   6.696  19.605
 4683TIP3   OH238243   4.841   6.625  19.875
 4683TIP3    H138244   4.871   6.636  19.970
 4683TIP3    H238245   4.933   6.564  19.840
 4684TIP3   OH238246   5.066   6.448  19.757
 4684TIP3    H138247   5.062   6.332  19.768
 4684TIP3    H238248   5.171   6.469  19.800
 4685TIP3   OH238249   5.363   6.503  19.869
 4685TIP3    H138250   5.404   6.396  19.847
 4685TIP3    H238251   5.362   6.498  19.965
 4686TIP3   OH238252   5.784   4.818  19.782
 4686TIP3    H138253   5.704   4.734  19.796
 4686TIP3    H238254   5.878   4.748  19.782
 4687TIP3   OH238255   6.454   4.576  19.762
 4687TIP3    H138256   6.518   4.618  19.687
 4687TIP3    H238257   6.348   4.622  19.743
 4688TIP3   OH238258   6.622   4.674  19.557
 4688TIP3    H138259   6.710   4.608  19.523
 4688TIP3    H238260   6.678   4.774  19.583
 4689TIP3   OH238261   4.862   4.565  19.526
 4689TIP3    H138262   4.768   4.554  19.469
 4689TIP3    H238263   4.910   4.457  19.516
 4690TIP3   OH238264   4.752   4.583  19.146
 4690TIP3    H138265   4.781   4.660  19.076
 4690TIP3    H238266   4.676   4.644  19.201
 4691TIP3   OH238267   5.398   4.555  19.549
 4691TIP3    H138268   5.497   4.568  19.501
 4691TIP3    H238269   5.432   4.576  19.640
 4692TIP3   OH238270   6.131   4.618  19.675
 4692TIP3    H138271   6.102   4.651  19.586
 4692TIP3    H238272   6.060   4.526  19.693
 4693TIP3   OH238273   6.247   4.604  19.298
 4693TIP3    H138274   6.164   4.630  19.233
 4693TIP3    H238275   6.209   4.500  19.329
 4694TIP3   OH238276   4.723   6.500  19.229
 4694TIP3    H138277   4.625   6.487  19.176
 4694TIP3    H238278   4.747   6.612  19.207
 4695TIP3   OH238279   4.884   4.822  18.974
 4695TIP3    H138280   4.963   4.757  18.926
 4695TIP3    H238281   4.940   4.842  19.057
 4696TIP3   OH238282   5.543   4.876  19.198
 4696TIP3    H138283   5.579   4.799  19.263
 4696TIP3    H238284   5.581   4.973  19.242
 4697TIP3   OH238285   5.812   6.660  19.067
 4697TIP3    H138286   5.927   6.660  19.048
 4697TIP3    H238287   5.777   6.599  18.988
 4698TIP3   OH238288   6.576   6.548  19.355
 4698TIP3    H138289   6.539   6.467  19.292
 4698TIP3    H238290   6.580   6.641  19.295
 4699TIP3   OH238291   4.872   6.596  18.919
 4699TIP3    H138292   4.848   6.647  19.005
 4699TIP3    H238293   4.969   6.536  18.942
 4700TIP3   OH238294   8.242   5.695  19.523
 4700TIP3    H138295   8.242   5.801  19.564
 4700TIP3    H238296   8.134   5.687  19.488
 4701TIP3   OH238297   8.111   5.599  19.864
 4701TIP3    H138298   8.105   5.543  19.950
 4701TIP3    H238299   8.006   5.576  19.826
 4702TIP3   OH238300   8.423   5.963  19.695
 4702TIP3    H138301   8.407   5.870  19.755
 4702TIP3    H238302   8.492   6.023  19.758
 4703TIP3   OH238303   7.319   6.125  19.868
 4703TIP3    H138304   7.306   6.012  19.842
 4703TIP3    H238305   7.434   6.142  19.852
 4704TIP3   OH238306   6.902   5.299  19.429
 4704TIP3    H138307   6.864   5.406  19.453
 4704TIP3    H238308   6.800   5.246  19.413
 4705TIP3   OH238309   6.973   5.602  19.640
 4705TIP3    H138310   7.028   5.526  19.698
 4705TIP3    H238311   7.037   5.699  19.650
 4706TIP3   OH238312   8.168   6.631  19.748
 4706TIP3    H138313   8.251   6.571  19.698
 4706TIP3    H238314   8.126   6.545  19.802
 4707TIP3   OH238315   7.944   5.908  19.990
 4707TIP3    H138316   8.010   5.846  19.927
 4707TIP3    H238317   8.003   5.891  20.072
 4708TIP3   OH238318   8.267   5.236  19.977
 4708TIP3    H138319   8.284   5.120  19.986
 4708TIP3    H238320   8.303   5.251  19.885
 4709TIP3   OH238321   7.476   5.008  19.685
 4709TIP3    H138322   7.516   5.102  19.639
 4709TIP3    H238323   7.424   4.950  19.612
 4710TIP3   OH238324   8.351   5.017  19.516
 4710TIP3    H138325   8.404   4.962  19.592
 4710TIP3    H238326   8.440   5.087  19.491
 4711TIP3   OH238327   7.034   5.284  19.759
 4711TIP3    H138328   7.109   5.224  19.816
 4711TIP3    H238329   7.055   5.236  19.672
 4712TIP3   OH238330   7.680   5.495  19.696
 4712TIP3    H138331   7.753   5.426  19.746
 4712TIP3    H238332   7.631   5.412  19.640
 4713TIP3   OH238333   8.212   5.996  19.436
 4713TIP3    H138334   8.296   5.938  19.390
 4713TIP3    H238335   8.278   6.054  19.501
 4714TIP3   OH238336   8.555   4.945  19.709
 4714TIP3    H138337   8.489   4.928  19.789
 4714TIP3    H238338   8.664   4.942  19.741
 4715TIP3   OH238339   7.273   5.111  19.871
 4715TIP3    H138340   7.326   5.215  19.874
 4715TIP3    H238341   7.337   5.056  19.802
 4716TIP3   OH238342   6.958   5.968  19.255
 4716TIP3    H138343   6.952   6.040  19.177
 4716TIP3    H238344   6.979   6.046  19.325
 4717TIP3   OH238345   8.624   6.104  19.883
 4717TIP3    H138346   8.584   6.058  19.966
 4717TIP3    H238347   8.634   6.216  19.909
 4718TIP3   OH238348   7.795   4.580  19.777
 4718TIP3    H138349   7.818   4.469  19.797
 4718TIP3    H238350   7.691   4.600  19.819
 4719TIP3   OH238351   8.356   6.433  19.608
 4719TIP3    H138352   8.399   6.331  19.576
 4719TIP3    H238353   8.446   6.506  19.586
 4720TIP3   OH238354   8.510   6.156  19.471
 4720TIP3    H138355   8.544   6.085  19.399
 4720TIP3    H238356   8.539   6.097  19.552
 4721TIP3   OH238357   8.050   5.623  19.266
 4721TIP3    H138358   7.998   5.722  19.237
 4721TIP3    H238359   8.158   5.629  19.225
 4722TIP3   OH238360   8.086   5.482  18.964
 4722TIP3    H138361   8.152   5.531  19.033
 4722TIP3    H238362   8.106   5.370  18.982
 4723TIP3   OH238363   8.500   5.660  19.362
 4723TIP3    H138364   8.411   5.660  19.429
 4723TIP3    H238365   8.576   5.592  19.409
 4724TIP3   OH238366   7.511   5.708  19.546
 4724TIP3    H138367   7.441   5.647  19.486
 4724TIP3    H238368   7.574   5.628  19.594
 4725TIP3   OH238369   7.639   6.155  19.832
 4725TIP3    H138370   7.648   6.122  19.739
 4725TIP3    H238371   7.711   6.082  19.878
 4726TIP3   OH238372   7.483   5.464  19.919
 4726TIP3    H138373   7.537   5.496  19.836
 4726TIP3    H238374   7.498   5.560  19.974
 4727TIP3   OH238375   8.329   5.578  19.148
 4727TIP3    H138376   8.399   5.603  19.225
 4727TIP3    H238377   8.398   5.611  19.073
 4728TIP3   OH238378   8.046   6.295  19.487
 4728TIP3    H138379   8.094   6.320  19.573
 4728TIP3    H238380   8.021   6.403  19.456
 4729TIP3   OH238381   8.780   4.529  19.140
 4729TIP3    H138382   8.666   4.549  19.160
 4729TIP3    H238383   8.827   4.636  19.146
 4730TIP3   OH238384   7.292   5.567  19.350
 4730TIP3    H138385   7.283   5.666  19.299
 4730TIP3    H238386   7.283   5.486  19.281
 4731TIP3   OH238387   8.918   6.304  18.967
 4731TIP3    H138388   8.959   6.414  18.961
 4731TIP3    H238389   9.022   6.251  18.980
 4732TIP3   OH238390   6.863   6.272  19.834
 4732TIP3    H138391   6.962   6.227  19.866
 4732TIP3    H238392   6.811   6.320  19.911
 4733TIP3   OH238393   8.042   6.678  19.348
 4733TIP3    H138394   8.030   6.671  19.249
 4733TIP3    H238395   8.011   6.791  19.362
 4734TIP3   OH238396   7.254   6.535  19.517
 4734TIP3    H138397   7.290   6.517  19.610
 4734TIP3    H238398   7.153   6.475  19.516
 4735TIP3   OH238399   8.388   6.605  19.026
 4735TIP3    H138400   8.443   6.511  18.988
 4735TIP3    H238401   8.398   6.589  19.123
 4736TIP3   OH238402   8.347   6.593  19.302
 4736TIP3    H138403   8.234   6.624  19.316
 4736TIP3    H238404   8.354   6.504  19.361
 4737TIP3   OH238405   7.488   4.673  19.872
 4737TIP3    H138406   7.392   4.664  19.817
 4737TIP3    H238407   7.474   4.782  19.905
 4738TIP3   OH238408   8.530   5.699  18.972
 4738TIP3    H138409   8.501   5.718  18.879
 4738TIP3    H238410   8.644   5.720  18.968
 4739TIP3   OH238411   8.011   4.950  18.971
 4739TIP3    H138412   7.982   4.913  19.060
 4739TIP3    H238413   7.940   4.878  18.922
 4740TIP3   OH238414   7.511   5.288  19.549
 4740TIP3    H138415   7.441   5.377  19.525
 4740TIP3    H238416   7.544   5.250  19.459
 4741TIP3   OH238417   8.168   5.374  19.395
 4741TIP3    H138418   8.117   5.456  19.340
 4741TIP3    H238419   8.244   5.329  19.330
 4742TIP3   OH238420   8.258   5.290  19.695
 4742TIP3    H138421   8.228   5.369  19.627
 4742TIP3    H238422   8.264   5.195  19.638
 4743TIP3   OH238423   7.567   4.960  18.872
 4743TIP3    H138424   7.519   4.912  18.952
 4743TIP3    H238425   7.487   5.038  18.846
 4744TIP3   OH238426   6.784   4.924  19.631
 4744TIP3    H138427   6.854   4.949  19.708
 4744TIP3    H238428   6.860   4.912  19.561
 4745TIP3   OH238429   7.015   5.071  19.179
 4745TIP3    H138430   7.042   5.093  19.084
 4745TIP3    H238431   6.904   5.111  19.180
 4746TIP3   OH238432   7.868   4.992  19.611
 4746TIP3    H138433   7.788   5.002  19.680
 4746TIP3    H238434   7.949   4.927  19.659
 4747TIP3   OH238435   7.157   5.124  19.516
 4747TIP3    H138436   7.088   5.214  19.484
 4747TIP3    H238437   7.265   5.160  19.495
 4748TIP3   OH238438   7.578   5.214  19.295
 4748TIP3    H138439   7.688   5.180  19.280
 4748TIP3    H238440   7.556   5.284  19.219
 4749TIP3   OH238441   8.336   4.916  19.901
 4749TIP3    H138442   8.315   4.885  19.992
 4749TIP3    H238443   8.227   4.915  19.865
 4750TIP3   OH238444   7.445   5.335  19.012
 4750TIP3    H138445   7.415   5.281  18.928
 4750TIP3    H238446   7.552   5.370  18.982
 4751TIP3   OH238447   7.919   5.302  19.816
 4751TIP3    H138448   7.991   5.293  19.740
 4751TIP3    H238449   7.979   5.240  19.882
 4752TIP3   OH238450   7.321   4.823  19.471
 4752TIP3    H138451   7.267   4.733  19.519
 4752TIP3    H238452   7.411   4.766  19.429
 4753TIP3   OH238453   7.834   5.891  19.240
 4753TIP3    H138454   7.757   5.820  19.191
 4753TIP3    H238455   7.772   5.908  19.323
 4754TIP3   OH238456   8.298   4.996  19.072
 4754TIP3    H138457   8.191   5.014  19.032
 4754TIP3    H238458   8.333   5.106  19.090
 4755TIP3   OH238459   8.405   5.261  19.196
 4755TIP3    H138460   8.498   5.246  19.255
 4755TIP3    H238461   8.430   5.357  19.146
 4756TIP3   OH238462   7.244   5.802  19.788
 4756TIP3    H138463   7.314   5.831  19.715
 4756TIP3    H238464   7.319   5.762  19.856
 4757TIP3   OH238465   8.100   6.037  19.145
 4757TIP3    H138466   8.051   6.131  19.103
 4757TIP3    H238467   8.016   5.957  19.138
 4758TIP3   OH238468   8.927   5.231  19.192
 4758TIP3    H138469   8.875   5.214  19.106
 4758TIP3    H238470   8.998   5.322  19.172
 4759TIP3   OH238471   8.761   6.313  19.211
 4759TIP3    H138472   8.702   6.215  19.218
 4759TIP3    H238473   8.816   6.305  19.124
 4760TIP3   OH238474   8.400   5.732  19.877
 4760TIP3    H138475   8.293   5.690  19.854
 4760TIP3    H238476   8.470   5.657  19.829
 4761TIP3   OH238477   7.535   6.236  19.540
 4761TIP3    H138478   7.561   6.336  19.494
 4761TIP3    H238479   7.421   6.234  19.522
 4762TIP3   OH238480   7.102   5.644  19.005
 4762TIP3    H138481   7.151   5.701  19.080
 4762TIP3    H238482   6.986   5.641  19.027
 4763TIP3   OH238483   7.717   5.975  19.480
 4763TIP3    H138484   7.645   6.064  19.504
 4763TIP3    H238485   7.670   5.887  19.533
 4764TIP3   OH238486   7.562   6.541  19.424
 4764TIP3    H138487   7.446   6.554  19.436
 4764TIP3    H238488   7.598   6.637  19.473
 4765TIP3   OH238489   8.501   6.100  19.019
 4765TIP3    H138490   8.534   6.036  19.096
 4765TIP3    H238491   8.388   6.070  19.014
 4766TIP3   OH238492   9.031   6.589  19.017
 4766TIP3    H138493   9.067   6.698  19.001
 4766TIP3    H238494   8.933   6.612  19.065
 4767TIP3   OH238495   8.585   5.924  19.235
 4767TIP3    H138496   8.540   5.819  19.258
 4767TIP3    H238497   8.698   5.893  19.221
 4768TIP3   OH238498   7.800   6.196  18.885
 4768TIP3    H138499   7.768   6.162  18.795
 4768TIP3    H238500   7.702   6.175  18.934
 4769TIP3   OH238501   7.609   6.150  19.108
 4769TIP3    H138502   7.704   6.109  19.152
 4769TIP3    H238503   7.620   6.266  19.121
 4770TIP3   OH238504   7.254   5.839  19.178
 4770TIP3    H138505   7.148   5.869  19.213
 4770TIP3    H238506   7.282   5.932  19.123
 4771TIP3   OH238507   8.216   4.872  19.306
 4771TIP3    H138508   8.267   4.918  19.226
 4771TIP3    H238509   8.269   4.933  19.378
 4772TIP3   OH238510   7.933   6.328  19.188
 4772TIP3    H138511   7.841   6.401  19.193
 4772TIP3    H238512   8.012   6.401  19.149
 4773TIP3   OH238513   7.900   5.094  19.354
 4773TIP3    H138514   7.970   5.186  19.364
 4773TIP3    H238515   7.894   5.051  19.446
 4774TIP3   OH238516   7.986   4.715  19.425
 4774TIP3    H138517   7.949   4.794  19.488
 4774TIP3    H238518   8.074   4.776  19.381
 4775TIP3   OH238519   7.650   6.472  19.154
 4775TIP3    H138520   7.661   6.576  19.109
 4775TIP3    H238521   7.608   6.510  19.239
 4776TIP3   OH238522   7.483   4.870  19.147
 4776TIP3    H138523   7.493   4.973  19.190
 4776TIP3    H238524   7.594   4.831  19.151
 4777TIP3   OH238525   8.504   5.490  19.739
 4777TIP3    H138526   8.412   5.419  19.726
 4777TIP3    H238527   8.575   5.422  19.792
 4778TIP3   OH238528   7.266   6.122  19.026
 4778TIP3    H138529   7.340   6.187  19.079
 4778TIP3    H238530   7.342   6.088  18.957
 4779TIP3   OH238531   7.068   5.249  18.955
 4779TIP3    H138532   7.133   5.340  18.979
 4779TIP3    H238533   6.982   5.300  18.905
 4780TIP3   OH238534   8.714   6.553  19.941
 4780TIP3    H138535   8.693   6.661  19.905
 4780TIP3    H238536   8.816   6.570  19.983
 4781TIP3   OH238537   7.183   4.649  19.773
 4781TIP3    H138538   7.138   4.601  19.692
 4781TIP3    H238539   7.176   4.556  19.833
 4782TIP3   OH238540   7.022   6.277  19.435
 4782TIP3    H138541   6.929   6.347  19.440
 4782TIP3    H238542   7.069   6.325  19.356
 4783TIP3   OH238543   8.038   6.437  18.886
 4783TIP3    H138544   7.958   6.350  18.876
 4783TIP3    H238545   8.120   6.404  18.822
 4784TIP3   OH238546   8.546   6.382  18.878
 4784TIP3    H138547   8.579   6.305  18.945
 4784TIP3    H238548   8.640   6.385  18.819
 4785TIP3   OH238549   7.477   5.911  18.861
 4785TIP3    H138550   7.519   5.885  18.948
 4785TIP3    H238551   7.565   5.880  18.800
 4786TIP3   OH238552   8.132   6.050  18.835
 4786TIP3    H138553   8.038   6.054  18.891
 4786TIP3    H238554   8.135   5.935  18.813
 4787TIP3   OH238555   7.620   5.694  19.117
 4787TIP3    H138556   7.510   5.659  19.122
 4787TIP3    H238557   7.668   5.616  19.054
 4788TIP3   OH238558   7.750   5.480  18.919
 4788TIP3    H138559   7.744   5.536  18.832
 4788TIP3    H238560   7.867   5.468  18.929
 4789TIP3   OH238561   8.844   5.724  18.875
 4789TIP3    H138562   8.813   5.699  18.782
 4789TIP3    H238563   8.838   5.843  18.875
 4790TIP3   OH238564   7.775   6.787  19.160
 4790TIP3    H138565   7.866   6.804  19.103
 4790TIP3    H238566   7.684   6.824  19.103
 4791TIP3   OH238567   6.948   6.085  18.989
 4791TIP3    H138568   7.066   6.092  18.997
 4791TIP3    H238569   6.937   6.025  18.904
 4792TIP3   OH238570   6.823   6.708  19.460
 4792TIP3    H138571   6.727   6.650  19.430
 4792TIP3    H238572   6.847   6.642  19.539
 4793TIP3   OH238573   6.902   6.509  19.654
 4793TIP3    H138574   6.866   6.412  19.700
 4793TIP3    H238575   6.959   6.565  19.726
 4794TIP3   OH238576   8.899   5.836  19.259
 4794TIP3    H138577   8.996   5.891  19.287
 4794TIP3    H238578   8.894   5.755  19.331
 4795TIP3   OH238579   8.945   5.642  19.464
 4795TIP3    H138580   8.843   5.594  19.493
 4795TIP3    H238581   9.008   5.627  19.545
 4796TIP3   OH238582   9.037   5.916  19.931
 4796TIP3    H138583   9.142   5.954  19.901
 4796TIP3    H238584   8.976   6.017  19.927
 4797TIP3   OH238585   9.026   5.614  19.087
 4797TIP3    H138586   8.957   5.634  19.010
 4797TIP3    H238587   8.999   5.705  19.143
 4798TIP3   OH238588   8.778   5.244  18.931
 4798TIP3    H138589   8.810   5.316  18.860
 4798TIP3    H238590   8.749   5.146  18.884
 4799TIP3   OH238591   8.695   5.458  19.533
 4799TIP3    H138592   8.760   5.362  19.544
 4799TIP3    H238593   8.629   5.452  19.614
 4800TIP3   OH238594   6.928   5.723  19.890
 4800TIP3    H138595   6.929   5.662  19.808
 4800TIP3    H238596   7.012   5.675  19.944
 4801TIP3   OH238597   8.704   4.940  18.855
 4801TIP3    H138598   8.696   4.904  18.947
 4801TIP3    H238599   8.597   4.912  18.822
 4802TIP3   OH238600   8.666   5.154  19.349
 4802TIP3    H138601   8.699   5.044  19.367
 4802TIP3    H238602   8.761   5.190  19.299
 4803TIP3   OH238603   8.692   5.256  19.824
 4803TIP3    H138604   8.810   5.260  19.823
 4803TIP3    H238605   8.675   5.153  19.870
 4804TIP3   OH238606   8.699   4.830  19.376
 4804TIP3    H138607   8.714   4.789  19.468
 4804TIP3    H238608   8.629   4.746  19.338
 4805TIP3   OH238609   7.001   4.926  19.843
 4805TIP3    H138610   7.036   4.814  19.839
 4805TIP3    H238611   7.099   4.976  19.877
 4806TIP3   OH238612   6.799   5.254  19.961
 4806TIP3    H138613   6.847   5.200  19.885
 4806TIP3    H238614   6.845   5.360  19.952
 4807TIP3   OH238615   8.986   4.813  19.054
 4807TIP3    H138616   9.024   4.747  18.982
 4807TIP3    H238617   9.020   4.919  19.024
 4808TIP3   OH238618   6.850   4.836  19.315
 4808TIP3    H138619   6.738   4.838  19.341
 4808TIP3    H238620   6.838   4.826  19.218
 4809TIP3   OH238621   8.600   6.636  19.542
 4809TIP3    H138622   8.688   6.599  19.485
 4809TIP3    H238623   8.657   6.700  19.608
 4810TIP3   OH238624   7.090   6.626  19.874
 4810TIP3    H138625   7.118   6.638  19.968
 4810TIP3    H238626   7.181   6.562  19.841
 4811TIP3   OH238627   7.334   6.463  19.767
 4811TIP3    H138628   7.342   6.347  19.773
 4811TIP3    H238629   7.436   6.491  19.809
 4812TIP3   OH238630   7.616   6.516  19.885
 4812TIP3    H138631   7.660   6.410  19.868
 4812TIP3    H238632   7.607   6.518  19.981
 4813TIP3   OH238633   8.063   4.822  19.770
 4813TIP3    H138634   7.991   4.733  19.793
 4813TIP3    H238635   8.156   4.762  19.737
 4814TIP3   OH238636   8.663   4.567  19.810
 4814TIP3    H138637   8.719   4.632  19.742
 4814TIP3    H238638   8.554   4.591  19.785
 4815TIP3   OH238639   8.816   4.704  19.607
 4815TIP3    H138640   8.892   4.628  19.563
 4815TIP3    H238641   8.879   4.804  19.609
 4816TIP3   OH238642   7.122   4.574  19.511
 4816TIP3    H138643   7.024   4.547  19.461
 4816TIP3    H238644   7.180   4.472  19.504
 4817TIP3   OH238645   7.018   4.568  19.141
 4817TIP3    H138646   7.056   4.646  19.075
 4817TIP3    H238647   6.910   4.608  19.156
 4818TIP3   OH238648   7.608   4.556  19.525
 4818TIP3    H138649   7.709   4.570  19.478
 4818TIP3    H238650   7.645   4.554  19.617
 4819TIP3   OH238651   8.309   4.632  19.637
 4819TIP3    H138652   8.315   4.624  19.541
 4819TIP3    H238653   8.278   4.522  19.665
 4820TIP3   OH238654   8.503   4.597  19.297
 4820TIP3    H138655   8.401   4.648  19.282
 4820TIP3    H238656   8.472   4.489  19.325
 4821TIP3   OH238657   6.986   6.492  19.235
 4821TIP3    H138658   6.904   6.480  19.167
 4821TIP3    H238659   7.015   6.604  19.218
 4822TIP3   OH238660   7.133   4.822  18.971
 4822TIP3    H138661   7.210   4.763  18.916
 4822TIP3    H238662   7.199   4.849  19.047
 4823TIP3   OH238663   7.836   4.842  19.183
 4823TIP3    H138664   7.885   4.772  19.250
 4823TIP3    H238665   7.849   4.946  19.228
 4824TIP3   OH238666   8.082   6.659  19.087
 4824TIP3    H138667   8.192   6.656  19.051
 4824TIP3    H238668   8.026   6.605  19.014
 4825TIP3   OH238669   8.827   6.572  19.352
 4825TIP3    H138670   8.808   6.476  19.296
 4825TIP3    H238671   8.820   6.656  19.285
 4826TIP3   OH238672   7.150   6.551  18.925
 4826TIP3    H138673   7.152   6.623  19.001
 4826TIP3    H238674   7.262   6.517  18.922
 4827TIP3   OH238675   9.070   5.345  19.451
 4827TIP3    H138676   9.028   5.447  19.418
 4827TIP3    H238677   8.996   5.268  19.410
 4828TIP3   OH238678   9.048   6.239  19.875
 4828TIP3    H138679   9.163   6.250  19.886
 4828TIP3    H238680   9.005   6.286  19.956
 4829TIP3   OH238681   8.994   4.980  19.579
 4829TIP3    H138682   9.109   4.998  19.599
 4829TIP3    H238683   9.004   4.932  19.489
 4830TIP3   OH238684   9.011   6.738  19.513
 4830TIP3    H138685   8.952   6.673  19.446
 4830TIP3    H238686   9.017   6.659  19.586
 4831TIP3   OH238687   9.047   6.552  19.725
 4831TIP3    H138688   8.986   6.460  19.756
 4831TIP3    H238689   9.157   6.515  19.732
 4832TIP3   OH238690   9.176   5.562  19.910
 4832TIP3    H138691   9.226   5.592  19.824
 4832TIP3    H238692   9.190   5.660  19.962
 4833TIP3   OH238693   8.996   5.297  19.875
 4833TIP3    H138694   9.089   5.228  19.876
 4833TIP3    H238695   9.047   5.396  19.904
 4834TIP3   OH238696   9.013   4.861  19.328
 4834TIP3    H138697   8.897   4.859  19.325
 4834TIP3    H238698   9.040   4.848  19.232
 4835TIP3   OH238699   1.448   7.988  19.522
 4835TIP3    H138700   1.412   8.100  19.534
 4835TIP3    H238701   1.367   7.946  19.462
 4836TIP3   OH238702   1.316   7.868  19.871
 4836TIP3    H138703   1.298   7.812  19.955
 4836TIP3    H238704   1.244   7.813  19.810
 4837TIP3   OH238705   1.693   8.190  19.696
 4837TIP3    H138706   1.678   8.098  19.756
 4837TIP3    H238707   1.739   8.268  19.759
 4838TIP3   OH238708   0.450   8.359  19.857
 4838TIP3    H138709   0.432   8.250  19.819
 4838TIP3    H238710   0.560   8.345  19.887
 4839TIP3   OH238711   0.138   7.528  19.372
 4839TIP3    H138712   0.166   7.628  19.413
 4839TIP3    H238713   0.024   7.524  19.399
 4840TIP3   OH238714   0.148   7.866  19.676
 4840TIP3    H138715   0.184   7.756  19.693
 4840TIP3    H238716   0.245   7.914  19.641
 4841TIP3   OH238717   1.404   8.844  19.758
 4841TIP3    H138718   1.489   8.784  19.710
 4841TIP3    H238719   1.370   8.761  19.821
 4842TIP3   OH238720   1.154   8.206  19.973
 4842TIP3    H138721   1.205   8.126  19.915
 4842TIP3    H238722   1.226   8.202  20.049
 4843TIP3   OH238723   1.463   7.508  19.968
 4843TIP3    H138724   1.496   7.397  19.976
 4843TIP3    H238725   1.480   7.529  19.874
 4844TIP3   OH238726   0.712   7.237  19.699
 4844TIP3    H138727   0.728   7.339  19.651
 4844TIP3    H238728   0.650   7.181  19.631
 4845TIP3   OH238729   1.559   7.296  19.518
 4845TIP3    H138730   1.622   7.250  19.593
 4845TIP3    H238731   1.638   7.372  19.486
 4846TIP3   OH238732   0.269   7.573  19.718
 4846TIP3    H138733   0.346   7.500  19.760
 4846TIP3    H238734   0.283   7.538  19.626
 4847TIP3   OH238735   0.842   7.724  19.690
 4847TIP3    H138736   0.930   7.664  19.731
 4847TIP3    H238737   0.787   7.637  19.644
 4848TIP3   OH238738   1.350   8.284  19.394
 4848TIP3    H138739   1.327   8.287  19.299
 4848TIP3    H238740   1.366   8.395  19.415
 4849TIP3   OH238741   1.775   7.223  19.700
 4849TIP3    H138742   1.703   7.202  19.777
 4849TIP3    H238743   1.876   7.186  19.735
 4850TIP3   OH238744   0.469   7.368  19.860
 4850TIP3    H138745   0.522   7.448  19.913
 4850TIP3    H238746   0.557   7.319  19.809
 4851TIP3   OH238747   0.150   8.215  19.248
 4851TIP3    H138748   0.140   8.280  19.166
 4851TIP3    H238749   0.181   8.294  19.314
 4852TIP3   OH238750   1.792   8.417  19.863
 4852TIP3    H138751   1.760   8.358  19.945
 4852TIP3    H238752   1.855   8.503  19.898
 4853TIP3   OH238753   1.016   6.863  19.828
 4853TIP3    H138754   1.039   6.750  19.824
 4853TIP3    H238755   0.898   6.868  19.841
 4854TIP3   OH238756   1.586   8.688  19.591
 4854TIP3    H138757   1.625   8.578  19.597
 4854TIP3    H238758   1.687   8.740  19.559
 4855TIP3   OH238759   1.762   8.395  19.497
 4855TIP3    H138760   1.734   8.335  19.416
 4855TIP3    H238761   1.742   8.314  19.566
 4856TIP3   OH238762   1.272   7.889  19.272
 4856TIP3    H138763   1.202   7.978  19.245
 4856TIP3    H238764   1.376   7.922  19.235
 4857TIP3   OH238765   1.301   7.751  18.970
 4857TIP3    H138766   1.363   7.789  19.046
 4857TIP3    H238767   1.342   7.642  18.959
 4858TIP3   OH238768   1.730   7.883  19.385
 4858TIP3    H138769   1.642   7.925  19.440
 4858TIP3    H238770   1.806   7.843  19.453
 4859TIP3   OH238771   0.701   7.963  19.563
 4859TIP3    H138772   0.647   7.926  19.482
 4859TIP3    H238773   0.763   7.871  19.594
 4860TIP3   OH238774   0.882   8.394  19.839
 4860TIP3    H138775   0.850   8.340  19.757
 4860TIP3    H238776   0.964   8.323  19.876
 4861TIP3   OH238777   0.665   7.849  19.921
 4861TIP3    H138778   0.719   7.829  19.836
 4861TIP3    H238779   0.749   7.834  19.986
 4862TIP3   OH238780   1.553   7.861  19.149
 4862TIP3    H138781   1.625   7.870  19.227
 4862TIP3    H238782   1.626   7.886  19.073
 4863TIP3   OH238783   1.249   8.732  19.528
 4863TIP3    H138784   1.326   8.650  19.550
 4863TIP3    H238785   1.290   8.816  19.589
 4864TIP3   OH238786   2.018   6.791  19.187
 4864TIP3    H138787   1.913   6.817  19.225
 4864TIP3    H238788   2.053   6.893  19.148
 4865TIP3   OH238789   0.534   7.832  19.331
 4865TIP3    H138790   0.524   7.934  19.282
 4865TIP3    H238791   0.487   7.759  19.268
 4866TIP3   OH238792   2.149   8.521  19.007
 4866TIP3    H138793   2.186   8.634  19.003
 4866TIP3    H238794   2.250   8.460  19.013
 4867TIP3   OH238795   0.154   8.500  19.843
 4867TIP3    H138796   0.253   8.440  19.861
 4867TIP3    H238797   0.182   8.605  19.877
 4868TIP3   OH238798   1.169   8.972  19.309
 4868TIP3    H138799   1.210   8.965  19.217
 4868TIP3    H238800   1.199   9.080  19.334
 4869TIP3   OH238801   0.478   8.790  19.506
 4869TIP3    H138802   0.503   8.778  19.602
 4869TIP3    H238803   0.380   8.726  19.498
 4870TIP3   OH238804   1.596   8.840  19.068
 4870TIP3    H138805   1.682   8.773  19.031
 4870TIP3    H238806   1.604   8.816  19.163
 4871TIP3   OH238807   1.525   8.821  19.323
 4871TIP3    H138808   1.417   8.851  19.345
 4871TIP3    H238809   1.548   8.735  19.385
 4872TIP3   OH238810   0.704   6.916  19.834
 4872TIP3    H138811   0.595   6.929  19.800
 4872TIP3    H238812   0.719   7.021  19.874
 4873TIP3   OH238813   1.754   7.967  18.968
 4873TIP3    H138814   1.735   7.988  18.873
 4873TIP3    H238815   1.870   7.990  18.971
 4874TIP3   OH238816   1.217   7.205  18.973
 4874TIP3    H138817   1.176   7.198  19.063
 4874TIP3    H238818   1.150   7.124  18.931
 4875TIP3   OH238819   0.709   7.494  19.547
 4875TIP3    H138820   0.593   7.480  19.532
 4875TIP3    H238821   0.749   7.498  19.453
 4876TIP3   OH238822   1.370   7.627  19.387
 4876TIP3    H138823   1.332   7.720  19.333
 4876TIP3    H238824   1.442   7.579  19.322
 4877TIP3   OH238825   1.469   7.568  19.693
 4877TIP3    H138826   1.448   7.660  19.634
 4877TIP3    H238827   1.477   7.483  19.628
 4878TIP3   OH238828   0.781   7.255  18.911
 4878TIP3    H138829   0.734   7.190  18.984
 4878TIP3    H238830   0.690   7.274  18.854
 4879TIP3   OH238831   0.089   7.189  19.622
 4879TIP3    H138832   0.131   7.194  19.714
 4879TIP3    H238833   0.151   7.102  19.587
 4880TIP3   OH238834   0.127   7.303  19.141
 4880TIP3    H138835   0.205   7.345  19.076
 4880TIP3    H238836   0.114   7.397  19.198
 4881TIP3   OH238837   1.050   7.242  19.602
 4881TIP3    H138838   0.950   7.235  19.653
 4881TIP3    H238839   1.124   7.190  19.663
 4882TIP3   OH238840   0.397   7.429  19.498
 4882TIP3    H138841   0.313   7.433  19.428
 4882TIP3    H238842   0.412   7.312  19.502
 4883TIP3   OH238843   0.808   7.462  19.291
 4883TIP3    H138844   0.918   7.448  19.263
 4883TIP3    H238845   0.762   7.528  19.221
 4884TIP3   OH238846   1.549   7.200  19.890
 4884TIP3    H138847   1.552   7.162  19.982
 4884TIP3    H238848   1.436   7.181  19.868
 4885TIP3   OH238849   0.677   7.604  19.027
 4885TIP3    H138850   0.628   7.534  18.963
 4885TIP3    H238851   0.776   7.630  18.980
 4886TIP3   OH238852   1.140   7.572  19.821
 4886TIP3    H138853   1.202   7.562  19.739
 4886TIP3    H238854   1.210   7.514  19.882
 4887TIP3   OH238855   0.496   7.128  19.502
 4887TIP3    H138856   0.432   7.031  19.523
 4887TIP3    H238857   0.550   7.087  19.423
 4888TIP3   OH238858   1.073   8.125  19.228
 4888TIP3    H138859   0.980   8.065  19.193
 4888TIP3    H238860   1.033   8.159  19.317
 4889TIP3   OH238861   1.506   7.262  19.075
 4889TIP3    H138862   1.400   7.259  19.032
 4889TIP3    H238863   1.529   7.378  19.077
 4890TIP3   OH238864   1.596   7.538  19.181
 4890TIP3    H138865   1.676   7.496  19.242
 4890TIP3    H238866   1.643   7.638  19.153
 4891TIP3   OH238867   0.492   8.071  19.757
 4891TIP3    H138868   0.560   8.041  19.680
 4891TIP3    H238869   0.546   8.012  19.829
 4892TIP3   OH238870   1.291   8.304  19.117
 4892TIP3    H138871   1.228   8.399  19.137
 4892TIP3    H238872   1.225   8.219  19.158
 4893TIP3   OH238873   2.171   7.495  19.189
 4893TIP3    H138874   2.107   7.489  19.106
 4893TIP3    H238875   2.197   7.608  19.194
 4894TIP3   OH238876   1.946   8.561  19.220
 4894TIP3    H138877   1.946   8.466  19.274
 4894TIP3    H238878   2.012   8.531  19.143
 4895TIP3   OH238879   1.631   7.960  19.876
 4895TIP3    H138880   1.518   7.931  19.862
 4895TIP3    H238881   1.688   7.872  19.832
 4896TIP3   OH238882   0.752   8.447  19.557
 4896TIP3    H138883   0.785   8.556  19.580
 4896TIP3    H238884   0.648   8.461  19.517
 4897TIP3   OH238885   0.275   7.856  19.018
 4897TIP3    H138886   0.335   7.951  19.050
 4897TIP3    H238887   0.169   7.873  19.055
 4898TIP3   OH238888   0.919   8.184  19.451
 4898TIP3    H138889   0.846   8.261  19.493
 4898TIP3    H238890   0.898   8.088  19.503
 4899TIP3   OH238891   0.796   8.755  19.445
 4899TIP3    H138892   0.678   8.761  19.451
 4899TIP3    H238893   0.823   8.857  19.490
 4900TIP3   OH238894   1.712   8.346  19.005
 4900TIP3    H138895   1.727   8.287  19.089
 4900TIP3    H238896   1.600   8.322  18.988
 4901TIP3   OH238897   2.243   8.830  19.016
 4901TIP3    H138898   2.316   8.920  19.022
 4901TIP3    H238899   2.138   8.880  19.038
 4902TIP3   OH238900   1.782   8.178  19.242
 4902TIP3    H138901   1.753   8.074  19.282
 4902TIP3    H238902   1.892   8.160  19.215
 4903TIP3   OH238903   1.008   8.478  18.877
 4903TIP3    H138904   0.990   8.411  18.799
 4903TIP3    H238905   0.916   8.444  18.932
 4904TIP3   OH238906   0.816   8.413  19.109
 4904TIP3    H138907   0.895   8.360  19.164
 4904TIP3    H238908   0.827   8.525  19.139
 4905TIP3   OH238909   0.438   8.086  19.159
 4905TIP3    H138910   0.346   8.125  19.209
 4905TIP3    H238911   0.479   8.182  19.113
 4906TIP3   OH238912   1.476   7.110  19.306
 4906TIP3    H138913   1.505   7.176  19.227
 4906TIP3    H238914   1.505   7.182  19.380
 4907TIP3   OH238915   1.196   8.596  19.202
 4907TIP3    H138916   1.128   8.640  19.132
 4907TIP3    H238917   1.302   8.617  19.166
 4908TIP3   OH238918   1.142   7.364  19.366
 4908TIP3    H138919   1.196   7.468  19.380
 4908TIP3    H238920   1.102   7.336  19.456
 4909TIP3   OH238921   1.204   6.986  19.407
 4909TIP3    H138922   1.171   7.063  19.474
 4909TIP3    H238923   1.296   7.043  19.366
 4910TIP3   OH238924   0.886   8.731  19.169
 4910TIP3    H138925   0.894   8.816  19.099
 4910TIP3    H238926   0.799   8.776  19.222
 4911TIP3   OH238927   0.688   7.127  19.148
 4911TIP3    H138928   0.672   7.225  19.199
 4911TIP3    H238929   0.802   7.108  19.164
 4912TIP3   OH238930   1.763   7.714  19.744
 4912TIP3    H138931   1.670   7.642  19.757
 4912TIP3    H238932   1.842   7.663  19.804
 4913TIP3   OH238933   0.494   8.384  19.012
 4913TIP3    H138934   0.594   8.426  19.051
 4913TIP3    H238935   0.538   8.312  18.944
 4914TIP3   OH238936   0.278   7.514  18.969
 4914TIP3    H138937   0.310   7.624  18.994
 4914TIP3    H238938   0.199   7.537  18.901
 4915TIP3   OH238939   1.930   8.820  19.934
 4915TIP3    H138940   1.950   8.880  19.853
 4915TIP3    H238941   2.033   8.830  19.979
 4916TIP3   OH238942   0.386   6.918  19.794
 4916TIP3    H138943   0.373   6.898  19.698
 4916TIP3    H238944   0.378   6.808  19.827
 4917TIP3   OH238945   0.281   8.515  19.439
 4917TIP3    H138946   0.176   8.548  19.470
 4917TIP3    H238947   0.295   8.584  19.361
 4918TIP3   OH238948   1.253   8.700  18.882
 4918TIP3    H138949   1.183   8.604  18.880
 4918TIP3    H238950   1.345   8.663  18.829
 4919TIP3   OH238951   1.812   8.670  18.926
 4919TIP3    H138952   1.812   8.561  18.961
 4919TIP3    H238953   1.889   8.669  18.853
 4920TIP3   OH238954   0.689   8.161  18.855
 4920TIP3    H138955   0.703   8.092  18.931
 4920TIP3    H238956   0.787   8.138  18.804
 4921TIP3   OH238957   1.367   8.297  18.849
 4921TIP3    H138958   1.295   8.303  18.926
 4921TIP3    H238959   1.361   8.180  18.832
 4922TIP3   OH238960   0.828   7.940  19.117
 4922TIP3    H138961   0.757   7.862  19.158
 4922TIP3    H238962   0.886   7.874  19.052
 4923TIP3   OH238963   0.968   7.741  18.919
 4923TIP3    H138964   0.976   7.788  18.828
 4923TIP3    H238965   1.082   7.734  18.941
 4924TIP3   OH238966   2.070   8.002  18.866
 4924TIP3    H138967   2.046   7.964  18.775
 4924TIP3    H238968   2.068   8.119  18.853
 4925TIP3   OH238969   0.943   8.998  19.024
 4925TIP3    H138970   1.018   9.080  19.050
 4925TIP3    H238971   0.866   9.054  18.969
 4926TIP3   OH238972   0.176   8.396  19.032
 4926TIP3    H138973   0.293   8.408  19.035
 4926TIP3    H238974   0.169   8.315  18.962
 4927TIP3   OH238975   0.031   9.042  19.408
 4927TIP3    H138976  -0.083   9.059  19.427
 4927TIP3    H238977   0.043   8.950  19.465
 4928TIP3   OH238978   0.167   8.744  19.656
 4928TIP3    H138979   0.188   8.633  19.684
 4928TIP3    H238980   0.222   8.802  19.727
 4929TIP3   OH238981   2.126   8.102  19.224
 4929TIP3    H138982   2.231   8.153  19.239
 4929TIP3    H238983   2.122   8.030  19.302
 4930TIP3   OH238984   2.159   7.901  19.457
 4930TIP3    H138985   2.081   7.834  19.504
 4930TIP3    H238986   2.248   7.906  19.522
 4931TIP3   OH238987   2.170   8.232  19.972
 4931TIP3    H138988   2.238   8.150  19.932
 4931TIP3    H238989   2.182   8.321  19.910
 4932TIP3   OH238990   2.237   7.840  19.075
 4932TIP3    H138991   2.166   7.872  19.001
 4932TIP3    H238992   2.222   7.933  19.133
 4933TIP3   OH238993   1.992   7.495  18.929
 4933TIP3    H138994   2.026   7.570  18.861
 4933TIP3    H238995   1.969   7.402  18.876
 4934TIP3   OH238996   1.940   7.673  19.525
 4934TIP3    H138997   1.898   7.582  19.476
 4934TIP3    H238998   1.882   7.669  19.610
 4935TIP3   OH238999   0.190   8.059  19.898
 4935TIP3    H139000   0.211   8.008  19.811
 4935TIP3    H239001   0.248   7.988  19.957
 4936TIP3   OH239002   1.933   7.182  18.823
 4936TIP3    H139003   1.968   7.163  18.915
 4936TIP3    H239004   1.817   7.170  18.829
 4937TIP3   OH239005   1.856   7.433  19.355
 4937TIP3    H139006   1.878   7.319  19.374
 4937TIP3    H239007   1.952   7.453  19.304
 4938TIP3   OH239008   1.958   7.518  19.868
 4938TIP3    H139009   2.074   7.495  19.862
 4938TIP3    H239010   1.925   7.409  19.894
 4939TIP3   OH239011   1.951   7.127  19.369
 4939TIP3    H139012   1.994   7.060  19.442
 4939TIP3    H239013   1.874   7.052  19.331
 4940TIP3   OH239014   0.191   7.187  19.875
 4940TIP3    H139015   0.242   7.082  19.882
 4940TIP3    H239016   0.278   7.255  19.908
 4941TIP3   OH239017   0.126   7.520  19.979
 4941TIP3    H139018   0.164   7.493  19.890
 4941TIP3    H239019   0.077   7.622  19.960
 4942TIP3   OH239020   2.156   7.102  19.038
 4942TIP3    H139021   2.209   7.027  18.977
 4942TIP3    H239022   2.251   7.157  19.075
 4943TIP3   OH239023   0.137   7.060  19.311
 4943TIP3    H139024   0.036   7.067  19.361
 4943TIP3    H239025   0.118   7.138  19.240
 4944TIP3   OH239026   1.826   8.854  19.495
 4944TIP3    H139027   1.925   8.845  19.439
 4944TIP3    H239028   1.856   8.938  19.559
 4945TIP3   OH239029   0.313   8.784  19.917
 4945TIP3    H139030   0.354   8.846  19.994
 4945TIP3    H239031   0.416   8.742  19.882
 4946TIP3   OH239032   0.554   8.689  19.751
 4946TIP3    H139033   0.538   8.574  19.763
 4946TIP3    H239034   0.667   8.700  19.779
 4947TIP3   OH239035   0.842   8.711  19.855
 4947TIP3    H139036   0.864   8.598  19.876
 4947TIP3    H239037   0.876   8.768  19.934
 4948TIP3   OH239038   1.258   7.093  19.776
 4948TIP3    H139039   1.180   7.013  19.807
 4948TIP3    H239040   1.343   7.025  19.745
 4949TIP3   OH239041   1.910   6.838  19.762
 4949TIP3    H139042   1.978   6.890  19.693
 4949TIP3    H239043   1.802   6.877  19.744
 4950TIP3   OH239044   2.105   6.949  19.567
 4950TIP3    H139045   2.183   6.883  19.519
 4950TIP3    H239046   2.171   7.046  19.586
 4951TIP3   OH239047   0.386   6.840  19.540
 4951TIP3    H139048   0.283   6.815  19.495
 4951TIP3    H239049   0.445   6.738  19.533
 4952TIP3   OH239050   0.260   6.830  19.155
 4952TIP3    H139051   0.264   6.887  19.070
 4952TIP3    H239052   0.220   6.914  19.217
 4953TIP3   OH239053   0.866   6.791  19.548
 4953TIP3    H139054   0.967   6.830  19.514
 4953TIP3    H239055   0.877   6.796  19.643
 4954TIP3   OH239056   1.602   6.883  19.677
 4954TIP3    H139057   1.583   6.908  19.585
 4954TIP3    H239058   1.538   6.786  19.694
 4955TIP3   OH239059   1.723   6.889  19.313
 4955TIP3    H139060   1.625   6.953  19.306
 4955TIP3    H239061   1.680   6.780  19.322
 4956TIP3   OH239062   0.203   8.758  19.247
 4956TIP3    H139063   0.092   8.754  19.218
 4956TIP3    H239064   0.238   8.858  19.206
 4957TIP3   OH239065   0.356   7.051  18.971
 4957TIP3    H139066   0.443   6.989  18.930
 4957TIP3    H239067   0.400   7.078  19.059
 4958TIP3   OH239068   1.024   7.128  19.199
 4958TIP3    H139069   1.067   7.054  19.265
 4958TIP3    H239070   1.060   7.228  19.242
 4959TIP3   OH239071   1.291   8.926  19.072
 4959TIP3    H139072   1.404   8.905  19.048
 4959TIP3    H239073   1.238   8.872  18.997
 4960TIP3   OH239074   2.069   8.825  19.322
 4960TIP3    H139075   2.027   8.724  19.283
 4960TIP3    H239076   2.057   8.898  19.246
 4961TIP3   OH239077   0.388   8.821  18.914
 4961TIP3    H139078   0.337   8.893  18.980
 4961TIP3    H239079   0.468   8.770  18.969
 4962TIP3   OH239080   3.714   7.981  19.523
 4962TIP3    H139081   3.706   8.092  19.554
 4962TIP3    H239082   3.613   7.969  19.475
 4963TIP3   OH239083   3.575   7.856  19.865
 4963TIP3    H139084   3.563   7.804  19.951
 4963TIP3    H239085   3.494   7.804  19.812
 4964TIP3   OH239086   3.938   8.192  19.701
 4964TIP3    H139087   3.913   8.108  19.765
 4964TIP3    H239088   3.982   8.275  19.763
 4965TIP3   OH239089   2.770   8.383  19.871
 4965TIP3    H139090   2.725   8.280  19.842
 4965TIP3    H239091   2.884   8.360  19.859
 4966TIP3   OH239092   2.374   7.553  19.468
 4966TIP3    H139093   2.358   7.663  19.495
 4966TIP3    H239094   2.274   7.526  19.427
 4967TIP3   OH239095   2.464   7.856  19.644
 4967TIP3    H139096   2.497   7.760  19.694
 4967TIP3    H239097   2.551   7.930  19.663
 4968TIP3   OH239098   3.655   8.848  19.772
 4968TIP3    H139099   3.739   8.794  19.719
 4968TIP3    H239100   3.607   8.752  19.812
 4969TIP3   OH239101   3.412   8.213  19.977
 4969TIP3    H139102   3.456   8.150  19.905
 4969TIP3    H239103   3.478   8.177  20.050
 4970TIP3   OH239104   3.755   7.496  19.967
 4970TIP3    H139105   3.796   7.387  19.973
 4970TIP3    H239106   3.738   7.506  19.870
 4971TIP3   OH239107   2.969   7.210  19.683
 4971TIP3    H139108   2.986   7.319  19.647
 4971TIP3    H239109   2.886   7.171  19.622
 4972TIP3   OH239110   3.816   7.300  19.531
 4972TIP3    H139111   3.886   7.254  19.601
 4972TIP3    H239112   3.893   7.373  19.491
 4973TIP3   OH239113   2.519   7.531  19.749
 4973TIP3    H139114   2.598   7.460  19.793
 4973TIP3    H239115   2.533   7.495  19.656
 4974TIP3   OH239116   3.119   7.730  19.697
 4974TIP3    H139117   3.206   7.670  19.736
 4974TIP3    H239118   3.061   7.643  19.651
 4975TIP3   OH239119   3.601   8.278  19.404
 4975TIP3    H139120   3.588   8.269  19.308
 4975TIP3    H239121   3.593   8.394  19.417
 4976TIP3   OH239122   4.033   7.231  19.709
 4976TIP3    H139123   3.964   7.198  19.783
 4976TIP3    H239124   4.138   7.200  19.744
 4977TIP3   OH239125   2.765   7.392  19.870
 4977TIP3    H139126   2.807   7.501  19.862
 4977TIP3    H239127   2.816   7.338  19.796
 4978TIP3   OH239128   2.435   8.209  19.249
 4978TIP3    H139129   2.426   8.273  19.166
 4978TIP3    H239130   2.452   8.292  19.316
 4979TIP3   OH239131   4.048   8.404  19.877
 4979TIP3    H139132   4.014   8.354  19.963
 4979TIP3    H239133   4.096   8.502  19.909
 4980TIP3   OH239134   3.275   6.859  19.794
 4980TIP3    H139135   3.306   6.750  19.816
 4980TIP3    H239136   3.179   6.878  19.846
 4981TIP3   OH239137   3.856   8.687  19.624
 4981TIP3    H139138   3.864   8.573  19.600
 4981TIP3    H239139   3.950   8.728  19.575
 4982TIP3   OH239140   4.000   8.401  19.492
 4982TIP3    H139141   3.982   8.334  19.415
 4982TIP3    H239142   3.997   8.323  19.565
 4983TIP3   OH239143   3.529   7.877  19.267
 4983TIP3    H139144   3.467   7.970  19.236
 4983TIP3    H239145   3.636   7.898  19.229
 4984TIP3   OH239146   3.568   7.752  18.966
 4984TIP3    H139147   3.644   7.799  19.030
 4984TIP3    H239148   3.583   7.639  18.982
 4985TIP3   OH239149   3.990   7.889  19.383
 4985TIP3    H139150   3.898   7.924  19.438
 4985TIP3    H239151   4.066   7.853  19.452
 4986TIP3   OH239152   2.953   7.954  19.569
 4986TIP3    H139153   2.904   7.902  19.490
 4986TIP3    H239154   3.029   7.872  19.601
 4987TIP3   OH239155   3.106   8.392  19.837
 4987TIP3    H139156   3.112   8.393  19.740
 4987TIP3    H239157   3.193   8.321  19.863
 4988TIP3   OH239158   2.938   7.742  19.923
 4988TIP3    H139159   3.001   7.746  19.840
 4988TIP3    H239160   2.958   7.849  19.958
 4989TIP3   OH239161   3.815   7.848  19.144
 4989TIP3    H139162   3.883   7.868  19.221
 4989TIP3    H239163   3.884   7.885  19.070
 4990TIP3   OH239164   3.562   8.603  19.448
 4990TIP3    H139165   3.590   8.629  19.538
 4990TIP3    H239166   3.485   8.686  19.426
 4991TIP3   OH239167   4.288   6.784  19.176
 4991TIP3    H139168   4.180   6.803  19.213
 4991TIP3    H239169   4.325   6.893  19.158
 4992TIP3   OH239170   2.780   7.835  19.343
 4992TIP3    H139171   2.766   7.937  19.296
 4992TIP3    H239172   2.744   7.758  19.278
 4993TIP3   OH239173   4.412   8.515  19.010
 4993TIP3    H139174   4.452   8.626  19.005
 4993TIP3    H239175   4.512   8.453  19.012
 4994TIP3   OH239176   2.369   8.480  19.853
 4994TIP3    H139177   2.480   8.450  19.851
 4994TIP3    H239178   2.370   8.585  19.898
 4995TIP3   OH239179   3.521   8.993  19.333
 4995TIP3    H139180   3.529   8.989  19.235
 4995TIP3    H239181   3.472   9.096  19.347
 4996TIP3   OH239182   2.750   8.765  19.492
 4996TIP3    H139183   2.777   8.770  19.588
 4996TIP3    H239184   2.676   8.672  19.491
 4997TIP3   OH239185   3.862   8.843  19.068
 4997TIP3    H139186   3.947   8.772  19.032
 4997TIP3    H239187   3.863   8.815  19.164
 4998TIP3   OH239188   3.804   8.834  19.323
 4998TIP3    H139189   3.696   8.874  19.344
 4998TIP3    H239190   3.815   8.740  19.379
 4999TIP3   OH239191   2.914   6.930  19.925
 4999TIP3    H139192   2.856   6.970  19.845
 4999TIP3    H239193   2.971   7.030  19.951
 5000TIP3   OH239194   4.010   7.966  18.964
 5000TIP3    H139195   3.986   7.982  18.869
 5000TIP3    H239196   4.126   7.987  18.965
 5001TIP3   OH239197   3.485   7.205  18.994
 5001TIP3    H139198   3.431   7.188  19.079
 5001TIP3    H239199   3.425   7.130  18.939
 5002TIP3   OH239200   2.962   7.495  19.568
 5002TIP3    H139201   2.849   7.472  19.547
 5002TIP3    H239202   3.006   7.507  19.477
 5003TIP3   OH239203   3.638   7.619  19.387
 5003TIP3    H139204   3.600   7.715  19.339
 5003TIP3    H239205   3.708   7.573  19.319
 5004TIP3   OH239206   3.722   7.558  19.687
 5004TIP3    H139207   3.706   7.640  19.618
 5004TIP3    H239208   3.733   7.464  19.627
 5005TIP3   OH239209   3.049   7.235  18.895
 5005TIP3    H139210   2.998   7.192  18.977
 5005TIP3    H239211   2.965   7.300  18.855
 5006TIP3   OH239212   2.270   7.220  19.623
 5006TIP3    H139213   2.340   7.220  19.702
 5006TIP3    H239214   2.341   7.256  19.553
 5007TIP3   OH239215   2.404   7.282  19.120
 5007TIP3    H139216   2.480   7.334  19.059
 5007TIP3    H239217   2.329   7.372  19.136
 5008TIP3   OH239218   3.329   7.242  19.619
 5008TIP3    H139219   3.222   7.224  19.653
 5008TIP3    H239220   3.395   7.176  19.680
 5009TIP3   OH239221   2.646   7.414  19.523
 5009TIP3    H139222   2.551   7.459  19.478
 5009TIP3    H239223   2.669   7.319  19.468
 5010TIP3   OH239224   3.064   7.470  19.309
 5010TIP3    H139225   3.172   7.446  19.280
 5010TIP3    H239226   3.020   7.531  19.234
 5011TIP3   OH239227   3.794   7.175  19.905
 5011TIP3    H139228   3.770   7.166  20.001
 5011TIP3    H239229   3.686   7.174  19.868
 5012TIP3   OH239230   2.928   7.591  19.023
 5012TIP3    H139231   2.887   7.531  18.947
 5012TIP3    H239232   3.031   7.624  18.985
 5013TIP3   OH239233   3.404   7.564  19.827
 5013TIP3    H139234   3.467   7.529  19.750
 5013TIP3    H239235   3.452   7.502  19.898
 5014TIP3   OH239236   2.737   7.126  19.467
 5014TIP3    H139237   2.680   7.038  19.514
 5014TIP3    H239238   2.802   7.062  19.407
 5015TIP3   OH239239   3.336   8.131  19.232
 5015TIP3    H139240   3.244   8.077  19.191
 5015TIP3    H239241   3.290   8.158  19.321
 5016TIP3   OH239242   3.786   7.262  19.053
 5016TIP3    H139243   3.668   7.264  19.036
 5016TIP3    H239244   3.806   7.374  19.078
 5017TIP3   OH239245   3.870   7.528  19.178
 5017TIP3    H139246   3.955   7.494  19.238
 5017TIP3    H239247   3.900   7.638  19.158
 5018TIP3   OH239248   2.708   8.072  19.791
 5018TIP3    H139249   2.743   8.048  19.700
 5018TIP3    H239250   2.788   8.017  19.846
 5019TIP3   OH239251   3.571   8.310  19.134
 5019TIP3    H139252   3.504   8.407  19.134
 5019TIP3    H239253   3.492   8.231  19.165
 5020TIP3   OH239254   4.435   7.489  19.181
 5020TIP3    H139255   4.376   7.483  19.096
 5020TIP3    H239256   4.468   7.602  19.184
 5021TIP3   OH239257   4.228   8.550  19.226
 5021TIP3    H139258   4.199   8.453  19.273
 5021TIP3    H239259   4.292   8.509  19.152
 5022TIP3   OH239260   3.892   7.954  19.877
 5022TIP3    H139261   3.779   7.922  19.863
 5022TIP3    H239262   3.952   7.874  19.824
 5023TIP3   OH239263   3.014   8.465  19.553
 5023TIP3    H139264   3.065   8.572  19.554
 5023TIP3    H239265   2.929   8.483  19.489
 5024TIP3   OH239266   2.568   7.894  19.016
 5024TIP3    H139267   2.622   7.962  19.082
 5024TIP3    H239268   2.454   7.906  19.037
 5025TIP3   OH239269   3.161   8.174  19.455
 5025TIP3    H139270   3.119   8.278  19.485
 5025TIP3    H239271   3.116   8.101  19.523
 5026TIP3   OH239272   3.072   8.762  19.427
 5026TIP3    H139273   2.956   8.778  19.438
 5026TIP3    H239274   3.118   8.855  19.476
 5027TIP3   OH239275   3.978   8.342  19.007
 5027TIP3    H139276   3.994   8.284  19.092
 5027TIP3    H239277   3.862   8.335  19.002
 5028TIP3   OH239278   4.502   8.828  19.020
 5028TIP3    H139279   4.579   8.917  19.022
 5028TIP3    H239280   4.403   8.882  19.048
 5029TIP3   OH239281   4.057   8.177  19.238
 5029TIP3    H139282   4.020   8.072  19.271
 5029TIP3    H239283   4.171   8.155  19.225
 5030TIP3   OH239284   3.271   8.467  18.874
 5030TIP3    H139285   3.240   8.402  18.797
 5030TIP3    H239286   3.176   8.456  18.932
 5031TIP3   OH239287   3.085   8.410  19.115
 5031TIP3    H139288   3.180   8.363  19.155
 5031TIP3    H239289   3.101   8.522  19.143
 5032TIP3   OH239290   2.724   8.089  19.175
 5032TIP3    H139291   2.617   8.130  19.198
 5032TIP3    H239292   2.771   8.178  19.125
 5033TIP3   OH239293   3.715   7.148  19.310
 5033TIP3    H139294   3.779   7.188  19.236
 5033TIP3    H239295   3.764   7.200  19.388
 5034TIP3   OH239296   3.407   8.572  19.179
 5034TIP3    H139297   3.301   8.622  19.193
 5034TIP3    H239298   3.478   8.663  19.186
 5035TIP3   OH239299   3.395   7.369  19.373
 5035TIP3    H139300   3.464   7.464  19.385
 5035TIP3    H239301   3.386   7.324  19.464
 5036TIP3   OH239302   3.456   7.001  19.417
 5036TIP3    H139303   3.428   7.069  19.491
 5036TIP3    H239304   3.552   7.058  19.385
 5037TIP3   OH239305   3.121   8.714  19.167
 5037TIP3    H139306   3.122   8.809  19.107
 5037TIP3    H239307   3.091   8.759  19.254
 5038TIP3   OH239308   2.948   7.127  19.140
 5038TIP3    H139309   2.935   7.212  19.206
 5038TIP3    H239310   3.060   7.097  19.154
 5039TIP3   OH239311   4.021   7.704  19.740
 5039TIP3    H139312   3.925   7.642  19.758
 5039TIP3    H239313   4.097   7.649  19.800
 5040TIP3   OH239314   2.744   8.374  19.005
 5040TIP3    H139315   2.818   8.442  19.056
 5040TIP3    H239316   2.825   8.312  18.954
 5041TIP3   OH239317   2.549   7.531  18.948
 5041TIP3    H139318   2.614   7.618  18.984
 5041TIP3    H239319   2.450   7.589  18.926
 5042TIP3   OH239320   4.189   8.831  19.940
 5042TIP3    H139321   4.214   8.887  19.859
 5042TIP3    H239322   4.294   8.820  19.981
 5043TIP3   OH239323   2.647   6.928  19.774
 5043TIP3    H139324   2.642   6.887  19.681
 5043TIP3    H239325   2.634   6.827  19.823
 5044TIP3   OH239326   2.490   8.539  19.419
 5044TIP3    H139327   2.401   8.597  19.459
 5044TIP3    H239328   2.496   8.599  19.335
 5045TIP3   OH239329   3.499   8.706  18.867
 5045TIP3    H139330   3.442   8.606  18.888
 5045TIP3    H239331   3.593   8.665  18.820
 5046TIP3   OH239332   4.057   8.666  18.918
 5046TIP3    H139333   4.074   8.560  18.956
 5046TIP3    H239334   4.144   8.675  18.852
 5047TIP3   OH239335   2.956   8.166  18.861
 5047TIP3    H139336   2.982   8.105  18.940
 5047TIP3    H239337   3.058   8.158  18.811
 5048TIP3   OH239338   3.629   8.305  18.839
 5048TIP3    H139339   3.569   8.306  18.922
 5048TIP3    H239340   3.628   8.190  18.819
 5049TIP3   OH239341   3.092   7.956  19.118
 5049TIP3    H139342   3.008   7.891  19.157
 5049TIP3    H239343   3.142   7.884  19.054
 5050TIP3   OH239344   3.239   7.750  18.915
 5050TIP3    H139345   3.228   7.777  18.820
 5050TIP3    H239346   3.356   7.747  18.923
 5051TIP3   OH239347   4.336   8.006  18.866
 5051TIP3    H139348   4.312   7.970  18.775
 5051TIP3    H239349   4.327   8.124  18.856
 5052TIP3   OH239350   3.196   8.982  19.029
 5052TIP3    H139351   3.292   9.044  19.050
 5052TIP3    H239352   3.137   9.056  18.974
 5053TIP3   OH239353   2.420   8.328  19.003
 5053TIP3    H139354   2.538   8.336  18.994
 5053TIP3    H239355   2.389   8.275  18.919
 5054TIP3   OH239356   2.278   9.006  19.450
 5054TIP3    H139357   2.186   8.952  19.407
 5054TIP3    H239358   2.268   8.957  19.537
 5055TIP3   OH239359   2.369   8.752  19.648
 5055TIP3    H139360   2.330   8.646  19.676
 5055TIP3    H239361   2.425   8.786  19.728
 5056TIP3   OH239362   4.380   8.107  19.232
 5056TIP3    H139363   4.486   8.155  19.249
 5056TIP3    H239364   4.372   8.032  19.308
 5057TIP3   OH239365   4.414   7.910  19.459
 5057TIP3    H139366   4.333   7.841  19.503
 5057TIP3    H239367   4.500   7.909  19.524
 5058TIP3   OH239368   4.430   8.237  19.955
 5058TIP3    H139369   4.517   8.165  19.928
 5058TIP3    H239370   4.442   8.326  19.894
 5059TIP3   OH239371   4.504   7.856  19.076
 5059TIP3    H139372   4.424   7.873  19.005
 5059TIP3    H239373   4.486   7.950  19.133
 5060TIP3   OH239374   4.248   7.504  18.925
 5060TIP3    H139375   4.286   7.558  18.846
 5060TIP3    H239376   4.218   7.402  18.883
 5061TIP3   OH239377   4.199   7.681  19.523
 5061TIP3    H139378   4.165   7.579  19.484
 5061TIP3    H239379   4.141   7.680  19.609
 5062TIP3   OH239380   2.338   7.966  19.879
 5062TIP3    H139381   2.388   7.945  19.792
 5062TIP3    H239382   2.429   7.949  19.939
 5063TIP3   OH239383   4.213   7.192  18.837
 5063TIP3    H139384   4.256   7.159  18.925
 5063TIP3    H239385   4.098   7.186  18.851
 5064TIP3   OH239386   4.114   7.420  19.345
 5064TIP3    H139387   4.127   7.304  19.363
 5064TIP3    H239388   4.216   7.441  19.303
 5065TIP3   OH239389   4.214   7.506  19.862
 5065TIP3    H139390   4.331   7.499  19.857
 5065TIP3    H239391   4.190   7.397  19.897
 5066TIP3   OH239392   4.204   7.109  19.363
 5066TIP3    H139393   4.256   7.057  19.439
 5066TIP3    H239394   4.135   7.021  19.332
 5067TIP3   OH239395   2.470   7.186  19.853
 5067TIP3    H139396   2.533   7.090  19.828
 5067TIP3    H239397   2.546   7.250  19.903
 5068TIP3   OH239398   2.275   7.518  19.954
 5068TIP3    H139399   2.330   7.482  19.874
 5068TIP3    H239400   2.310   7.628  19.957
 5069TIP3   OH239401   4.429   7.091  19.040
 5069TIP3    H139402   4.475   7.027  18.967
 5069TIP3    H239403   4.526   7.116  19.091
 5070TIP3   OH239404   2.304   7.073  19.312
 5070TIP3    H139405   2.201   7.118  19.333
 5070TIP3    H239406   2.344   7.154  19.250
 5071TIP3   OH239407   4.082   8.851  19.492
 5071TIP3    H139408   4.182   8.838  19.440
 5071TIP3    H239409   4.109   8.936  19.554
 5072TIP3   OH239410   2.563   8.772  19.880
 5072TIP3    H139411   2.627   8.837  19.943
 5072TIP3    H239412   2.648   8.726  19.824
 5073TIP3   OH239413   2.816   8.689  19.741
 5073TIP3    H139414   2.828   8.574  19.758
 5073TIP3    H239415   2.912   8.730  19.788
 5074TIP3   OH239416   3.100   8.710  19.849
 5074TIP3    H139417   3.127   8.596  19.859
 5074TIP3    H239418   3.106   8.749  19.940
 5075TIP3   OH239419   3.530   7.075  19.771
 5075TIP3    H139420   3.449   6.996  19.794
 5075TIP3    H239421   3.624   7.006  19.769
 5076TIP3   OH239422   4.180   6.846  19.768
 5076TIP3    H139423   4.241   6.894  19.692
 5076TIP3    H239424   4.070   6.883  19.750
 5077TIP3   OH239425   4.360   6.956  19.569
 5077TIP3    H139426   4.441   6.889  19.528
 5077TIP3    H239427   4.423   7.056  19.585
 5078TIP3   OH239428   2.627   6.827  19.524
 5078TIP3    H139429   2.525   6.816  19.476
 5078TIP3    H239430   2.671   6.719  19.511
 5079TIP3   OH239431   2.464   6.842  19.119
 5079TIP3    H139432   2.498   6.922  19.054
 5079TIP3    H239433   2.402   6.907  19.183
 5080TIP3   OH239434   3.149   6.802  19.541
 5080TIP3    H139435   3.205   6.840  19.463
 5080TIP3    H239436   3.211   6.848  19.613
 5081TIP3   OH239437   3.862   6.881  19.680
 5081TIP3    H139438   3.829   6.908  19.591
 5081TIP3    H239439   3.804   6.781  19.697
 5082TIP3   OH239440   4.012   6.865  19.295
 5082TIP3    H139441   3.938   6.893  19.225
 5082TIP3    H239442   3.966   6.763  19.327
 5083TIP3   OH239443   2.456   8.742  19.220
 5083TIP3    H139444   2.345   8.754  19.192
 5083TIP3    H239445   2.502   8.834  19.173
 5084TIP3   OH239446   2.626   7.069  18.962
 5084TIP3    H139447   2.707   7.007  18.917
 5084TIP3    H239448   2.663   7.063  19.053
 5085TIP3   OH239449   3.281   7.129  19.205
 5085TIP3    H139450   3.323   7.051  19.268
 5085TIP3    H239451   3.318   7.228  19.249
 5086TIP3   OH239452   3.551   8.930  19.071
 5086TIP3    H139453   3.659   8.894  19.045
 5086TIP3    H239454   3.490   8.870  19.005
 5087TIP3   OH239455   4.332   8.827  19.324
 5087TIP3    H139456   4.296   8.724  19.283
 5087TIP3    H239457   4.307   8.903  19.252
 5088TIP3   OH239458   2.696   8.902  18.929
 5088TIP3    H139459   2.611   8.917  18.993
 5088TIP3    H239460   2.748   8.806  18.961
 5089TIP3   OH239461   5.992   7.980  19.521
 5089TIP3    H139462   5.981   8.088  19.557
 5089TIP3    H239463   5.882   7.957  19.493
 5090TIP3   OH239464   5.858   7.854  19.858
 5090TIP3    H139465   5.836   7.805  19.943
 5090TIP3    H239466   5.750   7.894  19.837
 5091TIP3   OH239467   6.208   8.194  19.706
 5091TIP3    H139468   6.180   8.107  19.768
 5091TIP3    H239469   6.252   8.274  19.770
 5092TIP3   OH239470   5.057   8.394  19.872
 5092TIP3    H139471   5.026   8.285  19.841
 5092TIP3    H239472   5.174   8.381  19.874
 5093TIP3   OH239473   4.625   7.553  19.434
 5093TIP3    H139474   4.608   7.660  19.469
 5093TIP3    H239475   4.517   7.518  19.414
 5094TIP3   OH239476   4.715   7.852  19.643
 5094TIP3    H139477   4.764   7.759  19.689
 5094TIP3    H239478   4.799   7.932  19.641
 5095TIP3   OH239479   5.922   8.861  19.763
 5095TIP3    H139480   6.002   8.801  19.712
 5095TIP3    H239481   5.874   8.768  19.809
 5096TIP3   OH239482   5.660   8.267  19.950
 5096TIP3    H139483   5.616   8.160  19.926
 5096TIP3    H239484   5.759   8.236  19.995
 5097TIP3   OH239485   6.028   7.494  19.975
 5097TIP3    H139486   6.041   7.380  19.956
 5097TIP3    H239487   6.010   7.531  19.884
 5098TIP3   OH239488   5.201   7.264  19.684
 5098TIP3    H139489   5.213   7.345  19.613
 5098TIP3    H239490   5.142   7.182  19.634
 5099TIP3   OH239491   6.088   7.282  19.519
 5099TIP3    H139492   6.151   7.241  19.596
 5099TIP3    H239493   6.162   7.362  19.488
 5100TIP3   OH239494   4.787   7.534  19.746
 5100TIP3    H139495   4.862   7.465  19.794
 5100TIP3    H239496   4.795   7.484  19.656
 5101TIP3   OH239497   5.341   7.705  19.678
 5101TIP3    H139498   5.440   7.661  19.718
 5101TIP3    H239499   5.306   7.624  19.615
 5102TIP3   OH239500   5.874   8.282  19.409
 5102TIP3    H139501   5.852   8.276  19.313
 5102TIP3    H239502   5.874   8.399  19.421
 5103TIP3   OH239503   6.306   7.229  19.704
 5103TIP3    H139504   6.241   7.200  19.783
 5103TIP3    H239505   6.412   7.198  19.736
 5104TIP3   OH239506   5.048   7.397  19.899
 5104TIP3    H139507   5.082   7.508  19.887
 5104TIP3    H239508   5.088   7.348  19.816
 5105TIP3   OH239509   4.693   8.209  19.259
 5105TIP3    H139510   4.692   8.282  19.182
 5105TIP3    H239511   4.724   8.280  19.332
 5106TIP3   OH239512   6.319   8.408  19.876
 5106TIP3    H139513   6.296   8.369  19.967
 5106TIP3    H239514   6.380   8.506  19.893
 5107TIP3   OH239515   5.519   6.836  19.800
 5107TIP3    H139516   5.540   6.724  19.813
 5107TIP3    H239517   5.407   6.847  19.832
 5108TIP3   OH239518   6.114   8.688  19.621
 5108TIP3    H139519   6.127   8.575  19.598
 5108TIP3    H239520   6.208   8.732  19.573
 5109TIP3   OH239521   6.256   8.404  19.495
 5109TIP3    H139522   6.241   8.336  19.416
 5109TIP3    H239523   6.248   8.322  19.567
 5110TIP3   OH239524   5.786   7.873  19.262
 5110TIP3    H139525   5.732   7.976  19.249
 5110TIP3    H239526   5.896   7.896  19.229
 5111TIP3   OH239527   5.838   7.751  18.967
 5111TIP3    H139528   5.909   7.792  19.038
 5111TIP3    H239529   5.862   7.636  18.971
 5112TIP3   OH239530   6.264   7.884  19.378
 5112TIP3    H139531   6.175   7.922  19.434
 5112TIP3    H239532   6.335   7.831  19.443
 5113TIP3   OH239533   5.183   7.973  19.580
 5113TIP3    H139534   5.166   7.918  19.496
 5113TIP3    H239535   5.250   7.894  19.629
 5114TIP3   OH239536   5.383   8.395  19.843
 5114TIP3    H139537   5.388   8.347  19.754
 5114TIP3    H239538   5.466   8.330  19.889
 5115TIP3   OH239539   5.198   7.710  19.921
 5115TIP3    H139540   5.261   7.718  19.838
 5115TIP3    H239541   5.233   7.808  19.963
 5116TIP3   OH239542   6.076   7.852  19.154
 5116TIP3    H139543   6.146   7.862  19.232
 5116TIP3    H239544   6.146   7.885  19.079
 5117TIP3   OH239545   5.831   8.629  19.439
 5117TIP3    H139546   5.856   8.648  19.532
 5117TIP3    H239547   5.753   8.713  19.420
 5118TIP3   OH239548   6.552   6.788  19.177
 5118TIP3    H139549   6.437   6.810  19.185
 5118TIP3    H239550   6.596   6.894  19.155
 5119TIP3   OH239551   5.036   7.838  19.342
 5119TIP3    H139552   5.028   7.944  19.299
 5119TIP3    H239553   5.005   7.768  19.270
 5120TIP3   OH239554   6.673   8.512  19.001
 5120TIP3    H139555   6.719   8.621  18.998
 5120TIP3    H239556   6.770   8.448  19.014
 5121TIP3   OH239557   4.633   8.483  19.854
 5121TIP3    H139558   4.745   8.453  19.859
 5121TIP3    H239559   4.628   8.585  19.900
 5122TIP3   OH239560   5.779   8.988  19.327
 5122TIP3    H139561   5.783   8.983  19.229
 5122TIP3    H239562   5.732   9.092  19.342
 5123TIP3   OH239563   5.020   8.762  19.493
 5123TIP3    H139564   5.045   8.774  19.589
 5123TIP3    H239565   4.945   8.671  19.497
 5124TIP3   OH239566   6.126   8.845  19.060
 5124TIP3    H139567   6.206   8.772  19.024
 5124TIP3    H239568   6.128   8.820  19.156
 5125TIP3   OH239569   6.068   8.840  19.319
 5125TIP3    H139570   5.962   8.882  19.340
 5125TIP3    H239571   6.073   8.742  19.371
 5126TIP3   OH239572   5.222   6.990  19.872
 5126TIP3    H139573   5.120   6.994  19.824
 5126TIP3    H239574   5.231   7.098  19.910
 5127TIP3   OH239575   6.269   7.962  18.966
 5127TIP3    H139576   6.253   7.984  18.871
 5127TIP3    H239577   6.383   7.985  18.976
 5128TIP3   OH239578   5.753   7.211  18.982
 5128TIP3    H139579   5.706   7.195  19.069
 5128TIP3    H239580   5.687   7.135  18.933
 5129TIP3   OH239581   5.188   7.495  19.498
 5129TIP3    H139582   5.077   7.471  19.474
 5129TIP3    H239583   5.246   7.486  19.413
 5130TIP3   OH239584   5.885   7.632  19.400
 5130TIP3    H139585   5.849   7.726  19.345
 5130TIP3    H239586   5.963   7.589  19.338
 5131TIP3   OH239587   5.996   7.556  19.697
 5131TIP3    H139588   5.960   7.646  19.642
 5131TIP3    H239589   5.998   7.471  19.629
 5132TIP3   OH239590   5.323   7.243  18.905
 5132TIP3    H139591   5.260   7.194  18.977
 5132TIP3    H239592   5.242   7.296  18.851
 5133TIP3   OH239593   4.532   7.219  19.624
 5133TIP3    H139594   4.608   7.222  19.699
 5133TIP3    H239595   4.600   7.248  19.550
 5134TIP3   OH239596   4.667   7.280  19.129
 5134TIP3    H139597   4.748   7.332  19.074
 5134TIP3    H239598   4.588   7.368  19.134
 5135TIP3   OH239599   5.561   7.222  19.578
 5135TIP3    H139600   5.466   7.231  19.634
 5135TIP3    H239601   5.641   7.193  19.646
 5136TIP3   OH239602   4.837   7.361  19.530
 5136TIP3    H139603   4.777   7.412  19.457
 5136TIP3    H239604   4.894   7.271  19.486
 5137TIP3   OH239605   5.334   7.460  19.269
 5137TIP3    H139606   5.443   7.460  19.235
 5137TIP3    H239607   5.275   7.518  19.199
 5138TIP3   OH239608   6.070   7.192  19.892
 5138TIP3    H139609   6.056   7.138  19.978
 5138TIP3    H239610   5.962   7.182  19.856
 5139TIP3   OH239611   5.192   7.591  19.033
 5139TIP3    H139612   5.154   7.529  18.957
 5139TIP3    H239613   5.290   7.633  18.990
 5140TIP3   OH239614   5.629   7.546  19.794
 5140TIP3    H139615   5.736   7.549  19.754
 5140TIP3    H239616   5.650   7.511  19.884
 5141TIP3   OH239617   5.006   7.115  19.461
 5141TIP3    H139618   4.949   7.027  19.508
 5141TIP3    H239619   5.074   7.055  19.403
 5142TIP3   OH239620   5.600   8.129  19.245
 5142TIP3    H139621   5.508   8.075  19.205
 5142TIP3    H239622   5.550   8.162  19.330
 5143TIP3   OH239623   6.049   7.252  19.077
 5143TIP3    H139624   5.946   7.272  19.033
 5143TIP3    H239625   6.083   7.361  19.099
 5144TIP3   OH239626   6.122   7.530  19.182
 5144TIP3    H139627   6.205   7.493  19.242
 5144TIP3    H239628   6.167   7.632  19.150
 5145TIP3   OH239629   4.981   8.083  19.799
 5145TIP3    H139630   5.026   8.059  19.711
 5145TIP3    H239631   5.068   8.050  19.857
 5146TIP3   OH239632   5.831   8.304  19.139
 5146TIP3    H139633   5.765   8.401  19.140
 5146TIP3    H239634   5.752   8.222  19.168
 5147TIP3   OH239635   6.688   7.498  19.194
 5147TIP3    H139636   6.642   7.493  19.103
 5147TIP3    H239637   6.732   7.607  19.193
 5148TIP3   OH239638   6.496   8.552  19.225
 5148TIP3    H139639   6.456   8.454  19.262
 5148TIP3    H239640   6.556   8.518  19.145
 5149TIP3   OH239641   6.166   7.955  19.883
 5149TIP3    H139642   6.052   7.927  19.868
 5149TIP3    H239643   6.221   7.868  19.833
 5150TIP3   OH239644   5.272   8.474  19.544
 5150TIP3    H139645   5.329   8.576  19.552
 5150TIP3    H239646   5.190   8.502  19.479
 5151TIP3   OH239647   4.831   7.882  18.997
 5151TIP3    H139648   4.883   7.952  19.063
 5151TIP3    H239649   4.717   7.892  19.017
 5152TIP3   OH239650   5.412   8.172  19.451
 5152TIP3    H139651   5.363   8.266  19.494
 5152TIP3    H239652   5.417   8.096  19.525
 5153TIP3   OH239653   5.336   8.779  19.418
 5153TIP3    H139654   5.220   8.784  19.434
 5153TIP3    H239655   5.377   8.872  19.471
 5154TIP3   OH239656   6.240   8.339  19.011
 5154TIP3    H139657   6.260   8.281  19.094
 5154TIP3    H239658   6.125   8.329  19.007
 5155TIP3   OH239659   6.763   8.827  19.017
 5155TIP3    H139660   6.838   8.916  19.021
 5155TIP3    H239661   6.660   8.881  19.038
 5156TIP3   OH239662   6.319   8.171  19.238
 5156TIP3    H139663   6.288   8.069  19.279
 5156TIP3    H239664   6.434   8.153  19.229
 5157TIP3   OH239665   5.524   8.471  18.876
 5157TIP3    H139666   5.491   8.404  18.802
 5157TIP3    H239667   5.440   8.447  18.941
 5158TIP3   OH239668   5.348   8.399  19.116
 5158TIP3    H139669   5.442   8.350  19.156
 5158TIP3    H239670   5.368   8.512  19.141
 5159TIP3   OH239671   4.975   8.087  19.167
 5159TIP3    H139672   4.868   8.123  19.195
 5159TIP3    H239673   5.018   8.180  19.122
 5160TIP3   OH239674   5.983   7.108  19.306
 5160TIP3    H139675   6.016   7.170  19.227
 5160TIP3    H239676   6.032   7.165  19.380
 5161TIP3   OH239677   5.674   8.574  19.172
 5161TIP3    H139678   5.574   8.633  19.191
 5161TIP3    H239679   5.750   8.662  19.174
 5162TIP3   OH239680   5.672   7.364  19.347
 5162TIP3    H139681   5.716   7.471  19.366
 5162TIP3    H239682   5.628   7.330  19.434
 5163TIP3   OH239683   5.725   6.980  19.419
 5163TIP3    H139684   5.692   7.067  19.479
 5163TIP3    H239685   5.819   7.031  19.377
 5164TIP3   OH239686   5.386   8.711  19.162
 5164TIP3    H139687   5.371   8.803  19.102
 5164TIP3    H239688   5.354   8.752  19.251
 5165TIP3   OH239689   5.198   7.139  19.140
 5165TIP3    H139690   5.195   7.240  19.188
 5165TIP3    H239691   5.309   7.104  19.159
 5166TIP3   OH239692   6.290   7.706  19.744
 5166TIP3    H139693   6.193   7.643  19.758
 5166TIP3    H239694   6.370   7.645  19.797
 5167TIP3   OH239695   5.008   8.370  19.013
 5167TIP3    H139696   5.083   8.428  19.070
 5167TIP3    H239697   5.083   8.314  18.955
 5168TIP3   OH239698   4.811   7.529  18.977
 5168TIP3    H139699   4.868   7.630  18.990
 5168TIP3    H239700   4.724   7.556  18.918
 5169TIP3   OH239701   6.454   8.827  19.931
 5169TIP3    H139702   6.479   8.892  19.852
 5169TIP3    H239703   6.553   8.832  19.980
 5170TIP3   OH239704   4.931   6.930  19.781
 5170TIP3    H139705   4.913   6.892  19.690
 5170TIP3    H239706   4.924   6.829  19.831
 5171TIP3   OH239707   4.771   8.534  19.435
 5171TIP3    H139708   4.681   8.586  19.479
 5171TIP3    H239709   4.768   8.584  19.347
 5172TIP3   OH239710   5.762   8.710  18.866
 5172TIP3    H139711   5.705   8.610  18.889
 5172TIP3    H239712   5.856   8.669  18.818
 5173TIP3   OH239713   6.325   8.657  18.922
 5173TIP3    H139714   6.343   8.550  18.958
 5173TIP3    H239715   6.404   8.666  18.850
 5174TIP3   OH239716   5.218   8.171  18.862
 5174TIP3    H139717   5.251   8.125  18.947
 5174TIP3    H239718   5.316   8.153  18.810
 5175TIP3   OH239719   5.888   8.314  18.854
 5175TIP3    H139720   5.830   8.318  18.938
 5175TIP3    H239721   5.882   8.197  18.835
 5176TIP3   OH239722   5.351   7.950  19.114
 5176TIP3    H139723   5.286   7.874  19.164
 5176TIP3    H239724   5.405   7.880  19.048
 5177TIP3   OH239725   5.497   7.746  18.919
 5177TIP3    H139726   5.498   7.780  18.825
 5177TIP3    H239727   5.614   7.739  18.936
 5178TIP3   OH239728   6.607   7.998  18.862
 5178TIP3    H139729   6.576   7.956  18.774
 5178TIP3    H239730   6.590   8.114  18.851
 5179TIP3   OH239731   5.449   8.988  19.029
 5179TIP3    H139732   5.539   9.049  19.060
 5179TIP3    H239733   5.392   9.062  18.973
 5180TIP3   OH239734   4.682   8.328  18.999
 5180TIP3    H139735   4.799   8.344  18.993
 5180TIP3    H239736   4.662   8.269  18.916
 5181TIP3   OH239737   4.540   9.011  19.458
 5181TIP3    H139738   4.450   8.958  19.413
 5181TIP3    H239739   4.534   8.954  19.543
 5182TIP3   OH239740   4.609   8.767  19.662
 5182TIP3    H139741   4.570   8.660  19.685
 5182TIP3    H239742   4.682   8.789  19.736
 5183TIP3   OH239743   6.641   8.110  19.233
 5183TIP3    H139744   6.748   8.156  19.250
 5183TIP3    H239745   6.634   8.033  19.307
 5184TIP3   OH239746   6.676   7.906  19.454
 5184TIP3    H139747   6.596   7.832  19.494
 5184TIP3    H239748   6.755   7.913  19.525
 5185TIP3   OH239749   6.685   8.238  19.951
 5185TIP3    H139750   6.763   8.160  19.918
 5185TIP3    H239751   6.688   8.321  19.884
 5186TIP3   OH239752   6.767   7.854  19.078
 5186TIP3    H139753   6.690   7.874  19.006
 5186TIP3    H239754   6.746   7.946  19.136
 5187TIP3   OH239755   6.547   7.528  18.919
 5187TIP3    H139756   6.558   7.592  18.839
 5187TIP3    H239757   6.514   7.424  18.882
 5188TIP3   OH239758   6.456   7.668  19.512
 5188TIP3    H139759   6.420   7.572  19.464
 5188TIP3    H239760   6.407   7.658  19.602
 5189TIP3   OH239761   4.632   7.984  19.879
 5189TIP3    H139762   4.666   7.936  19.794
 5189TIP3    H239763   4.718   7.954  19.939
 5190TIP3   OH239764   6.455   7.211  18.851
 5190TIP3    H139765   6.509   7.160  18.926
 5190TIP3    H239766   6.349   7.164  18.854
 5191TIP3   OH239767   6.384   7.418  19.349
 5191TIP3    H139768   6.401   7.303  19.368
 5191TIP3    H239769   6.485   7.440  19.303
 5192TIP3   OH239770   6.490   7.505  19.858
 5192TIP3    H139771   6.605   7.478  19.858
 5192TIP3    H239772   6.450   7.405  19.897
 5193TIP3   OH239773   6.491   7.104  19.360
 5193TIP3    H139774   6.526   7.051  19.442
 5193TIP3    H239775   6.419   7.022  19.322
 5194TIP3   OH239776   4.734   7.180  19.859
 5194TIP3    H139777   4.795   7.086  19.828
 5194TIP3    H239778   4.807   7.229  19.923
 5195TIP3   OH239779   4.535   7.525  19.939
 5195TIP3    H139780   4.602   7.475  19.871
 5195TIP3    H239781   4.574   7.633  19.933
 5196TIP3   OH239782   6.678   7.078  19.035
 5196TIP3    H139783   6.736   7.018  18.966
 5196TIP3    H239784   6.758   7.159  19.059
 5197TIP3   OH239785   4.556   7.075  19.312
 5197TIP3    H139786   4.445   7.109  19.319
 5197TIP3    H239787   4.600   7.156  19.252
 5198TIP3   OH239788   6.346   8.855  19.497
 5198TIP3    H139789   6.443   8.843  19.442
 5198TIP3    H239790   6.376   8.936  19.561
 5199TIP3   OH239791   4.824   8.789  19.872
 5199TIP3    H139792   4.874   8.854  19.942
 5199TIP3    H239793   4.920   8.744  19.827
 5200TIP3   OH239794   5.082   8.689  19.746
 5200TIP3    H139795   5.088   8.574  19.767
 5200TIP3    H239796   5.186   8.720  19.783
 5201TIP3   OH239797   5.369   8.711  19.845
 5201TIP3    H139798   5.394   8.596  19.848
 5201TIP3    H239799   5.371   8.742  19.939
 5202TIP3   OH239800   5.792   7.067  19.764
 5202TIP3    H139801   5.706   6.998  19.796
 5202TIP3    H239802   5.879   6.989  19.771
 5203TIP3   OH239803   6.439   6.848  19.772
 5203TIP3    H139804   6.508   6.896  19.702
 5203TIP3    H239805   6.331   6.886  19.748
 5204TIP3   OH239806   6.630   6.946  19.575
 5204TIP3    H139807   6.712   6.884  19.527
 5204TIP3    H239808   6.688   7.048  19.589
 5205TIP3   OH239809   4.870   6.835  19.532
 5205TIP3    H139810   4.768   6.810  19.488
 5205TIP3    H239811   4.924   6.731  19.521
 5206TIP3   OH239812   4.742   6.839  19.135
 5206TIP3    H139813   4.778   6.916  19.067
 5206TIP3    H239814   4.673   6.906  19.189
 5207TIP3   OH239815   5.395   6.800  19.539
 5207TIP3    H139816   5.488   6.836  19.488
 5207TIP3    H239817   5.429   6.829  19.629
 5208TIP3   OH239818   6.138   6.880  19.676
 5208TIP3    H139819   6.094   6.910  19.590
 5208TIP3    H239820   6.079   6.782  19.699
 5209TIP3   OH239821   6.266   6.874  19.295
 5209TIP3    H139822   6.155   6.906  19.280
 5209TIP3    H239823   6.248   6.767  19.333
 5210TIP3   OH239824   4.717   8.742  19.227
 5210TIP3    H139825   4.604   8.753  19.200
 5210TIP3    H239826   4.762   8.831  19.175
 5211TIP3   OH239827   4.896   7.087  18.986
 5211TIP3    H139828   4.979   7.026  18.940
 5211TIP3    H239829   4.952   7.121  19.067
 5212TIP3   OH239830   5.554   7.123  19.190
 5212TIP3    H139831   5.592   7.046  19.255
 5212TIP3    H239832   5.582   7.223  19.237
 5213TIP3   OH239833   5.812   8.934  19.066
 5213TIP3    H139834   5.922   8.903  19.042
 5213TIP3    H239835   5.753   8.874  18.998
 5214TIP3   OH239836   6.596   8.826  19.325
 5214TIP3    H139837   6.559   8.724  19.286
 5214TIP3    H239838   6.571   8.902  19.253
 5215TIP3   OH239839   4.932   8.880  18.923
 5215TIP3    H139840   4.868   8.911  19.001
 5215TIP3    H239841   5.002   8.800  18.962
 5216TIP3   OH239842   8.249   7.970  19.523
 5216TIP3    H139843   8.240   8.084  19.543
 5216TIP3    H239844   8.150   7.950  19.476
 5217TIP3   OH239845   8.089   7.847  19.857
 5217TIP3    H139846   8.093   7.805  19.949
 5217TIP3    H239847   8.014   7.775  19.813
 5218TIP3   OH239848   8.471   8.201  19.699
 5218TIP3    H139849   8.417   8.123  19.758
 5218TIP3    H239850   8.503   8.281  19.764
 5219TIP3   OH239851   7.296   8.376  19.868
 5219TIP3    H139852   7.260   8.268  19.843
 5219TIP3    H239853   7.411   8.359  19.860
 5220TIP3   OH239854   6.904   7.537  19.446
 5220TIP3    H139855   6.892   7.649  19.471
 5220TIP3    H239856   6.797   7.512  19.413
 5221TIP3   OH239857   6.985   7.864  19.647
 5221TIP3    H139858   7.037   7.774  19.693
 5221TIP3    H239859   7.074   7.937  19.629
 5222TIP3   OH239860   8.178   8.850  19.775
 5222TIP3    H139861   8.251   8.786  19.722
 5222TIP3    H239862   8.135   8.764  19.829
 5223TIP3   OH239863   7.938   8.209  19.976
 5223TIP3    H139864   7.981   8.144  19.904
 5223TIP3    H239865   8.008   8.178  20.049
 5224TIP3   OH239866   8.281   7.507  19.974
 5224TIP3    H139867   8.304   7.394  19.990
 5224TIP3    H239868   8.262   7.510  19.878
 5225TIP3   OH239869   7.492   7.244  19.695
 5225TIP3    H139870   7.500   7.340  19.639
 5225TIP3    H239871   7.433   7.175  19.635
 5226TIP3   OH239872   8.356   7.308  19.527
 5226TIP3    H139873   8.419   7.249  19.594
 5226TIP3    H239874   8.442   7.372  19.488
 5227TIP3   OH239875   7.039   7.544  19.747
 5227TIP3    H139876   7.116   7.484  19.801
 5227TIP3    H239877   7.066   7.505  19.657
 5228TIP3   OH239878   7.636   7.726  19.694
 5228TIP3    H139879   7.727   7.661  19.721
 5228TIP3    H239880   7.576   7.648  19.640
 5229TIP3   OH239881   8.142   8.273  19.417
 5229TIP3    H139882   8.106   8.264  19.324
 5229TIP3    H239883   8.128   8.387  19.433
 5230TIP3   OH239884   8.561   7.211  19.706
 5230TIP3    H139885   8.504   7.184  19.790
 5230TIP3    H239886   8.672   7.196  19.729
 5231TIP3   OH239887   7.277   7.378  19.872
 5231TIP3    H139888   7.325   7.483  19.884
 5231TIP3    H239889   7.344   7.331  19.801
 5232TIP3   OH239890   6.954   8.209  19.254
 5232TIP3    H139891   6.956   8.276  19.173
 5232TIP3    H239892   6.978   8.287  19.323
 5233TIP3   OH239893   8.609   8.431  19.877
 5233TIP3    H139894   8.532   8.383  19.940
 5233TIP3    H239895   8.592   8.545  19.895
 5234TIP3   OH239896   7.806   6.853  19.804
 5234TIP3    H139897   7.806   6.737  19.813
 5234TIP3    H239898   7.700   6.886  19.838
 5235TIP3   OH239899   8.352   8.674  19.613
 5235TIP3    H139900   8.387   8.570  19.577
 5235TIP3    H239901   8.447   8.737  19.587
 5236TIP3   OH239902   8.526   8.396  19.487
 5236TIP3    H139903   8.498   8.306  19.430
 5236TIP3    H239904   8.540   8.335  19.570
 5237TIP3   OH239905   8.046   7.866  19.260
 5237TIP3    H139906   7.976   7.961  19.256
 5237TIP3    H239907   8.141   7.907  19.213
 5238TIP3   OH239908   8.111   7.752  18.962
 5238TIP3    H139909   8.191   7.811  19.014
 5238TIP3    H239910   8.106   7.656  19.016
 5239TIP3   OH239911   8.504   7.884  19.364
 5239TIP3    H139912   8.423   7.912  19.431
 5239TIP3    H239913   8.575   7.816  19.419
 5240TIP3   OH239914   7.474   7.958  19.560
 5240TIP3    H139915   7.430   7.908  19.479
 5240TIP3    H239916   7.553   7.879  19.591
 5241TIP3   OH239917   7.627   8.393  19.841
 5241TIP3    H139918   7.622   8.375  19.745
 5241TIP3    H239919   7.718   8.329  19.869
 5242TIP3   OH239920   7.446   7.729  19.911
 5242TIP3    H139921   7.519   7.745  19.834
 5242TIP3    H239922   7.465   7.828  19.961
 5243TIP3   OH239923   8.332   7.841  19.142
 5243TIP3    H139924   8.387   7.856  19.228
 5243TIP3    H239925   8.411   7.890  19.080
 5244TIP3   OH239926   8.081   8.586  19.458
 5244TIP3    H139927   8.131   8.614  19.543
 5244TIP3    H239928   8.017   8.680  19.438
 5245TIP3   OH239929   8.783   6.798  19.149
 5245TIP3    H139930   8.666   6.809  19.158
 5245TIP3    H239931   8.819   6.910  19.146
 5246TIP3   OH239932   7.297   7.840  19.339
 5246TIP3    H139933   7.280   7.943  19.293
 5246TIP3    H239934   7.261   7.765  19.272
 5247TIP3   OH239935   8.948   8.546  18.968
 5247TIP3    H139936   8.976   8.658  18.987
 5247TIP3    H239937   9.055   8.503  18.979
 5248TIP3   OH239938   6.900   8.479  19.851
 5248TIP3    H139939   7.013   8.454  19.859
 5248TIP3    H239940   6.889   8.581  19.898
 5249TIP3   OH239941   8.050   8.983  19.331
 5249TIP3    H139942   8.051   8.975  19.233
 5249TIP3    H239943   8.002   9.088  19.343
 5250TIP3   OH239944   7.277   8.761  19.500
 5250TIP3    H139945   7.309   8.774  19.594
 5250TIP3    H239946   7.198   8.675  19.510
 5251TIP3   OH239947   8.381   8.852  19.060
 5251TIP3    H139948   8.462   8.778  19.022
 5251TIP3    H239949   8.381   8.814  19.153
 5252TIP3   OH239950   8.327   8.821  19.320
 5252TIP3    H139951   8.224   8.873  19.339
 5252TIP3    H239952   8.322   8.724  19.374
 5253TIP3   OH239953   7.487   6.979  19.885
 5253TIP3    H139954   7.402   6.950  19.821
 5253TIP3    H239955   7.440   7.075  19.920
 5254TIP3   OH239956   8.518   7.974  18.969
 5254TIP3    H139957   8.488   7.987  18.875
 5254TIP3    H239958   8.633   7.998  18.964
 5255TIP3   OH239959   8.010   7.231  18.980
 5255TIP3    H139960   7.954   7.213  19.065
 5255TIP3    H239961   7.946   7.158  18.926
 5256TIP3   OH239962   7.493   7.506  19.540
 5256TIP3    H139963   7.376   7.487  19.527
 5256TIP3    H239964   7.532   7.498  19.447
 5257TIP3   OH239965   8.184   7.643  19.400
 5257TIP3    H139966   8.129   7.720  19.339
 5257TIP3    H239967   8.245   7.583  19.334
 5258TIP3   OH239968   8.214   7.558  19.681
 5258TIP3    H139969   8.210   7.636  19.608
 5258TIP3    H239970   8.256   7.465  19.631
 5259TIP3   OH239971   7.579   7.262  18.927
 5259TIP3    H139972   7.522   7.192  18.988
 5259TIP3    H239973   7.495   7.292  18.863
 5260TIP3   OH239974   6.798   7.220  19.615
 5260TIP3    H139975   6.871   7.226  19.691
 5260TIP3    H239976   6.865   7.248  19.540
 5261TIP3   OH239977   6.923   7.283  19.109
 5261TIP3    H139978   7.010   7.319  19.051
 5261TIP3    H239979   6.864   7.384  19.122
 5262TIP3   OH239980   7.852   7.241  19.601
 5262TIP3    H139981   7.754   7.244  19.653
 5262TIP3    H239982   7.921   7.178  19.660
 5263TIP3   OH239983   7.174   7.416  19.532
 5263TIP3    H139984   7.081   7.453  19.478
 5263TIP3    H239985   7.193   7.308  19.497
 5264TIP3   OH239986   7.586   7.465  19.290
 5264TIP3    H139987   7.691   7.466  19.249
 5264TIP3    H239988   7.528   7.534  19.230
 5265TIP3   OH239989   8.341   7.181  19.897
 5265TIP3    H139990   8.322   7.145  19.987
 5265TIP3    H239991   8.232   7.189  19.866
 5266TIP3   OH239992   7.435   7.601  19.035
 5266TIP3    H139993   7.399   7.518  18.973
 5266TIP3    H239994   7.536   7.628  18.992
 5267TIP3   OH239995   7.921   7.549  19.815
 5267TIP3    H139996   8.015   7.522  19.760
 5267TIP3    H239997   7.931   7.480  19.893
 5268TIP3   OH239998   7.282   7.130  19.478
 5268TIP3    H139999   7.213   7.036  19.497
 5268TIP3    H240000   7.344   7.093  19.403
 5269TIP3   OH240001   7.861   8.130  19.232
 5269TIP3    H140002   7.770   8.070  19.195
 5269TIP3    H240003   7.810   8.170  19.315
 5270TIP3   OH240004   8.309   7.252  19.061
 5270TIP3    H140005   8.197   7.272  19.031
 5270TIP3    H240006   8.347   7.358  19.086
 5271TIP3   OH240007   8.426   7.520  19.181
 5271TIP3    H140008   8.519   7.506  19.241
 5271TIP3    H240009   8.443   7.626  19.143
 5272TIP3   OH240010   7.240   8.071  19.790
 5272TIP3    H140011   7.286   8.062  19.701
 5272TIP3    H240012   7.313   8.008  19.843
 5273TIP3   OH240013   8.100   8.299  19.142
 5273TIP3    H140014   8.032   8.396  19.152
 5273TIP3    H240015   8.023   8.214  19.164
 5274TIP3   OH240016   8.920   7.514  19.193
 5274TIP3    H140017   8.887   7.471  19.106
 5274TIP3    H240018   8.945   7.625  19.163
 5275TIP3   OH240019   8.764   8.560  19.220
 5275TIP3    H140020   8.698   8.472  19.254
 5275TIP3    H240021   8.826   8.506  19.151
 5276TIP3   OH240022   8.370   7.993  19.879
 5276TIP3    H140023   8.261   7.950  19.863
 5276TIP3    H240024   8.428   7.920  19.817
 5277TIP3   OH240025   7.530   8.466  19.554
 5277TIP3    H140026   7.591   8.567  19.547
 5277TIP3    H240027   7.440   8.489  19.496
 5278TIP3   OH240028   7.097   7.883  19.017
 5278TIP3    H140029   7.144   7.952  19.085
 5278TIP3    H240030   6.979   7.889  19.030
 5279TIP3   OH240031   7.687   8.183  19.451
 5279TIP3    H140032   7.642   8.279  19.492
 5279TIP3    H240033   7.640   8.099  19.507
 5280TIP3   OH240034   7.596   8.762  19.428
 5280TIP3    H140035   7.481   8.776  19.441
 5280TIP3    H240036   7.638   8.858  19.475
 5281TIP3   OH240037   8.501   8.356  19.028
 5281TIP3    H140038   8.520   8.284  19.105
 5281TIP3    H240039   8.388   8.335  19.012
 5282TIP3   OH240040   9.065   8.832  19.061
 5282TIP3    H140041   9.107   8.922  19.010
 5282TIP3    H240042   8.952   8.862  19.066
 5283TIP3   OH240043   8.610   8.172  19.235
 5283TIP3    H140044   8.572   8.065  19.261
 5283TIP3    H240045   8.725   8.153  19.223
 5284TIP3   OH240046   7.787   8.482  18.865
 5284TIP3    H140047   7.774   8.399  18.799
 5284TIP3    H240048   7.705   8.453  18.932
 5285TIP3   OH240049   7.621   8.411  19.109
 5285TIP3    H140050   7.714   8.359  19.148
 5285TIP3    H240051   7.637   8.521  19.144
 5286TIP3   OH240052   7.249   8.088  19.175
 5286TIP3    H140053   7.145   8.132  19.196
 5286TIP3    H240054   7.303   8.178  19.130
 5287TIP3   OH240055   8.238   7.151  19.311
 5287TIP3    H140056   8.249   7.199  19.222
 5287TIP3    H240057   8.280   7.234  19.371
 5288TIP3   OH240058   7.944   8.570  19.170
 5288TIP3    H140059   7.842   8.629  19.180
 5288TIP3    H240060   8.020   8.657  19.166
 5289TIP3   OH240061   7.970   7.402  19.395
 5289TIP3    H140062   8.030   7.500  19.419
 5289TIP3    H240063   7.952   7.350  19.482
 5290TIP3   OH240064   7.986   6.995  19.410
 5290TIP3    H140065   7.948   7.068  19.479
 5290TIP3    H240066   8.083   7.054  19.379
 5291TIP3   OH240067   7.666   8.718  19.168
 5291TIP3    H140068   7.670   8.813  19.109
 5291TIP3    H240069   7.627   8.759  19.255
 5292TIP3   OH240070   7.422   7.166  19.164
 5292TIP3    H140071   7.468   7.258  19.212
 5292TIP3    H240072   7.514   7.096  19.158
 5293TIP3   OH240073   8.486   7.745  19.736
 5293TIP3    H140074   8.396   7.670  19.730
 5293TIP3    H240075   8.561   7.685  19.793
 5294TIP3   OH240076   7.273   8.366  19.015
 5294TIP3    H140077   7.348   8.431  19.069
 5294TIP3    H240078   7.352   8.309  18.960
 5295TIP3   OH240079   7.073   7.520  18.955
 5295TIP3    H140080   7.121   7.620  18.984
 5295TIP3    H240081   6.989   7.560  18.897
 5296TIP3   OH240082   8.726   8.786  19.939
 5296TIP3    H140083   8.708   8.868  19.870
 5296TIP3    H240084   8.832   8.819  19.969
 5297TIP3   OH240085   7.204   6.924  19.771
 5297TIP3    H140086   7.175   6.877  19.684
 5297TIP3    H240087   7.181   6.834  19.831
 5298TIP3   OH240088   7.024   8.538  19.422
 5298TIP3    H140089   6.931   8.596  19.458
 5298TIP3    H240090   7.031   8.596  19.337
 5299TIP3   OH240091   8.028   8.707  18.874
 5299TIP3    H140092   7.962   8.609  18.882
 5299TIP3    H240093   8.126   8.666  18.831
 5300TIP3   OH240094   8.582   8.660  18.928
 5300TIP3    H140095   8.598   8.555  18.969
 5300TIP3    H240096   8.669   8.668  18.864
 5301TIP3   OH240097   7.474   8.173  18.865
 5301TIP3    H140098   7.477   8.077  18.920
 5301TIP3    H240099   7.580   8.168  18.825
 5302TIP3   OH240100   8.142   8.310  18.857
 5302TIP3    H140101   8.098   8.303  18.947
 5302TIP3    H240102   8.130   8.196  18.832
 5303TIP3   OH240103   7.615   7.938  19.126
 5303TIP3    H140104   7.530   7.870  19.157
 5303TIP3    H240105   7.663   7.873  19.055
 5304TIP3   OH240106   7.770   7.747  18.925
 5304TIP3    H140107   7.756   7.753  18.827
 5304TIP3    H240108   7.888   7.750  18.929
 5305TIP3   OH240109   8.826   7.997  18.878
 5305TIP3    H140110   8.809   7.970  18.783
 5305TIP3    H240111   8.868   8.106  18.872
 5306TIP3   OH240112   7.724   8.983  19.028
 5306TIP3    H140113   7.825   9.035  19.051
 5306TIP3    H240114   7.672   9.060  18.971
 5307TIP3   OH240115   6.946   8.327  19.003
 5307TIP3    H140116   7.063   8.339  18.998
 5307TIP3    H240117   6.923   8.273  18.917
 5308TIP3   OH240118   6.805   9.012  19.455
 5308TIP3    H140119   6.712   8.966  19.412
 5308TIP3    H240120   6.797   8.956  19.540
 5309TIP3   OH240121   6.884   8.764  19.656
 5309TIP3    H140122   6.840   8.659  19.681
 5309TIP3    H240123   6.952   8.788  19.734
 5310TIP3   OH240124   8.938   8.119  19.240
 5310TIP3    H140125   9.032   8.178  19.264
 5310TIP3    H240126   8.930   8.042  19.315
 5311TIP3   OH240127   8.950   7.920  19.445
 5311TIP3    H140128   8.849   7.870  19.471
 5311TIP3    H240129   9.008   7.919  19.529
 5312TIP3   OH240130   9.071   8.161  19.846
 5312TIP3    H140131   9.180   8.125  19.870
 5312TIP3    H240132   9.095   8.274  19.828
 5313TIP3   OH240133   8.980   7.836  19.110
 5313TIP3    H140134   8.928   7.865  19.027
 5313TIP3    H240135   8.988   7.940  19.152
 5314TIP3   OH240136   8.779   7.501  18.926
 5314TIP3    H140137   8.808   7.577  18.857
 5314TIP3    H240138   8.755   7.405  18.873
 5315TIP3   OH240139   8.687   7.705  19.520
 5315TIP3    H140140   8.713   7.594  19.536
 5315TIP3    H240141   8.642   7.735  19.607
 5316TIP3   OH240142   6.878   7.976  19.887
 5316TIP3    H140143   6.920   7.938  19.801
 5316TIP3    H240144   6.971   7.958  19.945
 5317TIP3   OH240145   8.704   7.213  18.828
 5317TIP3    H140146   8.710   7.174  18.919
 5317TIP3    H240147   8.594   7.176  18.803
 5318TIP3   OH240148   8.684   7.409  19.355
 5318TIP3    H140149   8.704   7.295  19.370
 5318TIP3    H240150   8.789   7.441  19.320
 5319TIP3   OH240151   8.698   7.537  19.824
 5319TIP3    H140152   8.815   7.528  19.828
 5319TIP3    H240153   8.663   7.447  19.878
 5320TIP3   OH240154   8.710   7.079  19.370
 5320TIP3    H140155   8.729   7.039  19.461
 5320TIP3    H240156   8.639   6.995  19.331
 5321TIP3   OH240157   6.998   7.181  19.856
 5321TIP3    H140158   7.054   7.084  19.826
 5321TIP3    H240159   7.085   7.241  19.898
 5322TIP3   OH240160   6.809   7.525  19.949
 5322TIP3    H140161   6.864   7.478  19.871
 5322TIP3    H240162   6.845   7.636  19.939
 5323TIP3   OH240163   8.971   7.076  19.054
 5323TIP3    H140164   9.004   7.015  18.976
 5323TIP3    H240165   8.989   7.187  19.026
 5324TIP3   OH240166   6.832   7.082  19.312
 5324TIP3    H140167   6.719   7.104  19.324
 5324TIP3    H240168   6.858   7.156  19.240
 5325TIP3   OH240169   8.596   8.850  19.510
 5325TIP3    H140170   8.675   8.854  19.438
 5325TIP3    H240171   8.641   8.930  19.571
 5326TIP3   OH240172   7.090   8.785  19.877
 5326TIP3    H140173   7.146   8.858  19.937
 5326TIP3    H240174   7.180   8.737  19.827
 5327TIP3   OH240175   7.345   8.692  19.749
 5327TIP3    H140176   7.354   8.575  19.763
 5327TIP3    H240177   7.448   8.726  19.787
 5328TIP3   OH240178   7.628   8.716  19.851
 5328TIP3    H140179   7.648   8.599  19.852
 5328TIP3    H240180   7.633   8.744  19.945
 5329TIP3   OH240181   8.050   7.075  19.760
 5329TIP3    H140182   7.982   6.988  19.789
 5329TIP3    H240183   8.150   7.016  19.750
 5330TIP3   OH240184   8.651   6.830  19.806
 5330TIP3    H140185   8.713   6.895  19.743
 5330TIP3    H240186   8.544   6.859  19.776
 5331TIP3   OH240187   8.826   6.973  19.619
 5331TIP3    H140188   8.905   6.899  19.579
 5331TIP3    H240189   8.885   7.075  19.613
 5332TIP3   OH240190   7.128   6.828  19.522
 5332TIP3    H140191   7.019   6.808  19.489
 5332TIP3    H240192   7.175   6.720  19.514
 5333TIP3   OH240193   6.972   6.836  19.127
 5333TIP3    H140194   7.018   6.917  19.065
 5333TIP3    H240195   6.934   6.905  19.200
 5334TIP3   OH240196   7.655   6.814  19.565
 5334TIP3    H140197   7.724   6.840  19.492
 5334TIP3    H240198   7.715   6.853  19.642
 5335TIP3   OH240199   8.350   6.895  19.664
 5335TIP3    H140200   8.345   6.913  19.570
 5335TIP3    H240201   8.292   6.793  19.677
 5336TIP3   OH240202   8.490   6.875  19.285
 5336TIP3    H140203   8.394   6.940  19.295
 5336TIP3    H240204   8.450   6.767  19.306
 5337TIP3   OH240205   6.974   8.742  19.228
 5337TIP3    H140206   6.864   8.752  19.200
 5337TIP3    H240207   7.022   8.828  19.175
 5338TIP3   OH240208   7.168   7.074  18.989
 5338TIP3    H140209   7.247   6.996  18.955
 5338TIP3    H240210   7.222   7.098  19.073
 5339TIP3   OH240211   7.831   7.147  19.189
 5339TIP3    H140212   7.866   7.060  19.246
 5339TIP3    H240213   7.849   7.240  19.246
 5340TIP3   OH240214   8.064   8.933  19.065
 5340TIP3    H140215   8.171   8.905  19.031
 5340TIP3    H240216   8.000   8.867  19.003
 5341TIP3   OH240217   8.837   8.846  19.328
 5341TIP3    H140218   8.816   8.735  19.299
 5341TIP3    H240219   8.840   8.904  19.243
 5342TIP3   OH240220   7.196   8.890  18.918
 5342TIP3    H140221   7.139   8.912  19.000
 5342TIP3    H240222   7.270   8.806  18.946
 5343TIP3   OH240223   9.062   7.620  19.441
 5343TIP3    H140224   9.020   7.723  19.412
 5343TIP3    H240225   9.013   7.549  19.375
 5344TIP3   OH240226   9.062   8.473  19.901
 5344TIP3    H140227   9.181   8.484  19.892
 5344TIP3    H240228   9.029   8.573  19.855
 5345TIP3   OH240229   8.994   7.247  19.580
 5345TIP3    H140230   9.109   7.261  19.599
 5345TIP3    H240231   8.998   7.204  19.489
 5346TIP3   OH240232   8.977   8.969  19.543
 5346TIP3    H140233   8.926   8.920  19.465
 5346TIP3    H240234   8.917   8.920  19.615
 5347TIP3   OH240235   9.068   8.729  19.743
 5347TIP3    H140236   9.089   8.664  19.664
 5347TIP3    H240237   9.170   8.785  19.742
 5348TIP3   OH240238   9.181   7.817  19.898
 5348TIP3    H140239   9.247   7.856  19.823
 5348TIP3    H240240   9.205   7.896  19.967
 5349TIP3   OH240241   8.999   7.554  19.908
 5349TIP3    H140242   9.088   7.489  19.878
 5349TIP3    H240243   9.052   7.660  19.912
 5350TIP3   OH240244   9.022   7.111  19.337
 5350TIP3    H140245   8.905   7.109  19.325
 5350TIP3    H240246   9.059   7.100  19.245
 5351TIP3   OH240247   0.997   9.000  19.886
 5351TIP3    H140248   1.040   8.924  19.821
 5351TIP3    H240249   0.882   8.998  19.863
 5352TIP3   OH240250   2.006   9.002  19.110
 5352TIP3    H140251   1.914   8.999  19.170
 5352TIP3    H240252   2.018   9.120  19.106
 5353TIP3   OH240253   0.686   9.101  19.874
 5353TIP3    H140254   0.601   9.064  19.933
 5353TIP3    H240255   0.700   9.211  19.908
 5354TIP3   OH240256   0.338   9.092  19.813
 5354TIP3    H140257   0.341   9.079  19.715
 5354TIP3    H240258   0.290   8.994  19.845
 5355TIP3   OH240259   1.942   9.042  19.710
 5355TIP3    H140260   1.950   9.151  19.748
 5355TIP3    H240261   1.824   9.037  19.709
 5356TIP3   OH240262   0.320   9.068  19.527
 5356TIP3    H140263   0.227   9.049  19.470
 5356TIP3    H240264   0.385   8.971  19.514
 5357TIP3   OH240265   0.256   9.041  19.110
 5357TIP3    H140266   0.286   9.140  19.067
 5357TIP3    H240267   0.175   9.080  19.173
 5358TIP3   OH240268   0.890   9.024  19.563
 5358TIP3    H140269   0.930   9.108  19.503
 5358TIP3    H240270   0.852   9.094  19.635
 5359TIP3   OH240271   1.619   9.072  19.661
 5359TIP3    H140272   1.526   9.108  19.612
 5359TIP3    H240273   1.570   8.989  19.717
 5360TIP3   OH240274   1.762   9.076  19.271
 5360TIP3    H140275   1.676   9.061  19.206
 5360TIP3    H240276   1.716   9.020  19.349
 5361TIP3   OH240277   3.242   9.005  19.883
 5361TIP3    H140278   3.281   8.933  19.813
 5361TIP3    H240279   3.126   9.017  19.860
 5362TIP3   OH240280   4.260   9.010  19.109
 5362TIP3    H140281   4.169   9.025  19.171
 5362TIP3    H240282   4.288   9.124  19.099
 5363TIP3   OH240283   2.939   9.096  19.868
 5363TIP3    H140284   2.831   9.068  19.900
 5363TIP3    H240285   2.947   9.208  19.902
 5364TIP3   OH240286   2.579   9.085  19.799
 5364TIP3    H140287   2.579   9.065  19.702
 5364TIP3    H240288   2.534   8.986  19.835
 5365TIP3   OH240289   4.213   9.040  19.706
 5365TIP3    H140290   4.226   9.142  19.753
 5365TIP3    H240291   4.097   9.031  19.713
 5366TIP3   OH240292   2.592   9.038  19.511
 5366TIP3    H140293   2.489   9.022  19.466
 5366TIP3    H240294   2.651   8.940  19.484
 5367TIP3   OH240295   2.479   9.029  19.118
 5367TIP3    H140296   2.533   9.133  19.113
 5367TIP3    H240297   2.401   9.061  19.185
 5368TIP3   OH240298   3.156   9.020  19.559
 5368TIP3    H140299   3.170   9.120  19.510
 5368TIP3    H240300   3.084   9.060  19.627
 5369TIP3   OH240301   3.868   9.076  19.646
 5369TIP3    H140302   3.794   9.059  19.573
 5369TIP3    H240303   3.826   9.000  19.711
 5370TIP3   OH240304   4.016   9.089  19.280
 5370TIP3    H140305   3.954   9.067  19.201
 5370TIP3    H240306   3.968   9.012  19.342
 5371TIP3   OH240307   5.509   9.002  19.885
 5371TIP3    H140308   5.548   8.921  19.823
 5371TIP3    H240309   5.392   9.004  19.868
 5372TIP3   OH240310   6.523   9.008  19.110
 5372TIP3    H140311   6.433   9.018  19.173
 5372TIP3    H240312   6.546   9.124  19.103
 5373TIP3   OH240313   5.200   9.101  19.866
 5373TIP3    H140314   5.098   9.072  19.908
 5373TIP3    H240315   5.216   9.209  19.904
 5374TIP3   OH240316   4.834   9.094  19.791
 5374TIP3    H140317   4.843   9.071  19.695
 5374TIP3    H240318   4.806   8.988  19.825
 5375TIP3   OH240319   6.480   9.040  19.711
 5375TIP3    H140320   6.498   9.144  19.754
 5375TIP3    H240321   6.364   9.041  19.711
 5376TIP3   OH240322   4.861   9.037  19.505
 5376TIP3    H140323   4.756   9.012  19.467
 5376TIP3    H240324   4.924   8.941  19.479
 5377TIP3   OH240325   4.747   9.030  19.116
 5377TIP3    H140326   4.805   9.132  19.108
 5377TIP3    H240327   4.670   9.066  19.183
 5378TIP3   OH240328   5.416   9.032  19.564
 5378TIP3    H140329   5.418   9.138  19.520
 5378TIP3    H240330   5.350   9.062  19.640
 5379TIP3   OH240331   6.148   9.079  19.646
 5379TIP3    H140332   6.085   9.060  19.567
 5379TIP3    H240333   6.094   9.008  19.711
 5380TIP3   OH240334   6.283   9.092  19.276
 5380TIP3    H140335   6.217   9.079  19.198
 5380TIP3    H240336   6.229   9.018  19.338
 5381TIP3   OH240337   7.774   9.006  19.884
 5381TIP3    H140338   7.814   8.946  19.808
 5381TIP3    H240339   7.657   9.013  19.865
 5382TIP3   OH240340   8.766   8.992  19.078
 5382TIP3    H140341   8.680   8.993  19.146
 5382TIP3    H240342   8.779   9.108  19.066
 5383TIP3   OH240343   7.465   9.097  19.873
 5383TIP3    H140344   7.364   9.065  19.914
 5383TIP3    H240345   7.476   9.206  19.910
 5384TIP3   OH240346   7.097   9.095  19.790
 5384TIP3    H140347   7.108   9.074  19.694
 5384TIP3    H240348   7.064   8.990  19.824
 5385TIP3   OH240349   8.711   9.013  19.735
 5385TIP3    H140350   8.734   9.108  19.789
 5385TIP3    H240351   8.598   9.032  19.715
 5386TIP3   OH240352   7.123   9.037  19.506
 5386TIP3    H140353   7.019   9.006  19.468
 5386TIP3    H240354   7.187   8.941  19.486
 5387TIP3   OH240355   7.019   9.026  19.127
 5387TIP3    H140356   7.068   9.132  19.117
 5387TIP3    H240357   6.937   9.058  19.192
 5388TIP3   OH240358   7.667   9.028  19.559
 5388TIP3    H140359   7.698   9.130  19.517
 5388TIP3    H240360   7.589   9.071  19.620
 5389TIP3   OH240361   8.383   9.074  19.650
 5389TIP3    H140362   8.310   9.079  19.576
 5389TIP3    H240363   8.328   8.999  19.709
 5390TIP3   OH240364   8.539   9.061  19.269
 5390TIP3    H140365   8.458   9.089  19.205
 5390TIP3    H240366   8.485   8.968  19.310
 5391TIP3   OH240367   1.439   1.195  10.659
 5391TIP3    H140368   1.417   1.310  10.663
 5391TIP3    H240369   1.356   1.157  10.600
 5392TIP3   OH240370   1.337   1.043  10.995
 5392TIP3    H140371   1.309   1.009  11.086
 5392TIP3    H240372   1.255   0.986  10.942
 5393TIP3   OH240373   0.390   1.072  11.158
 5393TIP3    H140374   0.347   0.985  11.212
 5393TIP3    H240375   0.472   1.111  11.220
 5394TIP3   OH240376   1.697   1.424  10.867
 5394TIP3    H140377   1.669   1.331  10.921
 5394TIP3    H240378   1.738   1.496  10.935
 5395TIP3   OH240379   0.444   1.603  10.982
 5395TIP3    H140380   0.434   1.493  10.948
 5395TIP3    H240381   0.560   1.601  10.991
 5396TIP3   OH240382   0.149   0.769  10.497
 5396TIP3    H140383   0.142   0.866  10.550
 5396TIP3    H240384   0.046   0.718  10.519
 5397TIP3   OH240385   0.134   1.087  10.818
 5397TIP3    H140386   0.187   0.984  10.840
 5397TIP3    H240387   0.206   1.136  10.755
 5398TIP3   OH240388   1.418   2.088  10.863
 5398TIP3    H140389   1.500   2.020  10.819
 5398TIP3    H240390   1.354   2.004  10.901
 5399TIP3   OH240391   1.093   1.408  11.087
 5399TIP3    H140392   1.130   1.339  11.015
 5399TIP3    H240393   1.196   1.440  11.124
 5400TIP3   OH240394   2.134   0.370  11.081
 5400TIP3    H140395   2.142   0.448  11.154
 5400TIP3    H240396   2.214   0.414  11.021
 5401TIP3   OH240397   1.518   0.742  11.119
 5401TIP3    H140398   1.544   0.630  11.137
 5401TIP3    H240399   1.505   0.738  11.022
 5402TIP3   OH240400   0.690   0.488  10.812
 5402TIP3    H140401   0.714   0.576  10.750
 5402TIP3    H240402   0.648   0.410  10.748
 5403TIP3   OH240403   1.579   0.492  10.629
 5403TIP3    H140404   1.636   0.474  10.715
 5403TIP3    H240405   1.649   0.571  10.589
 5404TIP3   OH240406   0.262   0.786  10.880
 5404TIP3    H140407   0.336   0.716  10.927
 5404TIP3    H240408   0.282   0.758  10.787
 5405TIP3   OH240409   0.850   0.983  10.831
 5405TIP3    H140410   0.937   0.923  10.872
 5405TIP3    H240411   0.809   0.898  10.773
 5406TIP3   OH240412   2.170   0.533  11.312
 5406TIP3    H140413   2.118   0.640  11.303
 5406TIP3    H240414   2.166   0.518  11.408
 5407TIP3   OH240415   0.535   0.367  11.219
 5407TIP3    H140416   0.493   0.421  11.140
 5407TIP3    H240417   0.445   0.379  11.281
 5408TIP3   OH240418   1.370   1.510  10.545
 5408TIP3    H140419   1.358   1.501  10.448
 5408TIP3    H240420   1.360   1.625  10.559
 5409TIP3   OH240421   0.864   1.253  11.226
 5409TIP3    H140422   0.787   1.325  11.269
 5409TIP3    H240423   0.935   1.330  11.181
 5410TIP3   OH240424   1.772   0.497  10.852
 5410TIP3    H140425   1.729   0.434  10.926
 5410TIP3    H240426   1.880   0.520  10.882
 5411TIP3   OH240427   0.468   0.583  11.011
 5411TIP3    H140428   0.536   0.664  11.056
 5411TIP3    H240429   0.540   0.546  10.939
 5412TIP3   OH240430   0.690   1.549  11.283
 5412TIP3    H140431   0.664   1.638  11.224
 5412TIP3    H240432   0.583   1.528  11.320
 5413TIP3   OH240433   0.122   1.469  10.377
 5413TIP3    H140434   0.132   1.513  10.286
 5413TIP3    H240435   0.167   1.553  10.435
 5414TIP3   OH240436   1.820   1.687  11.072
 5414TIP3    H140437   1.704   1.702  11.085
 5414TIP3    H240438   1.844   1.792  11.034
 5415TIP3   OH240439   1.847   0.244  11.215
 5415TIP3    H140440   1.756   0.280  11.161
 5415TIP3    H240441   1.928   0.239  11.144
 5416TIP3   OH240442   0.997   0.112  10.900
 5416TIP3    H140443   1.004   0.010  10.949
 5416TIP3    H240444   0.922   0.172  10.957
 5417TIP3   OH240445   1.603   1.877  10.740
 5417TIP3    H140446   1.622   1.783  10.684
 5417TIP3    H240447   1.704   1.936  10.720
 5418TIP3   OH240448   1.724   1.634  10.589
 5418TIP3    H140449   1.723   1.549  10.521
 5418TIP3    H240450   1.724   1.571  10.670
 5419TIP3   OH240451   1.928   1.476  11.459
 5419TIP3    H140452   1.956   1.393  11.393
 5419TIP3    H240453   1.940   1.573  11.404
 5420TIP3   OH240454   1.256   1.108  10.403
 5420TIP3    H140455   1.211   1.214  10.386
 5420TIP3    H240456   1.354   1.109  10.348
 5421TIP3   OH240457   1.321   0.926  10.118
 5421TIP3    H140458   1.420   0.961  10.166
 5421TIP3    H240459   1.346   0.818  10.090
 5422TIP3   OH240460   2.171   1.043  11.216
 5422TIP3    H140461   2.112   1.140  11.236
 5422TIP3    H240462   2.246   1.085  11.150
 5423TIP3   OH240463   1.708   1.068  10.516
 5423TIP3    H140464   1.619   1.116  10.566
 5423TIP3    H240465   1.783   1.043  10.587
 5424TIP3   OH240466   1.692   0.883  11.426
 5424TIP3    H140467   1.681   0.996  11.447
 5424TIP3    H240468   1.608   0.871  11.359
 5425TIP3   OH240469   0.670   1.204  10.700
 5425TIP3    H140470   0.590   1.154  10.639
 5425TIP3    H240471   0.732   1.111  10.732
 5426TIP3   OH240472   0.850   1.573  10.955
 5426TIP3    H140473   0.863   1.573  10.858
 5426TIP3    H240474   0.938   1.510  10.990
 5427TIP3   OH240475   0.716   1.046  11.070
 5427TIP3    H140476   0.772   1.064  10.984
 5427TIP3    H240477   0.764   1.127  11.130
 5428TIP3   OH240478   1.514   1.721  11.141
 5428TIP3    H140479   1.492   1.786  11.219
 5428TIP3    H240480   1.490   1.613  11.174
 5429TIP3   OH240481   0.840   1.580  11.517
 5429TIP3    H140482   0.749   1.634  11.559
 5429TIP3    H240483   0.800   1.566  11.425
 5430TIP3   OH240484   1.536   1.062  10.279
 5430TIP3    H140485   1.609   1.045  10.355
 5430TIP3    H240486   1.613   1.088  10.208
 5431TIP3   OH240487   0.515   1.175  11.393
 5431TIP3    H140488   0.520   1.252  11.467
 5431TIP3    H240489   0.420   1.114  11.419
 5432TIP3   OH240490   1.298   1.892  10.554
 5432TIP3    H140491   1.308   1.882  10.650
 5432TIP3    H240492   1.222   1.980  10.541
 5433TIP3   OH240493   0.618   1.799  11.617
 5433TIP3    H140494   0.611   1.820  11.521
 5433TIP3    H240495   0.504   1.794  11.641
 5434TIP3   OH240496   2.016   0.085  10.278
 5434TIP3    H140497   1.930   0.137  10.325
 5434TIP3    H240498   2.052   0.169  10.216
 5435TIP3   OH240499   0.474   1.070  10.506
 5435TIP3    H140500   0.463   1.162  10.445
 5435TIP3    H240501   0.493   0.980  10.447
 5436TIP3   OH240502   2.146   1.784  10.118
 5436TIP3    H140503   2.180   1.896  10.130
 5436TIP3    H240504   2.245   1.724  10.133
 5437TIP3   OH240505   0.184   1.376  11.370
 5437TIP3    H140506   0.068   1.364  11.356
 5437TIP3    H240507   0.222   1.278  11.327
 5438TIP3   OH240508   0.152   1.747  10.983
 5438TIP3    H140509   0.238   1.664  10.992
 5438TIP3    H240510   0.168   1.802  11.067
 5439TIP3   OH240511   2.239   1.786  11.624
 5439TIP3    H140512   2.220   1.679  11.588
 5439TIP3    H240513   2.130   1.810  11.655
 5440TIP3   OH240514   1.139   1.734  11.493
 5440TIP3    H140515   1.157   1.838  11.536
 5440TIP3    H240516   1.024   1.715  11.509
 5441TIP3   OH240517   1.187   2.173  10.424
 5441TIP3    H140518   1.240   2.194  10.338
 5441TIP3    H240519   1.222   2.267  10.476
 5442TIP3   OH240520   0.482   2.000  10.649
 5442TIP3    H140521   0.505   1.975  10.743
 5442TIP3    H240522   0.367   1.985  10.644
 5443TIP3   OH240523   1.561   2.140  10.184
 5443TIP3    H140524   1.630   2.051  10.150
 5443TIP3    H240525   1.588   2.141  10.278
 5444TIP3   OH240526   1.537   2.074  10.462
 5444TIP3    H140527   1.426   2.041  10.465
 5444TIP3    H240528   1.584   1.982  10.510
 5445TIP3   OH240529   1.854   0.746  11.647
 5445TIP3    H140530   1.812   0.802  11.567
 5445TIP3    H240531   1.852   0.637  11.612
 5446TIP3   OH240532   0.412   1.570  11.431
 5446TIP3    H140533   0.422   1.506  11.513
 5446TIP3    H240534   0.316   1.513  11.395
 5447TIP3   OH240535   0.701   0.226  11.010
 5447TIP3    H140536   0.596   0.251  10.969
 5447TIP3    H240537   0.697   0.295  11.088
 5448TIP3   OH240538   1.192   0.205  11.427
 5448TIP3    H140539   1.243   0.100  11.425
 5448TIP3    H240540   1.086   0.178  11.394
 5449TIP3   OH240541   1.628   0.539  11.458
 5449TIP3    H140542   1.559   0.521  11.537
 5449TIP3    H240543   1.625   0.655  11.456
 5450TIP3   OH240544   1.760   1.181  10.124
 5450TIP3    H140545   1.727   1.133  10.037
 5450TIP3    H240546   1.871   1.211  10.100
 5451TIP3   OH240547   1.177   0.413  10.135
 5451TIP3    H140548   1.136   0.340  10.203
 5451TIP3    H240549   1.146   0.362  10.052
 5452TIP3   OH240550   0.721   0.730  11.143
 5452TIP3    H140551   0.708   0.768  11.235
 5452TIP3    H240552   0.716   0.834  11.097
 5453TIP3   OH240553   0.725   0.750  10.671
 5453TIP3    H140554   0.608   0.731  10.657
 5453TIP3    H240555   0.758   0.721  10.580
 5454TIP3   OH240556   1.372   0.853  10.539
 5454TIP3    H140557   1.321   0.938  10.484
 5454TIP3    H240558   1.457   0.820  10.477
 5455TIP3   OH240559   1.282   0.829  11.717
 5455TIP3    H140560   1.196   0.791  11.658
 5455TIP3    H240561   1.363   0.746  11.711
 5456TIP3   OH240562   1.489   0.745  10.820
 5456TIP3    H140563   1.472   0.841  10.767
 5456TIP3    H240564   1.486   0.664  10.750
 5457TIP3   OH240565   0.377   0.763  11.301
 5457TIP3    H140566   0.466   0.814  11.350
 5457TIP3    H240567   0.392   0.654  11.332
 5458TIP3   OH240568   0.799   0.484  10.024
 5458TIP3    H140569   0.770   0.463  10.116
 5458TIP3    H240570   0.716   0.556   9.994
 5459TIP3   OH240571   0.121   0.512  10.746
 5459TIP3    H140572   0.184   0.478  10.822
 5459TIP3    H240573   0.156   0.440  10.675
 5460TIP3   OH240574   0.146   0.509  10.257
 5460TIP3    H140575   0.239   0.564  10.220
 5460TIP3    H240576   0.072   0.596  10.270
 5461TIP3   OH240577   1.352   0.970  11.262
 5461TIP3    H140578   1.432   0.907  11.210
 5461TIP3    H240579   1.307   0.881  11.316
 5462TIP3   OH240580   1.045   0.451  10.740
 5462TIP3    H140581   0.942   0.421  10.779
 5462TIP3    H240582   1.116   0.431  10.816
 5463TIP3   OH240583   0.422   0.684  10.609
 5463TIP3    H140584   0.331   0.707  10.550
 5463TIP3    H240585   0.449   0.574  10.584
 5464TIP3   OH240586   0.792   0.655  10.418
 5464TIP3    H140587   0.910   0.659  10.416
 5464TIP3    H240588   0.762   0.720  10.340
 5465TIP3   OH240589   1.541   0.355  11.059
 5465TIP3    H140590   1.475   0.372  11.138
 5465TIP3    H240591   1.463   0.311  10.996
 5466TIP3   OH240592   0.682   0.815  10.207
 5466TIP3    H140593   0.583   0.761  10.178
 5466TIP3    H240594   0.738   0.838  10.125
 5467TIP3   OH240595   1.922   2.281  11.706
 5467TIP3    H140596   1.963   2.339  11.628
 5467TIP3    H240597   2.017   2.291  11.763
 5468TIP3   OH240598   0.502   1.354  11.622
 5468TIP3    H140599   0.566   1.360  11.705
 5468TIP3    H240600   0.403   1.309  11.658
 5469TIP3   OH240601   1.129   0.797  10.933
 5469TIP3    H140602   1.201   0.737  10.876
 5469TIP3    H240603   1.129   0.733  11.014
 5470TIP3   OH240604   0.564   0.366  10.589
 5470TIP3    H140605   0.497   0.276  10.621
 5470TIP3    H240606   0.623   0.316  10.518
 5471TIP3   OH240607   1.048   0.553  11.161
 5471TIP3    H140608   0.972   0.640  11.146
 5471TIP3    H240609   1.127   0.606  11.217
 5472TIP3   OH240610   1.078   1.379  10.368
 5472TIP3    H140611   0.986   1.321  10.328
 5472TIP3    H240612   1.032   1.394  10.458
 5473TIP3   OH240613   1.974   1.290  11.254
 5473TIP3    H140614   2.029   1.352  11.183
 5473TIP3    H240615   1.871   1.276  11.210
 5474TIP3   OH240616   1.482   0.496  10.199
 5474TIP3    H140617   1.374   0.522  10.169
 5474TIP3    H240618   1.537   0.599  10.196
 5475TIP3   OH240619   1.193   1.405  11.455
 5475TIP3    H140620   1.146   1.338  11.524
 5475TIP3    H240621   1.158   1.513  11.480
 5476TIP3   OH240622   1.594   0.750  10.343
 5476TIP3    H140623   1.694   0.722  10.388
 5476TIP3    H240624   1.638   0.796  10.262
 5477TIP3   OH240625   0.499   1.303  10.909
 5477TIP3    H140626   0.560   1.277  10.828
 5477TIP3    H240627   0.524   1.212  10.967
 5478TIP3   OH240628   1.338   1.535  10.254
 5478TIP3    H140629   1.288   1.640  10.264
 5478TIP3    H240630   1.247   1.465  10.275
 5479TIP3   OH240631   0.206   1.045  11.413
 5479TIP3    H140632   0.202   0.991  11.498
 5479TIP3    H240633   0.091   1.044  11.391
 5480TIP3   OH240634   0.949   1.091  11.692
 5480TIP3    H140635   0.890   0.996  11.660
 5480TIP3    H240636   1.056   1.048  11.678
 5481TIP3   OH240637   1.550   1.687  11.484
 5481TIP3    H140638   1.450   1.694  11.437
 5481TIP3    H240639   1.517   1.722  11.573
 5482TIP3   OH240640   2.180   0.768  10.360
 5482TIP3    H140641   2.140   0.718  10.278
 5482TIP3    H240642   2.192   0.877  10.328
 5483TIP3   OH240643   2.214   1.427  11.580
 5483TIP3    H140644   2.110   1.444  11.536
 5483TIP3    H240645   2.285   1.422  11.501
 5484TIP3   OH240646   2.009   1.757  10.364
 5484TIP3    H140647   1.907   1.703  10.368
 5484TIP3    H240648   2.038   1.748  10.269
 5485TIP3   OH240649   1.655   1.171  11.033
 5485TIP3    H140650   1.550   1.130  11.004
 5485TIP3    H240651   1.726   1.091  10.997
 5486TIP3   OH240652   0.748   1.690  10.693
 5486TIP3    H140653   0.790   1.792  10.658
 5486TIP3    H240654   0.649   1.680  10.641
 5487TIP3   OH240655   0.275   1.064  10.124
 5487TIP3    H140656   0.341   1.151  10.159
 5487TIP3    H240657   0.175   1.074  10.173
 5488TIP3   OH240658   0.916   1.400  10.612
 5488TIP3    H140659   0.848   1.493  10.631
 5488TIP3    H240660   0.865   1.315  10.665
 5489TIP3   OH240661   1.010   1.912  11.291
 5489TIP3    H140662   1.084   1.992  11.254
 5489TIP3    H240663   1.084   1.850  11.349
 5490TIP3   OH240664   0.797   1.980  10.575
 5490TIP3    H140665   0.686   2.008  10.598
 5490TIP3    H240666   0.850   2.083  10.591
 5491TIP3   OH240667   1.369   1.430  11.223
 5491TIP3    H140668   1.306   1.398  11.302
 5491TIP3    H240669   1.420   1.328  11.203
 5492TIP3   OH240670   1.667   1.543  10.122
 5492TIP3    H140671   1.696   1.442  10.167
 5492TIP3    H240672   1.562   1.556  10.163
 5493TIP3   OH240673   1.753   1.964  11.469
 5493TIP3    H140674   1.654   1.904  11.454
 5493TIP3    H240675   1.762   2.035  11.391
 5494TIP3   OH240676   2.234   2.092  10.172
 5494TIP3    H140677   2.306   2.179  10.147
 5494TIP3    H240678   2.154   2.155  10.223
 5495TIP3   OH240679   0.320   0.473  11.429
 5495TIP3    H140680   0.217   0.527  11.425
 5495TIP3    H240681   0.288   0.362  11.444
 5496TIP3   OH240682   1.775   1.398  10.369
 5496TIP3    H140683   1.745   1.290  10.344
 5496TIP3    H240684   1.890   1.393  10.354
 5497TIP3   OH240685   0.284   1.865  11.235
 5497TIP3    H140686   0.370   1.792  11.256
 5497TIP3    H240687   0.264   1.910  11.323
 5498TIP3   OH240688   0.803   1.613  10.221
 5498TIP3    H140689   0.904   1.567  10.254
 5498TIP3    H240690   0.818   1.727  10.243
 5499TIP3   OH240691   0.418   1.303  10.296
 5499TIP3    H140692   0.313   1.354  10.305
 5499TIP3    H240693   0.484   1.387  10.256
 5500TIP3   OH240694   1.385   0.407  11.293
 5500TIP3    H140695   1.474   0.425  11.353
 5500TIP3    H240696   1.316   0.338  11.350
 5501TIP3   OH240697   1.429   0.332  10.431
 5501TIP3    H140698   1.433   0.400  10.349
 5501TIP3    H240699   1.494   0.397  10.493
 5502TIP3   OH240700   1.180   1.834  10.264
 5502TIP3    H140701   1.073   1.852  10.300
 5502TIP3    H240702   1.224   1.942  10.265
 5503TIP3   OH240703   1.104   0.594  10.478
 5503TIP3    H140704   1.200   0.656  10.493
 5503TIP3    H240705   1.069   0.564  10.568
 5504TIP3   OH240706   1.265   0.697  11.390
 5504TIP3    H140707   1.154   0.714  11.423
 5504TIP3    H240708   1.272   0.581  11.388
 5505TIP3   OH240709   1.204   0.215  10.581
 5505TIP3    H140710   1.188   0.313  10.633
 5505TIP3    H240711   1.295   0.246  10.522
 5506TIP3   OH240712   0.860   1.920  10.296
 5506TIP3    H140713   0.878   2.028  10.260
 5506TIP3    H240714   0.848   1.945  10.392
 5507TIP3   OH240715   0.671   0.389  10.279
 5507TIP3    H140716   0.679   0.474  10.346
 5507TIP3    H240717   0.778   0.343  10.291
 5508TIP3   OH240718   1.924   0.460  11.502
 5508TIP3    H140719   1.806   0.460  11.491
 5508TIP3    H240720   1.956   0.418  11.415
 5509TIP3   OH240721   1.762   0.887  10.915
 5509TIP3    H140722   1.675   0.809  10.911
 5509TIP3    H240723   1.843   0.830  10.966
 5510TIP3   OH240724   0.487   1.628  10.135
 5510TIP3    H140725   0.570   1.657  10.200
 5510TIP3    H240726   0.550   1.553  10.082
 5511TIP3   OH240727   0.367   0.750  10.151
 5511TIP3    H140728   0.356   0.868  10.150
 5511TIP3    H240729   0.300   0.728  10.073
 5512TIP3   OH240730   1.898   2.021  11.067
 5512TIP3    H140731   1.895   2.095  10.991
 5512TIP3    H240732   2.015   2.008  11.069
 5513TIP3   OH240733   0.382   0.203  10.923
 5513TIP3    H140734   0.371   0.187  10.825
 5513TIP3    H240735   0.372   0.090  10.951
 5514TIP3   OH240736   0.244   1.740  10.516
 5514TIP3    H140737   0.148   1.800  10.535
 5514TIP3    H240738   0.305   1.816  10.464
 5515TIP3   OH240739   0.180   2.092  11.671
 5515TIP3    H140740   0.254   2.094  11.746
 5515TIP3    H240741   0.143   1.982  11.683
 5516TIP3   OH240742   0.776   1.942  11.850
 5516TIP3    H140743   0.882   1.906  11.820
 5516TIP3    H240744   0.710   1.914  11.772
 5517TIP3   OH240745   1.207   1.877  19.956
 5517TIP3    H140746   1.124   1.794  19.964
 5517TIP3    H240747   1.298   1.822  19.995
 5518TIP3   OH240748   1.481   1.775  11.738
 5518TIP3    H140749   1.448   1.673  11.779
 5518TIP3    H240750   1.584   1.790  11.784
 5519TIP3   OH240751   1.712   1.860  10.103
 5519TIP3    H140752   1.705   1.742  10.099
 5519TIP3    H240753   1.768   1.894  10.023
 5520TIP3   OH240754   0.230   1.388  11.797
 5520TIP3    H140755   0.247   1.274  11.812
 5520TIP3    H240756   0.120   1.380  11.765
 5521TIP3   OH240757   0.715   1.361  10.034
 5521TIP3    H140758   0.740   1.321  10.123
 5521TIP3    H240759   0.805   1.432  10.017
 5522TIP3   OH240760   0.943   1.410  11.721
 5522TIP3    H140761   0.908   1.465  11.639
 5522TIP3    H240762   0.923   1.296  11.700
 5523TIP3   OH240763   1.621   1.332  11.490
 5523TIP3    H140764   1.722   1.390  11.481
 5523TIP3    H240765   1.555   1.424  11.512
 5524TIP3   OH240766   0.326   1.024  11.751
 5524TIP3    H140767   0.380   0.920  11.750
 5524TIP3    H240768   0.296   1.033  11.846
 5525TIP3   OH240769   0.830   1.202  10.259
 5525TIP3    H140770   0.751   1.140  10.305
 5525TIP3    H240771   0.886   1.122  10.206
 5526TIP3   OH240772   0.667   0.895  11.381
 5526TIP3    H140773   0.644   1.007  11.356
 5526TIP3    H240774   0.782   0.902  11.402
 5527TIP3   OH240775   0.982   0.946  10.072
 5527TIP3    H140776   0.994   0.864  10.002
 5527TIP3    H240777   1.096   0.962  10.096
 5528TIP3   OH240778   1.373   1.218  11.784
 5528TIP3    H140779   1.435   1.182  11.709
 5528TIP3    H240780   1.327   1.118  11.817
 5529TIP3   OH240781   2.036   1.218  19.997
 5529TIP3    H140782   2.100   1.150  19.938
 5529TIP3    H240783   2.093   1.319  19.987
 5530TIP3   OH240784   0.718   0.469  11.576
 5530TIP3    H140785   0.739   0.440  11.483
 5530TIP3    H240786   0.797   0.556  11.587
 5531TIP3   OH240787   0.840   0.404  11.329
 5531TIP3    H140788   0.917   0.450  11.264
 5531TIP3    H240789   0.737   0.442  11.295
 5532TIP3   OH240790   1.009   0.972  11.247
 5532TIP3    H140791   1.104   1.021  11.285
 5532TIP3    H240792   0.942   1.067  11.238
 5533TIP3   OH240793   1.609   0.737  11.828
 5533TIP3    H140794   1.626   0.647  11.887
 5533TIP3    H240795   1.718   0.752  11.793
 5534TIP3   OH240796   1.733   1.123  11.677
 5534TIP3    H140797   1.686   1.182  11.602
 5534TIP3    H240798   1.843   1.105  11.649
 5535TIP3   OH240799   0.572   0.714  11.769
 5535TIP3    H140800   0.504   0.618  11.773
 5535TIP3    H240801   0.614   0.706  11.679
 5536TIP3   OH240802   0.875   0.096  11.357
 5536TIP3    H140803   0.857   0.214  11.362
 5536TIP3    H240804   0.770   0.064  11.325
 5537TIP3   OH240805   1.094   0.554  11.765
 5537TIP3    H140806   1.022   0.606  11.827
 5537TIP3    H240807   1.050   0.592  11.679
 5538TIP3   OH240808   1.432   0.485  11.666
 5538TIP3    H140809   1.318   0.463  11.682
 5538TIP3    H240810   1.482   0.432  11.742
 5539TIP3   OH240811   1.639   0.359  11.847
 5539TIP3    H140812   1.612   0.245  11.839
 5539TIP3    H240813   1.582   0.388  11.930
 5540TIP3   OH240814   0.406   0.442  11.805
 5540TIP3    H140815   0.474   0.416  11.729
 5540TIP3    H240816   0.366   0.335  11.824
 5541TIP3   OH240817   0.979   0.074  11.642
 5541TIP3    H140818   0.938  -0.036  11.641
 5541TIP3    H240819   0.971   0.106  11.548
 5542TIP3   OH240820   0.925   0.180  11.885
 5542TIP3    H140821   0.961   0.133  11.800
 5542TIP3    H240822   0.908   0.290  11.857
 5543TIP3   OH240823   0.898   2.216  10.202
 5543TIP3    H140824   1.014   2.221  10.207
 5543TIP3    H240825   0.876   2.266  10.116
 5544TIP3   OH240826   0.184   1.541  10.121
 5544TIP3    H140827   0.296   1.577  10.122
 5544TIP3    H240828   0.186   1.464  10.048
 5545TIP3   OH240829   0.101   2.167  10.577
 5545TIP3    H140830  -0.006   2.212  10.595
 5545TIP3    H240831   0.124   2.110  10.661
 5546TIP3   OH240832   0.206   1.988  10.792
 5546TIP3    H140833   0.215   1.874  10.814
 5546TIP3    H240834   0.229   2.035  10.879
 5547TIP3   OH240835   2.231   2.075  11.071
 5547TIP3    H140836   2.248   2.074  11.167
 5547TIP3    H240837   2.296   2.167  11.049
 5548TIP3   OH240838   2.155   2.023  11.364
 5548TIP3    H140839   2.114   1.928  11.316
 5548TIP3    H240840   2.194   1.972  11.445
 5549TIP3   OH240841   1.966   1.586  11.834
 5549TIP3    H140842   1.858   1.618  11.810
 5549TIP3    H240843   2.016   1.687  11.860
 5550TIP3   OH240844   2.100   1.339  10.367
 5550TIP3    H140845   2.201   1.393  10.392
 5550TIP3    H240846   2.084   1.271  10.444
 5551TIP3   OH240847   2.150   1.111  10.602
 5551TIP3    H140848   2.066   1.032  10.627
 5551TIP3    H240849   2.214   1.110  10.684
 5552TIP3   OH240850   2.123   1.415  11.045
 5552TIP3    H140851   2.210   1.342  11.026
 5552TIP3    H240852   2.161   1.514  11.004
 5553TIP3   OH240853   1.980   1.753  11.310
 5553TIP3    H140854   1.901   1.808  11.365
 5553TIP3    H240855   1.921   1.732  11.227
 5554TIP3   OH240856   2.230   1.104  10.203
 5554TIP3    H140857   2.140   1.124  10.143
 5554TIP3    H240858   2.210   1.187  10.270
 5555TIP3   OH240859   2.108   0.689  10.109
 5555TIP3    H140860   2.046   0.786  10.097
 5555TIP3    H240861   2.040   0.617  10.058
 5556TIP3   OH240862   1.926   0.898  10.663
 5556TIP3    H140863   1.862   0.816  10.617
 5556TIP3    H240864   1.883   0.900  10.754
 5557TIP3   OH240865   0.190   1.266  11.036
 5557TIP3    H140866   0.185   1.193  10.959
 5557TIP3    H240867   0.288   1.230  11.080
 5558TIP3   OH240868   2.056   1.130  11.605
 5558TIP3    H140869   2.110   1.027  11.626
 5558TIP3    H240870   2.142   1.205  11.581
 5559TIP3   OH240871   2.146   0.846  11.713
 5559TIP3    H140872   2.039   0.802  11.692
 5559TIP3    H240873   2.210   0.748  11.705
 5560TIP3   OH240874   1.932   0.397  10.003
 5560TIP3    H140875   2.014   0.361  10.066
 5560TIP3    H240876   1.835   0.342  10.031
 5561TIP3   OH240877   1.862   0.653  10.486
 5561TIP3    H140878   1.892   0.539  10.493
 5561TIP3    H240879   1.968   0.700  10.470
 5562TIP3   OH240880   1.974   0.708  11.057
 5562TIP3    H140881   2.092   0.730  11.057
 5562TIP3    H240882   1.957   0.709  11.154
 5563TIP3   OH240883   1.985   0.805  11.317
 5563TIP3    H140884   1.876   0.836  11.341
 5563TIP3    H240885   2.033   0.904  11.279
 5564TIP3   OH240886   0.134   0.630  11.665
 5564TIP3    H140887   0.239   0.634  11.707
 5564TIP3    H240888   0.094   0.530  11.700
 5565TIP3   OH240889   2.297   0.121  11.852
 5565TIP3    H140890   2.399   0.110  11.806
 5565TIP3    H240891   2.243   0.191  11.787
 5566TIP3   OH240892   1.976   0.348  10.504
 5566TIP3    H140893   1.998   0.296  10.590
 5566TIP3    H240894   1.884   0.284  10.473
 5567TIP3   OH240895   0.167   0.409  11.017
 5567TIP3    H140896   0.217   0.305  11.004
 5567TIP3    H240897   0.262   0.476  11.021
 5568TIP3   OH240898   0.046   0.806  11.101
 5568TIP3    H140899   0.122   0.758  11.039
 5568TIP3    H240900   0.114   0.870  11.158
 5569TIP3   OH240901   2.144   0.355  11.687
 5569TIP3    H140902   2.040   0.410  11.693
 5569TIP3    H240903   2.125   0.286  11.609
 5570TIP3   OH240904   2.191   0.311  10.145
 5570TIP3    H140905   2.245   0.253  10.073
 5570TIP3    H240906   2.227   0.419  10.124
 5571TIP3   OH240907   0.168   0.352  10.503
 5571TIP3    H140908   0.055   0.350  10.473
 5571TIP3    H240909   0.218   0.427  10.441
 5572TIP3   OH240910   1.828   2.076  10.668
 5572TIP3    H140911   1.912   2.064  10.599
 5572TIP3    H240912   1.877   2.149  10.732
 5573TIP3   OH240913   0.138   0.251  11.300
 5573TIP3    H140914   0.040   0.229  11.349
 5573TIP3    H240915   0.092   0.324  11.234
 5574TIP3   OH240916   0.290   1.705  11.715
 5574TIP3    H140917   0.248   1.661  11.633
 5574TIP3    H240918   0.324   1.607  11.760
 5575TIP3   OH240919   0.690   1.913  11.350
 5575TIP3    H140920   0.682   2.017  11.305
 5575TIP3    H240921   0.806   1.896  11.345
 5576TIP3   OH240922   1.168   2.034  11.607
 5576TIP3    H140923   1.170   2.002  11.701
 5576TIP3    H240924   1.279   2.075  11.596
 5577TIP3   OH240925   1.439   2.186  11.578
 5577TIP3    H140926   1.528   2.152  11.522
 5577TIP3    H240927   1.490   2.236  11.654
 5578TIP3   OH240928   2.078   0.174  11.457
 5578TIP3    H140929   1.980   0.188  11.407
 5578TIP3    H240930   2.074   0.058  11.473
 5579TIP3   OH240931   0.386   2.262  11.339
 5579TIP3    H140932   0.288   2.304  11.296
 5579TIP3    H240933   0.343   2.236  11.426
 5580TIP3   OH240934   0.662   2.194  11.222
 5580TIP3    H140935   0.551   2.206  11.255
 5580TIP3    H240936   0.662   2.274  11.152
 5581TIP3   OH240937   1.194   2.148  11.145
 5581TIP3    H140938   1.201   2.221  11.070
 5581TIP3    H240939   1.228   2.219  11.218
 5582TIP3   OH240940   1.453   1.993  11.302
 5582TIP3    H140941   1.369   2.022  11.239
 5582TIP3    H240942   1.540   2.066  11.276
 5583TIP3   OH240943   1.760   2.184  11.261
 5583TIP3    H140944   1.771   2.288  11.220
 5583TIP3    H240945   1.804   2.118  11.187
 5584TIP3   OH240946   0.342   2.081  11.038
 5584TIP3    H140947   0.310   2.008  11.111
 5584TIP3    H240948   0.436   2.023  11.002
 5585TIP3   OH240949   0.557   1.921  10.901
 5585TIP3    H140950   0.521   1.811  10.914
 5585TIP3    H240951   0.667   1.918  10.938
 5586TIP3   OH240952   0.846   1.918  11.020
 5586TIP3    H140953   0.895   1.812  11.013
 5586TIP3    H240954   0.880   1.949  11.110
 5587TIP3   OH240955   1.271   0.302  10.884
 5587TIP3    H140956   1.200   0.209  10.887
 5587TIP3    H240957   1.349   0.266  10.818
 5588TIP3   OH240958   1.837   0.125  10.893
 5588TIP3    H140959   1.920   0.152  10.828
 5588TIP3    H240960   1.741   0.178  10.859
 5589TIP3   OH240961   2.107   0.205  10.724
 5589TIP3    H140962   2.182   0.156  10.661
 5589TIP3    H240963   2.164   0.310  10.738
 5590TIP3   OH240964   0.341   0.169  10.664
 5590TIP3    H140965   0.264   0.224  10.605
 5590TIP3    H240966   0.324   0.056  10.638
 5591TIP3   OH240967   0.187   0.133  10.280
 5591TIP3    H140968   0.280   0.186  10.239
 5591TIP3    H240969   0.134   0.227  10.317
 5592TIP3   OH240970   0.905   0.145  10.633
 5592TIP3    H140971   1.009   0.180  10.601
 5592TIP3    H240972   0.934   0.130  10.726
 5593TIP3   OH240973   1.544   0.164  10.773
 5593TIP3    H140974   1.568   0.151  10.679
 5593TIP3    H240975   1.543   0.054  10.807
 5594TIP3   OH240976   1.716   0.203  10.408
 5594TIP3    H140977   1.612   0.245  10.382
 5594TIP3    H240978   1.708   0.091  10.381
 5595TIP3   OH240979   0.245   2.034  10.294
 5595TIP3    H140980   0.136   2.029  10.326
 5595TIP3    H240981   0.253   2.149  10.275
 5596TIP3   OH240982   0.422   0.256  10.129
 5596TIP3    H140983   0.456   0.235  10.039
 5596TIP3    H240984   0.521   0.293  10.173
 5597TIP3   OH240985   0.982   0.334  10.335
 5597TIP3    H140986   1.022   0.268  10.407
 5597TIP3    H240987   1.039   0.434  10.349
 5598TIP3   OH240988   1.253   2.129  10.158
 5598TIP3    H140989   1.369   2.149  10.152
 5598TIP3    H240990   1.240   2.066  10.077
 5599TIP3   OH240991   2.044   2.036  10.487
 5599TIP3    H140992   2.032   1.930  10.446
 5599TIP3    H240993   2.029   2.107  10.409
 5600TIP3   OH240994   0.299   0.144  11.605
 5600TIP3    H140995   0.275   0.031  11.601
 5600TIP3    H240996   0.413   0.140  11.631
 5601TIP3   OH240997   0.594   0.145  11.789
 5601TIP3    H140998   0.702   0.161  11.821
 5601TIP3    H240999   0.596   0.030  11.765
 5602TIP3   OH241000   0.550   2.173  10.107
 5602TIP3    H141001   0.468   2.126  10.163
 5602TIP3    H241002   0.649   2.122  10.138
 5603TIP3   OH241003   1.541   0.053  11.808
 5603TIP3    H141004   1.510  -0.058  11.827
 5603TIP3    H241005   1.639   0.031  11.758
 5604TIP3   OH241006   1.937   1.892  11.667
 5604TIP3    H141007   1.841   1.884  11.609
 5604TIP3    H241008   1.949   2.008  11.668
 5605TIP3   OH241009   3.716   1.192  10.664
 5605TIP3    H141010   3.702   1.301  10.697
 5605TIP3    H241011   3.634   1.188  10.596
 5606TIP3   OH241012   3.566   1.058  11.016
 5606TIP3    H141013   3.564   0.989  11.096
 5606TIP3    H241014   3.499   0.994  10.956
 5607TIP3   OH241015   2.638   1.062  11.143
 5607TIP3    H141016   2.626   0.972  11.204
 5607TIP3    H241017   2.728   1.117  11.184
 5608TIP3   OH241018   3.959   1.417  10.857
 5608TIP3    H141019   3.956   1.325  10.916
 5608TIP3    H241020   3.985   1.501  10.920
 5609TIP3   OH241021   2.764   1.612  10.981
 5609TIP3    H141022   2.717   1.506  10.960
 5609TIP3    H241023   2.876   1.582  10.968
 5610TIP3   OH241024   2.360   0.769  10.581
 5610TIP3    H141025   2.300   0.866  10.591
 5610TIP3    H241026   2.298   0.722  10.509
 5611TIP3   OH241027   2.400   1.100  10.791
 5611TIP3    H141028   2.467   1.006  10.812
 5611TIP3    H241029   2.473   1.165  10.739
 5612TIP3   OH241030   3.676   2.080  10.868
 5612TIP3    H141031   3.758   2.012  10.825
 5612TIP3    H241032   3.616   1.994  10.911
 5613TIP3   OH241033   3.358   1.390  11.094
 5613TIP3    H141034   3.390   1.320  11.021
 5613TIP3    H241035   3.463   1.424  11.126
 5614TIP3   OH241036   4.393   0.352  11.090
 5614TIP3    H141037   4.404   0.439  11.157
 5614TIP3    H241038   4.481   0.382  11.030
 5615TIP3   OH241039   3.800   0.734  11.112
 5615TIP3    H141040   3.820   0.620  11.122
 5615TIP3    H241041   3.748   0.738  11.025
 5616TIP3   OH241042   2.945   0.481  10.774
 5616TIP3    H141043   2.957   0.581  10.722
 5616TIP3    H241044   2.884   0.414  10.710
 5617TIP3   OH241045   3.858   0.490  10.635
 5617TIP3    H141046   3.904   0.473  10.726
 5617TIP3    H241047   3.934   0.569  10.600
 5618TIP3   OH241048   2.528   0.811  10.893
 5618TIP3    H141049   2.618   0.768  10.942
 5618TIP3    H241050   2.531   0.751  10.811
 5619TIP3   OH241051   3.106   0.962  10.832
 5619TIP3    H141052   3.205   0.912  10.862
 5619TIP3    H241053   3.076   0.890  10.759
 5620TIP3   OH241054   4.430   0.530  11.314
 5620TIP3    H141055   4.386   0.641  11.316
 5620TIP3    H241056   4.445   0.509  11.408
 5621TIP3   OH241057   2.815   0.377  11.212
 5621TIP3    H141058   2.779   0.444  11.137
 5621TIP3    H241059   2.722   0.378  11.272
 5622TIP3   OH241060   3.632   1.494  10.557
 5622TIP3    H141061   3.618   1.496  10.460
 5622TIP3    H241062   3.599   1.602  10.582
 5623TIP3   OH241063   3.079   1.283  11.196
 5623TIP3    H141064   3.016   1.374  11.229
 5623TIP3    H241065   3.168   1.338  11.151
 5624TIP3   OH241066   4.048   0.482  10.846
 5624TIP3    H141067   4.020   0.420  10.923
 5624TIP3    H241068   4.163   0.488  10.856
 5625TIP3   OH241069   2.783   0.595  10.996
 5625TIP3    H141070   2.862   0.673  11.032
 5625TIP3    H241071   2.836   0.563  10.912
 5626TIP3   OH241072   2.918   1.530  11.295
 5626TIP3    H141073   2.908   1.627  11.243
 5626TIP3    H241074   2.812   1.528  11.339
 5627TIP3   OH241075   2.414   1.452  10.390
 5627TIP3    H141076   2.418   1.523  10.311
 5627TIP3    H241077   2.437   1.530  10.460
 5628TIP3   OH241078   4.073   1.699  11.057
 5628TIP3    H141079   3.962   1.723  11.084
 5628TIP3    H241080   4.098   1.799  11.010
 5629TIP3   OH241081   4.093   0.251  11.205
 5629TIP3    H141082   4.013   0.280  11.138
 5629TIP3    H241083   4.190   0.247  11.153
 5630TIP3   OH241084   3.259   0.118  10.898
 5630TIP3    H141085   3.270   0.012  10.942
 5630TIP3    H241086   3.193   0.174  10.965
 5631TIP3   OH241087   3.878   1.886  10.739
 5631TIP3    H141088   3.896   1.788  10.688
 5631TIP3    H241089   3.974   1.948  10.707
 5632TIP3   OH241090   3.992   1.627  10.588
 5632TIP3    H141091   3.978   1.540  10.523
 5632TIP3    H241092   3.988   1.564  10.669
 5633TIP3   OH241093   4.193   1.494  11.450
 5633TIP3    H141094   4.212   1.404  11.388
 5633TIP3    H241095   4.216   1.583  11.389
 5634TIP3   OH241096   3.541   1.111  10.419
 5634TIP3    H141097   3.487   1.210  10.393
 5634TIP3    H241098   3.637   1.108  10.362
 5635TIP3   OH241099   3.605   0.926  10.113
 5635TIP3    H141100   3.697   0.972  10.162
 5635TIP3    H241101   3.646   0.821  10.089
 5636TIP3   OH241102   4.429   1.049  11.236
 5636TIP3    H141103   4.355   1.140  11.237
 5636TIP3    H241104   4.508   1.088  11.173
 5637TIP3   OH241105   3.972   1.084  10.522
 5637TIP3    H141106   3.886   1.118  10.584
 5637TIP3    H241107   4.054   1.042  10.583
 5638TIP3   OH241108   3.928   0.869  11.423
 5638TIP3    H141109   3.931   0.980  11.450
 5638TIP3    H241110   3.852   0.874  11.350
 5639TIP3   OH241111   2.946   1.196  10.698
 5639TIP3    H141112   2.910   1.170  10.607
 5639TIP3    H241113   3.010   1.103  10.722
 5640TIP3   OH241114   3.104   1.573  10.962
 5640TIP3    H141115   3.124   1.559  10.867
 5640TIP3    H241116   3.197   1.520  11.004
 5641TIP3   OH241117   2.960   1.037  11.073
 5641TIP3    H141118   3.004   1.036  10.981
 5641TIP3    H241119   3.020   1.126  11.114
 5642TIP3   OH241120   3.772   1.728  11.139
 5642TIP3    H141121   3.740   1.792  11.215
 5642TIP3    H241122   3.750   1.619  11.172
 5643TIP3   OH241123   3.115   1.574  11.507
 5643TIP3    H141124   3.031   1.628  11.559
 5643TIP3    H241125   3.060   1.558  11.421
 5644TIP3   OH241126   3.822   1.046  10.290
 5644TIP3    H141127   3.883   1.056  10.375
 5644TIP3    H241128   3.894   1.108  10.229
 5645TIP3   OH241129   2.758   1.117  11.413
 5645TIP3    H141130   2.780   1.226  11.442
 5645TIP3    H241131   2.664   1.092  11.468
 5646TIP3   OH241132   3.544   1.832  10.565
 5646TIP3    H141133   3.581   1.879  10.647
 5646TIP3    H241134   3.490   1.920  10.519
 5647TIP3   OH241135   2.904   1.780  11.614
 5647TIP3    H141136   2.888   1.829  11.526
 5647TIP3    H241137   2.791   1.756  11.636
 5648TIP3   OH241138   4.290   0.097  10.283
 5648TIP3    H141139   4.200   0.146  10.329
 5648TIP3    H241140   4.313   0.179  10.217
 5649TIP3   OH241141   2.815   1.085  10.465
 5649TIP3    H141142   2.767   1.170  10.411
 5649TIP3    H241143   2.760   0.990  10.433
 5650TIP3   OH241144   4.408   1.780  10.112
 5650TIP3    H141145   4.441   1.890  10.133
 5650TIP3    H241146   4.504   1.716  10.132
 5651TIP3   OH241147   2.387   1.388  11.354
 5651TIP3    H141148   2.352   1.394  11.262
 5651TIP3    H241149   2.424   1.277  11.356
 5652TIP3   OH241150   2.335   1.699  11.026
 5652TIP3    H141151   2.449   1.681  11.020
 5652TIP3    H241152   2.332   1.802  11.071
 5653TIP3   OH241153   4.470   1.798  11.608
 5653TIP3    H141154   4.465   1.681  11.594
 5653TIP3    H241155   4.363   1.819  11.645
 5654TIP3   OH241156   3.412   1.711  11.496
 5654TIP3    H141157   3.421   1.810  11.549
 5654TIP3    H241158   3.298   1.682  11.500
 5655TIP3   OH241159   3.481   2.166  10.441
 5655TIP3    H141160   3.493   2.192  10.346
 5655TIP3    H241161   3.485   2.273  10.483
 5656TIP3   OH241162   2.730   2.012  10.655
 5656TIP3    H141163   2.764   1.978  10.745
 5656TIP3    H241164   2.621   1.970  10.652
 5657TIP3   OH241165   3.815   2.137  10.186
 5657TIP3    H141166   3.871   2.045  10.146
 5657TIP3    H241167   3.859   2.141  10.275
 5658TIP3   OH241168   3.797   2.076  10.470
 5658TIP3    H141169   3.682   2.092  10.482
 5658TIP3    H241170   3.808   1.961  10.486
 5659TIP3   OH241171   4.127   0.733  11.634
 5659TIP3    H141172   4.066   0.778  11.560
 5659TIP3    H241173   4.141   0.623  11.605
 5660TIP3   OH241174   2.648   1.534  11.435
 5660TIP3    H141175   2.644   1.492  11.527
 5660TIP3    H241176   2.543   1.501  11.401
 5661TIP3   OH241177   3.000   0.236  11.032
 5661TIP3    H141178   2.911   0.269  10.974
 5661TIP3    H241179   2.972   0.299  11.112
 5662TIP3   OH241180   3.437   0.202  11.423
 5662TIP3    H141181   3.502   0.104  11.423
 5662TIP3    H241182   3.354   0.166  11.361
 5663TIP3   OH241183   3.886   0.541  11.421
 5663TIP3    H141184   3.820   0.522  11.502
 5663TIP3    H241185   3.919   0.652  11.435
 5664TIP3   OH241186   4.019   1.175  10.117
 5664TIP3    H141187   3.966   1.189  10.029
 5664TIP3    H241188   4.128   1.204  10.089
 5665TIP3   OH241189   3.436   0.422  10.107
 5665TIP3    H141190   3.398   0.366  10.186
 5665TIP3    H241191   3.388   0.362  10.035
 5666TIP3   OH241192   2.977   0.749  11.167
 5666TIP3    H141193   2.880   0.738  11.221
 5666TIP3    H241194   2.971   0.864  11.144
 5667TIP3   OH241195   2.968   0.760  10.643
 5667TIP3    H141196   2.851   0.746  10.633
 5667TIP3    H241197   3.008   0.743  10.551
 5668TIP3   OH241198   3.667   0.822  10.530
 5668TIP3    H141199   3.610   0.918  10.498
 5668TIP3    H241200   3.725   0.793  10.449
 5669TIP3   OH241201   3.492   0.866  11.652
 5669TIP3    H141202   3.444   0.764  11.681
 5669TIP3    H241203   3.589   0.864  11.706
 5670TIP3   OH241204   3.752   0.737  10.829
 5670TIP3    H141205   3.761   0.832  10.772
 5670TIP3    H241206   3.758   0.654  10.760
 5671TIP3   OH241207   2.650   0.755  11.292
 5671TIP3    H141208   2.716   0.804  11.361
 5671TIP3    H241209   2.628   0.649  11.329
 5672TIP3   OH241210   3.042   0.481  10.014
 5672TIP3    H141211   3.005   0.476  10.106
 5672TIP3    H241212   2.950   0.524   9.967
 5673TIP3   OH241213   2.302   0.467  10.728
 5673TIP3    H141214   2.386   0.458  10.795
 5673TIP3    H241215   2.346   0.408  10.653
 5674TIP3   OH241216   2.414   0.517  10.306
 5674TIP3    H141217   2.476   0.563  10.232
 5674TIP3    H241218   2.346   0.607  10.327
 5675TIP3   OH241219   3.617   0.926  11.257
 5675TIP3    H141220   3.692   0.854  11.211
 5675TIP3    H241221   3.557   0.852  11.316
 5676TIP3   OH241222   3.292   0.466  10.754
 5676TIP3    H141223   3.180   0.428  10.763
 5676TIP3    H241224   3.335   0.427  10.839
 5677TIP3   OH241225   2.652   0.662  10.638
 5677TIP3    H141226   2.543   0.689  10.609
 5677TIP3    H241227   2.671   0.558  10.596
 5678TIP3   OH241228   3.091   0.694  10.404
 5678TIP3    H141229   3.208   0.692  10.403
 5678TIP3    H241230   3.056   0.751  10.323
 5679TIP3   OH241231   3.821   0.344  11.058
 5679TIP3    H141232   3.745   0.362  11.132
 5679TIP3    H241233   3.746   0.304  10.992
 5680TIP3   OH241234   2.939   0.835  10.186
 5680TIP3    H141235   2.875   0.760  10.138
 5680TIP3    H241236   3.020   0.863  10.120
 5681TIP3   OH241237   4.166   2.260  11.723
 5681TIP3    H141238   4.208   2.322  11.649
 5681TIP3    H241239   4.258   2.262  11.784
 5682TIP3   OH241240   2.686   1.354  11.669
 5682TIP3    H141241   2.784   1.366  11.721
 5682TIP3    H241242   2.606   1.320  11.734
 5683TIP3   OH241243   3.424   0.804  10.920
 5683TIP3    H141244   3.503   0.755  10.861
 5683TIP3    H241245   3.404   0.718  10.981
 5684TIP3   OH241246   2.778   0.352  10.576
 5684TIP3    H141247   2.710   0.270  10.618
 5684TIP3    H241248   2.844   0.284  10.520
 5685TIP3   OH241249   3.251   0.583  11.175
 5685TIP3    H141250   3.161   0.661  11.176
 5685TIP3    H241251   3.336   0.644  11.216
 5686TIP3   OH241252   3.330   1.364  10.371
 5686TIP3    H141253   3.245   1.291  10.342
 5686TIP3    H241254   3.292   1.388  10.462
 5687TIP3   OH241255   4.224   1.296  11.246
 5687TIP3    H141256   4.274   1.366  11.177
 5687TIP3    H241257   4.118   1.279  11.204
 5688TIP3   OH241258   3.728   0.463  10.205
 5688TIP3    H141259   3.623   0.498  10.173
 5688TIP3    H241260   3.787   0.566  10.216
 5689TIP3   OH241261   3.450   1.387  11.460
 5689TIP3    H141262   3.455   1.338  11.546
 5689TIP3    H241263   3.438   1.501  11.482
 5690TIP3   OH241264   3.888   0.710  10.304
 5690TIP3    H141265   3.968   0.694  10.374
 5690TIP3    H241266   3.922   0.814  10.270
 5691TIP3   OH241267   2.743   1.304  10.910
 5691TIP3    H141268   2.814   1.278  10.835
 5691TIP3    H241269   2.756   1.212  10.968
 5692TIP3   OH241270   3.598   1.522  10.276
 5692TIP3    H141271   3.546   1.627  10.284
 5692TIP3    H241272   3.505   1.450  10.285
 5693TIP3   OH241273   2.398   1.054  11.447
 5693TIP3    H141274   2.386   0.998  11.532
 5693TIP3    H241275   2.322   0.997  11.389
 5694TIP3   OH241276   3.203   1.030  11.658
 5694TIP3    H141277   3.144   0.971  11.590
 5694TIP3    H241278   3.312   0.984  11.649
 5695TIP3   OH241279   3.803   1.674  11.492
 5695TIP3    H141280   3.696   1.673  11.456
 5695TIP3    H241281   3.784   1.723  11.580
 5696TIP3   OH241282   4.463   0.760  10.331
 5696TIP3    H141283   4.384   0.730  10.262
 5696TIP3    H241284   4.471   0.874  10.310
 5697TIP3   OH241285   4.482   1.463  11.590
 5697TIP3    H141286   4.372   1.468  11.557
 5697TIP3    H241287   4.542   1.441  11.508
 5698TIP3   OH241288   4.274   1.740  10.359
 5698TIP3    H141289   4.176   1.679  10.365
 5698TIP3    H241290   4.295   1.745  10.263
 5699TIP3   OH241291   3.929   1.181  11.048
 5699TIP3    H141292   3.816   1.164  11.026
 5699TIP3    H241293   3.977   1.091  11.003
 5700TIP3   OH241294   3.013   1.696  10.680
 5700TIP3    H141295   3.044   1.805  10.654
 5700TIP3    H241296   2.905   1.694  10.646
 5701TIP3   OH241297   2.538   1.081  10.085
 5701TIP3    H141298   2.610   1.142  10.143
 5701TIP3    H241299   2.440   1.086  10.137
 5702TIP3   OH241300   3.191   1.405  10.620
 5702TIP3    H141301   3.128   1.504  10.629
 5702TIP3    H241302   3.130   1.328  10.673
 5703TIP3   OH241303   3.260   1.900  11.292
 5703TIP3    H141304   3.329   1.982  11.252
 5703TIP3    H241305   3.334   1.853  11.357
 5704TIP3   OH241306   3.055   1.993  10.571
 5704TIP3    H141307   2.942   2.015  10.589
 5704TIP3    H241308   3.103   2.096  10.600
 5705TIP3   OH241309   3.636   1.423  11.226
 5705TIP3    H141310   3.566   1.391  11.301
 5705TIP3    H241311   3.688   1.321  11.205
 5706TIP3   OH241312   3.959   1.558  10.127
 5706TIP3    H141313   3.974   1.498  10.211
 5706TIP3    H241314   3.844   1.544  10.124
 5707TIP3   OH241315   4.007   1.975  11.469
 5707TIP3    H141316   3.908   1.914  11.449
 5707TIP3    H241317   4.020   2.045  11.390
 5708TIP3   OH241318   4.500   2.074  10.173
 5708TIP3    H141319   4.570   2.154  10.133
 5708TIP3    H241320   4.416   2.144  10.211
 5709TIP3   OH241321   2.581   0.416  11.393
 5709TIP3    H141322   2.476   0.461  11.380
 5709TIP3    H241323   2.557   0.306  11.417
 5710TIP3   OH241324   4.048   1.392  10.347
 5710TIP3    H141325   4.036   1.276  10.350
 5710TIP3    H241326   4.165   1.398  10.341
 5711TIP3   OH241327   2.550   1.862  11.254
 5711TIP3    H141328   2.611   1.765  11.256
 5711TIP3    H241329   2.600   1.922  11.325
 5712TIP3   OH241330   3.078   1.619  10.242
 5712TIP3    H141331   3.179   1.577  10.276
 5712TIP3    H241332   3.088   1.734  10.266
 5713TIP3   OH241333   2.671   1.292  10.273
 5713TIP3    H141334   2.581   1.343  10.321
 5713TIP3    H241335   2.728   1.386  10.236
 5714TIP3   OH241336   3.637   0.420  11.278
 5714TIP3    H141337   3.736   0.446  11.329
 5714TIP3    H241338   3.577   0.352  11.341
 5715TIP3   OH241339   3.710   0.326  10.447
 5715TIP3    H141340   3.715   0.400  10.370
 5715TIP3    H241341   3.776   0.383  10.514
 5716TIP3   OH241342   3.446   1.816  10.263
 5716TIP3    H141343   3.344   1.835  10.306
 5716TIP3    H241344   3.481   1.926  10.243
 5717TIP3   OH241345   3.412   0.601  10.494
 5717TIP3    H141346   3.514   0.656  10.508
 5717TIP3    H241347   3.377   0.582  10.587
 5718TIP3   OH241348   3.462   0.713  11.410
 5718TIP3    H141349   3.484   0.761  11.498
 5718TIP3    H241350   3.516   0.608  11.410
 5719TIP3   OH241351   3.460   0.223  10.578
 5719TIP3    H141352   3.431   0.308  10.640
 5719TIP3    H241353   3.557   0.268  10.535
 5720TIP3   OH241354   3.122   1.928  10.303
 5720TIP3    H141355   3.149   2.032  10.260
 5720TIP3    H241356   3.097   1.964  10.394
 5721TIP3   OH241357   2.963   0.446  10.271
 5721TIP3    H141358   2.978   0.522  10.345
 5721TIP3    H241359   3.060   0.383  10.284
 5722TIP3   OH241360   4.180   0.450  11.489
 5722TIP3    H141361   4.063   0.442  11.477
 5722TIP3    H241362   4.216   0.445  11.396
 5723TIP3   OH241363   4.022   0.890  10.909
 5723TIP3    H141364   3.943   0.805  10.925
 5723TIP3    H241365   4.115   0.840  10.955
 5724TIP3   OH241366   2.767   1.578  10.175
 5724TIP3    H141367   2.876   1.602  10.205
 5724TIP3    H241368   2.786   1.567  10.079
 5725TIP3   OH241369   2.540   0.749  10.124
 5725TIP3    H141370   2.566   0.863  10.118
 5725TIP3    H241371   2.454   0.738  10.058
 5726TIP3   OH241372   4.158   2.035  11.065
 5726TIP3    H141373   4.156   2.117  10.993
 5726TIP3    H241374   4.273   2.018  11.068
 5727TIP3   OH241375   2.636   0.187  10.934
 5727TIP3    H141376   2.610   0.176  10.838
 5727TIP3    H241377   2.626   0.072  10.956
 5728TIP3   OH241378   2.479   1.764  10.566
 5728TIP3    H141379   2.386   1.834  10.565
 5728TIP3    H241380   2.530   1.804  10.485
 5729TIP3   OH241381   2.413   2.099  11.694
 5729TIP3    H141382   2.504   2.082  11.754
 5729TIP3    H241383   2.378   1.988  11.677
 5730TIP3   OH241384   3.011   1.970  11.845
 5730TIP3    H141385   3.106   1.922  11.885
 5730TIP3    H241386   2.996   1.907  11.765
 5731TIP3   OH241387   3.475   1.868   9.970
 5731TIP3    H141388   3.403   1.788  10.007
 5731TIP3    H241389   3.574   1.840  10.014
 5732TIP3   OH241390   3.745   1.789  11.737
 5732TIP3    H141391   3.700   1.685  11.768
 5732TIP3    H241392   3.833   1.799  11.799
 5733TIP3   OH241393   3.942   1.866  10.073
 5733TIP3    H141394   3.978   1.756  10.090
 5733TIP3    H241395   4.022   1.912  10.013
 5734TIP3   OH241396   2.383   1.355  11.798
 5734TIP3    H141397   2.372   1.240  11.783
 5734TIP3    H241398   2.339   1.400  11.715
 5735TIP3   OH241399   3.010   1.303  10.055
 5735TIP3    H141400   3.007   1.295  10.153
 5735TIP3    H241401   3.097   1.379  10.049
 5736TIP3   OH241402   3.204   1.349  11.696
 5736TIP3    H141403   3.188   1.405  11.611
 5736TIP3    H241404   3.190   1.235  11.675
 5737TIP3   OH241405   3.908   1.314  11.474
 5737TIP3    H141406   4.000   1.387  11.484
 5737TIP3    H241407   3.823   1.394  11.470
 5738TIP3   OH241408   2.533   1.007  11.734
 5738TIP3    H141409   2.626   0.938  11.730
 5738TIP3    H241410   2.552   1.069  11.815
 5739TIP3   OH241411   3.102   1.153  10.276
 5739TIP3    H141412   3.007   1.099  10.311
 5739TIP3    H241413   3.138   1.080  10.206
 5740TIP3   OH241414   2.964   0.883  11.411
 5740TIP3    H141415   2.887   0.971  11.421
 5740TIP3    H241416   3.056   0.941  11.375
 5741TIP3   OH241417   3.246   0.947  10.079
 5741TIP3    H141418   3.281   0.941   9.987
 5741TIP3    H241419   3.350   0.946  10.124
 5742TIP3   OH241420   3.642   1.225  11.803
 5742TIP3    H141421   3.727   1.181  11.748
 5742TIP3    H241422   3.601   1.130  11.848
 5743TIP3   OH241423   4.297   1.200  19.990
 5743TIP3    H141424   4.386   1.150  19.942
 5743TIP3    H241425   4.339   1.308  19.989
 5744TIP3   OH241426   3.067   0.620  11.550
 5744TIP3    H141427   3.101   0.544  11.481
 5744TIP3    H241428   3.074   0.720  11.498
 5745TIP3   OH241429   3.096   0.403  11.352
 5745TIP3    H141430   3.161   0.446  11.278
 5745TIP3    H241431   2.987   0.414  11.316
 5746TIP3   OH241432   3.242   1.060  11.344
 5746TIP3    H141433   3.354   1.072  11.320
 5746TIP3    H241434   3.192   1.148  11.296
 5747TIP3   OH241435   3.794   0.767  11.828
 5747TIP3    H141436   3.833   0.656  11.827
 5747TIP3    H241437   3.893   0.824  11.849
 5748TIP3   OH241438   3.978   1.108  11.683
 5748TIP3    H141439   3.970   1.181  11.607
 5748TIP3    H241440   4.090   1.073  11.674
 5749TIP3   OH241441   2.850   0.706  11.749
 5749TIP3    H141442   2.749   0.643  11.740
 5749TIP3    H241443   2.910   0.665  11.671
 5750TIP3   OH241444   3.160   0.096  11.312
 5750TIP3    H141445   3.140   0.210  11.334
 5750TIP3    H241446   3.050   0.060  11.300
 5751TIP3   OH241447   3.343   0.587  11.735
 5751TIP3    H141448   3.262   0.554  11.800
 5751TIP3    H241449   3.283   0.572  11.653
 5752TIP3   OH241450   3.721   0.475  11.642
 5752TIP3    H141451   3.614   0.444  11.672
 5752TIP3    H241452   3.790   0.407  11.699
 5753TIP3   OH241453   3.910   0.341  11.831
 5753TIP3    H141454   3.924   0.228  11.859
 5753TIP3    H241455   3.853   0.385  11.909
 5754TIP3   OH241456   2.604   0.493  11.779
 5754TIP3    H141457   2.616   0.400  11.722
 5754TIP3    H241458   2.618   0.448  11.870
 5755TIP3   OH241459   3.156   0.078  11.608
 5755TIP3    H141460   3.127  -0.035  11.601
 5755TIP3    H241461   3.226   0.096  11.531
 5756TIP3   OH241462   3.222   0.130  11.885
 5756TIP3    H141463   3.232   0.088  11.794
 5756TIP3    H241464   3.217   0.244  11.870
 5757TIP3   OH241465   3.166   2.214  10.187
 5757TIP3    H141466   3.282   2.209  10.184
 5757TIP3    H241467   3.139   2.238  10.095
 5758TIP3   OH241468   2.440   1.602  10.145
 5758TIP3    H141469   2.557   1.590  10.148
 5758TIP3    H241470   2.410   1.541  10.067
 5759TIP3   OH241471   2.284   2.185  10.609
 5759TIP3    H141472   2.188   2.126  10.575
 5759TIP3    H241473   2.317   2.114  10.682
 5760TIP3   OH241474   2.396   1.979  10.800
 5760TIP3    H141475   2.326   1.892  10.829
 5760TIP3    H241476   2.459   2.000  10.881
 5761TIP3   OH241477   4.498   2.081  11.054
 5761TIP3    H141478   4.514   2.084  11.150
 5761TIP3    H241479   4.554   2.177  11.026
 5762TIP3   OH241480   4.412   2.028  11.363
 5762TIP3    H141481   4.369   1.933  11.316
 5762TIP3    H241482   4.456   1.978  11.443
 5763TIP3   OH241483   4.270   1.538  11.871
 5763TIP3    H141484   4.160   1.532  11.909
 5763TIP3    H241485   4.278   1.648  11.843
 5764TIP3   OH241486   4.366   1.343  10.360
 5764TIP3    H141487   4.465   1.397  10.388
 5764TIP3    H241488   4.340   1.285  10.442
 5765TIP3   OH241489   4.429   1.114  10.609
 5765TIP3    H141490   4.336   1.046  10.634
 5765TIP3    H241491   4.484   1.126  10.694
 5766TIP3   OH241492   4.400   1.416  11.047
 5766TIP3    H141493   4.481   1.330  11.041
 5766TIP3    H241494   4.457   1.506  11.006
 5767TIP3   OH241495   4.242   1.758  11.298
 5767TIP3    H141496   4.164   1.811  11.354
 5767TIP3    H241497   4.180   1.735  11.216
 5768TIP3   OH241498   4.492   1.080  10.200
 5768TIP3    H141499   4.394   1.090  10.146
 5768TIP3    H241500   4.481   1.177  10.254
 5769TIP3   OH241501   4.230   0.744  10.143
 5769TIP3    H141502   4.206   0.830  10.082
 5769TIP3    H241503   4.259   0.661  10.079
 5770TIP3   OH241504   4.193   0.916  10.666
 5770TIP3    H141505   4.162   0.809  10.637
 5770TIP3    H241506   4.153   0.919  10.758
 5771TIP3   OH241507   2.374   1.183  11.055
 5771TIP3    H141508   2.363   1.145  10.962
 5771TIP3    H241509   2.482   1.140  11.073
 5772TIP3   OH241510   4.321   1.147  11.612
 5772TIP3    H141511   4.369   1.043  11.638
 5772TIP3    H241512   4.418   1.202  11.582
 5773TIP3   OH241513   4.417   0.860  11.697
 5773TIP3    H141514   4.325   0.798  11.666
 5773TIP3    H241515   4.511   0.794  11.671
 5774TIP3   OH241516   4.192   0.434   9.992
 5774TIP3    H141517   4.277   0.385  10.044
 5774TIP3    H241518   4.100   0.367  10.013
 5775TIP3   OH241519   4.130   0.653  10.492
 5775TIP3    H141520   4.162   0.540  10.509
 5775TIP3    H241521   4.230   0.694  10.458
 5776TIP3   OH241522   4.230   0.712  11.045
 5776TIP3    H141523   4.345   0.742  11.050
 5776TIP3    H241524   4.210   0.670  11.133
 5777TIP3   OH241525   4.252   0.798  11.317
 5777TIP3    H141526   4.138   0.823  11.314
 5777TIP3    H241527   4.302   0.896  11.279
 5778TIP3   OH241528   2.345   0.611  11.638
 5778TIP3    H141529   2.447   0.594  11.685
 5778TIP3    H241530   2.286   0.512  11.661
 5779TIP3   OH241531   4.562   0.073  11.852
 5779TIP3    H141532   4.652   0.076  11.789
 5779TIP3    H241533   4.507   0.167  11.816
 5780TIP3   OH241534   4.232   0.354  10.515
 5780TIP3    H141535   4.265   0.289  10.593
 5780TIP3    H241536   4.148   0.284  10.476
 5781TIP3   OH241537   2.470   0.456  10.971
 5781TIP3    H141538   2.514   0.348  10.978
 5781TIP3    H241539   2.566   0.518  10.988
 5782TIP3   OH241540   2.286   0.780  11.059
 5782TIP3    H141541   2.358   0.739  10.990
 5782TIP3    H241542   2.358   0.857  11.098
 5783TIP3   OH241543   4.428   0.361  11.678
 5783TIP3    H141544   4.321   0.412  11.689
 5783TIP3    H241545   4.397   0.282  11.610
 5784TIP3   OH241546   4.457   0.329  10.139
 5784TIP3    H141547   4.510   0.270  10.068
 5784TIP3    H241548   4.535   0.415  10.153
 5785TIP3   OH241549   2.322   0.274  10.511
 5785TIP3    H141550   2.212   0.292  10.486
 5785TIP3    H241551   2.374   0.337  10.441
 5786TIP3   OH241552   4.105   2.086  10.676
 5786TIP3    H141553   4.183   2.078  10.602
 5786TIP3    H241554   4.153   2.164  10.736
 5787TIP3   OH241555   2.334   0.197  11.277
 5787TIP3    H141556   2.251   0.206  11.345
 5787TIP3    H241557   2.294   0.277  11.213
 5788TIP3   OH241558   2.591   1.724  11.689
 5788TIP3    H141559   2.488   1.758  11.655
 5788TIP3    H241560   2.563   1.676  11.773
 5789TIP3   OH241561   2.936   1.895  11.356
 5789TIP3    H141562   2.939   2.005  11.321
 5789TIP3    H241563   3.052   1.872  11.353
 5790TIP3   OH241564   3.430   2.030  11.599
 5790TIP3    H141565   3.418   2.005  11.694
 5790TIP3    H241566   3.544   2.048  11.591
 5791TIP3   OH241567   3.733   2.251  11.551
 5791TIP3    H141568   3.798   2.167  11.513
 5791TIP3    H241569   3.766   2.250  11.645
 5792TIP3   OH241570   4.348   0.173  11.456
 5792TIP3    H141571   4.247   0.208  11.419
 5792TIP3    H241572   4.328   0.058  11.457
 5793TIP3   OH241573   2.630   2.256  11.320
 5793TIP3    H141574   2.540   2.326  11.291
 5793TIP3    H241575   2.608   2.248  11.414
 5794TIP3   OH241576   2.912   2.186  11.227
 5794TIP3    H141577   2.804   2.209  11.262
 5794TIP3    H241578   2.908   2.252  11.146
 5795TIP3   OH241579   3.454   2.131  11.162
 5795TIP3    H141580   3.397   2.186  11.092
 5795TIP3    H241581   3.492   2.221  11.217
 5796TIP3   OH241582   3.720   2.008  11.306
 5796TIP3    H141583   3.647   2.039  11.234
 5796TIP3    H241584   3.816   2.064  11.275
 5797TIP3   OH241585   4.021   2.194  11.265
 5797TIP3    H141586   4.044   2.298  11.227
 5797TIP3    H241587   4.074   2.128  11.196
 5798TIP3   OH241588   2.578   2.053  11.021
 5798TIP3    H141589   2.551   1.980  11.093
 5798TIP3    H241590   2.681   2.009  10.990
 5799TIP3   OH241591   2.828   1.926  10.897
 5799TIP3    H141592   2.814   1.813  10.924
 5799TIP3    H241593   2.935   1.946  10.936
 5800TIP3   OH241594   3.109   1.930  11.017
 5800TIP3    H141595   3.145   1.820  11.003
 5800TIP3    H241596   3.124   1.940  11.113
 5801TIP3   OH241597   3.527   0.319  10.900
 5801TIP3    H141598   3.466   0.218  10.908
 5801TIP3    H241599   3.594   0.295  10.823
 5802TIP3   OH241600   4.114   0.118  10.895
 5802TIP3    H141601   4.193   0.148  10.828
 5802TIP3    H241602   4.013   0.152  10.853
 5803TIP3   OH241603   4.380   0.211  10.724
 5803TIP3    H141604   4.451   0.156  10.660
 5803TIP3    H241605   4.442   0.311  10.738
 5804TIP3   OH241606   2.582   0.146  10.676
 5804TIP3    H141607   2.512   0.168  10.599
 5804TIP3    H241608   2.594   0.029  10.670
 5805TIP3   OH241609   2.508   0.139  10.318
 5805TIP3    H141610   2.546   0.184  10.233
 5805TIP3    H241611   2.398   0.176  10.315
 5806TIP3   OH241612   3.163   0.127  10.643
 5806TIP3    H141613   3.263   0.170  10.605
 5806TIP3    H241614   3.192   0.134  10.738
 5807TIP3   OH241615   3.810   0.166  10.777
 5807TIP3    H141616   3.835   0.151  10.683
 5807TIP3    H241617   3.796   0.055  10.808
 5808TIP3   OH241618   4.001   0.204  10.389
 5808TIP3    H141619   3.890   0.244  10.378
 5808TIP3    H241620   3.986   0.091  10.368
 5809TIP3   OH241621   2.460   1.978  10.356
 5809TIP3    H141622   2.353   1.978  10.315
 5809TIP3    H241623   2.490   2.088  10.339
 5810TIP3   OH241624   2.670   0.236  10.094
 5810TIP3    H141625   2.747   0.160  10.061
 5810TIP3    H241626   2.740   0.301  10.149
 5811TIP3   OH241627   3.265   0.355  10.343
 5811TIP3    H141628   3.318   0.277  10.400
 5811TIP3    H241629   3.299   0.454  10.389
 5812TIP3   OH241630   3.504   2.120  10.158
 5812TIP3    H141631   3.622   2.144  10.160
 5812TIP3    H241632   3.500   2.068  10.071
 5813TIP3   OH241633   4.303   2.027  10.481
 5813TIP3    H141634   4.292   1.920  10.438
 5813TIP3    H241635   4.280   2.099  10.407
 5814TIP3   OH241636   2.531   0.127  11.674
 5814TIP3    H141637   2.520   0.024  11.631
 5814TIP3    H241638   2.644   0.121  11.701
 5815TIP3   OH241639   2.830   0.119  11.773
 5815TIP3    H141640   2.934   0.155  11.741
 5815TIP3    H241641   2.836   0.006  11.742
 5816TIP3   OH241642   2.706   2.128  10.110
 5816TIP3    H141643   2.630   2.152  10.181
 5816TIP3    H241644   2.755   2.029  10.140
 5817TIP3   OH241645   3.923   0.034  11.868
 5817TIP3    H141646   3.851  -0.056  11.886
 5817TIP3    H241647   3.998  -0.023  11.808
 5818TIP3   OH241648   4.194   1.926  11.679
 5818TIP3    H141649   4.112   1.919  11.606
 5818TIP3    H241650   4.196   2.042  11.688
 5819TIP3   OH241651   5.974   1.192  10.670
 5819TIP3    H141652   5.971   1.304  10.695
 5819TIP3    H241653   5.903   1.195  10.593
 5820TIP3   OH241654   5.832   1.048  11.015
 5820TIP3    H141655   5.808   0.983  11.095
 5820TIP3    H241656   5.764   0.994  10.948
 5821TIP3   OH241657   4.886   1.046  11.109
 5821TIP3    H141658   4.890   0.952  11.165
 5821TIP3    H241659   4.937   1.123  11.170
 5822TIP3   OH241660   6.226   1.418  10.862
 5822TIP3    H141661   6.209   1.327  10.922
 5822TIP3    H241662   6.247   1.502  10.926
 5823TIP3   OH241663   5.034   1.608  10.993
 5823TIP3    H141664   4.993   1.499  10.975
 5823TIP3    H241665   5.147   1.585  10.975
 5824TIP3   OH241666   4.610   0.792  10.572
 5824TIP3    H141667   4.574   0.895  10.603
 5824TIP3    H241668   4.558   0.785  10.485
 5825TIP3   OH241669   4.666   1.092  10.809
 5825TIP3    H141670   4.723   0.992  10.832
 5825TIP3    H241671   4.741   1.150  10.753
 5826TIP3   OH241672   5.956   2.086  10.878
 5826TIP3    H141673   6.035   2.018  10.830
 5826TIP3    H241674   5.893   1.999  10.918
 5827TIP3   OH241675   5.633   1.399  11.076
 5827TIP3    H141676   5.671   1.313  11.020
 5827TIP3    H241677   5.732   1.422  11.126
 5828TIP3   OH241678   6.662   0.335  11.101
 5828TIP3    H141679   6.665   0.433  11.155
 5828TIP3    H241680   6.740   0.362  11.031
 5829TIP3   OH241681   6.066   0.732  11.119
 5829TIP3    H141682   6.084   0.618  11.135
 5829TIP3    H241683   6.007   0.732  11.035
 5830TIP3   OH241684   5.198   0.480  10.772
 5830TIP3    H141685   5.219   0.574  10.716
 5830TIP3    H241686   5.146   0.408  10.707
 5831TIP3   OH241687   6.116   0.490  10.633
 5831TIP3    H141688   6.167   0.468  10.720
 5831TIP3    H241689   6.193   0.566  10.599
 5832TIP3   OH241690   4.786   0.787  10.885
 5832TIP3    H141691   4.874   0.744  10.937
 5832TIP3    H241692   4.802   0.738  10.798
 5833TIP3   OH241693   5.375   0.973  10.831
 5833TIP3    H141694   5.472   0.914  10.857
 5833TIP3    H241695   5.338   0.904  10.759
 5834TIP3   OH241696   6.700   0.538  11.322
 5834TIP3    H141697   6.643   0.640  11.307
 5834TIP3    H241698   6.686   0.524  11.418
 5835TIP3   OH241699   5.065   0.364  11.207
 5835TIP3    H141700   5.028   0.438  11.136
 5835TIP3    H241701   4.981   0.374  11.274
 5836TIP3   OH241702   5.904   1.492  10.557
 5836TIP3    H141703   5.884   1.493  10.460
 5836TIP3    H241704   5.885   1.604  10.578
 5837TIP3   OH241705   5.352   1.270  11.194
 5837TIP3    H141706   5.279   1.352  11.229
 5837TIP3    H241707   5.430   1.336  11.144
 5838TIP3   OH241708   6.322   0.497  10.830
 5838TIP3    H141709   6.288   0.444  10.913
 5838TIP3    H241710   6.433   0.516  10.850
 5839TIP3   OH241711   5.041   0.598  11.002
 5839TIP3    H141712   5.108   0.688  11.035
 5839TIP3    H241713   5.101   0.564  10.922
 5840TIP3   OH241714   5.192   1.525  11.294
 5840TIP3    H141715   5.168   1.631  11.259
 5840TIP3    H241716   5.093   1.501  11.341
 5841TIP3   OH241717   4.679   1.454  10.384
 5841TIP3    H141718   4.681   1.523  10.303
 5841TIP3    H241719   4.693   1.532  10.455
 5842TIP3   OH241720   6.330   1.675  11.061
 5842TIP3    H141721   6.222   1.705  11.087
 5842TIP3    H241722   6.362   1.776  11.019
 5843TIP3   OH241723   6.367   0.242  11.203
 5843TIP3    H141724   6.287   0.268  11.135
 5843TIP3    H241725   6.466   0.254  11.149
 5844TIP3   OH241726   5.543   0.102  10.902
 5844TIP3    H141727   5.543  -0.004  10.946
 5844TIP3    H241728   5.474   0.162  10.965
 5845TIP3   OH241729   6.146   1.879  10.749
 5845TIP3    H141730   6.158   1.784  10.694
 5845TIP3    H241731   6.236   1.944  10.713
 5846TIP3   OH241732   6.265   1.622  10.588
 5846TIP3    H141733   6.245   1.537  10.522
 5846TIP3    H241734   6.250   1.564  10.671
 5847TIP3   OH241735   6.457   1.478  11.442
 5847TIP3    H141736   6.481   1.397  11.373
 5847TIP3    H241737   6.470   1.574  11.388
 5848TIP3   OH241738   5.812   1.123  10.416
 5848TIP3    H141739   5.754   1.220  10.389
 5848TIP3    H241740   5.899   1.117  10.350
 5849TIP3   OH241741   5.869   0.923  10.116
 5849TIP3    H141742   5.964   0.965  10.163
 5849TIP3    H241743   5.912   0.820  10.085
 5850TIP3   OH241744   6.702   1.046  11.229
 5850TIP3    H141745   6.628   1.136  11.239
 5850TIP3    H241746   6.773   1.091  11.160
 5851TIP3   OH241747   6.234   1.087  10.524
 5851TIP3    H141748   6.146   1.116  10.586
 5851TIP3    H241749   6.314   1.043  10.586
 5852TIP3   OH241750   6.227   0.884  11.437
 5852TIP3    H141751   6.216   0.997  11.461
 5852TIP3    H241752   6.151   0.881  11.363
 5853TIP3   OH241753   5.185   1.201  10.704
 5853TIP3    H141754   5.144   1.169  10.616
 5853TIP3    H241755   5.263   1.117  10.723
 5854TIP3   OH241756   5.375   1.586  10.958
 5854TIP3    H141757   5.389   1.555  10.866
 5854TIP3    H241758   5.467   1.536  11.002
 5855TIP3   OH241759   5.227   1.021  11.072
 5855TIP3    H141760   5.275   1.031  10.982
 5855TIP3    H241761   5.279   1.111  11.119
 5856TIP3   OH241762   6.026   1.723  11.144
 5856TIP3    H141763   6.014   1.780  11.229
 5856TIP3    H241764   6.006   1.613  11.174
 5857TIP3   OH241765   5.364   1.565  11.526
 5857TIP3    H141766   5.276   1.628  11.566
 5857TIP3    H241767   5.323   1.552  11.434
 5858TIP3   OH241768   6.094   1.034  10.286
 5858TIP3    H141769   6.146   1.051  10.374
 5858TIP3    H241770   6.164   1.100  10.229
 5859TIP3   OH241771   4.968   1.166  11.358
 5859TIP3    H141772   5.017   1.241  11.420
 5859TIP3    H241773   4.943   1.079  11.421
 5860TIP3   OH241774   5.801   1.823  10.564
 5860TIP3    H141775   5.809   1.859  10.655
 5860TIP3    H241776   5.743   1.909  10.519
 5861TIP3   OH241777   5.152   1.771  11.609
 5861TIP3    H141778   5.144   1.813  11.517
 5861TIP3    H241779   5.040   1.769  11.636
 5862TIP3   OH241780   6.551   0.098  10.275
 5862TIP3    H141781   6.464   0.155  10.322
 5862TIP3    H241782   6.580   0.178  10.208
 5863TIP3   OH241783   5.078   1.082  10.470
 5863TIP3    H141784   5.024   1.164  10.417
 5863TIP3    H241785   5.029   0.984  10.440
 5864TIP3   OH241786   6.668   1.780  10.115
 5864TIP3    H141787   6.695   1.894  10.130
 5864TIP3    H241788   6.768   1.724  10.135
 5865TIP3   OH241789   4.627   1.405  11.348
 5865TIP3    H141790   4.556   1.386  11.272
 5865TIP3    H241791   4.657   1.294  11.369
 5866TIP3   OH241792   4.613   1.696  11.020
 5866TIP3    H141793   4.724   1.667  11.032
 5866TIP3    H241794   4.604   1.789  11.076
 5867TIP3   OH241795   6.804   1.777  11.599
 5867TIP3    H141796   6.743   1.678  11.591
 5867TIP3    H241797   6.715   1.856  11.608
 5868TIP3   OH241798   5.670   1.704  11.496
 5868TIP3    H141799   5.696   1.801  11.545
 5868TIP3    H241800   5.564   1.673  11.530
 5869TIP3   OH241801   5.714   2.168  10.439
 5869TIP3    H141802   5.755   2.186  10.349
 5869TIP3    H241803   5.743   2.270  10.482
 5870TIP3   OH241804   4.994   2.015  10.646
 5870TIP3    H141805   5.024   1.979  10.737
 5870TIP3    H241806   4.888   1.969  10.640
 5871TIP3   OH241807   6.074   2.146  10.192
 5871TIP3    H141808   6.133   2.053  10.155
 5871TIP3    H241809   6.121   2.156  10.279
 5872TIP3   OH241810   6.062   2.072  10.470
 5872TIP3    H141811   5.948   2.066  10.484
 5872TIP3    H241812   6.100   1.975  10.515
 5873TIP3   OH241813   6.392   0.737  11.651
 5873TIP3    H141814   6.343   0.791  11.574
 5873TIP3    H241815   6.404   0.628  11.616
 5874TIP3   OH241816   4.910   1.532  11.429
 5874TIP3    H141817   4.910   1.486  11.519
 5874TIP3    H241818   4.806   1.493  11.397
 5875TIP3   OH241819   5.252   0.235  11.011
 5875TIP3    H141820   5.153   0.257  10.962
 5875TIP3    H241821   5.232   0.298  11.091
 5876TIP3   OH241822   5.710   0.192  11.431
 5876TIP3    H141823   5.772   0.095  11.420
 5876TIP3    H241824   5.616   0.161  11.378
 5877TIP3   OH241825   6.139   0.566  11.446
 5877TIP3    H141826   6.066   0.540  11.520
 5877TIP3    H241827   6.166   0.678  11.464
 5878TIP3   OH241828   6.280   1.177  10.118
 5878TIP3    H141829   6.232   1.184  10.028
 5878TIP3    H241830   6.390   1.204  10.092
 5879TIP3   OH241831   5.699   0.424  10.107
 5879TIP3    H141832   5.672   0.366  10.189
 5879TIP3    H241833   5.641   0.364  10.040
 5880TIP3   OH241834   5.227   0.740  11.193
 5880TIP3    H141835   5.118   0.734  11.230
 5880TIP3    H241836   5.232   0.853  11.162
 5881TIP3   OH241837   5.226   0.761  10.636
 5881TIP3    H141838   5.110   0.746  10.628
 5881TIP3    H241839   5.266   0.738  10.545
 5882TIP3   OH241840   5.932   0.827  10.534
 5882TIP3    H141841   5.873   0.920  10.500
 5882TIP3    H241842   5.994   0.802  10.455
 5883TIP3   OH241843   5.754   0.859  11.656
 5883TIP3    H141844   5.699   0.761  11.685
 5883TIP3    H241845   5.840   0.868  11.721
 5884TIP3   OH241846   5.999   0.738  10.828
 5884TIP3    H141847   6.013   0.835  10.775
 5884TIP3    H241848   6.013   0.659  10.758
 5885TIP3   OH241849   4.920   0.739  11.286
 5885TIP3    H141850   4.933   0.800  11.369
 5885TIP3    H241851   4.878   0.642  11.329
 5886TIP3   OH241852   5.308   0.480  10.011
 5886TIP3    H141853   5.267   0.460  10.102
 5886TIP3    H241854   5.215   0.532   9.970
 5887TIP3   OH241855   4.570   0.475  10.731
 5887TIP3    H141856   4.652   0.445  10.795
 5887TIP3    H241857   4.616   0.451  10.644
 5888TIP3   OH241858   4.680   0.514  10.304
 5888TIP3    H141859   4.769   0.564  10.256
 5888TIP3    H241860   4.610   0.607  10.317
 5889TIP3   OH241861   5.884   0.930  11.263
 5889TIP3    H141862   5.960   0.860  11.217
 5889TIP3    H241863   5.820   0.852  11.316
 5890TIP3   OH241864   5.556   0.464  10.753
 5890TIP3    H141865   5.447   0.425  10.763
 5890TIP3    H241866   5.605   0.426  10.836
 5891TIP3   OH241867   4.908   0.671  10.629
 5891TIP3    H141868   4.799   0.695  10.598
 5891TIP3    H241869   4.931   0.564  10.594
 5892TIP3   OH241870   5.352   0.672  10.404
 5892TIP3    H141871   5.468   0.679  10.413
 5892TIP3    H241872   5.324   0.748  10.331
 5893TIP3   OH241873   6.090   0.356  11.064
 5893TIP3    H141874   6.008   0.359  11.134
 5893TIP3    H241875   6.030   0.313  10.990
 5894TIP3   OH241876   5.212   0.833  10.196
 5894TIP3    H141877   5.132   0.763  10.154
 5894TIP3    H241878   5.287   0.850  10.124
 5895TIP3   OH241879   6.418   2.262  11.716
 5895TIP3    H141880   6.466   2.323  11.644
 5895TIP3    H241881   6.514   2.237  11.768
 5896TIP3   OH241882   4.934   1.338  11.657
 5896TIP3    H141883   5.028   1.368  11.709
 5896TIP3    H241884   4.862   1.292  11.724
 5897TIP3   OH241885   5.677   0.799  10.919
 5897TIP3    H141886   5.766   0.754  10.868
 5897TIP3    H241887   5.663   0.718  10.986
 5898TIP3   OH241888   5.045   0.348  10.566
 5898TIP3    H141889   4.984   0.264  10.614
 5898TIP3    H241890   5.120   0.281  10.519
 5899TIP3   OH241891   5.506   0.562  11.160
 5899TIP3    H141892   5.426   0.648  11.160
 5899TIP3    H241893   5.593   0.616  11.206
 5900TIP3   OH241894   5.592   1.364  10.368
 5900TIP3    H141895   5.509   1.289  10.338
 5900TIP3    H241896   5.551   1.386  10.459
 5901TIP3   OH241897   6.497   1.294  11.233
 5901TIP3    H141898   6.548   1.355  11.160
 5901TIP3    H241899   6.397   1.265  11.188
 5902TIP3   OH241900   5.993   0.470  10.203
 5902TIP3    H141901   5.890   0.506  10.167
 5902TIP3    H241902   6.053   0.572  10.216
 5903TIP3   OH241903   5.747   1.388  11.501
 5903TIP3    H141904   5.701   1.370  11.589
 5903TIP3    H241905   5.730   1.504  11.492
 5904TIP3   OH241906   6.157   0.708  10.300
 5904TIP3    H141907   6.239   0.690  10.368
 5904TIP3    H241908   6.182   0.817  10.273
 5905TIP3   OH241909   5.016   1.297  10.916
 5905TIP3    H141910   5.069   1.270  10.831
 5905TIP3    H241911   5.028   1.199  10.968
 5906TIP3   OH241912   5.838   1.535  10.294
 5906TIP3    H141913   5.791   1.643  10.307
 5906TIP3    H241914   5.742   1.466  10.303
 5907TIP3   OH241915   4.606   1.105  11.486
 5907TIP3    H141916   4.664   1.015  11.527
 5907TIP3    H241917   4.535   1.052  11.423
 5908TIP3   OH241918   5.458   1.027  11.643
 5908TIP3    H141919   5.388   0.954  11.592
 5908TIP3    H241920   5.556   0.964  11.647
 5909TIP3   OH241921   6.076   1.660  11.473
 5909TIP3    H141922   5.966   1.693  11.486
 5909TIP3    H241923   6.132   1.688  11.556
 5910TIP3   OH241924   6.720   0.755  10.334
 5910TIP3    H141925   6.638   0.727  10.266
 5910TIP3    H241926   6.733   0.868  10.312
 5911TIP3   OH241927   6.726   1.436  11.585
 5911TIP3    H141928   6.619   1.453  11.546
 5911TIP3    H241929   6.791   1.439  11.503
 5912TIP3   OH241930   6.534   1.744  10.359
 5912TIP3    H141931   6.428   1.694  10.361
 5912TIP3    H241932   6.559   1.751  10.263
 5913TIP3   OH241933   6.186   1.168  11.045
 5913TIP3    H141934   6.076   1.147  11.021
 5913TIP3    H241935   6.241   1.084  10.997
 5914TIP3   OH241936   5.284   1.669  10.685
 5914TIP3    H141937   5.338   1.768  10.659
 5914TIP3    H241938   5.176   1.690  10.653
 5915TIP3   OH241939   4.798   1.070  10.091
 5915TIP3    H141940   4.859   1.139  10.152
 5915TIP3    H241941   4.690   1.080  10.130
 5916TIP3   OH241942   5.446   1.396  10.611
 5916TIP3    H141943   5.386   1.496  10.621
 5916TIP3    H241944   5.396   1.330  10.679
 5917TIP3   OH241945   5.515   1.904  11.317
 5917TIP3    H141946   5.587   1.981  11.275
 5917TIP3    H241947   5.587   1.848  11.378
 5918TIP3   OH241948   5.333   1.980  10.592
 5918TIP3    H141949   5.218   1.992  10.604
 5918TIP3    H241950   5.366   2.092  10.608
 5919TIP3   OH241951   5.891   1.414  11.235
 5919TIP3    H141952   5.842   1.386  11.321
 5919TIP3    H241953   5.941   1.313  11.210
 5920TIP3   OH241954   6.226   1.554  10.122
 5920TIP3    H141955   6.257   1.502  10.207
 5920TIP3    H241956   6.112   1.535  10.129
 5921TIP3   OH241957   6.269   2.006  11.479
 5921TIP3    H141958   6.190   1.921  11.469
 5921TIP3    H241959   6.280   2.051  11.388
 5922TIP3   OH241960   6.757   2.083  10.169
 5922TIP3    H141961   6.840   2.159  10.140
 5922TIP3    H241962   6.686   2.158  10.220
 5923TIP3   OH241963   4.860   0.461  11.432
 5923TIP3    H141964   4.789   0.533  11.483
 5923TIP3    H241965   4.812   0.358  11.445
 5924TIP3   OH241966   6.312   1.387  10.351
 5924TIP3    H141967   6.295   1.272  10.350
 5924TIP3    H241968   6.428   1.388  10.353
 5925TIP3   OH241969   4.807   1.853  11.253
 5925TIP3    H141970   4.876   1.759  11.258
 5925TIP3    H241971   4.856   1.919  11.321
 5926TIP3   OH241972   5.333   1.614  10.228
 5926TIP3    H141973   5.430   1.570  10.268
 5926TIP3    H241974   5.346   1.728  10.255
 5927TIP3   OH241975   4.928   1.285  10.277
 5927TIP3    H141976   4.838   1.343  10.320
 5927TIP3    H241977   4.990   1.375  10.240
 5928TIP3   OH241978   5.898   0.410  11.308
 5928TIP3    H141979   5.988   0.421  11.370
 5928TIP3    H241980   5.827   0.341  11.362
 5929TIP3   OH241981   5.978   0.329  10.443
 5929TIP3    H141982   5.978   0.407  10.369
 5929TIP3    H241983   6.042   0.382  10.513
 5930TIP3   OH241984   5.696   1.837  10.274
 5930TIP3    H141985   5.598   1.867  10.319
 5930TIP3    H241986   5.736   1.943  10.248
 5931TIP3   OH241987   5.672   0.593  10.494
 5931TIP3    H141988   5.772   0.650  10.506
 5931TIP3    H241989   5.639   0.571  10.586
 5932TIP3   OH241990   5.734   0.719  11.419
 5932TIP3    H141991   5.755   0.778  11.503
 5932TIP3    H241992   5.758   0.608  11.439
 5933TIP3   OH241993   5.724   0.232  10.575
 5933TIP3    H141994   5.702   0.311  10.644
 5933TIP3    H241995   5.822   0.275  10.533
 5934TIP3   OH241996   5.378   1.930  10.315
 5934TIP3    H141997   5.408   2.034  10.274
 5934TIP3    H241998   5.342   1.966  10.403
 5935TIP3   OH241999   5.213   0.438  10.265
 5935TIP3    H142000   5.234   0.514  10.338
 5935TIP3    H242001   5.305   0.368  10.279
 5936TIP3   OH242002   6.432   0.454  11.496
 5936TIP3    H142003   6.317   0.479  11.488
 5936TIP3    H242004   6.456   0.421  11.405
 5937TIP3   OH242005   6.284   0.866  10.915
 5937TIP3    H142006   6.209   0.781  10.934
 5937TIP3    H242007   6.378   0.823  10.962
 5938TIP3   OH242008   5.024   1.576  10.169
 5938TIP3    H142009   5.136   1.601  10.195
 5938TIP3    H242010   5.042   1.554  10.074
 5939TIP3   OH242011   4.825   0.743  10.128
 5939TIP3    H142012   4.838   0.859  10.122
 5939TIP3    H242013   4.740   0.722  10.065
 5940TIP3   OH242014   6.404   2.008  11.045
 5940TIP3    H142015   6.391   2.084  10.972
 5940TIP3    H242016   6.521   2.012  11.052
 5941TIP3   OH242017   4.921   0.180  10.949
 5941TIP3    H142018   4.898   0.156  10.855
 5941TIP3    H242019   4.901   0.072  10.983
 5942TIP3   OH242020   4.742   1.747  10.555
 5942TIP3    H142021   4.660   1.825  10.575
 5942TIP3    H242022   4.795   1.802  10.481
 5943TIP3   OH242023   4.676   2.081  11.681
 5943TIP3    H142024   4.772   2.065  11.734
 5943TIP3    H242025   4.640   1.970  11.666
 5944TIP3   OH242026   5.732   1.861   9.970
 5944TIP3    H142027   5.650   1.787   9.996
 5944TIP3    H242028   5.824   1.818  10.017
 5945TIP3   OH242029   5.993   1.805  11.743
 5945TIP3    H142030   5.956   1.694  11.760
 5945TIP3    H242031   6.110   1.788  11.749
 5946TIP3   OH242032   6.217   1.871  10.089
 5946TIP3    H142033   6.248   1.758  10.088
 5946TIP3    H242034   6.278   1.922  10.017
 5947TIP3   OH242035   4.625   1.355  11.814
 5947TIP3    H142036   4.615   1.238  11.803
 5947TIP3    H242037   4.576   1.396  11.731
 5948TIP3   OH242038   5.251   1.318  10.029
 5948TIP3    H142039   5.225   1.298  10.122
 5948TIP3    H242040   5.340   1.392  10.041
 5949TIP3   OH242041   5.467   1.344  11.696
 5949TIP3    H142042   5.438   1.417  11.622
 5949TIP3    H242043   5.459   1.236  11.654
 5950TIP3   OH242044   6.162   1.322  11.480
 5950TIP3    H142045   6.265   1.379  11.485
 5950TIP3    H242046   6.090   1.415  11.479
 5951TIP3   OH242047   4.752   1.036  11.801
 5951TIP3    H142048   4.808   0.997  11.720
 5951TIP3    H242049   4.835   1.039  11.868
 5952TIP3   OH242050   5.366   1.156  10.272
 5952TIP3    H142051   5.275   1.109  10.319
 5952TIP3    H242052   5.395   1.073  10.207
 5953TIP3   OH242053   5.297   0.872  11.459
 5953TIP3    H142054   5.184   0.901  11.470
 5953TIP3    H242055   5.332   0.926  11.377
 5954TIP3   OH242056   5.507   0.949  10.075
 5954TIP3    H142057   5.539   0.907   9.989
 5954TIP3    H242058   5.611   0.946  10.122
 5955TIP3   OH242059   5.899   1.219  11.810
 5955TIP3    H142060   5.980   1.180  11.748
 5955TIP3    H242061   5.890   1.132  11.875
 5956TIP3   OH242062   6.558   1.189  19.978
 5956TIP3    H142063   6.643   1.130  19.932
 5956TIP3    H242064   6.608   1.295  19.971
 5957TIP3   OH242065   5.332   0.580  11.557
 5957TIP3    H142066   5.341   0.500  11.484
 5957TIP3    H242067   5.354   0.680  11.508
 5958TIP3   OH242068   5.341   0.390  11.341
 5958TIP3    H142069   5.404   0.433  11.267
 5958TIP3    H242070   5.231   0.412  11.312
 5959TIP3   OH242071   5.542   1.037  11.298
 5959TIP3    H142072   5.646   1.078  11.319
 5959TIP3    H242073   5.478   1.133  11.280
 5960TIP3   OH242074   6.048   0.745  11.825
 5960TIP3    H142075   6.089   0.635  11.829
 5960TIP3    H242076   6.120   0.791  11.757
 5961TIP3   OH242077   6.245   1.115  11.679
 5961TIP3    H142078   6.200   1.187  11.610
 5961TIP3    H242079   6.359   1.132  11.666
 5962TIP3   OH242080   5.125   0.696  11.759
 5962TIP3    H142081   5.017   0.704  11.719
 5962TIP3    H242082   5.188   0.676  11.678
 5963TIP3   OH242083   5.417   0.090  11.324
 5963TIP3    H142084   5.396   0.206  11.336
 5963TIP3    H242085   5.308   0.058  11.303
 5964TIP3   OH242086   5.584   0.605  11.738
 5964TIP3    H142087   5.546   0.580  11.828
 5964TIP3    H242088   5.490   0.574  11.685
 5965TIP3   OH242089   5.939   0.479  11.643
 5965TIP3    H142090   5.826   0.474  11.667
 5965TIP3    H242091   5.987   0.409  11.710
 5966TIP3   OH242092   6.145   0.368  11.855
 5966TIP3    H142093   6.122   0.252  11.853
 5966TIP3    H242094   6.113   0.396  11.947
 5967TIP3   OH242095   4.861   0.467  11.784
 5967TIP3    H142096   4.932   0.403  11.730
 5967TIP3    H242097   4.849   0.407  11.866
 5968TIP3   OH242098   5.428   0.086  11.603
 5968TIP3    H142099   5.477  -0.017  11.623
 5968TIP3    H242100   5.438   0.091  11.506
 5969TIP3   OH242101   5.514   0.175  11.860
 5969TIP3    H142102   5.488   0.146  11.768
 5969TIP3    H242103   5.453   0.274  11.873
 5970TIP3   OH242104   5.443   2.198  10.177
 5970TIP3    H142105   5.560   2.178  10.181
 5970TIP3    H242106   5.432   2.224  10.083
 5971TIP3   OH242107   4.700   1.594  10.142
 5971TIP3    H142108   4.818   1.589  10.146
 5971TIP3    H242109   4.673   1.535  10.061
 5972TIP3   OH242110   4.530   2.186  10.614
 5972TIP3    H142111   4.444   2.119  10.576
 5972TIP3    H242112   4.568   2.116  10.686
 5973TIP3   OH242113   4.657   1.984  10.800
 5973TIP3    H142114   4.568   1.914  10.825
 5973TIP3    H242115   4.712   1.994  10.886
 5974TIP3   OH242116   6.728   2.075  11.061
 5974TIP3    H142117   6.762   2.070  11.154
 5974TIP3    H242118   6.822   2.122  11.019
 5975TIP3   OH242119   6.682   2.044  11.350
 5975TIP3    H142120   6.631   1.943  11.321
 5975TIP3    H242121   6.713   2.014  11.440
 5976TIP3   OH242122   6.642   1.326  10.378
 5976TIP3    H142123   6.742   1.384  10.398
 5976TIP3    H242124   6.635   1.260  10.459
 5977TIP3   OH242125   6.680   1.129  10.615
 5977TIP3    H142126   6.589   1.057  10.630
 5977TIP3    H242127   6.724   1.138  10.705
 5978TIP3   OH242128   6.668   1.430  11.047
 5978TIP3    H142129   6.748   1.344  11.038
 5978TIP3    H242130   6.718   1.519  10.999
 5979TIP3   OH242131   6.516   1.760  11.292
 5979TIP3    H142132   6.437   1.800  11.355
 5979TIP3    H242133   6.449   1.721  11.219
 5980TIP3   OH242134   6.761   1.086  10.198
 5980TIP3    H142135   6.667   1.117  10.146
 5980TIP3    H242136   6.757   1.171  10.265
 5981TIP3   OH242137   6.497   0.745  10.137
 5981TIP3    H142138   6.474   0.827  10.071
 5981TIP3    H242139   6.510   0.654  10.078
 5982TIP3   OH242140   6.450   0.923  10.678
 5982TIP3    H142141   6.425   0.816  10.647
 5982TIP3    H242142   6.408   0.920  10.769
 5983TIP3   OH242143   4.624   1.194  11.068
 5983TIP3    H142144   4.626   1.162  10.974
 5983TIP3    H242145   4.732   1.156  11.095
 5984TIP3   OH242146   6.581   1.134  11.591
 5984TIP3    H142147   6.631   1.052  11.648
 5984TIP3    H242148   6.650   1.228  11.601
 5985TIP3   OH242149   6.678   0.870  11.721
 5985TIP3    H142150   6.577   0.829  11.682
 5985TIP3    H242151   6.758   0.797  11.684
 5986TIP3   OH242152   6.451   0.437   9.991
 5986TIP3    H142153   6.541   0.389  10.040
 5986TIP3    H242154   6.366   0.360  10.010
 5987TIP3   OH242155   6.397   0.658  10.484
 5987TIP3    H142156   6.425   0.547  10.510
 5987TIP3    H242157   6.498   0.688  10.441
 5988TIP3   OH242158   6.508   0.697  11.059
 5988TIP3    H142159   6.624   0.726  11.063
 5988TIP3    H242160   6.479   0.706  11.153
 5989TIP3   OH242161   6.509   0.800  11.307
 5989TIP3    H142162   6.404   0.822  11.345
 5989TIP3    H242163   6.548   0.908  11.283
 5990TIP3   OH242164   4.619   0.617  11.630
 5990TIP3    H142165   4.712   0.594  11.687
 5990TIP3    H242166   4.554   0.522  11.650
 5991TIP3   OH242167   6.811   0.098  11.831
 5991TIP3    H142168   6.916   0.095  11.784
 5991TIP3    H242169   6.768   0.188  11.780
 5992TIP3   OH242170   6.486   0.353  10.532
 5992TIP3    H142171   6.527   0.282  10.603
 5992TIP3    H242172   6.408   0.283  10.488
 5993TIP3   OH242173   4.734   0.427  10.978
 5993TIP3    H142174   4.781   0.320  10.990
 5993TIP3    H242175   4.834   0.488  10.978
 5994TIP3   OH242176   4.541   0.784  11.052
 5994TIP3    H142177   4.610   0.772  10.973
 5994TIP3    H242178   4.620   0.823  11.114
 5995TIP3   OH242179   6.700   0.376  11.681
 5995TIP3    H142180   6.592   0.410  11.704
 5995TIP3    H242181   6.677   0.307  11.603
 5996TIP3   OH242182   6.715   0.331  10.136
 5996TIP3    H142183   6.772   0.280  10.062
 5996TIP3    H242184   6.788   0.419  10.157
 5997TIP3   OH242185   4.560   0.298  10.488
 5997TIP3    H142186   4.452   0.338  10.471
 5997TIP3    H242187   4.618   0.354  10.417
 5998TIP3   OH242188   6.343   2.095  10.653
 5998TIP3    H142189   6.432   2.078  10.590
 5998TIP3    H242190   6.394   2.159  10.723
 5999TIP3   OH242191   4.606   0.192  11.275
 5999TIP3    H142192   4.530   0.203  11.349
 5999TIP3    H242193   4.561   0.275  11.217
 6000TIP3   OH242194   4.843   1.706  11.720
 6000TIP3    H142195   4.793   1.706  11.633
 6000TIP3    H242196   4.758   1.661  11.774
 6001TIP3   OH242197   5.202   1.891  11.350
 6001TIP3    H142198   5.203   2.003  11.321
 6001TIP3    H242199   5.318   1.873  11.349
 6002TIP3   OH242200   5.696   2.021  11.610
 6002TIP3    H142201   5.717   1.999  11.704
 6002TIP3    H242202   5.801   2.066  11.583
 6003TIP3   OH242203   5.968   2.209  11.549
 6003TIP3    H142204   6.056   2.147  11.511
 6003TIP3    H242205   6.017   2.246  11.633
 6004TIP3   OH242206   6.620   0.174  11.456
 6004TIP3    H142207   6.518   0.210  11.421
 6004TIP3    H242208   6.599   0.059  11.462
 6005TIP3   OH242209   4.883   2.251  11.324
 6005TIP3    H142210   4.799   2.317  11.283
 6005TIP3    H242211   4.867   2.275  11.418
 6006TIP3   OH242212   5.179   2.197  11.220
 6006TIP3    H142213   5.071   2.212  11.258
 6006TIP3    H242214   5.172   2.269  11.143
 6007TIP3   OH242215   5.714   2.152  11.154
 6007TIP3    H142216   5.677   2.234  11.094
 6007TIP3    H242217   5.762   2.220  11.223
 6008TIP3   OH242218   5.977   2.005  11.295
 6008TIP3    H142219   5.914   2.038  11.217
 6008TIP3    H242220   6.074   2.066  11.277
 6009TIP3   OH242221   6.318   2.180  11.257
 6009TIP3    H142222   6.337   2.293  11.237
 6009TIP3    H242223   6.350   2.130  11.173
 6010TIP3   OH242224   4.840   2.062  11.025
 6010TIP3    H142225   4.804   1.984  11.091
 6010TIP3    H242226   4.942   2.012  10.996
 6011TIP3   OH242227   5.080   1.915  10.892
 6011TIP3    H142228   5.080   1.804  10.926
 6011TIP3    H242229   5.185   1.951  10.924
 6012TIP3   OH242230   5.365   1.943  10.997
 6012TIP3    H142231   5.405   1.835  10.979
 6012TIP3    H242232   5.375   1.944  11.094
 6013TIP3   OH242233   5.796   0.306  10.879
 6013TIP3    H142234   5.725   0.212  10.888
 6013TIP3    H242235   5.873   0.265  10.814
 6014TIP3   OH242236   6.376   0.130  10.893
 6014TIP3    H142237   6.456   0.150  10.824
 6014TIP3    H242238   6.275   0.162  10.851
 6015TIP3   OH242239   6.654   0.200  10.724
 6015TIP3    H142240   6.722   0.160  10.653
 6015TIP3    H242241   6.709   0.302  10.745
 6016TIP3   OH242242   4.870   0.134  10.683
 6016TIP3    H142243   4.795   0.172  10.614
 6016TIP3    H242244   4.866   0.017  10.667
 6017TIP3   OH242245   4.758   0.133  10.308
 6017TIP3    H142246   4.798   0.180  10.225
 6017TIP3    H242247   4.646   0.168  10.306
 6018TIP3   OH242248   5.428   0.125  10.649
 6018TIP3    H142249   5.520   0.176  10.607
 6018TIP3    H242250   5.462   0.126  10.743
 6019TIP3   OH242251   6.073   0.163  10.777
 6019TIP3    H142252   6.104   0.150  10.685
 6019TIP3    H242253   6.060   0.052  10.805
 6020TIP3   OH242254   6.265   0.200  10.390
 6020TIP3    H142255   6.155   0.240  10.382
 6020TIP3    H242256   6.253   0.086  10.372
 6021TIP3   OH242257   4.741   1.990  10.365
 6021TIP3    H142258   4.637   1.960  10.328
 6021TIP3    H242259   4.746   2.099  10.330
 6022TIP3   OH242260   4.910   0.239  10.091
 6022TIP3    H142261   5.010   0.180  10.082
 6022TIP3    H242262   4.948   0.342  10.122
 6023TIP3   OH242263   5.528   0.340  10.342
 6023TIP3    H142264   5.590   0.268  10.398
 6023TIP3    H242265   5.551   0.439  10.388
 6024TIP3   OH242266   5.765   2.119  10.154
 6024TIP3    H142267   5.880   2.149  10.163
 6024TIP3    H242268   5.772   2.060  10.070
 6025TIP3   OH242269   6.562   2.033  10.473
 6025TIP3    H142270   6.559   1.924  10.435
 6025TIP3    H242271   6.527   2.098  10.397
 6026TIP3   OH242272   4.806   0.100  11.676
 6026TIP3    H142273   4.810  -0.017  11.664
 6026TIP3    H242274   4.907   0.119  11.724
 6027TIP3   OH242275   5.111   0.127  11.795
 6027TIP3    H142276   5.204   0.176  11.755
 6027TIP3    H242277   5.120   0.016  11.762
 6028TIP3   OH242278   4.943   2.101  10.106
 6028TIP3    H142279   4.891   2.136  10.188
 6028TIP3    H242280   5.012   2.017  10.135
 6029TIP3   OH242281   6.076   0.064  11.815
 6029TIP3    H142282   6.028  -0.040  11.837
 6029TIP3    H242283   6.158   0.028  11.753
 6030TIP3   OH242284   6.557   1.976  11.637
 6030TIP3    H142285   6.494   1.883  11.667
 6030TIP3    H242286   6.466   2.044  11.612
 6031TIP3   OH242287   8.234   1.175  10.670
 6031TIP3    H142288   8.226   1.284  10.706
 6031TIP3    H242289   8.150   1.180  10.602
 6032TIP3   OH242290   8.077   1.054  11.007
 6032TIP3    H142291   8.096   0.988  11.087
 6032TIP3    H242292   8.011   0.985  10.949
 6033TIP3   OH242293   7.156   1.072  11.149
 6033TIP3    H142294   7.140   0.980  11.209
 6033TIP3    H242295   7.241   1.128  11.195
 6034TIP3   OH242296   8.521   1.436  10.871
 6034TIP3    H142297   8.531   1.346  10.931
 6034TIP3    H242298   8.513   1.525  10.933
 6035TIP3   OH242299   7.276   1.613  10.971
 6035TIP3    H142300   7.235   1.504  10.960
 6035TIP3    H242301   7.390   1.585  10.964
 6036TIP3   OH242302   6.888   0.800  10.560
 6036TIP3    H142303   6.829   0.887  10.602
 6036TIP3    H242304   6.826   0.787  10.479
 6037TIP3   OH242305   6.938   1.104  10.797
 6037TIP3    H142306   6.992   1.000  10.813
 6037TIP3    H242307   7.009   1.157  10.735
 6038TIP3   OH242308   8.192   2.078  10.848
 6038TIP3    H142309   8.274   2.018  10.795
 6038TIP3    H242310   8.154   1.988  10.900
 6039TIP3   OH242311   7.871   1.433  11.097
 6039TIP3    H142312   7.895   1.351  11.030
 6039TIP3    H242313   7.976   1.442  11.141
 6040TIP3   OH242314   8.921   0.407  11.077
 6040TIP3    H142315   8.944   0.491  11.144
 6040TIP3    H242316   8.982   0.446  11.002
 6041TIP3   OH242317   8.297   0.714  11.108
 6041TIP3    H142318   8.360   0.616  11.109
 6041TIP3    H242319   8.272   0.719  11.013
 6042TIP3   OH242320   7.468   0.480  10.775
 6042TIP3    H142321   7.478   0.578  10.720
 6042TIP3    H242322   7.412   0.409  10.711
 6043TIP3   OH242323   8.388   0.509  10.634
 6043TIP3    H142324   8.444   0.484  10.719
 6043TIP3    H242325   8.462   0.582  10.592
 6044TIP3   OH242326   7.048   0.803  10.891
 6044TIP3    H142327   7.135   0.767  10.947
 6044TIP3    H242328   7.067   0.744  10.809
 6045TIP3   OH242329   7.639   0.965  10.833
 6045TIP3    H142330   7.734   0.906  10.863
 6045TIP3    H242331   7.606   0.899  10.757
 6046TIP3   OH242332   8.989   0.541  11.320
 6046TIP3    H142333   8.908   0.626  11.330
 6046TIP3    H242334   8.999   0.508  11.412
 6047TIP3   OH242335   7.344   0.379  11.199
 6047TIP3    H142336   7.300   0.450  11.130
 6047TIP3    H242337   7.258   0.376  11.266
 6048TIP3   OH242338   8.153   1.481  10.558
 6048TIP3    H142339   8.154   1.486  10.461
 6048TIP3    H242340   8.117   1.590  10.579
 6049TIP3   OH242341   7.608   1.286  11.186
 6049TIP3    H142342   7.541   1.379  11.215
 6049TIP3    H242343   7.699   1.344  11.146
 6050TIP3   OH242344   8.574   0.456  10.846
 6050TIP3    H142345   8.515   0.403  10.917
 6050TIP3    H242346   8.684   0.446  10.877
 6051TIP3   OH242347   7.298   0.600  10.993
 6051TIP3    H142348   7.370   0.678  11.035
 6051TIP3    H242349   7.360   0.568  10.914
 6052TIP3   OH242350   7.445   1.532  11.286
 6052TIP3    H142351   7.436   1.636  11.242
 6052TIP3    H242352   7.342   1.528  11.334
 6053TIP3   OH242353   6.946   1.444  10.391
 6053TIP3    H142354   6.930   1.510  10.311
 6053TIP3    H242355   6.950   1.525  10.461
 6054TIP3   OH242356   8.575   1.688  11.058
 6054TIP3    H142357   8.466   1.706  11.091
 6054TIP3    H242358   8.599   1.795  11.026
 6055TIP3   OH242359   8.653   0.229  11.229
 6055TIP3    H142360   8.579   0.266  11.160
 6055TIP3    H242361   8.737   0.192  11.170
 6056TIP3   OH242362   7.804   0.108  10.903
 6056TIP3    H142363   7.802   0.001  10.942
 6056TIP3    H242364   7.738   0.166  10.968
 6057TIP3   OH242365   8.370   1.880  10.715
 6057TIP3    H142366   8.395   1.777  10.671
 6057TIP3    H242367   8.476   1.934  10.707
 6058TIP3   OH242368   8.486   1.628  10.585
 6058TIP3    H142369   8.484   1.538  10.523
 6058TIP3    H242370   8.540   1.583  10.662
 6059TIP3   OH242371   8.689   1.463  11.454
 6059TIP3    H142372   8.700   1.382  11.381
 6059TIP3    H242373   8.706   1.561  11.404
 6060TIP3   OH242374   8.057   1.111  10.411
 6060TIP3    H142375   8.003   1.214  10.398
 6060TIP3    H242376   8.147   1.117  10.350
 6061TIP3   OH242377   8.123   0.929  10.107
 6061TIP3    H142378   8.218   0.972  10.153
 6061TIP3    H242379   8.159   0.820  10.085
 6062TIP3   OH242380   8.896   1.037  11.225
 6062TIP3    H142381   8.821   1.128  11.217
 6062TIP3    H242382   8.977   1.063  11.156
 6063TIP3   OH242383   8.486   1.104  10.513
 6063TIP3    H142384   8.401   1.136  10.577
 6063TIP3    H242385   8.560   1.045  10.573
 6064TIP3   OH242386   8.459   0.919  11.431
 6064TIP3    H142387   8.425   1.027  11.459
 6064TIP3    H242388   8.396   0.913  11.350
 6065TIP3   OH242389   7.476   1.205  10.703
 6065TIP3    H142390   7.424   1.178  10.616
 6065TIP3    H242391   7.536   1.108  10.722
 6066TIP3   OH242392   7.631   1.589  10.966
 6066TIP3    H142393   7.648   1.570  10.872
 6066TIP3    H242394   7.726   1.538  11.008
 6067TIP3   OH242395   7.487   1.037  11.071
 6067TIP3    H142396   7.532   1.036  10.980
 6067TIP3    H242397   7.543   1.129  11.111
 6068TIP3   OH242398   8.282   1.735  11.136
 6068TIP3    H142399   8.272   1.828  11.195
 6068TIP3    H242400   8.236   1.651  11.192
 6069TIP3   OH242401   7.649   1.572  11.486
 6069TIP3    H142402   7.564   1.631  11.533
 6069TIP3    H242403   7.590   1.538  11.405
 6070TIP3   OH242404   8.344   1.042  10.273
 6070TIP3    H142405   8.388   1.050  10.363
 6070TIP3    H242406   8.414   1.116  10.224
 6071TIP3   OH242407   7.273   1.102  11.424
 6071TIP3    H142408   7.303   1.199  11.468
 6071TIP3    H242409   7.182   1.067  11.479
 6072TIP3   OH242410   8.066   1.819  10.562
 6072TIP3    H142411   8.118   1.860  10.642
 6072TIP3    H242412   8.018   1.914  10.524
 6073TIP3   OH242413   7.430   1.768  11.608
 6073TIP3    H142414   7.414   1.813  11.518
 6073TIP3    H242415   7.319   1.738  11.630
 6074TIP3   OH242416   8.753   0.137  10.215
 6074TIP3    H142417   8.702   0.161  10.300
 6074TIP3    H242418   8.819   0.232  10.203
 6075TIP3   OH242419   7.310   1.096  10.480
 6075TIP3    H142420   7.276   1.174  10.413
 6075TIP3    H242421   7.268   0.996  10.444
 6076TIP3   OH242422   8.945   1.790  10.141
 6076TIP3    H142423   8.995   1.896  10.147
 6076TIP3    H242424   9.035   1.717  10.154
 6077TIP3   OH242425   6.907   1.385  11.369
 6077TIP3    H142426   6.862   1.370  11.281
 6077TIP3    H242427   6.938   1.273  11.391
 6078TIP3   OH242428   6.880   1.705  10.982
 6078TIP3    H142429   6.992   1.684  10.999
 6078TIP3    H242430   6.856   1.783  11.050
 6079TIP3   OH242431   9.037   1.798  11.593
 6079TIP3    H142432   9.047   1.685  11.575
 6079TIP3    H242433   8.929   1.800  11.631
 6080TIP3   OH242434   7.945   1.709  11.499
 6080TIP3    H142435   7.951   1.796  11.563
 6080TIP3    H242436   7.831   1.678  11.498
 6081TIP3   OH242437   8.012   2.166  10.439
 6081TIP3    H142438   8.029   2.213  10.350
 6081TIP3    H242439   8.003   2.264  10.492
 6082TIP3   OH242440   7.246   2.012  10.658
 6082TIP3    H142441   7.284   1.979  10.747
 6082TIP3    H242442   7.139   1.962  10.656
 6083TIP3   OH242443   8.359   2.147  10.156
 6083TIP3    H142444   8.388   2.033  10.139
 6083TIP3    H242445   8.364   2.150  10.253
 6084TIP3   OH242446   8.328   2.066  10.437
 6084TIP3    H142447   8.213   2.074  10.458
 6084TIP3    H242448   8.366   1.988  10.502
 6085TIP3   OH242449   8.645   0.763  11.640
 6085TIP3    H142450   8.602   0.805  11.556
 6085TIP3    H242451   8.729   0.691  11.610
 6086TIP3   OH242452   7.177   1.528  11.434
 6086TIP3    H142453   7.171   1.489  11.528
 6086TIP3    H242454   7.072   1.496  11.403
 6087TIP3   OH242455   7.523   0.234  11.020
 6087TIP3    H142456   7.430   0.262  10.964
 6087TIP3    H242457   7.499   0.301  11.098
 6088TIP3   OH242458   7.975   0.173  11.446
 6088TIP3    H142459   8.047   0.082  11.432
 6088TIP3    H242460   7.907   0.158  11.367
 6089TIP3   OH242461   8.413   0.564  11.428
 6089TIP3    H142462   8.350   0.533  11.506
 6089TIP3    H242463   8.440   0.674  11.450
 6090TIP3   OH242464   8.530   1.201  10.103
 6090TIP3    H142465   8.474   1.210  10.016
 6090TIP3    H242466   8.640   1.200  10.067
 6091TIP3   OH242467   7.972   0.421  10.120
 6091TIP3    H142468   7.920   0.373  10.199
 6091TIP3    H242469   7.918   0.372  10.046
 6092TIP3   OH242470   7.493   0.749  11.168
 6092TIP3    H142471   7.397   0.749  11.223
 6092TIP3    H242472   7.495   0.863  11.139
 6093TIP3   OH242473   7.486   0.756  10.639
 6093TIP3    H142474   7.370   0.736  10.631
 6093TIP3    H242475   7.526   0.733  10.549
 6094TIP3   OH242476   8.191   0.828  10.523
 6094TIP3    H142477   8.142   0.925  10.486
 6094TIP3    H242478   8.260   0.793  10.449
 6095TIP3   OH242479   8.026   0.869  11.654
 6095TIP3    H142480   7.969   0.769  11.679
 6095TIP3    H242481   8.118   0.860  11.714
 6096TIP3   OH242482   8.290   0.764  10.810
 6096TIP3    H142483   8.260   0.868  10.769
 6096TIP3    H242484   8.291   0.697  10.730
 6097TIP3   OH242485   7.180   0.755  11.290
 6097TIP3    H142486   7.244   0.803  11.360
 6097TIP3    H242487   7.145   0.654  11.329
 6098TIP3   OH242488   7.578   0.479  10.020
 6098TIP3    H142489   7.531   0.463  10.108
 6098TIP3    H242490   7.492   0.536   9.973
 6099TIP3   OH242491   6.832   0.474  10.730
 6099TIP3    H142492   6.923   0.446  10.786
 6099TIP3    H242493   6.864   0.436  10.642
 6100TIP3   OH242494   6.944   0.512  10.295
 6100TIP3    H142495   7.037   0.565  10.255
 6100TIP3    H242496   6.874   0.604  10.312
 6101TIP3   OH242497   8.170   0.942  11.255
 6101TIP3    H142498   8.236   0.866  11.201
 6101TIP3    H242499   8.100   0.864  11.301
 6102TIP3   OH242500   7.816   0.454  10.751
 6102TIP3    H142501   7.704   0.420  10.756
 6102TIP3    H242502   7.852   0.431  10.842
 6103TIP3   OH242503   7.168   0.667  10.640
 6103TIP3    H142504   7.063   0.698  10.602
 6103TIP3    H242505   7.187   0.562  10.602
 6104TIP3   OH242506   7.607   0.674  10.406
 6104TIP3    H142507   7.723   0.682  10.417
 6104TIP3    H242508   7.579   0.746  10.330
 6105TIP3   OH242509   8.359   0.348  11.061
 6105TIP3    H142510   8.285   0.365  11.135
 6105TIP3    H242511   8.284   0.301  10.998
 6106TIP3   OH242512   7.464   0.835  10.208
 6106TIP3    H142513   7.362   0.799  10.172
 6106TIP3    H242514   7.532   0.844  10.129
 6107TIP3   OH242515   8.687   2.210  11.731
 6107TIP3    H142516   8.735   2.267  11.654
 6107TIP3    H242517   8.767   2.232  11.800
 6108TIP3   OH242518   7.192   1.356  11.674
 6108TIP3    H142519   7.284   1.376  11.732
 6108TIP3    H242520   7.116   1.310  11.736
 6109TIP3   OH242521   7.956   0.781  10.913
 6109TIP3    H142522   8.039   0.721  10.867
 6109TIP3    H242523   7.934   0.709  10.985
 6110TIP3   OH242524   7.307   0.347  10.576
 6110TIP3    H142525   7.247   0.262  10.622
 6110TIP3    H242526   7.361   0.289  10.504
 6111TIP3   OH242527   7.770   0.586  11.167
 6111TIP3    H142528   7.676   0.658  11.176
 6111TIP3    H242529   7.854   0.647  11.209
 6112TIP3   OH242530   7.843   1.370  10.366
 6112TIP3    H142531   7.760   1.294  10.336
 6112TIP3    H242532   7.801   1.390  10.457
 6113TIP3   OH242533   8.700   1.291  11.238
 6113TIP3    H142534   8.765   1.348  11.171
 6113TIP3    H242535   8.599   1.272  11.191
 6114TIP3   OH242536   8.269   0.462  10.219
 6114TIP3    H142537   8.168   0.499  10.178
 6114TIP3    H242538   8.327   0.563  10.232
 6115TIP3   OH242539   7.970   1.380  11.465
 6115TIP3    H142540   7.964   1.342  11.556
 6115TIP3    H242541   7.963   1.495  11.481
 6116TIP3   OH242542   8.406   0.724  10.323
 6116TIP3    H142543   8.509   0.707  10.369
 6116TIP3    H242544   8.422   0.829  10.283
 6117TIP3   OH242545   7.283   1.286  10.932
 6117TIP3    H142546   7.361   1.270  10.861
 6117TIP3    H242547   7.290   1.189  10.985
 6118TIP3   OH242548   8.114   1.522  10.264
 6118TIP3    H142549   8.068   1.630  10.272
 6118TIP3    H242550   8.017   1.457  10.274
 6119TIP3   OH242551   6.913   1.056  11.449
 6119TIP3    H142552   6.884   0.990  11.527
 6119TIP3    H242553   6.840   1.015  11.381
 6120TIP3   OH242554   7.735   1.032  11.646
 6120TIP3    H142555   7.684   0.967  11.578
 6120TIP3    H242556   7.846   0.990  11.644
 6121TIP3   OH242557   8.328   1.666  11.486
 6121TIP3    H142558   8.221   1.682  11.449
 6121TIP3    H242559   8.314   1.720  11.572
 6122TIP3   OH242560   8.957   0.751  10.326
 6122TIP3    H142561   8.898   0.713  10.247
 6122TIP3    H242562   8.972   0.862  10.297
 6123TIP3   OH242563   8.977   1.415  11.566
 6123TIP3    H142564   8.876   1.454  11.528
 6123TIP3    H242565   9.041   1.399  11.485
 6124TIP3   OH242566   8.784   1.746  10.381
 6124TIP3    H142567   8.681   1.697  10.367
 6124TIP3    H242568   8.832   1.744  10.293
 6125TIP3   OH242569   8.467   1.183  11.055
 6125TIP3    H142570   8.354   1.186  11.032
 6125TIP3    H242571   8.502   1.087  11.004
 6126TIP3   OH242572   7.531   1.686  10.678
 6126TIP3    H142573   7.567   1.793  10.648
 6126TIP3    H242574   7.417   1.696  10.663
 6127TIP3   OH242575   7.067   1.056  10.088
 6127TIP3    H142576   7.128   1.133  10.142
 6127TIP3    H242577   6.959   1.068  10.126
 6128TIP3   OH242578   7.716   1.414  10.624
 6128TIP3    H142579   7.646   1.510  10.635
 6128TIP3    H242580   7.657   1.333  10.677
 6129TIP3   OH242581   7.775   1.904  11.304
 6129TIP3    H142582   7.849   1.988  11.274
 6129TIP3    H242583   7.846   1.847  11.367
 6130TIP3   OH242584   7.564   1.987  10.569
 6130TIP3    H142585   7.452   2.015  10.590
 6130TIP3    H242586   7.618   2.087  10.597
 6131TIP3   OH242587   8.149   1.412  11.234
 6131TIP3    H142588   8.088   1.379  11.313
 6131TIP3    H242589   8.208   1.315  11.216
 6132TIP3   OH242590   8.471   1.574  10.128
 6132TIP3    H142591   8.516   1.532  10.211
 6132TIP3    H242592   8.368   1.520  10.132
 6133TIP3   OH242593   8.522   1.960  11.467
 6133TIP3    H142594   8.419   1.908  11.455
 6133TIP3    H242595   8.533   2.027  11.387
 6134TIP3   OH242596   9.048   2.095  10.133
 6134TIP3    H142597   9.134   2.172  10.137
 6134TIP3    H242598   8.962   2.149  10.183
 6135TIP3   OH242599   7.123   0.418  11.390
 6135TIP3    H142600   7.014   0.448  11.368
 6135TIP3    H242601   7.109   0.318  11.438
 6136TIP3   OH242602   8.587   1.393  10.348
 6136TIP3    H142603   8.552   1.284  10.361
 6136TIP3    H242604   8.704   1.379  10.348
 6137TIP3   OH242605   7.068   1.864  11.240
 6137TIP3    H142606   7.145   1.778  11.249
 6137TIP3    H242607   7.074   1.912  11.328
 6138TIP3   OH242608   7.594   1.618  10.235
 6138TIP3    H142609   7.694   1.580  10.271
 6138TIP3    H242610   7.602   1.733  10.258
 6139TIP3   OH242611   7.188   1.291  10.255
 6139TIP3    H142612   7.102   1.349  10.303
 6139TIP3    H242613   7.254   1.381  10.226
 6140TIP3   OH242614   8.126   0.408  11.314
 6140TIP3    H142615   8.228   0.430  11.357
 6140TIP3    H242616   8.075   0.336  11.379
 6141TIP3   OH242617   8.216   0.334  10.458
 6141TIP3    H142618   8.224   0.397  10.375
 6141TIP3    H242619   8.291   0.391  10.517
 6142TIP3   OH242620   7.964   1.823  10.257
 6142TIP3    H142621   7.884   1.837  10.326
 6142TIP3    H242622   7.997   1.933  10.246
 6143TIP3   OH242623   7.920   0.619  10.506
 6143TIP3    H142624   8.026   0.670  10.510
 6143TIP3    H242625   7.898   0.589  10.599
 6144TIP3   OH242626   8.000   0.738  11.407
 6144TIP3    H142627   8.026   0.776  11.498
 6144TIP3    H242628   8.041   0.629  11.401
 6145TIP3   OH242629   7.966   0.222  10.578
 6145TIP3    H142630   7.951   0.307  10.643
 6145TIP3    H242631   8.069   0.254  10.537
 6146TIP3   OH242632   7.637   1.925  10.308
 6146TIP3    H142633   7.672   2.027  10.267
 6146TIP3    H242634   7.602   1.960  10.397
 6147TIP3   OH242635   7.452   0.437  10.276
 6147TIP3    H142636   7.472   0.517  10.346
 6147TIP3    H242637   7.549   0.374  10.289
 6148TIP3   OH242638   8.706   0.457  11.482
 6148TIP3    H142639   8.598   0.503  11.479
 6148TIP3    H242640   8.705   0.398  11.398
 6149TIP3   OH242641   8.545   0.913  10.912
 6149TIP3    H142642   8.450   0.852  10.888
 6149TIP3    H242643   8.608   0.828  10.957
 6150TIP3   OH242644   7.279   1.586  10.174
 6150TIP3    H142645   7.390   1.608  10.207
 6150TIP3    H242646   7.302   1.574  10.079
 6151TIP3   OH242647   7.087   0.737  10.133
 6151TIP3    H142648   7.104   0.853  10.123
 6151TIP3    H242649   7.006   0.719  10.065
 6152TIP3   OH242650   8.704   2.004  11.059
 6152TIP3    H142651   8.678   2.093  10.996
 6152TIP3    H242652   8.819   2.017  11.068
 6153TIP3   OH242653   7.186   0.175  10.947
 6153TIP3    H142654   7.156   0.152  10.854
 6153TIP3    H242655   7.166   0.067  10.981
 6154TIP3   OH242656   7.009   1.768  10.569
 6154TIP3    H142657   6.914   1.835  10.572
 6154TIP3    H242658   7.054   1.807  10.485
 6155TIP3   OH242659   6.955   2.101  11.667
 6155TIP3    H142660   7.068   2.082  11.685
 6155TIP3    H242661   6.912   1.992  11.666
 6156TIP3   OH242662   7.514   1.961  11.831
 6156TIP3    H142663   7.616   1.921  11.864
 6156TIP3    H242664   7.511   1.910  11.743
 6157TIP3   OH242665   8.015   1.879   9.969
 6157TIP3    H142666   7.915   1.830   9.994
 6157TIP3    H242667   8.089   1.814  10.021
 6158TIP3   OH242668   8.267   1.808  11.733
 6158TIP3    H142669   8.225   1.703  11.764
 6158TIP3    H242670   8.372   1.806  11.775
 6159TIP3   OH242671   8.458   1.877  10.038
 6159TIP3    H142672   8.461   1.765  10.070
 6159TIP3    H242673   8.566   1.894  10.003
 6160TIP3   OH242674   6.900   1.321  11.796
 6160TIP3    H142675   6.880   1.208  11.775
 6160TIP3    H242676   6.856   1.376  11.717
 6161TIP3   OH242677   7.526   1.302  10.035
 6161TIP3    H142678   7.494   1.286  10.127
 6161TIP3    H242679   7.615   1.376  10.048
 6162TIP3   OH242680   7.722   1.352  11.680
 6162TIP3    H142681   7.705   1.414  11.597
 6162TIP3    H242682   7.705   1.240  11.652
 6163TIP3   OH242683   8.406   1.314  11.490
 6163TIP3    H142684   8.515   1.358  11.500
 6163TIP3    H242685   8.347   1.415  11.491
 6164TIP3   OH242686   7.098   0.996  11.744
 6164TIP3    H142687   7.165   0.902  11.756
 6164TIP3    H242688   7.139   1.068  11.814
 6165TIP3   OH242689   7.621   1.146  10.268
 6165TIP3    H142690   7.530   1.090  10.306
 6165TIP3    H242691   7.663   1.066  10.205
 6166TIP3   OH242692   7.490   0.878  11.416
 6166TIP3    H142693   7.416   0.967  11.432
 6166TIP3    H242694   7.574   0.938  11.370
 6167TIP3   OH242695   7.776   0.940  10.076
 6167TIP3    H142696   7.804   0.905   9.986
 6167TIP3    H242697   7.882   0.941  10.118
 6168TIP3   OH242698   8.146   1.241  11.801
 6168TIP3    H142699   8.244   1.190  11.768
 6168TIP3    H242700   8.088   1.147  11.833
 6169TIP3   OH242701   8.807   1.172  19.971
 6169TIP3    H142702   8.857   1.076  19.934
 6169TIP3    H242703   8.896   1.250  19.959
 6170TIP3   OH242704   7.601   0.614  11.544
 6170TIP3    H142705   7.612   0.536  11.471
 6170TIP3    H242706   7.591   0.714  11.491
 6171TIP3   OH242707   7.621   0.394  11.338
 6171TIP3    H142708   7.692   0.449  11.274
 6171TIP3    H242709   7.518   0.408  11.293
 6172TIP3   OH242710   7.760   1.046  11.332
 6172TIP3    H142711   7.876   1.062  11.324
 6172TIP3    H242712   7.717   1.141  11.286
 6173TIP3   OH242713   8.329   0.740  11.816
 6173TIP3    H142714   8.352   0.628  11.806
 6173TIP3    H242715   8.423   0.788  11.773
 6174TIP3   OH242716   8.483   1.136  11.709
 6174TIP3    H142717   8.452   1.192  11.626
 6174TIP3    H242718   8.593   1.104  11.686
 6175TIP3   OH242719   7.386   0.708  11.761
 6175TIP3    H142720   7.298   0.630  11.748
 6175TIP3    H242721   7.458   0.678  11.688
 6176TIP3   OH242722   7.726   0.097  11.288
 6176TIP3    H142723   7.700   0.208  11.318
 6176TIP3    H242724   7.615   0.061  11.284
 6177TIP3   OH242725   7.874   0.589  11.719
 6177TIP3    H142726   7.820   0.563  11.803
 6177TIP3    H242727   7.787   0.568  11.657
 6178TIP3   OH242728   8.215   0.479  11.636
 6178TIP3    H142729   8.100   0.474  11.655
 6178TIP3    H242730   8.257   0.406  11.705
 6179TIP3   OH242731   8.400   0.360  11.853
 6179TIP3    H142732   8.383   0.242  11.854
 6179TIP3    H242733   8.359   0.389  11.942
 6180TIP3   OH242734   7.141   0.496  11.772
 6180TIP3    H142735   7.124   0.408  11.710
 6180TIP3    H242736   7.117   0.443  11.858
 6181TIP3   OH242737   7.688   0.089  11.596
 6181TIP3    H142738   7.685  -0.028  11.613
 6181TIP3    H242739   7.781   0.103  11.538
 6182TIP3   OH242740   7.792   0.205  11.850
 6182TIP3    H142741   7.766   0.164  11.761
 6182TIP3    H242742   7.715   0.293  11.859
 6183TIP3   OH242743   7.687   2.209  10.191
 6183TIP3    H142744   7.804   2.222  10.194
 6183TIP3    H242745   7.657   2.278  10.117
 6184TIP3   OH242746   6.953   1.589  10.142
 6184TIP3    H142747   7.070   1.588  10.154
 6184TIP3    H242748   6.940   1.525  10.061
 6185TIP3   OH242749   6.798   2.186  10.602
 6185TIP3    H142750   6.708   2.123  10.568
 6185TIP3    H242751   6.836   2.120  10.676
 6186TIP3   OH242752   6.902   1.986  10.801
 6186TIP3    H142753   6.830   1.901  10.831
 6186TIP3    H242754   6.977   1.992  10.877
 6187TIP3   OH242755   9.064   2.053  11.111
 6187TIP3    H142756   9.058   2.066  11.207
 6187TIP3    H242757   9.064   2.165  11.085
 6188TIP3   OH242758   8.942   2.032  11.400
 6188TIP3    H142759   8.886   1.940  11.359
 6188TIP3    H242760   8.993   1.979  11.476
 6189TIP3   OH242761   8.776   1.504  11.880
 6189TIP3    H142762   8.669   1.520  11.919
 6189TIP3    H242763   8.820   1.612  11.885
 6190TIP3   OH242764   8.922   1.320  10.377
 6190TIP3    H142765   9.023   1.375  10.388
 6190TIP3    H242766   8.928   1.237  10.446
 6191TIP3   OH242767   8.954   1.085  10.582
 6191TIP3    H142768   8.842   1.054  10.588
 6191TIP3    H242769   8.989   1.066  10.673
 6192TIP3   OH242770   8.938   1.414  11.094
 6192TIP3    H142771   9.037   1.375  11.053
 6192TIP3    H242772   8.945   1.526  11.068
 6193TIP3   OH242773   8.768   1.758  11.311
 6193TIP3    H142774   8.675   1.808  11.350
 6193TIP3    H242775   8.735   1.741  11.218
 6194TIP3   OH242776   8.992   1.092  10.186
 6194TIP3    H142777   8.904   1.121  10.127
 6194TIP3    H242778   8.989   1.186  10.245
 6195TIP3   OH242779   8.807   0.742  10.101
 6195TIP3    H142780   8.738   0.794  10.035
 6195TIP3    H242781   8.798   0.630  10.072
 6196TIP3   OH242782   8.692   0.929  10.660
 6196TIP3    H142783   8.705   0.816  10.637
 6196TIP3    H242784   8.666   0.926  10.756
 6197TIP3   OH242785   6.895   1.200  11.058
 6197TIP3    H142786   6.908   1.168  10.964
 6197TIP3    H242787   7.003   1.176  11.093
 6198TIP3   OH242788   8.801   1.142  11.624
 6198TIP3    H142789   8.881   1.061  11.599
 6198TIP3    H242790   8.858   1.242  11.602
 6199TIP3   OH242791   8.978   0.888  11.618
 6199TIP3    H142792   8.884   0.880  11.677
 6199TIP3    H242793   9.030   0.786  11.639
 6200TIP3   OH242794   8.690   0.442   9.993
 6200TIP3    H142795   8.780   0.384  10.032
 6200TIP3    H242796   8.605   0.365  10.010
 6201TIP3   OH242797   8.696   0.649  10.459
 6201TIP3    H142798   8.732   0.545  10.492
 6201TIP3    H242799   8.797   0.685  10.417
 6202TIP3   OH242800   8.692   0.683  11.045
 6202TIP3    H142801   8.802   0.678  11.010
 6202TIP3    H242802   8.712   0.673  11.141
 6203TIP3   OH242803   8.755   0.767  11.307
 6203TIP3    H142804   8.644   0.800  11.312
 6203TIP3    H242805   8.809   0.869  11.286
 6204TIP3   OH242806   6.883   0.628  11.618
 6204TIP3    H142807   6.977   0.614  11.674
 6204TIP3    H242808   6.822   0.530  11.642
 6205TIP3   OH242809   9.088   0.062  11.850
 6205TIP3    H142810   9.192   0.074  11.808
 6205TIP3    H242811   9.024   0.133  11.792
 6206TIP3   OH242812   8.749   0.338  10.515
 6206TIP3    H142813   8.766   0.268  10.593
 6206TIP3    H242814   8.642   0.300  10.485
 6207TIP3   OH242815   6.996   0.428  10.985
 6207TIP3    H142816   7.048   0.325  10.999
 6207TIP3    H242817   7.090   0.498  10.981
 6208TIP3   OH242818   6.814   0.774  11.062
 6208TIP3    H142819   6.887   0.743  10.990
 6208TIP3    H242820   6.884   0.840  11.115
 6209TIP3   OH242821   8.951   0.284  11.693
 6209TIP3    H142822   8.858   0.350  11.722
 6209TIP3    H242823   8.918   0.259  11.601
 6210TIP3   OH242824   8.982   0.352  10.137
 6210TIP3    H142825   9.005   0.259  10.083
 6210TIP3    H242826   9.076   0.419  10.122
 6211TIP3   OH242827   6.820   0.308  10.493
 6211TIP3    H142828   6.709   0.338  10.473
 6211TIP3    H242829   6.874   0.359  10.417
 6212TIP3   OH242830   8.610   2.077  10.663
 6212TIP3    H142831   8.678   2.060  10.584
 6212TIP3    H242832   8.684   2.129  10.722
 6213TIP3   OH242833   6.875   0.184  11.278
 6213TIP3    H142834   6.800   0.199  11.352
 6213TIP3    H242835   6.824   0.251  11.209
 6214TIP3   OH242836   7.122   1.715  11.691
 6214TIP3    H142837   7.014   1.736  11.656
 6214TIP3    H242838   7.104   1.674  11.780
 6215TIP3   OH242839   7.457   1.902  11.357
 6215TIP3    H142840   7.456   2.011  11.321
 6215TIP3    H242841   7.571   1.877  11.348
 6216TIP3   OH242842   7.950   2.030  11.607
 6216TIP3    H142843   7.962   2.004  11.701
 6216TIP3    H242844   8.058   2.071  11.587
 6217TIP3   OH242845   8.221   2.207  11.573
 6217TIP3    H142846   8.318   2.167  11.533
 6217TIP3    H242847   8.260   2.251  11.659
 6218TIP3   OH242848   8.843   0.151  11.474
 6218TIP3    H142849   8.738   0.180  11.440
 6218TIP3    H242850   8.831   0.035  11.480
 6219TIP3   OH242851   7.133   2.237  11.335
 6219TIP3    H142852   7.061   2.320  11.300
 6219TIP3    H242853   7.117   2.250  11.430
 6220TIP3   OH242854   7.421   2.194  11.223
 6220TIP3    H142855   7.308   2.213  11.249
 6220TIP3    H242856   7.433   2.267  11.148
 6221TIP3   OH242857   8.008   2.152  11.152
 6221TIP3    H142858   7.930   2.202  11.094
 6221TIP3    H242859   8.021   2.236  11.220
 6222TIP3   OH242860   8.236   1.991  11.298
 6222TIP3    H142861   8.155   2.035  11.237
 6222TIP3    H242862   8.324   2.066  11.285
 6223TIP3   OH242863   8.545   2.149  11.256
 6223TIP3    H142864   8.569   2.260  11.236
 6223TIP3    H242865   8.599   2.098  11.179
 6224TIP3   OH242866   7.092   2.051  11.021
 6224TIP3    H142867   7.074   1.982  11.100
 6224TIP3    H242868   7.202   2.017  10.996
 6225TIP3   OH242869   7.358   1.937  10.907
 6225TIP3    H142870   7.345   1.822  10.924
 6225TIP3    H242871   7.465   1.951  10.946
 6226TIP3   OH242872   7.639   1.936  11.033
 6226TIP3    H142873   7.681   1.828  11.021
 6226TIP3    H242874   7.648   1.949  11.130
 6227TIP3   OH242875   8.050   0.336  10.916
 6227TIP3    H142876   7.990   0.235  10.919
 6227TIP3    H242877   8.125   0.310  10.844
 6228TIP3   OH242878   8.624   0.119  10.908
 6228TIP3    H142879   8.684   0.139  10.826
 6228TIP3    H242880   8.526   0.070  10.875
 6229TIP3   OH242881   8.842   0.116  10.697
 6229TIP3    H142882   8.928   0.048  10.667
 6229TIP3    H242883   8.898   0.196  10.753
 6230TIP3   OH242884   7.123   0.132  10.682
 6230TIP3    H142885   7.061   0.154  10.602
 6230TIP3    H242886   7.132   0.014  10.675
 6231TIP3   OH242887   7.031   0.132  10.327
 6231TIP3    H142888   7.060   0.181  10.241
 6231TIP3    H242889   6.916   0.150  10.329
 6232TIP3   OH242890   7.678   0.131  10.653
 6232TIP3    H142891   7.774   0.170  10.608
 6232TIP3    H242892   7.712   0.145  10.746
 6233TIP3   OH242893   8.305   0.179  10.761
 6233TIP3    H142894   8.372   0.196  10.682
 6233TIP3    H242895   8.315   0.064  10.775
 6234TIP3   OH242896   8.497   0.199  10.400
 6234TIP3    H142897   8.386   0.232  10.389
 6234TIP3    H242898   8.496   0.091  10.364
 6235TIP3   OH242899   6.976   1.973  10.354
 6235TIP3    H142900   6.871   1.973  10.308
 6235TIP3    H242901   6.998   2.086  10.346
 6236TIP3   OH242902   7.174   0.226  10.099
 6236TIP3    H142903   7.271   0.168  10.078
 6236TIP3    H242904   7.214   0.328  10.130
 6237TIP3   OH242905   7.792   0.358  10.357
 6237TIP3    H142906   7.842   0.277  10.412
 6237TIP3    H242907   7.829   0.452  10.406
 6238TIP3   OH242908   8.036   2.137  10.153
 6238TIP3    H142909   8.153   2.152  10.141
 6238TIP3    H242910   8.012   2.068  10.077
 6239TIP3   OH242911   8.820   2.052  10.470
 6239TIP3    H142912   8.804   1.944  10.433
 6239TIP3    H242913   8.826   2.120  10.390
 6240TIP3   OH242914   7.067   0.128  11.673
 6240TIP3    H142915   7.076   0.025  11.630
 6240TIP3    H242916   7.171   0.137  11.718
 6241TIP3   OH242917   7.350   0.109  11.797
 6241TIP3    H142918   7.458   0.154  11.799
 6241TIP3    H242919   7.375   0.004  11.755
 6242TIP3   OH242920   7.235   2.128  10.111
 6242TIP3    H142921   7.158   2.154  10.180
 6242TIP3    H242922   7.273   2.022  10.135
 6243TIP3   OH242923   8.356   0.055  11.801
 6243TIP3    H142924   8.330  -0.060  11.810
 6243TIP3    H242925   8.450   0.049  11.747
 6244TIP3   OH242926   8.736   1.868  11.645
 6244TIP3    H142927   8.658   1.882  11.573
 6244TIP3    H242928   8.742   1.980  11.675
 6245TIP3   OH242929   9.070   0.776  10.572
 6245TIP3    H142930   9.064   0.893  10.570
 6245TIP3    H242931   9.026   0.752  10.483
 6246TIP3   OH242932   9.090   1.340  11.330
 6246TIP3    H142933   9.031   1.332  11.244
 6246TIP3    H242934   9.110   1.226  11.351
 6247TIP3   OH242935   9.050   1.694  11.012
 6247TIP3    H142936   9.163   1.691  10.981
 6247TIP3    H242937   9.054   1.782  11.075
 6248TIP3   OH242938   9.034   0.394  10.740
 6248TIP3    H142939   9.137   0.445  10.762
 6248TIP3    H242940   9.036   0.408  10.643
 6249TIP3   OH242941   9.112   1.051  11.423
 6249TIP3    H142942   9.085   0.988  11.503
 6249TIP3    H242943   9.023   1.018  11.364
 6250TIP3   OH242944   9.144   1.262  11.760
 6250TIP3    H142945   9.076   1.229  11.834
 6250TIP3    H242946   9.067   1.315  11.700
 6251TIP3   OH242947   9.010   2.203  10.644
 6251TIP3    H142948   8.940   2.146  10.580
 6251TIP3    H242949   9.036   2.111  10.702
 6252TIP3   OH242950   9.065   1.937  10.797
 6252TIP3    H142951   9.024   1.829  10.810
 6252TIP3    H242952   9.114   1.954  10.884
 6253TIP3   OH242953   9.130   1.134  11.069
 6253TIP3    H142954   9.137   1.117  10.974
 6253TIP3    H242955   9.236   1.180  11.084
 6254TIP3   OH242956   9.031   0.587  11.649
 6254TIP3    H142957   9.143   0.622  11.659
 6254TIP3    H242958   9.031   0.472  11.662
 6255TIP3   OH242959   8.996   0.731  10.983
 6255TIP3    H142960   9.110   0.710  10.971
 6255TIP3    H242961   9.010   0.808  11.056
 6256TIP3   OH242962   9.062   0.360  10.456
 6256TIP3    H142963   8.946   0.350  10.466
 6256TIP3    H242964   9.072   0.361  10.359
 6257TIP3   OH242965   9.025   0.205  11.264
 6257TIP3    H142966   8.956   0.210  11.344
 6257TIP3    H242967   8.980   0.289  11.206
 6258TIP3   OH242968   1.475   3.457  10.676
 6258TIP3    H142969   1.470   3.568  10.709
 6258TIP3    H242970   1.387   3.458  10.611
 6259TIP3   OH242971   1.316   3.298  11.000
 6259TIP3    H142972   1.294   3.230  11.078
 6259TIP3    H242973   1.241   3.258  10.932
 6260TIP3   OH242974   0.403   3.312  11.143
 6260TIP3    H142975   0.398   3.212  11.192
 6260TIP3    H242976   0.469   3.376  11.203
 6261TIP3   OH242977   1.686   3.689  10.869
 6261TIP3    H142978   1.669   3.600  10.931
 6261TIP3    H242979   1.717   3.774  10.929
 6262TIP3   OH242980   0.430   3.852  10.980
 6262TIP3    H142981   0.404   3.738  10.961
 6262TIP3    H242982   0.545   3.842  10.986
 6263TIP3   OH242983   0.174   3.074  10.541
 6263TIP3    H142984   0.139   3.142  10.614
 6263TIP3    H242985   0.073   3.014  10.528
 6264TIP3   OH242986   0.133   3.325  10.802
 6264TIP3    H142987   0.196   3.233  10.834
 6264TIP3    H242988   0.212   3.379  10.747
 6265TIP3   OH242989   1.428   4.361  10.892
 6265TIP3    H142990   1.499   4.288  10.841
 6265TIP3    H242991   1.355   4.283  10.928
 6266TIP3   OH242992   1.097   3.605  11.092
 6266TIP3    H142993   1.141   3.580  11.006
 6266TIP3    H242994   1.190   3.654  11.136
 6267TIP3   OH242995   2.129   2.606  11.110
 6267TIP3    H142996   2.147   2.677  11.187
 6267TIP3    H242997   2.222   2.632  11.056
 6268TIP3   OH242998   1.543   2.964  11.110
 6268TIP3    H142999   1.549   2.849  11.125
 6268TIP3    H243000   1.516   2.960  11.015
 6269TIP3   OH243001   0.696   2.722  10.796
 6269TIP3    H143002   0.718   2.816  10.740
 6269TIP3    H243003   0.644   2.653  10.730
 6270TIP3   OH243004   1.582   2.750  10.650
 6270TIP3    H143005   1.638   2.716  10.732
 6270TIP3    H243006   1.660   2.822  10.612
 6271TIP3   OH243007   0.330   3.062  10.861
 6271TIP3    H143008   0.389   2.987  10.918
 6271TIP3    H243009   0.338   3.005  10.776
 6272TIP3   OH243010   0.792   3.215  10.825
 6272TIP3    H143011   0.899   3.180  10.851
 6272TIP3    H243012   0.766   3.128  10.761
 6273TIP3   OH243013   2.156   2.786  11.332
 6273TIP3    H143014   2.108   2.887  11.297
 6273TIP3    H243015   2.195   2.826  11.417
 6274TIP3   OH243016   0.548   2.611  11.208
 6274TIP3    H143017   0.522   2.672  11.128
 6274TIP3    H243018   0.474   2.662  11.273
 6275TIP3   OH243019   1.378   3.768  10.554
 6275TIP3    H143020   1.366   3.758  10.457
 6275TIP3    H243021   1.336   3.877  10.568
 6276TIP3   OH243022   0.824   3.540  11.225
 6276TIP3    H143023   0.757   3.632  11.248
 6276TIP3    H243024   0.913   3.590  11.176
 6277TIP3   OH243025   1.790   2.708  10.853
 6277TIP3    H143026   1.786   2.611  10.904
 6277TIP3    H243027   1.890   2.756  10.885
 6278TIP3   OH243028   0.494   2.843  11.006
 6278TIP3    H143029   0.565   2.921  11.051
 6278TIP3    H243030   0.564   2.807  10.932
 6279TIP3   OH243031   0.666   3.814  11.297
 6279TIP3    H143032   0.637   3.912  11.252
 6279TIP3    H243033   0.564   3.787  11.342
 6280TIP3   OH243034   0.118   3.724  10.386
 6280TIP3    H143035   0.132   3.772  10.297
 6280TIP3    H243036   0.166   3.802  10.447
 6281TIP3   OH243037   1.810   3.936  11.056
 6281TIP3    H143038   1.698   3.955  11.082
 6281TIP3    H243039   1.835   4.043  11.023
 6282TIP3   OH243040   1.794   2.562  11.187
 6282TIP3    H143041   1.706   2.604  11.132
 6282TIP3    H243042   1.888   2.585  11.132
 6283TIP3   OH243043   0.984   2.311  10.927
 6283TIP3    H143044   0.947   2.204  10.948
 6283TIP3    H243045   0.898   2.376  10.968
 6284TIP3   OH243046   1.603   4.156  10.741
 6284TIP3    H143047   1.619   4.056  10.692
 6284TIP3    H243048   1.703   4.211  10.713
 6285TIP3   OH243049   1.734   3.898  10.588
 6285TIP3    H143050   1.724   3.811  10.523
 6285TIP3    H243051   1.722   3.835  10.669
 6286TIP3   OH243052   1.924   3.731  11.439
 6286TIP3    H143053   1.950   3.648  11.372
 6286TIP3    H243054   1.932   3.827  11.383
 6287TIP3   OH243055   1.295   3.403  10.415
 6287TIP3    H143056   1.224   3.493  10.390
 6287TIP3    H243057   1.387   3.420  10.357
 6288TIP3   OH243058   1.327   3.200  10.126
 6288TIP3    H143059   1.409   3.253  10.183
 6288TIP3    H243060   1.385   3.100  10.110
 6289TIP3   OH243061   2.171   3.311  11.230
 6289TIP3    H143062   2.086   3.391  11.233
 6289TIP3    H243063   2.243   3.361  11.165
 6290TIP3   OH243064   1.717   3.348  10.514
 6290TIP3    H143065   1.637   3.398  10.574
 6290TIP3    H243066   1.795   3.307  10.580
 6291TIP3   OH243067   1.728   3.160  11.426
 6291TIP3    H143068   1.715   3.269  11.461
 6291TIP3    H243069   1.655   3.162  11.350
 6292TIP3   OH243070   0.673   3.478  10.706
 6292TIP3    H143071   0.618   3.434  10.627
 6292TIP3    H243072   0.703   3.379  10.754
 6293TIP3   OH243073   0.850   3.834  10.959
 6293TIP3    H143074   0.868   3.829  10.863
 6293TIP3    H243075   0.937   3.770  10.994
 6294TIP3   OH243076   0.764   3.277  11.085
 6294TIP3    H143077   0.781   3.292  10.988
 6294TIP3    H243078   0.774   3.384  11.124
 6295TIP3   OH243079   1.505   3.984  11.135
 6295TIP3    H143080   1.482   4.064  11.203
 6295TIP3    H243081   1.442   3.894  11.169
 6296TIP3   OH243082   0.844   3.850  11.520
 6296TIP3    H143083   0.749   3.898  11.562
 6296TIP3    H243084   0.804   3.834  11.428
 6297TIP3   OH243085   1.561   3.314  10.282
 6297TIP3    H143086   1.618   3.319  10.369
 6297TIP3    H243087   1.639   3.371  10.224
 6298TIP3   OH243088   0.539   3.382  11.420
 6298TIP3    H143089   0.530   3.482  11.471
 6298TIP3    H243090   0.430   3.344  11.420
 6299TIP3   OH243091   1.276   4.090  10.563
 6299TIP3    H143092   1.315   4.132  10.646
 6299TIP3    H243093   1.217   4.177  10.523
 6300TIP3   OH243094   0.620   4.057  11.609
 6300TIP3    H143095   0.605   4.081  11.514
 6300TIP3    H243096   0.508   4.042  11.636
 6301TIP3   OH243097   2.041   2.282  10.300
 6301TIP3    H143098   1.924   2.276  10.314
 6301TIP3    H243099   2.051   2.393  10.270
 6302TIP3   OH243100   0.516   3.313  10.485
 6302TIP3    H143101   0.490   3.391  10.415
 6302TIP3    H243102   0.500   3.211  10.442
 6303TIP3   OH243103   2.144   4.046  10.121
 6303TIP3    H143104   2.182   4.158  10.128
 6303TIP3    H243105   2.245   3.988  10.135
 6304TIP3   OH243106   0.204   3.594  11.359
 6304TIP3    H143107   0.091   3.599  11.330
 6304TIP3    H243108   0.215   3.484  11.389
 6305TIP3   OH243109   0.151   4.006  10.986
 6305TIP3    H143110   0.240   3.926  10.993
 6305TIP3    H243111   0.167   4.064  11.069
 6306TIP3   OH243112   2.257   4.040  11.615
 6306TIP3    H143113   2.242   3.928  11.594
 6306TIP3    H243114   2.150   4.064  11.651
 6307TIP3   OH243115   1.140   3.972  11.496
 6307TIP3    H143116   1.157   4.067  11.552
 6307TIP3    H243117   1.027   3.942  11.513
 6308TIP3   OH243118   1.198   4.423  10.438
 6308TIP3    H143119   1.229   4.446  10.346
 6308TIP3    H243120   1.218   4.526  10.482
 6309TIP3   OH243121   0.480   4.256  10.647
 6309TIP3    H143122   0.510   4.241  10.742
 6309TIP3    H243123   0.364   4.258  10.657
 6310TIP3   OH243124   1.559   4.406  10.181
 6310TIP3    H143125   1.620   4.318  10.141
 6310TIP3    H243126   1.597   4.405  10.271
 6311TIP3   OH243127   1.537   4.342  10.470
 6311TIP3    H143128   1.421   4.336  10.477
 6311TIP3    H243129   1.570   4.236  10.501
 6312TIP3   OH243130   1.864   2.996  11.655
 6312TIP3    H143131   1.826   3.058  11.577
 6312TIP3    H243132   1.885   2.893  11.612
 6313TIP3   OH243133   0.373   3.852  11.427
 6313TIP3    H143134   0.388   3.816  11.519
 6313TIP3    H243135   0.304   3.764  11.395
 6314TIP3   OH243136   0.715   2.441  11.027
 6314TIP3    H143137   0.613   2.447  10.978
 6314TIP3    H243138   0.682   2.486  11.112
 6315TIP3   OH243139   1.264   2.347  11.352
 6315TIP3    H143140   1.301   2.293  11.433
 6315TIP3    H243141   1.146   2.344  11.361
 6316TIP3   OH243142   1.610   2.864  11.469
 6316TIP3    H143143   1.567   2.834  11.557
 6316TIP3    H243144   1.646   2.975  11.480
 6317TIP3   OH243145   1.758   3.448  10.120
 6317TIP3    H143146   1.715   3.451  10.028
 6317TIP3    H243147   1.871   3.469  10.097
 6318TIP3   OH243148   1.231   2.688  10.128
 6318TIP3    H143149   1.174   2.645  10.207
 6318TIP3    H243150   1.168   2.641  10.059
 6319TIP3   OH243151   0.702   2.987  11.177
 6319TIP3    H143152   0.601   3.001  11.226
 6319TIP3    H243153   0.725   3.097  11.146
 6320TIP3   OH243154   0.726   2.983  10.645
 6320TIP3    H143155   0.607   2.986  10.634
 6320TIP3    H243156   0.761   2.962  10.554
 6321TIP3   OH243157   1.385   3.120  10.551
 6321TIP3    H143158   1.344   3.212  10.499
 6321TIP3    H243159   1.458   3.072  10.486
 6322TIP3   OH243160   1.216   3.126  11.681
 6322TIP3    H143161   1.170   3.026  11.721
 6322TIP3    H243162   1.320   3.125  11.724
 6323TIP3   OH243163   1.494   3.024  10.816
 6323TIP3    H143164   1.472   3.126  10.770
 6323TIP3    H243165   1.502   2.954  10.737
 6324TIP3   OH243166   0.413   2.998  11.301
 6324TIP3    H143167   0.380   3.050  11.382
 6324TIP3    H243168   0.379   2.887  11.319
 6325TIP3   OH243169   0.786   2.645  10.024
 6325TIP3    H143170   0.768   2.669  10.117
 6325TIP3    H243171   0.714   2.716   9.976
 6326TIP3   OH243172   0.148   2.742  10.717
 6326TIP3    H143173   0.187   2.680  10.794
 6326TIP3    H243174   0.151   2.668  10.643
 6327TIP3   OH243175   0.130   2.770  10.253
 6327TIP3    H143176   0.217   2.820  10.205
 6327TIP3    H243177   0.064   2.862  10.270
 6328TIP3   OH243178   1.345   3.142  11.257
 6328TIP3    H143179   1.435   3.094  11.209
 6328TIP3    H243180   1.309   3.053  11.313
 6329TIP3   OH243181   1.039   2.707  10.749
 6329TIP3    H143182   0.931   2.723  10.783
 6329TIP3    H243183   1.094   2.662  10.825
 6330TIP3   OH243184   0.419   2.915  10.630
 6330TIP3    H143185   0.322   2.946  10.578
 6330TIP3    H243186   0.412   2.796  10.623
 6331TIP3   OH243187   0.820   2.897  10.385
 6331TIP3    H143188   0.929   2.934  10.401
 6331TIP3    H243189   0.774   2.983  10.330
 6332TIP3   OH243190   1.524   2.636  11.071
 6332TIP3    H143191   1.452   2.621  11.147
 6332TIP3    H243192   1.477   2.569  11.002
 6333TIP3   OH243193   0.708   3.092  10.190
 6333TIP3    H143194   0.617   3.047  10.141
 6333TIP3    H243195   0.788   3.108  10.120
 6334TIP3   OH243196   1.886   4.526  11.720
 6334TIP3    H143197   1.916   4.586  11.641
 6334TIP3    H243198   1.986   4.535  11.769
 6335TIP3   OH243199   0.499   3.625  11.620
 6335TIP3    H143200   0.574   3.634  11.695
 6335TIP3    H243201   0.404   3.580  11.663
 6336TIP3   OH243202   1.122   3.038  10.905
 6336TIP3    H143203   1.228   3.024  10.865
 6336TIP3    H243204   1.106   2.934  10.945
 6337TIP3   OH243205   0.482   2.605  10.594
 6337TIP3    H143206   0.418   2.513  10.623
 6337TIP3    H243207   0.491   2.586  10.499
 6338TIP3   OH243208   0.982   2.834  11.168
 6338TIP3    H143209   0.883   2.898  11.161
 6338TIP3    H243210   1.055   2.909  11.209
 6339TIP3   OH243211   1.074   3.631  10.366
 6339TIP3    H143212   0.983   3.575  10.324
 6339TIP3    H243213   1.028   3.646  10.456
 6340TIP3   OH243214   1.943   3.541  11.234
 6340TIP3    H143215   2.008   3.607  11.171
 6340TIP3    H243216   1.848   3.524  11.179
 6341TIP3   OH243217   1.534   2.752  10.176
 6341TIP3    H143218   1.416   2.744  10.165
 6341TIP3    H243219   1.548   2.858  10.215
 6342TIP3   OH243220   1.201   3.647  11.487
 6342TIP3    H143221   1.151   3.636  11.573
 6342TIP3    H243222   1.195   3.763  11.475
 6343TIP3   OH243223   1.603   2.998  10.333
 6343TIP3    H143224   1.699   2.966  10.383
 6343TIP3    H243225   1.637   3.101  10.296
 6344TIP3   OH243226   0.492   3.548  10.922
 6344TIP3    H143227   0.541   3.541  10.834
 6344TIP3    H243228   0.530   3.451  10.966
 6345TIP3   OH243229   1.343   3.791  10.276
 6345TIP3    H143230   1.291   3.896  10.281
 6345TIP3    H243231   1.250   3.720  10.290
 6346TIP3   OH243232   0.221   3.270  11.429
 6346TIP3    H143233   0.214   3.269  11.526
 6346TIP3    H243234   0.106   3.266  11.408
 6347TIP3   OH243235   0.953   3.305  11.647
 6347TIP3    H143236   0.871   3.226  11.626
 6347TIP3    H243237   1.036   3.242  11.692
 6348TIP3   OH243238   1.552   3.932  11.504
 6348TIP3    H143239   1.454   3.942  11.454
 6348TIP3    H243240   1.518   3.980  11.590
 6349TIP3   OH243241   2.206   2.998  10.324
 6349TIP3    H143242   2.118   2.971  10.262
 6349TIP3    H243243   2.203   3.115  10.315
 6350TIP3   OH243244   2.216   3.689  11.572
 6350TIP3    H143245   2.112   3.715  11.532
 6350TIP3    H243246   2.287   3.686  11.493
 6351TIP3   OH243247   2.020   4.009  10.372
 6351TIP3    H143248   1.916   3.955  10.370
 6351TIP3    H243249   2.047   4.015  10.276
 6352TIP3   OH243250   1.646   3.439  11.044
 6352TIP3    H143251   1.537   3.410  11.020
 6352TIP3    H243252   1.703   3.348  11.004
 6353TIP3   OH243253   0.736   3.947  10.682
 6353TIP3    H143254   0.772   4.049  10.644
 6353TIP3    H243255   0.624   3.944  10.656
 6354TIP3   OH243256   0.284   3.296  10.138
 6354TIP3    H143257   0.348   3.383  10.176
 6354TIP3    H243258   0.176   3.325  10.162
 6355TIP3   OH243259   0.913   3.677  10.616
 6355TIP3    H143260   0.846   3.773  10.623
 6355TIP3    H243261   0.848   3.596  10.662
 6356TIP3   OH243262   1.007   4.152  11.290
 6356TIP3    H143263   1.072   4.242  11.256
 6356TIP3    H243264   1.079   4.104  11.356
 6357TIP3   OH243265   0.799   4.247  10.580
 6357TIP3    H143266   0.684   4.250  10.598
 6357TIP3    H243267   0.830   4.357  10.597
 6358TIP3   OH243268   1.355   3.703  11.227
 6358TIP3    H143269   1.322   3.653  11.311
 6358TIP3    H243270   1.438   3.631  11.193
 6359TIP3   OH243271   1.712   3.812  10.129
 6359TIP3    H143272   1.720   3.758  10.216
 6359TIP3    H243273   1.597   3.808  10.120
 6360TIP3   OH243274   1.760   4.226  11.458
 6360TIP3    H143275   1.657   4.172  11.460
 6360TIP3    H243276   1.756   4.296  11.379
 6361TIP3   OH243277   2.238   4.355  10.166
 6361TIP3    H143278   2.317   4.436  10.142
 6361TIP3    H243279   2.162   4.423  10.218
 6362TIP3   OH243280   0.335   2.718  11.404
 6362TIP3    H143281   0.301   2.776  11.485
 6362TIP3    H243282   0.324   2.608  11.431
 6363TIP3   OH243283   1.794   3.654  10.360
 6363TIP3    H143284   1.784   3.539  10.348
 6363TIP3    H243285   1.908   3.667  10.344
 6364TIP3   OH243286   0.292   4.140  11.222
 6364TIP3    H143287   0.366   4.052  11.238
 6364TIP3    H243288   0.260   4.165  11.312
 6365TIP3   OH243289   0.804   3.878  10.221
 6365TIP3    H143290   0.902   3.834  10.258
 6365TIP3    H243291   0.814   3.991  10.250
 6366TIP3   OH243292   0.418   3.553  10.284
 6366TIP3    H143293   0.323   3.607  10.319
 6366TIP3    H243294   0.475   3.641  10.242
 6367TIP3   OH243295   1.368   2.672  11.329
 6367TIP3    H143296   1.468   2.693  11.377
 6367TIP3    H243297   1.337   2.564  11.357
 6368TIP3   OH243298   1.475   2.585  10.438
 6368TIP3    H143299   1.502   2.662  10.368
 6368TIP3    H243300   1.531   2.632  10.516
 6369TIP3   OH243301   1.182   4.088  10.258
 6369TIP3    H143302   1.079   4.117  10.297
 6369TIP3    H243303   1.232   4.193  10.248
 6370TIP3   OH243304   1.142   2.850  10.521
 6370TIP3    H143305   1.212   2.941  10.539
 6370TIP3    H243306   1.099   2.824  10.609
 6371TIP3   OH243307   1.230   2.929  11.439
 6371TIP3    H143308   1.265   2.894  11.528
 6371TIP3    H243309   1.273   2.837  11.387
 6372TIP3   OH243310   1.213   2.458  10.563
 6372TIP3    H143311   1.165   2.554  10.603
 6372TIP3    H243312   1.312   2.507  10.524
 6373TIP3   OH243313   0.856   4.186  10.297
 6373TIP3    H143314   0.872   4.292  10.257
 6373TIP3    H243315   0.832   4.217  10.389
 6374TIP3   OH243316   0.671   2.610  10.304
 6374TIP3    H143317   0.694   2.712  10.349
 6374TIP3    H243318   0.769   2.551  10.324
 6375TIP3   OH243319   1.909   2.722  11.515
 6375TIP3    H143320   1.796   2.724  11.488
 6375TIP3    H243321   1.961   2.718  11.427
 6376TIP3   OH243322   1.771   3.149  10.910
 6376TIP3    H143323   1.676   3.082  10.895
 6376TIP3    H243324   1.844   3.074  10.955
 6377TIP3   OH243325   0.494   3.862  10.138
 6377TIP3    H143326   0.592   3.894  10.185
 6377TIP3    H243327   0.542   3.782  10.078
 6378TIP3   OH243328   0.379   2.977  10.130
 6378TIP3    H143329   0.368   3.090  10.157
 6378TIP3    H243330   0.289   2.977  10.066
 6379TIP3   OH243331   1.883   4.285  11.060
 6379TIP3    H143332   1.888   4.352  10.981
 6379TIP3    H243333   1.998   4.278  11.080
 6380TIP3   OH243334   0.401   2.372  10.957
 6380TIP3    H143335   0.391   2.346  10.861
 6380TIP3    H243336   0.368   2.268  10.996
 6381TIP3   OH243337   0.248   3.991  10.513
 6381TIP3    H143338   0.154   4.049  10.540
 6381TIP3    H243339   0.311   4.074  10.470
 6382TIP3   OH243340   0.194   4.373  11.686
 6382TIP3    H143341   0.268   4.376  11.763
 6382TIP3    H243342   0.154   4.266  11.700
 6383TIP3   OH243343   0.744   4.265  11.818
 6383TIP3    H143344   0.840   4.212  11.850
 6383TIP3    H243345   0.715   4.201  11.740
 6384TIP3   OH243346   1.208   4.139   9.964
 6384TIP3    H143347   1.135   4.064  10.005
 6384TIP3    H243348   1.308   4.109  10.007
 6385TIP3   OH243349   1.481   4.069  11.735
 6385TIP3    H143350   1.439   3.965  11.766
 6385TIP3    H243351   1.585   4.070  11.781
 6386TIP3   OH243352   1.692   4.127  10.086
 6386TIP3    H143353   1.723   4.015  10.099
 6386TIP3    H243354   1.765   4.169  10.019
 6387TIP3   OH243355   0.238   3.642  11.831
 6387TIP3    H143356   0.289   3.544  11.860
 6387TIP3    H243357   0.136   3.599  11.793
 6388TIP3   OH243358   0.727   3.598  10.064
 6388TIP3    H143359   0.739   3.552  10.154
 6388TIP3    H243360   0.833   3.642  10.052
 6389TIP3   OH243361   0.943   3.634  11.707
 6389TIP3    H143362   0.926   3.695  11.623
 6389TIP3    H243363   0.948   3.521  11.680
 6390TIP3   OH243364   1.628   3.583  11.486
 6390TIP3    H143365   1.732   3.638  11.481
 6390TIP3    H243366   1.565   3.677  11.511
 6391TIP3   OH243367   0.280   3.264  11.753
 6391TIP3    H143368   0.370   3.191  11.760
 6391TIP3    H243369   0.256   3.286  11.848
 6392TIP3   OH243370   0.839   3.434  10.270
 6392TIP3    H143371   0.763   3.365  10.316
 6392TIP3    H243372   0.889   3.359  10.207
 6393TIP3   OH243373   0.761   3.155  11.436
 6393TIP3    H143374   0.670   3.215  11.473
 6393TIP3    H243375   0.767   3.211  11.352
 6394TIP3   OH243376   0.997   3.214  10.065
 6394TIP3    H143377   1.019   3.180   9.974
 6394TIP3    H243378   1.106   3.210  10.103
 6395TIP3   OH243379   1.363   3.487  11.779
 6395TIP3    H143380   1.446   3.425  11.732
 6395TIP3    H243381   1.319   3.408  11.839
 6396TIP3   OH243382   2.042   3.468  19.999
 6396TIP3    H143383   2.114   3.424  19.933
 6396TIP3    H243384   2.084   3.577  20.002
 6397TIP3   OH243385   0.817   2.868  11.531
 6397TIP3    H143386   0.827   2.783  11.463
 6397TIP3    H243387   0.803   2.965  11.476
 6398TIP3   OH243388   0.839   2.632  11.344
 6398TIP3    H143389   0.876   2.681  11.260
 6398TIP3    H243390   0.724   2.616  11.328
 6399TIP3   OH243391   1.033   3.325  11.308
 6399TIP3    H143392   1.111   3.379  11.253
 6399TIP3    H243393   0.942   3.398  11.295
 6400TIP3   OH243394   1.570   2.998  11.851
 6400TIP3    H143395   1.583   2.882  11.857
 6400TIP3    H243396   1.673   3.031  11.813
 6401TIP3   OH243397   1.706   3.386  11.679
 6401TIP3    H143398   1.670   3.454  11.604
 6401TIP3    H243399   1.820   3.382  11.659
 6402TIP3   OH243400   0.535   3.013  11.688
 6402TIP3    H143401   0.485   2.911  11.708
 6402TIP3    H243402   0.628   2.975  11.638
 6403TIP3   OH243403   0.934   2.324  11.370
 6403TIP3    H143404   0.905   2.438  11.362
 6403TIP3    H243405   0.857   2.275  11.309
 6404TIP3   OH243406   1.057   2.858  11.754
 6404TIP3    H143407   0.995   2.809  11.826
 6404TIP3    H243408   0.988   2.833  11.678
 6405TIP3   OH243409   1.392   2.758  11.656
 6405TIP3    H143410   1.296   2.712  11.695
 6405TIP3    H243411   1.472   2.700  11.710
 6406TIP3   OH243412   1.574   2.582  11.826
 6406TIP3    H143413   1.579   2.466  11.833
 6406TIP3    H243414   1.562   2.616  11.920
 6407TIP3   OH243415   0.353   2.718  11.764
 6407TIP3    H143416   0.386   2.615  11.728
 6407TIP3    H243417   0.316   2.687  11.854
 6408TIP3   OH243418   0.932   2.257  11.662
 6408TIP3    H143419   1.033   2.198  11.657
 6408TIP3    H243420   0.912   2.269  11.567
 6409TIP3   OH243421   0.968   2.485  11.861
 6409TIP3    H143422   0.952   2.389  11.805
 6409TIP3    H243423   0.882   2.560  11.834
 6410TIP3   OH243424   0.912   4.474  10.193
 6410TIP3    H143425   1.027   4.482  10.201
 6410TIP3    H243426   0.890   4.519  10.106
 6411TIP3   OH243427   0.185   3.793  10.120
 6411TIP3    H143428   0.296   3.832  10.122
 6411TIP3    H243429   0.192   3.706  10.057
 6412TIP3   OH243430   0.103   4.436  10.578
 6412TIP3    H143431  -0.005   4.476  10.597
 6412TIP3    H243432   0.126   4.376  10.660
 6413TIP3   OH243433   0.203   4.253  10.798
 6413TIP3    H143434   0.199   4.140  10.822
 6413TIP3    H243435   0.239   4.301  10.881
 6414TIP3   OH243436   2.219   4.324  11.070
 6414TIP3    H143437   2.250   4.343  11.162
 6414TIP3    H243438   2.290   4.396  11.023
 6415TIP3   OH243439   2.146   4.285  11.365
 6415TIP3    H143440   2.096   4.194  11.317
 6415TIP3    H243441   2.177   4.230  11.447
 6416TIP3   OH243442   1.997   3.775  11.853
 6416TIP3    H143443   1.882   3.782  11.870
 6416TIP3    H243444   2.038   3.869  11.903
 6417TIP3   OH243445   2.113   3.600  10.362
 6417TIP3    H143446   2.219   3.643  10.387
 6417TIP3    H243447   2.082   3.542  10.442
 6418TIP3   OH243448   2.182   3.366  10.600
 6418TIP3    H143449   2.077   3.318  10.625
 6418TIP3    H243450   2.236   3.370  10.687
 6419TIP3   OH243451   2.134   3.695  11.064
 6419TIP3    H143452   2.213   3.613  11.041
 6419TIP3    H243453   2.178   3.790  11.022
 6420TIP3   OH243454   1.976   4.020  11.298
 6420TIP3    H143455   1.896   4.069  11.356
 6420TIP3    H243456   1.914   3.992  11.218
 6421TIP3   OH243457   2.238   3.341  10.213
 6421TIP3    H143458   2.159   3.370  10.145
 6421TIP3    H243459   2.227   3.432  10.273
 6422TIP3   OH243460   1.951   2.970  10.140
 6422TIP3    H143461   1.930   3.052  10.073
 6422TIP3    H243462   2.000   2.890  10.083
 6423TIP3   OH243463   1.922   3.193  10.675
 6423TIP3    H143464   1.908   3.082  10.652
 6423TIP3    H243465   1.888   3.192  10.768
 6424TIP3   OH243466   0.179   3.520  11.015
 6424TIP3    H143467   0.180   3.449  10.936
 6424TIP3    H243468   0.282   3.490  11.056
 6425TIP3   OH243469   2.051   3.414  11.613
 6425TIP3    H143470   2.104   3.310  11.625
 6425TIP3    H243471   2.136   3.491  11.589
 6426TIP3   OH243472   2.174   3.118  11.643
 6426TIP3    H143473   2.071   3.083  11.680
 6426TIP3    H243474   2.246   3.026  11.660
 6427TIP3   OH243475   1.927   2.695   9.971
 6427TIP3    H143476   1.994   2.645  10.038
 6427TIP3    H243477   1.822   2.666  10.000
 6428TIP3   OH243478   1.858   2.894  10.483
 6428TIP3    H143479   1.884   2.783  10.506
 6428TIP3    H243480   1.962   2.924  10.448
 6429TIP3   OH243481   1.980   2.939  11.034
 6429TIP3    H143482   2.096   2.960  11.040
 6429TIP3    H243483   1.948   2.954  11.126
 6430TIP3   OH243484   1.986   3.044  11.294
 6430TIP3    H143485   1.896   3.084  11.346
 6430TIP3    H243486   2.045   3.144  11.270
 6431TIP3   OH243487   0.137   2.833  11.591
 6431TIP3    H143488   0.223   2.860  11.653
 6431TIP3    H243489   0.138   2.716  11.595
 6432TIP3   OH243490   2.228   2.329  11.812
 6432TIP3    H143491   2.290   2.255  11.756
 6432TIP3    H243492   2.224   2.426  11.755
 6433TIP3   OH243493   1.966   2.590  10.515
 6433TIP3    H143494   2.011   2.533  10.593
 6433TIP3    H243495   1.906   2.502  10.473
 6434TIP3   OH243496   0.220   2.645  10.979
 6434TIP3    H143497   0.286   2.548  10.991
 6434TIP3    H243498   0.294   2.731  10.998
 6435TIP3   OH243499   0.102   3.012  11.059
 6435TIP3    H143500   0.186   3.012  10.992
 6435TIP3    H243501   0.121   3.110  11.107
 6436TIP3   OH243502   2.134   2.573  11.661
 6436TIP3    H143503   2.050   2.650  11.638
 6436TIP3    H243504   2.142   2.522  11.573
 6437TIP3   OH243505   2.180   2.596  10.154
 6437TIP3    H143506   2.233   2.539  10.082
 6437TIP3    H243507   2.267   2.669  10.181
 6438TIP3   OH243508   0.114   2.574  10.458
 6438TIP3    H143509  -0.002   2.579  10.459
 6438TIP3    H243510   0.130   2.629  10.372
 6439TIP3   OH243511   1.830   4.344  10.660
 6439TIP3    H143512   1.918   4.321  10.598
 6439TIP3    H243513   1.877   4.417  10.725
 6440TIP3   OH243514   0.082   2.360  11.291
 6440TIP3    H143515  -0.016   2.388  11.339
 6440TIP3    H243516   0.067   2.417  11.208
 6441TIP3   OH243517   0.317   3.988  11.694
 6441TIP3    H143518   0.215   3.974  11.649
 6441TIP3    H243519   0.310   3.923  11.774
 6442TIP3   OH243520   0.682   4.159  11.347
 6442TIP3    H143521   0.682   4.267  11.307
 6442TIP3    H243522   0.796   4.136  11.350
 6443TIP3   OH243523   1.168   4.290  11.602
 6443TIP3    H143524   1.176   4.260  11.697
 6443TIP3    H243525   1.271   4.345  11.589
 6444TIP3   OH243526   1.428   4.476  11.564
 6444TIP3    H143527   1.519   4.426  11.521
 6444TIP3    H243528   1.476   4.519  11.647
 6445TIP3   OH243529   2.062   2.334  11.451
 6445TIP3    H143530   1.961   2.364  11.409
 6445TIP3    H243531   2.076   2.226  11.414
 6446TIP3   OH243532   0.385   4.538  11.329
 6446TIP3    H143533   0.280   4.574  11.297
 6446TIP3    H243534   0.360   4.516  11.422
 6447TIP3   OH243535   0.668   4.454  11.223
 6447TIP3    H143536   0.556   4.475  11.250
 6447TIP3    H243537   0.673   4.529  11.148
 6448TIP3   OH243538   1.195   4.406  11.163
 6448TIP3    H143539   1.162   4.481  11.095
 6448TIP3    H243540   1.242   4.483  11.227
 6449TIP3   OH243541   1.464   4.255  11.291
 6449TIP3    H143542   1.385   4.298  11.228
 6449TIP3    H243543   1.554   4.325  11.268
 6450TIP3   OH243544   1.760   4.458  11.256
 6450TIP3    H143545   1.778   4.566  11.220
 6450TIP3    H243546   1.812   4.396  11.184
 6451TIP3   OH243547   0.341   4.358  11.028
 6451TIP3    H143548   0.311   4.297  11.109
 6451TIP3    H243549   0.440   4.303  11.001
 6452TIP3   OH243550   0.572   4.199  10.904
 6452TIP3    H143551   0.547   4.086  10.915
 6452TIP3    H243552   0.678   4.201  10.946
 6453TIP3   OH243553   0.848   4.169  11.051
 6453TIP3    H143554   0.895   4.064  11.034
 6453TIP3    H243555   0.870   4.174  11.148
 6454TIP3   OH243556   1.247   2.476  10.896
 6454TIP3    H143557   1.150   2.410  10.911
 6454TIP3    H243558   1.282   2.434  10.811
 6455TIP3   OH243559   1.903   2.250  10.879
 6455TIP3    H143560   1.980   2.324  10.835
 6455TIP3    H243561   1.800   2.292  10.845
 6456TIP3   OH243562   2.099   2.419  10.721
 6456TIP3    H143563   2.174   2.350  10.672
 6456TIP3    H243564   2.168   2.512  10.743
 6457TIP3   OH243565   0.390   2.315  10.677
 6457TIP3    H143566   0.289   2.299  10.627
 6457TIP3    H243567   0.445   2.214  10.657
 6458TIP3   OH243568   0.158   2.348  10.215
 6458TIP3    H143569   0.239   2.418  10.171
 6458TIP3    H243570   0.162   2.387  10.306
 6459TIP3   OH243571   0.887   2.263  10.666
 6459TIP3    H143572   0.966   2.317  10.613
 6459TIP3    H243573   0.922   2.287  10.757
 6460TIP3   OH243574   1.608   2.323  10.784
 6460TIP3    H143575   1.546   2.335  10.704
 6460TIP3    H243576   1.544   2.242  10.832
 6461TIP3   OH243577   1.756   2.316  10.398
 6461TIP3    H143578   1.663   2.383  10.385
 6461TIP3    H243579   1.710   2.232  10.454
 6462TIP3   OH243580   0.233   4.301  10.294
 6462TIP3    H143581   0.122   4.278  10.320
 6462TIP3    H243582   0.230   4.417  10.304
 6463TIP3   OH243583   0.427   2.497  10.119
 6463TIP3    H143584   0.499   2.418  10.079
 6463TIP3    H243585   0.502   2.545  10.182
 6464TIP3   OH243586   1.056   2.570  10.333
 6464TIP3    H143587   1.094   2.496  10.401
 6464TIP3    H243588   1.057   2.672  10.383
 6465TIP3   OH243589   1.248   4.386  10.159
 6465TIP3    H143590   1.364   4.410  10.157
 6465TIP3    H243591   1.238   4.337  10.072
 6466TIP3   OH243592   2.047   4.300  10.481
 6466TIP3    H143593   2.030   4.192  10.445
 6466TIP3    H243594   2.016   4.367  10.405
 6467TIP3   OH243595   0.290   2.407  11.630
 6467TIP3    H143596   0.238   2.302  11.632
 6467TIP3    H243597   0.391   2.386  11.675
 6468TIP3   OH243598   0.576   2.350  11.802
 6468TIP3    H143599   0.686   2.327  11.773
 6468TIP3    H243600   0.545   2.246  11.840
 6469TIP3   OH243601   0.546   4.412  10.120
 6469TIP3    H143602   0.461   4.369  10.176
 6469TIP3    H243603   0.629   4.332  10.128
 6470TIP3   OH243604   1.633   2.255  11.812
 6470TIP3    H143605   1.662   2.143  11.827
 6470TIP3    H243606   1.730   2.287  11.762
 6471TIP3   OH243607   1.974   4.174  11.647
 6471TIP3    H143608   1.886   4.174  11.581
 6471TIP3    H243609   1.955   4.274  11.692
 6472TIP3   OH243610   3.731   3.461  10.678
 6472TIP3    H143611   3.726   3.568  10.719
 6472TIP3    H243612   3.641   3.469  10.617
 6473TIP3   OH243613   3.594   3.310  10.993
 6473TIP3    H143614   3.593   3.266  11.085
 6473TIP3    H243615   3.509   3.250  10.949
 6474TIP3   OH243616   2.609   3.305  11.152
 6474TIP3    H143617   2.620   3.228  11.224
 6474TIP3    H243618   2.712   3.358  11.154
 6475TIP3   OH243619   3.954   3.684  10.859
 6475TIP3    H143620   3.932   3.595  10.920
 6475TIP3    H243621   3.994   3.764  10.921
 6476TIP3   OH243622   2.770   3.870  10.991
 6476TIP3    H143623   2.726   3.762  10.976
 6476TIP3    H243624   2.881   3.847  10.970
 6477TIP3   OH243625   2.358   3.066  10.563
 6477TIP3    H143626   2.316   3.174  10.579
 6477TIP3    H243627   2.328   3.052  10.469
 6478TIP3   OH243628   2.422   3.350  10.815
 6478TIP3    H143629   2.473   3.245  10.824
 6478TIP3    H243630   2.495   3.412  10.760
 6479TIP3   OH243631   3.672   4.348  10.849
 6479TIP3    H143632   3.757   4.277  10.813
 6479TIP3    H243633   3.616   4.267  10.900
 6480TIP3   OH243634   3.358   3.635  11.094
 6480TIP3    H143635   3.392   3.589  11.010
 6480TIP3    H243636   3.463   3.668  11.129
 6481TIP3   OH243637   4.382   2.605  11.100
 6481TIP3    H143638   4.385   2.671  11.181
 6481TIP3    H243639   4.481   2.642  11.058
 6482TIP3   OH243640   3.780   2.974  11.120
 6482TIP3    H143641   3.812   2.862  11.109
 6482TIP3    H243642   3.738   2.992  11.030
 6483TIP3   OH243643   2.935   2.702  10.779
 6483TIP3    H143644   2.951   2.801  10.726
 6483TIP3    H243645   2.876   2.640  10.712
 6484TIP3   OH243646   3.839   2.747  10.645
 6484TIP3    H143647   3.893   2.706  10.726
 6484TIP3    H243648   3.916   2.826  10.615
 6485TIP3   OH243649   2.503   3.044  10.875
 6485TIP3    H143650   2.575   2.986  10.933
 6485TIP3    H243651   2.540   3.006  10.788
 6486TIP3   OH243652   3.107   3.217  10.832
 6486TIP3    H143653   3.216   3.179  10.841
 6486TIP3    H243654   3.053   3.120  10.799
 6487TIP3   OH243655   4.406   2.783  11.322
 6487TIP3    H143656   4.366   2.891  11.299
 6487TIP3    H243657   4.446   2.807  11.411
 6488TIP3   OH243658   2.828   2.620  11.199
 6488TIP3    H143659   2.766   2.668  11.126
 6488TIP3    H243660   2.750   2.630  11.271
 6489TIP3   OH243661   3.641   3.767  10.557
 6489TIP3    H143662   3.630   3.754  10.461
 6489TIP3    H243663   3.617   3.882  10.567
 6490TIP3   OH243664   3.064   3.544  11.195
 6490TIP3    H143665   3.001   3.637  11.224
 6490TIP3    H243666   3.155   3.595  11.148
 6491TIP3   OH243667   4.048   2.693  10.847
 6491TIP3    H143668   4.061   2.594  10.896
 6491TIP3    H243669   4.152   2.740  10.858
 6492TIP3   OH243670   2.754   2.843  10.988
 6492TIP3    H143671   2.822   2.922  11.031
 6492TIP3    H243672   2.825   2.804  10.915
 6493TIP3   OH243673   2.921   3.808  11.297
 6493TIP3    H143674   2.909   3.902  11.242
 6493TIP3    H243675   2.813   3.803  11.337
 6494TIP3   OH243676   2.424   3.718  10.380
 6494TIP3    H143677   2.432   3.792  10.303
 6494TIP3    H243678   2.438   3.791  10.455
 6495TIP3   OH243679   4.073   3.935  11.068
 6495TIP3    H143680   3.960   3.961  11.086
 6495TIP3    H243681   4.104   4.036  11.027
 6496TIP3   OH243682   4.055   2.564  11.187
 6496TIP3    H143683   3.973   2.614  11.130
 6496TIP3    H243684   4.150   2.582  11.131
 6497TIP3   OH243685   3.244   2.315  10.946
 6497TIP3    H143686   3.211   2.203  10.937
 6497TIP3    H243687   3.137   2.363  10.965
 6498TIP3   OH243688   3.881   4.145  10.744
 6498TIP3    H143689   3.899   4.048  10.690
 6498TIP3    H243690   3.972   4.211  10.712
 6499TIP3   OH243691   4.009   3.886  10.588
 6499TIP3    H143692   4.001   3.803  10.518
 6499TIP3    H243693   4.002   3.818  10.667
 6500TIP3   OH243694   4.187   3.742  11.444
 6500TIP3    H143695   4.207   3.659  11.375
 6500TIP3    H243696   4.202   3.838  11.390
 6501TIP3   OH243697   3.533   3.366  10.409
 6501TIP3    H143698   3.475   3.464  10.384
 6501TIP3    H243699   3.635   3.374  10.359
 6502TIP3   OH243700   3.606   3.206  10.119
 6502TIP3    H143701   3.695   3.253  10.172
 6502TIP3    H243702   3.649   3.097  10.107
 6503TIP3   OH243703   4.430   3.308  11.223
 6503TIP3    H143704   4.357   3.398  11.236
 6503TIP3    H243705   4.508   3.359  11.164
 6504TIP3   OH243706   3.979   3.358  10.524
 6504TIP3    H143707   3.898   3.403  10.585
 6504TIP3    H243708   4.055   3.308  10.587
 6505TIP3   OH243709   3.985   3.180  11.417
 6505TIP3    H143710   3.953   3.282  11.455
 6505TIP3    H243711   3.913   3.179  11.341
 6506TIP3   OH243712   2.940   3.449  10.704
 6506TIP3    H143713   2.915   3.421  10.610
 6506TIP3    H243714   3.006   3.358  10.731
 6507TIP3   OH243715   3.112   3.840  10.965
 6507TIP3    H143716   3.125   3.817  10.870
 6507TIP3    H243717   3.202   3.784  11.007
 6508TIP3   OH243718   2.956   3.293  11.065
 6508TIP3    H143719   3.004   3.284  10.975
 6508TIP3    H243720   3.013   3.385  11.104
 6509TIP3   OH243721   3.769   3.988  11.137
 6509TIP3    H143722   3.739   4.052  11.213
 6509TIP3    H243723   3.745   3.880  11.169
 6510TIP3   OH243724   3.119   3.846  11.515
 6510TIP3    H143725   3.031   3.899  11.564
 6510TIP3    H243726   3.064   3.830  11.429
 6511TIP3   OH243727   3.822   3.328  10.292
 6511TIP3    H143728   3.877   3.330  10.379
 6511TIP3    H243729   3.900   3.383  10.233
 6512TIP3   OH243730   2.748   3.349  11.451
 6512TIP3    H143731   2.754   3.464  11.462
 6512TIP3    H243732   2.639   3.331  11.482
 6513TIP3   OH243733   3.542   4.085  10.563
 6513TIP3    H143734   3.550   4.115  10.656
 6513TIP3    H243735   3.482   4.172  10.524
 6514TIP3   OH243736   2.899   4.051  11.606
 6514TIP3    H143737   2.881   4.100  11.517
 6514TIP3    H243738   2.789   4.030  11.632
 6515TIP3   OH243739   4.261   2.242  10.269
 6515TIP3    H143740   4.154   2.254  10.310
 6515TIP3    H243741   4.274   2.350  10.234
 6516TIP3   OH243742   2.819   3.311  10.470
 6516TIP3    H143743   2.766   3.398  10.422
 6516TIP3    H243744   2.776   3.217  10.427
 6517TIP3   OH243745   4.408   4.048  10.114
 6517TIP3    H143746   4.439   4.159  10.126
 6517TIP3    H243747   4.507   3.991  10.133
 6518TIP3   OH243748   2.382   3.654  11.351
 6518TIP3    H143749   2.328   3.666  11.265
 6518TIP3    H243750   2.417   3.541  11.345
 6519TIP3   OH243751   2.336   3.960  11.004
 6519TIP3    H143752   2.453   3.953  10.999
 6519TIP3    H243753   2.324   4.057  11.056
 6520TIP3   OH243754   4.512   4.028  11.593
 6520TIP3    H143755   4.494   3.917  11.570
 6520TIP3    H243756   4.414   4.048  11.646
 6521TIP3   OH243757   3.420   3.976  11.495
 6521TIP3    H143758   3.428   4.082  11.535
 6521TIP3    H243759   3.311   3.941  11.516
 6522TIP3   OH243760   3.469   4.418  10.437
 6522TIP3    H143761   3.488   4.444  10.343
 6522TIP3    H243762   3.484   4.524  10.479
 6523TIP3   OH243763   2.730   4.272  10.651
 6523TIP3    H143764   2.761   4.244  10.743
 6523TIP3    H243765   2.622   4.229  10.648
 6524TIP3   OH243766   3.824   4.397  10.200
 6524TIP3    H143767   3.887   4.314  10.153
 6524TIP3    H243768   3.842   4.361  10.293
 6525TIP3   OH243769   3.798   4.336  10.469
 6525TIP3    H143770   3.682   4.344  10.481
 6525TIP3    H243771   3.820   4.229  10.502
 6526TIP3   OH243772   4.091   2.986  11.669
 6526TIP3    H143773   4.124   3.067  11.606
 6526TIP3    H243774   4.145   2.891  11.635
 6527TIP3   OH243775   2.645   3.796  11.436
 6527TIP3    H143776   2.641   3.756  11.528
 6527TIP3    H243777   2.539   3.758  11.403
 6528TIP3   OH243778   2.957   2.417  11.016
 6528TIP3    H143779   2.846   2.411  10.985
 6528TIP3    H243780   2.942   2.488  11.093
 6529TIP3   OH243781   3.536   2.354  11.340
 6529TIP3    H143782   3.568   2.275  11.407
 6529TIP3    H243783   3.420   2.358  11.354
 6530TIP3   OH243784   3.874   2.874  11.478
 6530TIP3    H143785   3.858   2.882  11.575
 6530TIP3    H243786   3.924   2.980  11.460
 6531TIP3   OH243787   4.019   3.442  10.117
 6531TIP3    H143788   3.974   3.452  10.026
 6531TIP3    H243789   4.130   3.467  10.098
 6532TIP3   OH243790   3.494   2.693  10.115
 6532TIP3    H143791   3.434   2.668  10.197
 6532TIP3    H243792   3.412   2.665  10.051
 6533TIP3   OH243793   2.981   2.999  11.172
 6533TIP3    H143794   2.876   2.992  11.217
 6533TIP3    H243795   2.969   3.104  11.130
 6534TIP3   OH243796   2.959   2.969  10.640
 6534TIP3    H143797   2.845   2.989  10.622
 6534TIP3    H243798   3.007   2.972  10.550
 6535TIP3   OH243799   3.655   3.122  10.555
 6535TIP3    H143800   3.602   3.208  10.503
 6535TIP3    H243801   3.720   3.074  10.485
 6536TIP3   OH243802   3.491   3.113  11.661
 6536TIP3    H143803   3.444   3.016  11.701
 6536TIP3    H243804   3.577   3.134  11.725
 6537TIP3   OH243805   3.740   3.025  10.824
 6537TIP3    H143806   3.742   3.130  10.779
 6537TIP3    H243807   3.742   2.957  10.745
 6538TIP3   OH243808   2.694   2.999  11.286
 6538TIP3    H143809   2.683   3.052  11.373
 6538TIP3    H243810   2.642   2.894  11.303
 6539TIP3   OH243811   3.091   2.714  10.040
 6539TIP3    H143812   3.035   2.671  10.118
 6539TIP3    H243813   3.005   2.748   9.982
 6540TIP3   OH243814   2.291   2.676  10.744
 6540TIP3    H143815   2.377   2.681  10.809
 6540TIP3    H243816   2.347   2.671  10.659
 6541TIP3   OH243817   2.432   2.759  10.269
 6541TIP3    H143818   2.530   2.812  10.234
 6541TIP3    H243819   2.364   2.854  10.274
 6542TIP3   OH243820   3.637   3.216  11.243
 6542TIP3    H143821   3.704   3.133  11.203
 6542TIP3    H243822   3.570   3.152  11.303
 6543TIP3   OH243823   3.304   2.716  10.755
 6543TIP3    H143824   3.190   2.710  10.773
 6543TIP3    H243825   3.353   2.656  10.827
 6544TIP3   OH243826   2.627   2.910  10.650
 6544TIP3    H143827   2.533   2.944  10.597
 6544TIP3    H243828   2.660   2.809  10.611
 6545TIP3   OH243829   3.109   2.926  10.400
 6545TIP3    H143830   3.224   2.940  10.402
 6545TIP3    H243831   3.068   3.000  10.332
 6546TIP3   OH243832   3.775   2.646  11.055
 6546TIP3    H143833   3.668   2.622  11.086
 6546TIP3    H243834   3.775   2.585  10.972
 6547TIP3   OH243835   2.914   3.074  10.206
 6547TIP3    H143836   2.814   3.044  10.163
 6547TIP3    H243837   2.987   3.065  10.131
 6548TIP3   OH243838   4.163   4.529  11.723
 6548TIP3    H143839   4.192   4.572  11.635
 6548TIP3    H243840   4.261   4.554  11.770
 6549TIP3   OH243841   2.665   3.623  11.673
 6549TIP3    H143842   2.758   3.625  11.732
 6549TIP3    H243843   2.574   3.604  11.734
 6550TIP3   OH243844   3.406   3.041  10.936
 6550TIP3    H143845   3.493   3.032  10.872
 6550TIP3    H243846   3.379   2.928  10.949
 6551TIP3   OH243847   2.752   2.579  10.576
 6551TIP3    H143848   2.678   2.502  10.619
 6551TIP3    H243849   2.804   2.506  10.514
 6552TIP3   OH243850   3.248   2.822  11.187
 6552TIP3    H143851   3.152   2.887  11.169
 6552TIP3    H243852   3.330   2.902  11.181
 6553TIP3   OH243853   3.331   3.628  10.370
 6553TIP3    H143854   3.244   3.563  10.332
 6553TIP3    H243855   3.287   3.648  10.459
 6554TIP3   OH243856   4.208   3.542  11.235
 6554TIP3    H143857   4.271   3.613  11.175
 6554TIP3    H243858   4.115   3.522  11.180
 6555TIP3   OH243859   3.796   2.752  10.184
 6555TIP3    H143860   3.680   2.747  10.170
 6555TIP3    H243861   3.810   2.862  10.215
 6556TIP3   OH243862   3.470   3.648  11.487
 6556TIP3    H143863   3.438   3.641  11.580
 6556TIP3    H243864   3.448   3.761  11.472
 6557TIP3   OH243865   3.864   3.010  10.334
 6557TIP3    H143866   3.960   2.976  10.382
 6557TIP3    H243867   3.895   3.114  10.298
 6558TIP3   OH243868   2.753   3.546  10.922
 6558TIP3    H143869   2.802   3.523  10.835
 6558TIP3    H243870   2.779   3.452  10.974
 6559TIP3   OH243871   3.590   3.797  10.287
 6559TIP3    H143872   3.546   3.905  10.297
 6559TIP3    H243873   3.496   3.730  10.304
 6560TIP3   OH243874   2.400   3.325  11.422
 6560TIP3    H143875   2.359   3.275  11.503
 6560TIP3    H243876   2.321   3.288  11.355
 6561TIP3   OH243877   3.209   3.305  11.628
 6561TIP3    H143878   3.121   3.229  11.615
 6561TIP3    H243879   3.305   3.239  11.641
 6562TIP3   OH243880   3.804   3.930  11.496
 6562TIP3    H143881   3.708   3.958  11.447
 6562TIP3    H243882   3.775   3.978  11.583
 6563TIP3   OH243883   4.464   2.996  10.334
 6563TIP3    H143884   4.378   2.968  10.271
 6563TIP3    H243885   4.470   3.112  10.314
 6564TIP3   OH243886   4.477   3.688  11.567
 6564TIP3    H143887   4.369   3.710  11.533
 6564TIP3    H243888   4.542   3.691  11.485
 6565TIP3   OH243889   4.276   4.008  10.358
 6565TIP3    H143890   4.174   3.955  10.363
 6565TIP3    H243891   4.300   4.008  10.262
 6566TIP3   OH243892   3.918   3.430  11.043
 6566TIP3    H143893   3.806   3.400  11.026
 6566TIP3    H243894   3.972   3.347  10.991
 6567TIP3   OH243895   3.008   3.949  10.686
 6567TIP3    H143896   3.035   4.060  10.659
 6567TIP3    H243897   2.898   3.946  10.656
 6568TIP3   OH243898   2.544   3.304  10.095
 6568TIP3    H143899   2.609   3.370  10.155
 6568TIP3    H243900   2.438   3.316  10.136
 6569TIP3   OH243901   3.180   3.661  10.617
 6569TIP3    H143902   3.126   3.764  10.629
 6569TIP3    H243903   3.122   3.593  10.680
 6570TIP3   OH243904   3.252   4.158  11.307
 6570TIP3    H143905   3.324   4.236  11.265
 6570TIP3    H243906   3.326   4.096  11.363
 6571TIP3   OH243907   3.044   4.242  10.571
 6571TIP3    H143908   2.932   4.266  10.593
 6571TIP3    H243909   3.094   4.344  10.599
 6572TIP3   OH243910   3.626   3.691  11.230
 6572TIP3    H143911   3.582   3.661  11.318
 6572TIP3    H243912   3.685   3.594  11.207
 6573TIP3   OH243913   3.968   3.817  10.133
 6573TIP3    H143914   3.964   3.767  10.221
 6573TIP3    H243915   3.856   3.811  10.110
 6574TIP3   OH243916   4.031   4.234  11.467
 6574TIP3    H143917   3.924   4.188  11.472
 6574TIP3    H243918   4.025   4.306  11.389
 6575TIP3   OH243919   4.499   4.346  10.172
 6575TIP3    H143920   4.577   4.426  10.140
 6575TIP3    H243921   4.426   4.420  10.220
 6576TIP3   OH243922   2.609   2.700  11.406
 6576TIP3    H143923   2.532   2.767  11.454
 6576TIP3    H243924   2.615   2.610  11.467
 6577TIP3   OH243925   4.048   3.674  10.368
 6577TIP3    H143926   4.031   3.560  10.359
 6577TIP3    H243927   4.162   3.679  10.345
 6578TIP3   OH243928   2.539   4.124  11.244
 6578TIP3    H143929   2.620   4.042  11.252
 6578TIP3    H243930   2.548   4.176  11.330
 6579TIP3   OH243931   3.070   3.874  10.233
 6579TIP3    H143932   3.167   3.834  10.273
 6579TIP3    H243933   3.079   3.990  10.252
 6580TIP3   OH243934   2.672   3.538  10.281
 6580TIP3    H143935   2.578   3.592  10.318
 6580TIP3    H243936   2.732   3.629  10.244
 6581TIP3   OH243937   3.640   2.678  11.345
 6581TIP3    H143938   3.740   2.729  11.318
 6581TIP3    H243939   3.622   2.593  11.281
 6582TIP3   OH243940   3.737   2.572  10.435
 6582TIP3    H143941   3.760   2.647  10.364
 6582TIP3    H243942   3.791   2.623  10.511
 6583TIP3   OH243943   3.445   4.086  10.262
 6583TIP3    H143944   3.349   4.096  10.316
 6583TIP3    H243945   3.460   4.199  10.235
 6584TIP3   OH243946   3.412   2.845  10.524
 6584TIP3    H143947   3.466   2.946  10.541
 6584TIP3    H243948   3.366   2.814  10.611
 6585TIP3   OH243949   3.510   2.977  11.396
 6585TIP3    H143950   3.571   2.998  11.478
 6585TIP3    H243951   3.553   2.870  11.374
 6586TIP3   OH243952   3.475   2.459  10.571
 6586TIP3    H143953   3.432   2.551  10.617
 6586TIP3    H243954   3.571   2.508  10.530
 6587TIP3   OH243955   3.116   4.178  10.306
 6587TIP3    H143956   3.142   4.282  10.264
 6587TIP3    H243957   3.084   4.211  10.397
 6588TIP3   OH243958   2.953   2.614  10.288
 6588TIP3    H143959   2.945   2.712  10.339
 6588TIP3    H243960   3.065   2.587  10.307
 6589TIP3   OH243961   4.165   2.716  11.509
 6589TIP3    H143962   4.058   2.749  11.480
 6589TIP3    H243963   4.224   2.704  11.424
 6590TIP3   OH243964   4.028   3.146  10.906
 6590TIP3    H143965   3.936   3.074  10.898
 6590TIP3    H243966   4.105   3.082  10.957
 6591TIP3   OH243967   2.762   3.832  10.171
 6591TIP3    H143968   2.870   3.858  10.202
 6591TIP3    H243969   2.780   3.828  10.075
 6592TIP3   OH243970   2.564   2.986  10.111
 6592TIP3    H143971   2.569   3.103  10.111
 6592TIP3    H243972   2.480   2.964  10.046
 6593TIP3   OH243973   4.154   4.268  11.058
 6593TIP3    H143974   4.151   4.339  10.979
 6593TIP3    H243975   4.272   4.270  11.069
 6594TIP3   OH243976   2.648   2.359  10.965
 6594TIP3    H143977   2.645   2.346  10.867
 6594TIP3    H243978   2.616   2.250  10.993
 6595TIP3   OH243979   2.488   4.024  10.566
 6595TIP3    H143980   2.393   4.091  10.569
 6595TIP3    H243981   2.533   4.064  10.484
 6596TIP3   OH243982   2.412   4.358  11.684
 6596TIP3    H143983   2.485   4.343  11.760
 6596TIP3    H243984   2.369   4.250  11.673
 6597TIP3   OH243985   2.996   4.228  11.837
 6597TIP3    H143986   3.097   4.177  11.863
 6597TIP3    H243987   2.976   4.178  11.751
 6598TIP3   OH243988   3.469   4.129   9.961
 6598TIP3    H143989   3.390   4.052   9.992
 6598TIP3    H243990   3.562   4.091  10.010
 6599TIP3   OH243991   3.750   4.068  11.734
 6599TIP3    H143992   3.704   3.964  11.763
 6599TIP3    H243993   3.853   4.068  11.779
 6600TIP3   OH243994   3.978   4.132  10.105
 6600TIP3    H143995   4.003   4.018  10.102
 6600TIP3    H243996   4.032   4.175  10.027
 6601TIP3   OH243997   2.371   3.622  11.802
 6601TIP3    H143998   2.326   3.515  11.811
 6601TIP3    H243999   2.320   3.656  11.718
 6602TIP3   OH244000   2.994   3.547  10.041
 6602TIP3    H144001   3.004   3.504  10.132
 6602TIP3    H244002   3.083   3.623  10.046
 6603TIP3   OH244003   3.217   3.622  11.711
 6603TIP3    H144004   3.197   3.685  11.631
 6603TIP3    H244005   3.232   3.511  11.677
 6604TIP3   OH244006   3.888   3.602  11.495
 6604TIP3    H144007   3.990   3.664  11.498
 6604TIP3    H244008   3.814   3.692  11.499
 6605TIP3   OH244009   2.543   3.248  11.771
 6605TIP3    H144010   2.635   3.176  11.774
 6605TIP3    H244011   2.563   3.319  11.847
 6606TIP3   OH244012   3.101   3.419  10.268
 6606TIP3    H144013   3.014   3.353  10.307
 6606TIP3    H244014   3.145   3.346  10.201
 6607TIP3   OH244015   2.994   3.166  11.437
 6607TIP3    H144016   2.897   3.226  11.460
 6607TIP3    H244017   3.018   3.221  11.354
 6608TIP3   OH244018   3.258   3.211  10.070
 6608TIP3    H144019   3.277   3.168   9.982
 6608TIP3    H244020   3.366   3.205  10.110
 6609TIP3   OH244021   3.632   3.443  11.794
 6609TIP3    H144022   3.732   3.407  11.754
 6609TIP3    H244023   3.611   3.356  11.858
 6610TIP3   OH244024   4.308   3.443  19.995
 6610TIP3    H144025   4.358   3.402  19.915
 6610TIP3    H244026   4.346   3.554  19.987
 6611TIP3   OH244027   3.064   2.849  11.527
 6611TIP3    H144028   3.084   2.753  11.471
 6611TIP3    H244029   2.948   2.858  11.515
 6612TIP3   OH244030   3.104   2.614  11.342
 6612TIP3    H144031   3.158   2.675  11.270
 6612TIP3    H244032   2.994   2.612  11.307
 6613TIP3   OH244033   3.268   3.310  11.312
 6613TIP3    H144034   3.360   3.377  11.292
 6613TIP3    H244035   3.185   3.392  11.306
 6614TIP3   OH244036   3.778   3.024  11.837
 6614TIP3    H144037   3.814   2.914  11.832
 6614TIP3    H244038   3.880   3.080  11.830
 6615TIP3   OH244039   3.989   3.391  11.683
 6615TIP3    H144040   3.943   3.457  11.611
 6615TIP3    H244041   4.103   3.389  11.659
 6616TIP3   OH244042   2.862   2.965  11.765
 6616TIP3    H144043   2.761   2.904  11.758
 6616TIP3    H244044   2.930   2.910  11.701
 6617TIP3   OH244045   3.209   2.311  11.344
 6617TIP3    H144046   3.166   2.419  11.350
 6617TIP3    H244047   3.120   2.256  11.302
 6618TIP3   OH244048   3.332   2.845  11.734
 6618TIP3    H144049   3.299   2.816  11.824
 6618TIP3    H244050   3.246   2.800  11.682
 6619TIP3   OH244051   3.636   2.741  11.659
 6619TIP3    H144052   3.530   2.777  11.690
 6619TIP3    H244053   3.680   2.693  11.741
 6620TIP3   OH244054   3.835   2.567  11.795
 6620TIP3    H144055   3.856   2.455  11.821
 6620TIP3    H244056   3.818   2.616  11.884
 6621TIP3   OH244057   2.628   2.738  11.760
 6621TIP3    H144058   2.618   2.632  11.718
 6621TIP3    H244059   2.633   2.712  11.856
 6622TIP3   OH244060   3.184   2.284  11.635
 6622TIP3    H144061   3.263   2.200  11.648
 6622TIP3    H244062   3.181   2.287  11.537
 6623TIP3   OH244063   3.234   2.441  11.869
 6623TIP3    H144064   3.203   2.388  11.784
 6623TIP3    H244065   3.158   2.532  11.867
 6624TIP3   OH244066   3.162   4.463  10.192
 6624TIP3    H144067   3.278   4.463  10.197
 6624TIP3    H244068   3.140   4.512  10.106
 6625TIP3   OH244069   2.436   3.871  10.136
 6625TIP3    H144070   2.552   3.850  10.142
 6625TIP3    H244071   2.401   3.804  10.062
 6626TIP3   OH244072   2.290   4.446  10.605
 6626TIP3    H144073   2.195   4.390  10.570
 6626TIP3    H244074   2.321   4.374  10.679
 6627TIP3   OH244075   2.384   4.243  10.800
 6627TIP3    H144076   2.318   4.151  10.825
 6627TIP3    H244077   2.453   4.259  10.878
 6628TIP3   OH244078   4.472   4.330  11.068
 6628TIP3    H144079   4.512   4.340  11.159
 6628TIP3    H244080   4.562   4.373  11.019
 6629TIP3   OH244081   4.417   4.280  11.375
 6629TIP3    H144082   4.367   4.196  11.320
 6629TIP3    H244083   4.442   4.217  11.454
 6630TIP3   OH244084   4.237   3.785  11.861
 6630TIP3    H144085   4.138   3.790  11.914
 6630TIP3    H244086   4.297   3.871  11.905
 6631TIP3   OH244087   4.363   3.593  10.361
 6631TIP3    H144088   4.468   3.636  10.389
 6631TIP3    H244089   4.337   3.522  10.436
 6632TIP3   OH244090   4.427   3.371  10.602
 6632TIP3    H144091   4.326   3.313  10.619
 6632TIP3    H244092   4.465   3.391  10.692
 6633TIP3   OH244093   4.393   3.701  11.064
 6633TIP3    H144094   4.468   3.617  11.035
 6633TIP3    H244095   4.436   3.794  11.019
 6634TIP3   OH244096   4.246   4.019  11.300
 6634TIP3    H144097   4.162   4.069  11.354
 6634TIP3    H244098   4.184   3.986  11.220
 6635TIP3   OH244099   4.498   3.341  10.205
 6635TIP3    H144100   4.414   3.364  10.139
 6635TIP3    H244101   4.486   3.433  10.263
 6636TIP3   OH244102   4.230   2.945  10.143
 6636TIP3    H144103   4.189   3.010  10.069
 6636TIP3    H244104   4.310   2.884  10.094
 6637TIP3   OH244105   4.187   3.182  10.673
 6637TIP3    H144106   4.159   3.073  10.648
 6637TIP3    H244107   4.146   3.184  10.765
 6638TIP3   OH244108   2.365   3.462  11.062
 6638TIP3    H144109   2.375   3.424  10.969
 6638TIP3    H244110   2.466   3.416  11.097
 6639TIP3   OH244111   4.319   3.408  11.614
 6639TIP3    H144112   4.363   3.299  11.612
 6639TIP3    H244113   4.408   3.482  11.593
 6640TIP3   OH244114   4.403   3.082  11.608
 6640TIP3    H144115   4.360   3.050  11.696
 6640TIP3    H244116   4.495   3.008  11.607
 6641TIP3   OH244117   4.201   2.677   9.960
 6641TIP3    H144118   4.267   2.640  10.035
 6641TIP3    H244119   4.094   2.670   9.998
 6642TIP3   OH244120   4.116   2.902  10.489
 6642TIP3    H144121   4.142   2.789  10.504
 6642TIP3    H244122   4.219   2.936  10.454
 6643TIP3   OH244123   4.247   2.958  11.036
 6643TIP3    H144124   4.363   2.975  11.053
 6643TIP3    H244125   4.212   2.963  11.129
 6644TIP3   OH244126   4.250   3.052  11.295
 6644TIP3    H144127   4.156   3.088  11.345
 6644TIP3    H244128   4.306   3.156  11.279
 6645TIP3   OH244129   2.358   2.845  11.649
 6645TIP3    H144130   2.458   2.844  11.701
 6645TIP3    H244131   2.299   2.756  11.689
 6646TIP3   OH244132   4.481   2.260  11.851
 6646TIP3    H144133   4.537   2.184  11.791
 6646TIP3    H244134   4.486   2.354  11.794
 6647TIP3   OH244135   4.225   2.603  10.497
 6647TIP3    H144136   4.271   2.560  10.578
 6647TIP3    H244137   4.162   2.512  10.465
 6648TIP3   OH244138   2.482   2.644  11.015
 6648TIP3    H144139   2.528   2.537  11.011
 6648TIP3    H244140   2.569   2.714  10.988
 6649TIP3   OH244141   2.293   3.022  11.073
 6649TIP3    H144142   2.356   2.987  10.996
 6649TIP3    H244143   2.352   3.118  11.096
 6650TIP3   OH244144   4.460   2.551  11.713
 6650TIP3    H144145   4.374   2.597  11.768
 6650TIP3    H244146   4.409   2.533  11.627
 6651TIP3   OH244147   4.450   2.600  10.145
 6651TIP3    H144148   4.505   2.555  10.069
 6651TIP3    H244149   4.535   2.666  10.184
 6652TIP3   OH244150   2.315   2.558  10.463
 6652TIP3    H144151   2.207   2.598  10.476
 6652TIP3    H244152   2.345   2.610  10.379
 6653TIP3   OH244153   4.091   4.357  10.668
 6653TIP3    H144154   4.178   4.339  10.604
 6653TIP3    H244155   4.132   4.438  10.729
 6654TIP3   OH244156   2.328   2.388  11.291
 6654TIP3    H144157   2.244   2.354  11.353
 6654TIP3    H244158   2.275   2.477  11.245
 6655TIP3   OH244159   2.594   3.974  11.692
 6655TIP3    H144160   2.495   4.022  11.659
 6655TIP3    H244161   2.569   3.937  11.780
 6656TIP3   OH244162   2.933   4.154  11.348
 6656TIP3    H144163   2.939   4.264  11.314
 6656TIP3    H244164   3.047   4.129  11.353
 6657TIP3   OH244165   3.427   4.301  11.613
 6657TIP3    H144166   3.451   4.265  11.703
 6657TIP3    H244167   3.535   4.340  11.588
 6658TIP3   OH244168   3.710   4.442  11.564
 6658TIP3    H144169   3.779   4.435  11.485
 6658TIP3    H244170   3.758   4.526  11.618
 6659TIP3   OH244171   4.334   2.332  11.477
 6659TIP3    H144172   4.247   2.375  11.425
 6659TIP3    H244173   4.354   2.227  11.435
 6660TIP3   OH244174   2.612   4.507  11.323
 6660TIP3    H144175   2.520   4.568  11.290
 6660TIP3    H244176   2.604   4.530  11.418
 6661TIP3   OH244177   2.902   4.451  11.228
 6661TIP3    H144178   2.791   4.471  11.260
 6661TIP3    H244179   2.906   4.525  11.153
 6662TIP3   OH244180   3.462   4.408  11.157
 6662TIP3    H144181   3.414   4.476  11.090
 6662TIP3    H244182   3.494   4.487  11.224
 6663TIP3   OH244183   3.725   4.267  11.304
 6663TIP3    H144184   3.648   4.312  11.240
 6663TIP3    H244185   3.822   4.316  11.269
 6664TIP3   OH244186   4.038   4.436  11.263
 6664TIP3    H144187   4.051   4.540  11.217
 6664TIP3    H244188   4.079   4.367  11.190
 6665TIP3   OH244189   2.567   4.315  11.023
 6665TIP3    H144190   2.534   4.253  11.103
 6665TIP3    H244191   2.675   4.271  11.005
 6666TIP3   OH244192   2.830   4.193  10.898
 6666TIP3    H144193   2.819   4.078  10.920
 6666TIP3    H244194   2.935   4.216  10.939
 6667TIP3   OH244195   3.112   4.201  11.022
 6667TIP3    H144196   3.144   4.093  10.997
 6667TIP3    H244197   3.128   4.198  11.119
 6668TIP3   OH244198   3.534   2.497  10.903
 6668TIP3    H144199   3.450   2.448  10.956
 6668TIP3    H244200   3.550   2.417  10.835
 6669TIP3   OH244201   4.154   2.273  10.884
 6669TIP3    H144202   4.231   2.340  10.835
 6669TIP3    H244203   4.051   2.308  10.847
 6670TIP3   OH244204   4.361   2.436  10.718
 6670TIP3    H144205   4.430   2.356  10.673
 6670TIP3    H244206   4.438   2.525  10.730
 6671TIP3   OH244207   2.624   2.311  10.684
 6671TIP3    H144208   2.524   2.298  10.637
 6671TIP3    H244209   2.671   2.203  10.673
 6672TIP3   OH244210   2.470   2.308  10.253
 6672TIP3    H144211   2.537   2.389  10.208
 6672TIP3    H244212   2.413   2.371  10.319
 6673TIP3   OH244213   3.146   2.270  10.670
 6673TIP3    H144214   3.248   2.306  10.636
 6673TIP3    H244215   3.122   2.348  10.738
 6674TIP3   OH244216   3.854   2.323  10.777
 6674TIP3    H144217   3.803   2.333  10.692
 6674TIP3    H244218   3.793   2.236  10.821
 6675TIP3   OH244219   4.008   2.318  10.406
 6675TIP3    H144220   3.919   2.390  10.391
 6675TIP3    H244221   3.959   2.230  10.456
 6676TIP3   OH244222   2.467   4.238  10.357
 6676TIP3    H144223   2.358   4.238  10.321
 6676TIP3    H244224   2.495   4.351  10.345
 6677TIP3   OH244225   2.662   2.489  10.101
 6677TIP3    H144226   2.744   2.407  10.106
 6677TIP3    H244227   2.711   2.579  10.147
 6678TIP3   OH244228   3.314   2.612  10.340
 6678TIP3    H144229   3.360   2.537  10.403
 6678TIP3    H244230   3.326   2.712  10.392
 6679TIP3   OH244231   3.509   4.384  10.163
 6679TIP3    H144232   3.624   4.412  10.170
 6679TIP3    H244233   3.511   4.331  10.076
 6680TIP3   OH244234   4.304   4.295  10.484
 6680TIP3    H144235   4.301   4.188  10.440
 6680TIP3    H244236   4.288   4.366  10.408
 6681TIP3   OH244237   2.591   2.425  11.636
 6681TIP3    H144238   2.536   2.322  11.638
 6681TIP3    H244239   2.687   2.402  11.691
 6682TIP3   OH244240   2.825   2.333  11.812
 6682TIP3    H144241   2.934   2.300  11.793
 6682TIP3    H244242   2.782   2.236  11.854
 6683TIP3   OH244243   2.704   4.386  10.109
 6683TIP3    H144244   2.633   4.418  10.182
 6683TIP3    H244245   2.762   4.296  10.144
 6684TIP3   OH244246   3.852   2.250  11.819
 6684TIP3    H144247   3.816   2.182  11.893
 6684TIP3    H244248   3.959   2.208  11.799
 6685TIP3   OH244249   4.249   4.201  11.651
 6685TIP3    H144250   4.180   4.204  11.572
 6685TIP3    H244251   4.208   4.295  11.698
 6686TIP3   OH244252   5.989   3.460  10.662
 6686TIP3    H144253   5.977   3.564  10.706
 6686TIP3    H244254   5.900   3.463  10.599
 6687TIP3   OH244255   5.854   3.307  11.002
 6687TIP3    H144256   5.852   3.266  11.094
 6687TIP3    H244257   5.770   3.242  10.961
 6688TIP3   OH244258   4.873   3.290  11.142
 6688TIP3    H144259   4.874   3.204  11.208
 6688TIP3    H244260   4.972   3.347  11.162
 6689TIP3   OH244261   6.221   3.697  10.868
 6689TIP3    H144262   6.199   3.606  10.926
 6689TIP3    H244263   6.245   3.780  10.934
 6690TIP3   OH244264   5.016   3.871  10.996
 6690TIP3    H144265   4.968   3.767  10.974
 6690TIP3    H244266   5.126   3.844  10.975
 6691TIP3   OH244267   4.630   3.070  10.571
 6691TIP3    H144268   4.582   3.174  10.589
 6691TIP3    H244269   4.578   3.042  10.486
 6692TIP3   OH244270   4.684   3.356  10.819
 6692TIP3    H144271   4.740   3.251  10.820
 6692TIP3    H244272   4.757   3.427  10.774
 6693TIP3   OH244273   5.928   4.356  10.850
 6693TIP3    H144274   6.013   4.285  10.813
 6693TIP3    H244275   5.866   4.274  10.896
 6694TIP3   OH244276   5.610   3.638  11.098
 6694TIP3    H144277   5.647   3.581  11.021
 6694TIP3    H244278   5.714   3.677  11.132
 6695TIP3   OH244279   6.661   2.618  11.097
 6695TIP3    H144280   6.668   2.688  11.176
 6695TIP3    H244281   6.762   2.647  11.053
 6696TIP3   OH244282   6.065   2.981  11.107
 6696TIP3    H144283   6.086   2.868  11.122
 6696TIP3    H244284   6.034   2.976  11.013
 6697TIP3   OH244285   5.177   2.716  10.783
 6697TIP3    H144286   5.194   2.809  10.725
 6697TIP3    H244287   5.158   2.630  10.717
 6698TIP3   OH244288   6.107   2.752  10.660
 6698TIP3    H144289   6.167   2.707  10.738
 6698TIP3    H244290   6.186   2.825  10.624
 6699TIP3   OH244291   4.772   3.043  10.874
 6699TIP3    H144292   4.847   3.022  10.947
 6699TIP3    H244293   4.801   2.960  10.810
 6700TIP3   OH244294   5.389   3.227  10.833
 6700TIP3    H144295   5.498   3.196  10.859
 6700TIP3    H244296   5.347   3.121  10.809
 6701TIP3   OH244297   6.685   2.794  11.333
 6701TIP3    H144298   6.636   2.896  11.305
 6701TIP3    H244299   6.689   2.812  11.429
 6702TIP3   OH244300   5.060   2.602  11.215
 6702TIP3    H144301   5.029   2.670  11.142
 6702TIP3    H244302   4.990   2.639  11.286
 6703TIP3   OH244303   5.891   3.775  10.546
 6703TIP3    H144304   5.873   3.781  10.450
 6703TIP3    H244305   5.872   3.887  10.572
 6704TIP3   OH244306   5.327   3.533  11.188
 6704TIP3    H144307   5.267   3.625  11.222
 6704TIP3    H244308   5.422   3.586  11.148
 6705TIP3   OH244309   6.318   2.690  10.860
 6705TIP3    H144310   6.329   2.590  10.906
 6705TIP3    H244311   6.422   2.737  10.875
 6706TIP3   OH244312   5.020   2.849  11.003
 6706TIP3    H144313   5.106   2.911  11.046
 6706TIP3    H244314   5.076   2.808  10.924
 6707TIP3   OH244315   5.185   3.800  11.297
 6707TIP3    H144316   5.167   3.892  11.239
 6707TIP3    H244317   5.077   3.792  11.340
 6708TIP3   OH244318   4.674   3.712  10.392
 6708TIP3    H144319   4.672   3.776  10.310
 6708TIP3    H244320   4.682   3.794  10.461
 6709TIP3   OH244321   6.336   3.937  11.064
 6709TIP3    H144322   6.227   3.968  11.090
 6709TIP3    H244323   6.368   4.037  11.022
 6710TIP3   OH244324   6.328   2.532  11.191
 6710TIP3    H144325   6.235   2.545  11.131
 6710TIP3    H244326   6.413   2.569  11.132
 6711TIP3   OH244327   5.495   2.310  10.928
 6711TIP3    H144328   5.461   2.202  10.952
 6711TIP3    H244329   5.394   2.368  10.953
 6712TIP3   OH244330   6.137   4.148  10.740
 6712TIP3    H144331   6.157   4.043  10.701
 6712TIP3    H244332   6.233   4.207  10.709
 6713TIP3   OH244333   6.256   3.892  10.595
 6713TIP3    H144334   6.239   3.817  10.521
 6713TIP3    H244335   6.248   3.817  10.671
 6714TIP3   OH244336   6.444   3.730  11.451
 6714TIP3    H144337   6.475   3.648  11.384
 6714TIP3    H244338   6.458   3.826  11.395
 6715TIP3   OH244339   5.806   3.388  10.407
 6715TIP3    H144340   5.741   3.486  10.398
 6715TIP3    H244341   5.894   3.402  10.344
 6716TIP3   OH244342   5.874   3.151  10.122
 6716TIP3    H144343   5.947   3.220  10.173
 6716TIP3    H244344   5.945   3.064  10.095
 6717TIP3   OH244345   6.690   3.304  11.226
 6717TIP3    H144346   6.623   3.398  11.236
 6717TIP3    H244347   6.766   3.344  11.159
 6718TIP3   OH244348   6.238   3.348  10.520
 6718TIP3    H144349   6.154   3.394  10.577
 6718TIP3    H244350   6.316   3.307  10.586
 6719TIP3   OH244351   6.209   3.188  11.415
 6719TIP3    H144352   6.204   3.300  11.444
 6719TIP3    H244353   6.138   3.192  11.338
 6720TIP3   OH244354   5.208   3.446  10.706
 6720TIP3    H144355   5.177   3.414  10.615
 6720TIP3    H244356   5.285   3.361  10.731
 6721TIP3   OH244357   5.369   3.838  10.958
 6721TIP3    H144358   5.387   3.821  10.863
 6721TIP3    H244359   5.461   3.786  11.000
 6722TIP3   OH244360   5.227   3.276  11.061
 6722TIP3    H144361   5.284   3.283  10.975
 6722TIP3    H244362   5.276   3.366  11.111
 6723TIP3   OH244363   6.035   3.991  11.132
 6723TIP3    H144364   5.999   4.055  11.208
 6723TIP3    H244365   6.012   3.882  11.161
 6724TIP3   OH244366   5.369   3.840  11.516
 6724TIP3    H144367   5.291   3.906  11.564
 6724TIP3    H244368   5.316   3.832  11.428
 6725TIP3   OH244369   6.090   3.302  10.285
 6725TIP3    H144370   6.143   3.317  10.373
 6725TIP3    H244371   6.166   3.359  10.225
 6726TIP3   OH244372   5.024   3.355  11.427
 6726TIP3    H144373   5.040   3.462  11.460
 6726TIP3    H244374   4.920   3.329  11.466
 6727TIP3   OH244375   5.801   4.106  10.560
 6727TIP3    H144376   5.833   4.140  10.649
 6727TIP3    H244377   5.752   4.202  10.522
 6728TIP3   OH244378   5.168   4.064  11.609
 6728TIP3    H144379   5.149   4.104  11.518
 6728TIP3    H244380   5.058   4.033  11.632
 6729TIP3   OH244381   6.566   2.287  10.289
 6729TIP3    H144382   6.454   2.287  10.316
 6729TIP3    H244383   6.581   2.400  10.270
 6730TIP3   OH244384   5.089   3.317  10.464
 6730TIP3    H144385   5.045   3.413  10.423
 6730TIP3    H244386   5.040   3.232  10.411
 6731TIP3   OH244387   6.666   4.055  10.126
 6731TIP3    H144388   6.706   4.165  10.133
 6731TIP3    H244389   6.763   3.991  10.131
 6732TIP3   OH244390   4.645   3.646  11.353
 6732TIP3    H144391   4.604   3.637  11.262
 6732TIP3    H244392   4.680   3.534  11.366
 6733TIP3   OH244393   4.604   3.962  10.998
 6733TIP3    H144394   4.717   3.956  11.025
 6733TIP3    H244395   4.566   4.050  11.053
 6734TIP3   OH244396   6.778   4.049  11.601
 6734TIP3    H144397   6.767   3.936  11.579
 6734TIP3    H244398   6.673   4.070  11.642
 6735TIP3   OH244399   5.671   3.972  11.491
 6735TIP3    H144400   5.687   4.072  11.538
 6735TIP3    H244401   5.557   3.944  11.508
 6736TIP3   OH244402   5.735   4.420  10.431
 6736TIP3    H144403   5.765   4.445  10.339
 6736TIP3    H244404   5.749   4.525  10.474
 6737TIP3   OH244405   4.991   4.277  10.655
 6737TIP3    H144406   5.023   4.246  10.746
 6737TIP3    H244407   4.883   4.232  10.653
 6738TIP3   OH244408   6.096   4.392  10.189
 6738TIP3    H144409   6.163   4.308  10.147
 6738TIP3    H244410   6.121   4.372  10.283
 6739TIP3   OH244411   6.064   4.340  10.466
 6739TIP3    H144412   5.947   4.348  10.474
 6739TIP3    H244413   6.082   4.231  10.496
 6740TIP3   OH244414   6.394   3.002  11.646
 6740TIP3    H144415   6.331   3.040  11.570
 6740TIP3    H244416   6.421   2.893  11.618
 6741TIP3   OH244417   4.909   3.785  11.431
 6741TIP3    H144418   4.910   3.740  11.523
 6741TIP3    H244419   4.804   3.750  11.401
 6742TIP3   OH244420   5.221   2.438  11.019
 6742TIP3    H144421   5.113   2.428  10.982
 6742TIP3    H244422   5.194   2.492  11.102
 6743TIP3   OH244423   5.801   2.364  11.341
 6743TIP3    H144424   5.848   2.302  11.414
 6743TIP3    H244425   5.686   2.357  11.363
 6744TIP3   OH244426   6.143   2.862  11.471
 6744TIP3    H144427   6.061   2.831  11.539
 6744TIP3    H244428   6.100   2.964  11.440
 6745TIP3   OH244429   6.282   3.448  10.122
 6745TIP3    H144430   6.233   3.455  10.031
 6745TIP3    H244431   6.395   3.469  10.100
 6746TIP3   OH244432   5.760   2.676  10.133
 6746TIP3    H144433   5.705   2.627  10.210
 6746TIP3    H244434   5.672   2.671  10.070
 6747TIP3   OH244435   5.233   2.984  11.163
 6747TIP3    H144436   5.140   2.987  11.222
 6747TIP3    H244437   5.236   3.100  11.139
 6748TIP3   OH244438   5.198   3.016  10.660
 6748TIP3    H144439   5.189   3.131  10.646
 6748TIP3    H244440   5.262   2.984  10.581
 6749TIP3   OH244441   5.903   3.124  10.537
 6749TIP3    H144442   5.868   3.221  10.487
 6749TIP3    H244443   5.980   3.079  10.473
 6750TIP3   OH244444   5.754   3.130  11.664
 6750TIP3    H144445   5.702   3.026  11.684
 6750TIP3    H244446   5.846   3.124  11.724
 6751TIP3   OH244447   6.024   3.031  10.819
 6751TIP3    H144448   6.006   3.133  10.775
 6751TIP3    H244449   6.017   2.960  10.741
 6752TIP3   OH244450   4.943   3.001  11.298
 6752TIP3    H144451   4.974   3.038  11.386
 6752TIP3    H244452   4.896   2.897  11.318
 6753TIP3   OH244453   5.354   2.694  10.006
 6753TIP3    H144454   5.298   2.693  10.091
 6753TIP3    H244455   5.294   2.768   9.952
 6754TIP3   OH244456   4.556   2.702  10.739
 6754TIP3    H144457   4.619   2.688  10.821
 6754TIP3    H244458   4.566   2.819  10.729
 6755TIP3   OH244459   4.706   2.753  10.269
 6755TIP3    H144460   4.800   2.806  10.230
 6755TIP3    H244461   4.640   2.848  10.280
 6756TIP3   OH244462   5.908   3.202  11.250
 6756TIP3    H144463   5.970   3.121  11.201
 6756TIP3    H244464   5.834   3.133  11.304
 6757TIP3   OH244465   5.568   2.720  10.760
 6757TIP3    H144466   5.471   2.740  10.811
 6757TIP3    H244467   5.638   2.663  10.822
 6758TIP3   OH244468   4.862   2.834  10.623
 6758TIP3    H144469   4.801   2.929  10.595
 6758TIP3    H244470   4.972   2.874  10.633
 6759TIP3   OH244471   5.324   2.912  10.420
 6759TIP3    H144472   5.441   2.912  10.420
 6759TIP3    H244473   5.297   2.982  10.343
 6760TIP3   OH244474   6.065   2.623  11.063
 6760TIP3    H144475   5.978   2.630  11.127
 6760TIP3    H244476   6.016   2.570  10.986
 6761TIP3   OH244477   5.195   3.068  10.200
 6761TIP3    H144478   5.087   3.058  10.164
 6761TIP3    H244479   5.261   3.056  10.120
 6762TIP3   OH244480   6.436   4.506  11.722
 6762TIP3    H144481   6.486   4.541  11.638
 6762TIP3    H244482   6.517   4.540  11.784
 6763TIP3   OH244483   4.933   3.623  11.664
 6763TIP3    H144484   5.028   3.630  11.721
 6763TIP3    H244485   4.850   3.588  11.726
 6764TIP3   OH244486   5.664   3.049  10.924
 6764TIP3    H144487   5.760   3.013  10.878
 6764TIP3    H244488   5.635   2.957  10.977
 6765TIP3   OH244489   5.100   2.502  10.591
 6765TIP3    H144490   5.132   2.392  10.607
 6765TIP3    H244491   5.170   2.524  10.514
 6766TIP3   OH244492   5.512   2.831  11.175
 6766TIP3    H144493   5.417   2.899  11.178
 6766TIP3    H244494   5.590   2.897  11.221
 6767TIP3   OH244495   5.596   3.646  10.372
 6767TIP3    H144496   5.516   3.572  10.332
 6767TIP3    H244497   5.548   3.659  10.461
 6768TIP3   OH244498   6.478   3.553  11.239
 6768TIP3    H144499   6.536   3.617  11.172
 6768TIP3    H244500   6.373   3.545  11.196
 6769TIP3   OH244501   6.064   2.762  10.173
 6769TIP3    H144502   5.946   2.759  10.171
 6769TIP3    H244503   6.085   2.867  10.216
 6770TIP3   OH244504   5.711   3.648  11.464
 6770TIP3    H144505   5.716   3.614  11.556
 6770TIP3    H244506   5.701   3.764  11.475
 6771TIP3   OH244507   6.119   2.995  10.346
 6771TIP3    H144508   6.223   2.963  10.380
 6771TIP3    H244509   6.139   3.104  10.314
 6772TIP3   OH244510   5.011   3.553  10.917
 6772TIP3    H144511   5.075   3.535  10.835
 6772TIP3    H244512   5.040   3.462  10.971
 6773TIP3   OH244513   5.860   3.797  10.265
 6773TIP3    H144514   5.818   3.906  10.274
 6773TIP3    H244515   5.762   3.733  10.284
 6774TIP3   OH244516   4.673   3.310  11.439
 6774TIP3    H144517   4.646   3.269  11.528
 6774TIP3    H244518   4.590   3.260  11.385
 6775TIP3   OH244519   5.460   3.292  11.654
 6775TIP3    H144520   5.410   3.227  11.585
 6775TIP3    H244521   5.569   3.247  11.653
 6776TIP3   OH244522   6.071   3.935  11.489
 6776TIP3    H144523   5.970   3.961  11.446
 6776TIP3    H244524   6.048   3.978  11.578
 6777TIP3   OH244525   6.739   2.995  10.308
 6777TIP3    H144526   6.646   2.976  10.250
 6777TIP3    H244527   6.737   3.113  10.309
 6778TIP3   OH244528   6.740   3.701  11.574
 6778TIP3    H144529   6.631   3.712  11.538
 6778TIP3    H244530   6.806   3.695  11.492
 6779TIP3   OH244531   6.538   4.004  10.369
 6779TIP3    H144532   6.428   3.966  10.368
 6779TIP3    H244533   6.564   4.021  10.275
 6780TIP3   OH244534   6.179   3.428  11.046
 6780TIP3    H144535   6.070   3.396  11.021
 6780TIP3    H244536   6.240   3.342  11.004
 6781TIP3   OH244537   5.272   3.950  10.681
 6781TIP3    H144538   5.308   4.056  10.649
 6781TIP3    H244539   5.161   3.954  10.649
 6782TIP3   OH244540   4.806   3.298  10.098
 6782TIP3    H144541   4.870   3.378  10.144
 6782TIP3    H244542   4.700   3.310  10.139
 6783TIP3   OH244543   5.443   3.671  10.622
 6783TIP3    H144544   5.387   3.773  10.632
 6783TIP3    H244545   5.381   3.598  10.678
 6784TIP3   OH244546   5.520   4.168  11.294
 6784TIP3    H144547   5.596   4.243  11.255
 6784TIP3    H244548   5.590   4.109  11.356
 6785TIP3   OH244549   5.306   4.249  10.580
 6785TIP3    H144550   5.192   4.271  10.598
 6785TIP3    H244551   5.356   4.352  10.604
 6786TIP3   OH244552   5.888   3.680  11.224
 6786TIP3    H144553   5.836   3.649  11.308
 6786TIP3    H244554   5.946   3.582  11.204
 6787TIP3   OH244555   6.200   3.805  10.101
 6787TIP3    H144556   6.241   3.776  10.190
 6787TIP3    H244557   6.089   3.785  10.122
 6788TIP3   OH244558   6.288   4.218  11.447
 6788TIP3    H144559   6.176   4.183  11.437
 6788TIP3    H244560   6.299   4.298  11.374
 6789TIP3   OH244561   6.768   4.351  10.168
 6789TIP3    H144562   6.845   4.438  10.150
 6789TIP3    H244563   6.689   4.415  10.220
 6790TIP3   OH244564   4.870   2.705  11.428
 6790TIP3    H144565   4.820   2.770  11.498
 6790TIP3    H244566   4.832   2.598  11.453
 6791TIP3   OH244567   6.308   3.688  10.336
 6791TIP3    H144568   6.278   3.576  10.322
 6791TIP3    H244569   6.425   3.674  10.346
 6792TIP3   OH244570   4.804   4.128  11.240
 6792TIP3    H144571   4.885   4.046  11.248
 6792TIP3    H244572   4.805   4.174  11.328
 6793TIP3   OH244573   5.324   3.880  10.234
 6793TIP3    H144574   5.430   3.841  10.262
 6793TIP3    H244575   5.333   3.994  10.260
 6794TIP3   OH244576   4.936   3.540  10.277
 6794TIP3    H144577   4.849   3.600  10.319
 6794TIP3    H244578   4.997   3.629  10.238
 6795TIP3   OH244579   5.870   2.698  11.332
 6795TIP3    H144580   5.978   2.712  11.365
 6795TIP3    H244581   5.849   2.585  11.353
 6796TIP3   OH244582   6.048   2.558  10.449
 6796TIP3    H144583   6.052   2.636  10.376
 6796TIP3    H244584   6.065   2.624  10.530
 6797TIP3   OH244585   5.700   4.096  10.263
 6797TIP3    H144586   5.615   4.118  10.327
 6797TIP3    H244587   5.726   4.205  10.235
 6798TIP3   OH244588   5.660   2.845  10.520
 6798TIP3    H144589   5.732   2.936  10.528
 6798TIP3    H244590   5.630   2.821  10.612
 6799TIP3   OH244591   5.747   2.998  11.406
 6799TIP3    H144592   5.749   3.034  11.499
 6799TIP3    H244593   5.783   2.886  11.409
 6800TIP3   OH244594   5.732   2.461  10.568
 6800TIP3    H144595   5.681   2.550  10.614
 6800TIP3    H244596   5.834   2.510  10.539
 6801TIP3   OH244597   5.366   4.192  10.315
 6801TIP3    H144598   5.404   4.292  10.273
 6801TIP3    H244599   5.340   4.230  10.405
 6802TIP3   OH244600   5.208   2.627  10.301
 6802TIP3    H144601   5.234   2.726  10.347
 6802TIP3    H244602   5.314   2.579  10.290
 6803TIP3   OH244603   6.446   2.724  11.517
 6803TIP3    H144604   6.331   2.749  11.505
 6803TIP3    H244605   6.484   2.723  11.425
 6804TIP3   OH244606   6.310   3.150  10.908
 6804TIP3    H144607   6.217   3.079  10.895
 6804TIP3    H244608   6.389   3.080  10.952
 6805TIP3   OH244609   5.017   3.839  10.178
 6805TIP3    H144610   5.125   3.866  10.212
 6805TIP3    H244611   5.040   3.827  10.083
 6806TIP3   OH244612   4.852   2.981  10.139
 6806TIP3    H144613   4.844   3.098  10.136
 6806TIP3    H244614   4.775   2.951  10.070
 6807TIP3   OH244615   6.431   4.267  11.056
 6807TIP3    H144616   6.425   4.351  10.987
 6807TIP3    H244617   6.548   4.273  11.071
 6808TIP3   OH244618   4.919   2.363  10.965
 6808TIP3    H144619   4.892   2.336  10.872
 6808TIP3    H244620   4.890   2.261  11.009
 6809TIP3   OH244621   4.738   4.020  10.570
 6809TIP3    H144622   4.648   4.092  10.569
 6809TIP3    H244623   4.792   4.060  10.491
 6810TIP3   OH244624   4.686   4.360  11.693
 6810TIP3    H144625   4.781   4.340  11.748
 6810TIP3    H244626   4.654   4.250  11.669
 6811TIP3   OH244627   5.264   4.228  11.839
 6811TIP3    H144628   5.366   4.177  11.862
 6811TIP3    H244629   5.246   4.187  11.748
 6812TIP3   OH244630   5.748   4.115   9.964
 6812TIP3    H144631   5.662   4.044   9.989
 6812TIP3    H244632   5.830   4.074  10.025
 6813TIP3   OH244633   6.002   4.061  11.729
 6813TIP3    H144634   5.968   3.954  11.764
 6813TIP3    H244635   6.107   4.067  11.773
 6814TIP3   OH244636   6.254   4.127  10.097
 6814TIP3    H144637   6.256   4.012  10.081
 6814TIP3    H244638   6.310   4.174  10.019
 6815TIP3   OH244639   4.649   3.625  11.790
 6815TIP3    H144640   4.616   3.515  11.804
 6815TIP3    H244641   4.583   3.652  11.710
 6816TIP3   OH244642   5.222   3.592  10.019
 6816TIP3    H144643   5.227   3.552  10.110
 6816TIP3    H244644   5.296   3.682  10.027
 6817TIP3   OH244645   5.473   3.619  11.686
 6817TIP3    H144646   5.448   3.688  11.608
 6817TIP3    H244647   5.462   3.510  11.651
 6818TIP3   OH244648   6.157   3.583  11.484
 6818TIP3    H144649   6.264   3.635  11.489
 6818TIP3    H244650   6.095   3.680  11.496
 6819TIP3   OH244651   4.772   3.254  11.747
 6819TIP3    H144652   4.859   3.180  11.729
 6819TIP3    H244653   4.823   3.323  11.814
 6820TIP3   OH244654   5.383   3.437  10.262
 6820TIP3    H144655   5.320   3.362  10.316
 6820TIP3    H244656   5.435   3.360  10.200
 6821TIP3   OH244657   5.246   3.133  11.442
 6821TIP3    H144658   5.166   3.217  11.450
 6821TIP3    H244659   5.329   3.187  11.391
 6822TIP3   OH244660   5.519   3.212  10.066
 6822TIP3    H144661   5.527   3.193   9.971
 6822TIP3    H244662   5.628   3.190  10.096
 6823TIP3   OH244663   5.900   3.487  11.794
 6823TIP3    H144664   5.965   3.421  11.735
 6823TIP3    H244665   5.825   3.409  11.829
 6824TIP3   OH244666   6.570   3.451  20.014
 6824TIP3    H144667   6.587   3.404  19.927
 6824TIP3    H244668   6.606   3.563  20.000
 6825TIP3   OH244669   5.324   2.845  11.547
 6825TIP3    H144670   5.336   2.760  11.479
 6825TIP3    H244671   5.294   2.939  11.493
 6826TIP3   OH244672   5.358   2.623  11.336
 6826TIP3    H144673   5.413   2.680  11.264
 6826TIP3    H244674   5.246   2.616  11.305
 6827TIP3   OH244675   5.508   3.323  11.338
 6827TIP3    H144676   5.615   3.367  11.322
 6827TIP3    H244677   5.440   3.407  11.301
 6828TIP3   OH244678   6.050   3.020  11.850
 6828TIP3    H144679   6.080   2.911  11.833
 6828TIP3    H244680   6.151   3.076  11.833
 6829TIP3   OH244681   6.240   3.397  11.689
 6829TIP3    H144682   6.197   3.461  11.614
 6829TIP3    H244683   6.352   3.384  11.662
 6830TIP3   OH244684   5.087   2.990  11.738
 6830TIP3    H144685   5.010   2.904  11.755
 6830TIP3    H244686   5.171   2.932  11.691
 6831TIP3   OH244687   5.478   2.329  11.356
 6831TIP3    H144688   5.431   2.437  11.349
 6831TIP3    H244689   5.398   2.267  11.310
 6832TIP3   OH244690   5.597   2.857  11.725
 6832TIP3    H144691   5.564   2.821  11.814
 6832TIP3    H244692   5.502   2.833  11.669
 6833TIP3   OH244693   5.924   2.768  11.648
 6833TIP3    H144694   5.812   2.764  11.674
 6833TIP3    H244695   5.977   2.699  11.714
 6834TIP3   OH244696   6.088   2.575  11.814
 6834TIP3    H144697   6.090   2.456  11.816
 6834TIP3    H244698   6.078   2.604  11.908
 6835TIP3   OH244699   4.885   2.717  11.768
 6835TIP3    H144700   4.866   2.622  11.712
 6835TIP3    H244701   4.843   2.683  11.854
 6836TIP3   OH244702   5.461   2.287  11.640
 6836TIP3    H144703   5.533   2.196  11.635
 6836TIP3    H244704   5.467   2.323  11.547
 6837TIP3   OH244705   5.471   2.411  11.886
 6837TIP3    H144706   5.477   2.351  11.801
 6837TIP3    H244707   5.424   2.509  11.856
 6838TIP3   OH244708   5.431   4.468  10.186
 6838TIP3    H144709   5.548   4.470  10.184
 6838TIP3    H244710   5.401   4.536  10.112
 6839TIP3   OH244711   4.696   3.852  10.142
 6839TIP3    H144712   4.813   3.845  10.152
 6839TIP3    H244713   4.679   3.778  10.069
 6840TIP3   OH244714   4.552   4.446  10.599
 6840TIP3    H144715   4.454   4.392  10.567
 6840TIP3    H244716   4.578   4.379  10.676
 6841TIP3   OH244717   4.639   4.246  10.804
 6841TIP3    H144718   4.584   4.147  10.829
 6841TIP3    H244719   4.715   4.261  10.879
 6842TIP3   OH244720   6.746   4.348  11.065
 6842TIP3    H144721   6.768   4.360  11.160
 6842TIP3    H244722   6.852   4.369  11.028
 6843TIP3   OH244723   6.666   4.306  11.355
 6843TIP3    H144724   6.630   4.200  11.323
 6843TIP3    H244725   6.719   4.273  11.438
 6844TIP3   OH244726   6.518   3.756  11.866
 6844TIP3    H144727   6.408   3.772  11.892
 6844TIP3    H244728   6.560   3.866  11.871
 6845TIP3   OH244729   6.623   3.595  10.379
 6845TIP3    H144730   6.728   3.643  10.399
 6845TIP3    H244731   6.607   3.523  10.454
 6846TIP3   OH244732   6.696   3.359  10.600
 6846TIP3    H144733   6.596   3.301  10.617
 6846TIP3    H244734   6.745   3.358  10.689
 6847TIP3   OH244735   6.656   3.685  11.054
 6847TIP3    H144736   6.740   3.604  11.041
 6847TIP3    H244737   6.708   3.782  11.019
 6848TIP3   OH244738   6.508   4.015  11.303
 6848TIP3    H144739   6.426   4.078  11.351
 6848TIP3    H244740   6.452   3.984  11.220
 6849TIP3   OH244741   6.762   3.338  10.214
 6849TIP3    H144742   6.676   3.366  10.152
 6849TIP3    H244743   6.757   3.430  10.275
 6850TIP3   OH244744   6.488   2.976  10.126
 6850TIP3    H144745   6.452   3.035  10.047
 6850TIP3    H244746   6.538   2.886  10.081
 6851TIP3   OH244747   6.450   3.182  10.670
 6851TIP3    H144748   6.425   3.072  10.647
 6851TIP3    H244749   6.419   3.187  10.765
 6852TIP3   OH244750   4.634   3.472  11.068
 6852TIP3    H144751   4.636   3.434  10.975
 6852TIP3    H244752   4.736   3.422  11.094
 6853TIP3   OH244753   6.574   3.412  11.606
 6853TIP3    H144754   6.618   3.302  11.603
 6853TIP3    H244755   6.662   3.476  11.574
 6854TIP3   OH244756   6.694   3.109  11.622
 6854TIP3    H144757   6.582   3.080  11.645
 6854TIP3    H244758   6.752   3.012  11.647
 6855TIP3   OH244759   6.464   2.686   9.969
 6855TIP3    H144760   6.533   2.636  10.037
 6855TIP3    H244761   6.359   2.677  10.008
 6856TIP3   OH244762   6.379   2.887  10.488
 6856TIP3    H144763   6.406   2.776  10.510
 6856TIP3    H244764   6.482   2.920  10.452
 6857TIP3   OH244765   6.518   2.951  11.038
 6857TIP3    H144766   6.636   2.966  11.048
 6857TIP3    H244767   6.488   2.954  11.131
 6858TIP3   OH244768   6.499   3.046  11.295
 6858TIP3    H144769   6.388   3.082  11.305
 6858TIP3    H244770   6.554   3.146  11.274
 6859TIP3   OH244771   4.615   2.830  11.638
 6859TIP3    H144772   4.712   2.836  11.692
 6859TIP3    H244773   4.553   2.749  11.687
 6860TIP3   OH244774   6.749   2.272  11.842
 6860TIP3    H144775   6.793   2.210  11.767
 6860TIP3    H244776   6.726   2.372  11.795
 6861TIP3   OH244777   6.494   2.587  10.520
 6861TIP3    H144778   6.545   2.527  10.594
 6861TIP3    H244779   6.431   2.503  10.480
 6862TIP3   OH244780   4.753   2.658  10.952
 6862TIP3    H144781   4.799   2.552  10.970
 6862TIP3    H244782   4.846   2.726  10.970
 6863TIP3   OH244783   4.558   3.019  11.064
 6863TIP3    H144784   4.628   2.996  10.988
 6863TIP3    H244785   4.604   3.120  11.095
 6864TIP3   OH244786   6.646   2.536  11.702
 6864TIP3    H144787   6.559   2.614  11.691
 6864TIP3    H244788   6.665   2.515  11.607
 6865TIP3   OH244789   6.701   2.593  10.159
 6865TIP3    H144790   6.760   2.531  10.094
 6865TIP3    H244791   6.785   2.670  10.186
 6866TIP3   OH244792   4.582   2.560  10.459
 6866TIP3    H144793   4.470   2.588  10.473
 6866TIP3    H244794   4.601   2.617  10.376
 6867TIP3   OH244795   6.352   4.360  10.663
 6867TIP3    H144796   6.438   4.338  10.600
 6867TIP3    H244797   6.403   4.422  10.734
 6868TIP3   OH244798   4.580   2.394  11.289
 6868TIP3    H144799   4.512   2.359  11.363
 6868TIP3    H244800   4.513   2.473  11.245
 6869TIP3   OH244801   4.870   3.973  11.684
 6869TIP3    H144802   4.765   4.001  11.646
 6869TIP3    H244803   4.847   3.888  11.747
 6870TIP3   OH244804   5.204   4.164  11.354
 6870TIP3    H144805   5.201   4.271  11.314
 6870TIP3    H244806   5.321   4.144  11.350
 6871TIP3   OH244807   5.694   4.306  11.596
 6871TIP3    H144808   5.711   4.267  11.687
 6871TIP3    H244809   5.804   4.336  11.571
 6872TIP3   OH244810   5.971   4.469  11.542
 6872TIP3    H144811   6.070   4.430  11.504
 6872TIP3    H244812   6.006   4.516  11.628
 6873TIP3   OH244813   6.592   2.324  11.478
 6873TIP3    H144814   6.520   2.378  11.418
 6873TIP3    H244815   6.587   2.215  11.443
 6874TIP3   OH244816   4.880   4.513  11.329
 6874TIP3    H144817   4.799   4.589  11.296
 6874TIP3    H244818   4.873   4.529  11.424
 6875TIP3   OH244819   5.160   4.447  11.226
 6875TIP3    H144820   5.052   4.480  11.257
 6875TIP3    H244821   5.173   4.517  11.149
 6876TIP3   OH244822   5.731   4.416  11.149
 6876TIP3    H144823   5.662   4.487  11.098
 6876TIP3    H244824   5.765   4.490  11.220
 6877TIP3   OH244825   5.986   4.255  11.294
 6877TIP3    H144826   5.910   4.302  11.230
 6877TIP3    H244827   6.079   4.319  11.269
 6878TIP3   OH244828   6.312   4.441  11.258
 6878TIP3    H144829   6.326   4.550  11.225
 6878TIP3    H244830   6.359   4.381  11.182
 6879TIP3   OH244831   4.825   4.313  11.020
 6879TIP3    H144832   4.801   4.247  11.100
 6879TIP3    H244833   4.934   4.276  10.998
 6880TIP3   OH244834   5.090   4.194  10.900
 6880TIP3    H144835   5.075   4.081  10.922
 6880TIP3    H244836   5.197   4.212  10.939
 6881TIP3   OH244837   5.369   4.192  11.034
 6881TIP3    H144838   5.402   4.081  11.021
 6881TIP3    H244839   5.392   4.205  11.129
 6882TIP3   OH244840   5.791   2.497  10.901
 6882TIP3    H144841   5.699   2.461  10.951
 6882TIP3    H244842   5.807   2.407  10.842
 6883TIP3   OH244843   6.426   2.261  10.877
 6883TIP3    H144844   6.506   2.329  10.834
 6883TIP3    H244845   6.326   2.305  10.839
 6884TIP3   OH244846   6.629   2.420  10.724
 6884TIP3    H144847   6.707   2.354  10.674
 6884TIP3    H244848   6.695   2.516  10.743
 6885TIP3   OH244849   4.832   2.297  10.701
 6885TIP3    H144850   4.739   2.261  10.650
 6885TIP3    H244851   4.910   2.214  10.674
 6886TIP3   OH244852   4.727   2.287  10.264
 6886TIP3    H144853   4.792   2.363  10.210
 6886TIP3    H244854   4.660   2.357  10.317
 6887TIP3   OH244855   5.378   2.292  10.647
 6887TIP3    H144856   5.478   2.281  10.598
 6887TIP3    H244857   5.417   2.305  10.738
 6888TIP3   OH244858   6.125   2.335  10.776
 6888TIP3    H144859   6.070   2.352  10.692
 6888TIP3    H244860   6.064   2.249  10.820
 6889TIP3   OH244861   6.286   2.311  10.404
 6889TIP3    H144862   6.198   2.389  10.407
 6889TIP3    H244863   6.241   2.227  10.462
 6890TIP3   OH244864   4.717   4.234  10.361
 6890TIP3    H144865   4.612   4.236  10.320
 6890TIP3    H244866   4.744   4.346  10.351
 6891TIP3   OH244867   4.918   2.454  10.116
 6891TIP3    H144868   5.011   2.389  10.094
 6891TIP3    H244869   4.964   2.555  10.145
 6892TIP3   OH244870   5.572   2.566  10.333
 6892TIP3    H144871   5.627   2.496  10.396
 6892TIP3    H244872   5.574   2.666  10.383
 6893TIP3   OH244873   5.782   4.386  10.162
 6893TIP3    H144874   5.898   4.408  10.163
 6893TIP3    H244875   5.774   4.339  10.073
 6894TIP3   OH244876   6.569   4.292  10.479
 6894TIP3    H144877   6.562   4.186  10.435
 6894TIP3    H244878   6.536   4.367  10.409
 6895TIP3   OH244879   4.837   2.417  11.625
 6895TIP3    H144880   4.784   2.314  11.624
 6895TIP3    H244881   4.933   2.399  11.679
 6896TIP3   OH244882   5.095   2.346  11.802
 6896TIP3    H144883   5.208   2.322  11.790
 6896TIP3    H244884   5.051   2.242  11.832
 6897TIP3   OH244885   4.978   4.399  10.107
 6897TIP3    H144886   4.902   4.430  10.176
 6897TIP3    H244887   5.011   4.294  10.134
 6898TIP3   OH244888   6.110   2.254  11.796
 6898TIP3    H144889   6.110   2.215  11.889
 6898TIP3    H244890   6.222   2.227  11.769
 6899TIP3   OH244891   6.494   4.189  11.650
 6899TIP3    H144892   6.414   4.183  11.579
 6899TIP3    H244893   6.475   4.297  11.685
 6900TIP3   OH244894   8.249   3.450  10.674
 6900TIP3    H144895   8.244   3.554  10.718
 6900TIP3    H244896   8.159   3.462  10.612
 6901TIP3   OH244897   8.076   3.328  11.001
 6901TIP3    H144898   8.101   3.270  11.084
 6901TIP3    H244899   7.996   3.259  10.958
 6902TIP3   OH244900   7.145   3.306  11.151
 6902TIP3    H144901   7.157   3.215  11.211
 6902TIP3    H244902   7.238   3.368  11.173
 6903TIP3   OH244903   8.548   3.714  10.874
 6903TIP3    H144904   8.530   3.620  10.930
 6903TIP3    H244905   8.538   3.800  10.939
 6904TIP3   OH244906   7.274   3.875  10.976
 6904TIP3    H144907   7.235   3.764  10.967
 6904TIP3    H244908   7.388   3.848  10.972
 6905TIP3   OH244909   6.883   3.062  10.554
 6905TIP3    H144910   6.841   3.169  10.570
 6905TIP3    H244911   6.844   3.040  10.464
 6906TIP3   OH244912   6.935   3.354  10.812
 6906TIP3    H144913   6.996   3.253  10.827
 6906TIP3    H244914   7.012   3.422  10.766
 6907TIP3   OH244915   8.177   4.333  10.877
 6907TIP3    H144916   8.252   4.265  10.828
 6907TIP3    H244917   8.112   4.252  10.918
 6908TIP3   OH244918   7.883   3.640  11.099
 6908TIP3    H144919   7.907   3.576  11.022
 6908TIP3    H244920   7.991   3.673  11.126
 6909TIP3   OH244921   8.941   2.660  11.089
 6909TIP3    H144922   8.939   2.729  11.167
 6909TIP3    H244923   9.025   2.710  11.036
 6910TIP3   OH244924   8.303   2.978  11.124
 6910TIP3    H144925   8.351   2.874  11.140
 6910TIP3    H244926   8.273   2.970  11.030
 6911TIP3   OH244927   7.453   2.713  10.776
 6911TIP3    H144928   7.470   2.813  10.725
 6911TIP3    H244929   7.402   2.648  10.707
 6912TIP3   OH244930   8.399   2.744  10.638
 6912TIP3    H144931   8.460   2.735  10.722
 6912TIP3    H244932   8.446   2.836  10.595
 6913TIP3   OH244933   7.045   3.060  10.867
 6913TIP3    H144934   7.118   3.004  10.926
 6913TIP3    H244935   7.073   3.008  10.782
 6914TIP3   OH244936   7.644   3.215  10.830
 6914TIP3    H144937   7.734   3.155  10.869
 6914TIP3    H244938   7.588   3.130  10.783
 6915TIP3   OH244939   8.924   2.755  11.373
 6915TIP3    H144940   8.873   2.851  11.335
 6915TIP3    H244941   9.013   2.803  11.421
 6916TIP3   OH244942   7.343   2.617  11.206
 6916TIP3    H144943   7.296   2.675  11.131
 6916TIP3    H244944   7.265   2.647  11.276
 6917TIP3   OH244945   8.152   3.756  10.563
 6917TIP3    H144946   8.141   3.755  10.465
 6917TIP3    H244947   8.114   3.865  10.580
 6918TIP3   OH244948   7.595   3.539  11.187
 6918TIP3    H144949   7.529   3.631  11.217
 6918TIP3    H244950   7.686   3.596  11.146
 6919TIP3   OH244951   8.555   2.700  10.866
 6919TIP3    H144952   8.531   2.611  10.926
 6919TIP3    H244953   8.670   2.696  10.858
 6920TIP3   OH244954   7.283   2.851  11.000
 6920TIP3    H144955   7.361   2.922  11.047
 6920TIP3    H244956   7.346   2.819  10.922
 6921TIP3   OH244957   7.445   3.803  11.287
 6921TIP3    H144958   7.438   3.914  11.258
 6921TIP3    H244959   7.336   3.796  11.326
 6922TIP3   OH244960   6.941   3.710  10.392
 6922TIP3    H144961   6.941   3.785  10.316
 6922TIP3    H244962   6.955   3.785  10.466
 6923TIP3   OH244963   8.579   3.958  11.061
 6923TIP3    H144964   8.468   3.976  11.091
 6923TIP3    H244965   8.602   4.064  11.027
 6924TIP3   OH244966   8.618   2.587  11.181
 6924TIP3    H144967   8.526   2.639  11.137
 6924TIP3    H244968   8.708   2.626  11.128
 6925TIP3   OH244969   7.758   2.302  10.932
 6925TIP3    H144970   7.732   2.189  10.940
 6925TIP3    H244971   7.652   2.348  10.958
 6926TIP3   OH244972   8.369   4.138  10.731
 6926TIP3    H144973   8.388   4.036  10.684
 6926TIP3    H244974   8.477   4.183  10.719
 6927TIP3   OH244975   8.506   3.898  10.586
 6927TIP3    H144976   8.492   3.817  10.517
 6927TIP3    H244977   8.550   3.835  10.660
 6928TIP3   OH244978   8.696   3.725  11.443
 6928TIP3    H144979   8.688   3.648  11.368
 6928TIP3    H244980   8.716   3.823  11.394
 6929TIP3   OH244981   8.062   3.376  10.403
 6929TIP3    H144982   8.006   3.480  10.397
 6929TIP3    H244983   8.154   3.390  10.346
 6930TIP3   OH244984   8.116   3.212  10.108
 6930TIP3    H144985   8.206   3.241  10.169
 6930TIP3    H244986   8.147   3.104  10.083
 6931TIP3   OH244987   8.892   3.284  11.237
 6931TIP3    H144988   8.822   3.377  11.220
 6931TIP3    H244989   8.977   3.304  11.171
 6932TIP3   OH244990   8.495   3.378  10.515
 6932TIP3    H144991   8.407   3.418  10.573
 6932TIP3    H244992   8.567   3.334  10.584
 6933TIP3   OH244993   8.465   3.169  11.423
 6933TIP3    H144994   8.443   3.277  11.456
 6933TIP3    H244995   8.386   3.170  11.350
 6934TIP3   OH244996   7.465   3.445  10.701
 6934TIP3    H144997   7.428   3.413  10.611
 6934TIP3    H244998   7.541   3.359  10.720
 6935TIP3   OH244999   7.624   3.851  10.955
 6935TIP3    H145000   7.637   3.832  10.860
 6935TIP3    H245001   7.720   3.802  10.995
 6936TIP3   OH245002   7.498   3.277  11.067
 6936TIP3    H145003   7.538   3.281  10.975
 6936TIP3    H245004   7.550   3.372  11.108
 6937TIP3   OH245005   8.280   3.991  11.139
 6937TIP3    H145006   8.260   4.055  11.218
 6937TIP3    H245007   8.254   3.882  11.170
 6938TIP3   OH245008   7.639   3.839  11.509
 6938TIP3    H145009   7.559   3.906  11.556
 6938TIP3    H245010   7.583   3.827  11.423
 6939TIP3   OH245011   8.344   3.300  10.278
 6939TIP3    H145012   8.396   3.311  10.366
 6939TIP3    H245013   8.410   3.377  10.224
 6940TIP3   OH245014   7.267   3.348  11.442
 6940TIP3    H145015   7.295   3.452  11.477
 6940TIP3    H245016   7.164   3.332  11.485
 6941TIP3   OH245017   8.069   4.088  10.557
 6941TIP3    H145018   8.120   4.114  10.641
 6941TIP3    H245019   8.003   4.182  10.540
 6942TIP3   OH245020   7.439   4.048  11.617
 6942TIP3    H145021   7.398   4.141  11.567
 6942TIP3    H245022   7.334   4.003  11.643
 6943TIP3   OH245023   8.791   2.248  10.252
 6943TIP3    H145024   8.677   2.268  10.275
 6943TIP3    H245025   8.837   2.353  10.268
 6944TIP3   OH245026   7.346   3.317  10.459
 6944TIP3    H145027   7.289   3.403  10.413
 6944TIP3    H245028   7.295   3.222  10.426
 6945TIP3   OH245029   8.963   4.030  10.135
 6945TIP3    H145030   8.975   4.147  10.139
 6945TIP3    H245031   9.072   3.994  10.147
 6946TIP3   OH245032   6.898   3.644  11.351
 6946TIP3    H145033   6.830   3.635  11.273
 6946TIP3    H245034   6.949   3.539  11.354
 6947TIP3   OH245035   6.872   3.948  11.012
 6947TIP3    H145036   6.986   3.931  11.004
 6947TIP3    H245037   6.870   4.040  11.070
 6948TIP3   OH245038   9.028   4.055  11.595
 6948TIP3    H145039   9.018   3.943  11.572
 6948TIP3    H245040   8.934   4.066  11.655
 6949TIP3   OH245041   7.946   3.970  11.482
 6949TIP3    H145042   7.966   4.051  11.549
 6949TIP3    H245043   7.832   3.940  11.496
 6950TIP3   OH245044   8.003   4.421  10.436
 6950TIP3    H145045   8.018   4.444  10.342
 6950TIP3    H245046   8.010   4.529  10.474
 6951TIP3   OH245047   7.250   4.260  10.664
 6951TIP3    H145048   7.284   4.241  10.758
 6951TIP3    H245049   7.145   4.211  10.663
 6952TIP3   OH245050   8.346   4.400  10.170
 6952TIP3    H145051   8.396   4.300  10.137
 6952TIP3    H245052   8.368   4.397  10.266
 6953TIP3   OH245053   8.323   4.332  10.449
 6953TIP3    H145054   8.208   4.333  10.469
 6953TIP3    H245055   8.360   4.243  10.503
 6954TIP3   OH245056   8.647   3.047  11.640
 6954TIP3    H145057   8.587   3.088  11.562
 6954TIP3    H245058   8.663   2.936  11.613
 6955TIP3   OH245059   7.164   3.791  11.415
 6955TIP3    H145060   7.163   3.774  11.512
 6955TIP3    H245061   7.056   3.757  11.391
 6956TIP3   OH245062   7.492   2.428  11.024
 6956TIP3    H145063   7.387   2.423  10.983
 6956TIP3    H245064   7.466   2.491  11.104
 6957TIP3   OH245065   8.057   2.357  11.371
 6957TIP3    H145066   8.101   2.308  11.452
 6957TIP3    H245067   7.940   2.350  11.385
 6958TIP3   OH245068   8.405   2.818  11.445
 6958TIP3    H145069   8.339   2.777  11.519
 6958TIP3    H245070   8.390   2.933  11.454
 6959TIP3   OH245071   8.518   3.461  10.110
 6959TIP3    H145072   8.467   3.476  10.022
 6959TIP3    H245073   8.629   3.462  10.084
 6960TIP3   OH245074   8.008   2.698  10.110
 6960TIP3    H145075   7.950   2.652  10.188
 6960TIP3    H245076   7.938   2.662  10.039
 6961TIP3   OH245077   7.504   2.986  11.166
 6961TIP3    H145078   7.411   2.994  11.226
 6961TIP3    H245079   7.506   3.096  11.131
 6962TIP3   OH245080   7.474   2.992  10.652
 6962TIP3    H145081   7.358   2.988  10.630
 6962TIP3    H245082   7.523   2.971  10.563
 6963TIP3   OH245083   8.176   3.119  10.548
 6963TIP3    H145084   8.129   3.210  10.499
 6963TIP3    H245085   8.242   3.071  10.478
 6964TIP3   OH245086   8.003   3.113  11.656
 6964TIP3    H145087   7.952   3.012  11.686
 6964TIP3    H245088   8.083   3.128  11.725
 6965TIP3   OH245089   8.269   3.054  10.831
 6965TIP3    H145090   8.252   3.151  10.778
 6965TIP3    H245091   8.269   2.977  10.759
 6966TIP3   OH245092   7.217   3.013  11.287
 6966TIP3    H145093   7.241   3.073  11.367
 6966TIP3    H245094   7.186   2.909  11.324
 6967TIP3   OH245095   7.600   2.736  10.034
 6967TIP3    H145096   7.554   2.675  10.108
 6967TIP3    H245097   7.516   2.737   9.967
 6968TIP3   OH245098   6.822   2.676  10.747
 6968TIP3    H145099   6.904   2.676  10.816
 6968TIP3    H245100   6.883   2.674  10.665
 6969TIP3   OH245101   6.955   2.760  10.266
 6969TIP3    H145102   7.052   2.812  10.234
 6969TIP3    H245103   6.884   2.854  10.269
 6970TIP3   OH245104   8.176   3.220  11.262
 6970TIP3    H145105   8.236   3.139  11.209
 6970TIP3    H245106   8.102   3.151  11.312
 6971TIP3   OH245107   7.804   2.731  10.755
 6971TIP3    H145108   7.691   2.718  10.780
 6971TIP3    H245109   7.861   2.657  10.814
 6972TIP3   OH245110   7.147   2.902  10.647
 6972TIP3    H145111   7.056   2.934  10.590
 6972TIP3    H245112   7.182   2.798  10.610
 6973TIP3   OH245113   7.591   2.921  10.410
 6973TIP3    H145114   7.705   2.942  10.407
 6973TIP3    H245115   7.547   3.002  10.349
 6974TIP3   OH245116   8.317   2.632  11.073
 6974TIP3    H145117   8.234   2.617  11.142
 6974TIP3    H245118   8.266   2.594  10.992
 6975TIP3   OH245119   7.441   3.076  10.186
 6975TIP3    H145120   7.338   3.046  10.148
 6975TIP3    H245121   7.516   3.016  10.129
 6976TIP3   OH245122   8.701   4.488  11.727
 6976TIP3    H145123   8.754   4.524  11.645
 6976TIP3    H245124   8.789   4.493  11.790
 6977TIP3   OH245125   7.192   3.635  11.678
 6977TIP3    H145126   7.268   3.679  11.741
 6977TIP3    H245127   7.099   3.612  11.736
 6978TIP3   OH245128   7.928   3.050  10.927
 6978TIP3    H145129   8.022   3.020  10.874
 6978TIP3    H245130   7.906   2.951  10.973
 6979TIP3   OH245131   7.276   2.576  10.577
 6979TIP3    H145132   7.201   2.500  10.619
 6979TIP3    H245133   7.331   2.502  10.519
 6980TIP3   OH245134   7.789   2.842  11.173
 6980TIP3    H145135   7.691   2.908  11.176
 6980TIP3    H245136   7.864   2.904  11.225
 6981TIP3   OH245137   7.846   3.636  10.373
 6981TIP3    H145138   7.760   3.568  10.337
 6981TIP3    H245139   7.802   3.652  10.464
 6982TIP3   OH245140   8.712   3.560  11.212
 6982TIP3    H145141   8.783   3.604  11.143
 6982TIP3    H245142   8.615   3.534  11.160
 6983TIP3   OH245143   8.312   2.761  10.157
 6983TIP3    H145144   8.197   2.750  10.168
 6983TIP3    H245145   8.334   2.851  10.218
 6984TIP3   OH245146   8.021   3.650  11.494
 6984TIP3    H145147   7.948   3.620  11.566
 6984TIP3    H245148   8.005   3.766  11.492
 6985TIP3   OH245149   8.392   2.989  10.331
 6985TIP3    H145150   8.498   2.974  10.369
 6985TIP3    H245151   8.398   3.098  10.297
 6986TIP3   OH245152   7.273   3.557  10.911
 6986TIP3    H145153   7.339   3.533  10.832
 6986TIP3    H245154   7.288   3.462  10.965
 6987TIP3   OH245155   8.100   3.803  10.295
 6987TIP3    H145156   8.047   3.907  10.295
 6987TIP3    H245157   8.006   3.732  10.304
 6988TIP3   OH245158   6.904   3.335  11.459
 6988TIP3    H145159   6.882   3.268  11.538
 6988TIP3    H245160   6.836   3.282  11.392
 6989TIP3   OH245161   7.734   3.293  11.641
 6989TIP3    H145162   7.681   3.235  11.570
 6989TIP3    H245163   7.841   3.242  11.642
 6990TIP3   OH245164   8.340   3.936  11.487
 6990TIP3    H145165   8.240   3.919  11.439
 6990TIP3    H245166   8.298   3.971  11.573
 6991TIP3   OH245167   8.982   2.974  10.322
 6991TIP3    H145168   8.903   2.938  10.256
 6991TIP3    H245169   8.988   3.085  10.294
 6992TIP3   OH245170   8.974   3.682  11.573
 6992TIP3    H145171   8.868   3.714  11.541
 6992TIP3    H245172   9.037   3.674  11.490
 6993TIP3   OH245173   8.795   4.008  10.364
 6993TIP3    H145174   8.689   3.962  10.353
 6993TIP3    H245175   8.848   3.989  10.278
 6994TIP3   OH245176   8.459   3.455  11.045
 6994TIP3    H145177   8.348   3.450  11.017
 6994TIP3    H245178   8.500   3.362  10.994
 6995TIP3   OH245179   7.534   3.947  10.696
 6995TIP3    H145180   7.564   4.060  10.683
 6995TIP3    H245181   7.428   3.946  10.655
 6996TIP3   OH245182   7.063   3.300  10.090
 6996TIP3    H145183   7.132   3.370  10.143
 6996TIP3    H245184   6.959   3.307  10.137
 6997TIP3   OH245185   7.715   3.671  10.631
 6997TIP3    H145186   7.646   3.767  10.638
 6997TIP3    H245187   7.655   3.592  10.682
 6998TIP3   OH245188   7.776   4.166  11.305
 6998TIP3    H145189   7.842   4.248  11.264
 6998TIP3    H245190   7.849   4.117  11.369
 6999TIP3   OH245191   7.562   4.250  10.569
 6999TIP3    H145192   7.450   4.264  10.594
 6999TIP3    H245193   7.602   4.358  10.587
 7000TIP3   OH245194   8.158   3.679  11.233
 7000TIP3    H145195   8.101   3.650  11.317
 7000TIP3    H245196   8.212   3.578  11.212
 7001TIP3   OH245197   8.476   3.832  10.133
 7001TIP3    H145198   8.521   3.772  10.208
 7001TIP3    H245199   8.368   3.792  10.137
 7002TIP3   OH245200   8.522   4.231  11.476
 7002TIP3    H145201   8.429   4.160  11.471
 7002TIP3    H245202   8.520   4.291  11.391
 7003TIP3   OH245203   9.037   4.351  10.132
 7003TIP3    H145204   9.118   4.436  10.133
 7003TIP3    H245205   8.944   4.409  10.168
 7004TIP3   OH245206   7.130   2.718  11.391
 7004TIP3    H145207   7.032   2.782  11.398
 7004TIP3    H245208   7.097   2.618  11.433
 7005TIP3   OH245209   8.581   3.665  10.347
 7005TIP3    H145210   8.544   3.559  10.374
 7005TIP3    H245211   8.698   3.650  10.352
 7006TIP3   OH245212   7.060   4.132  11.250
 7006TIP3    H145213   7.144   4.051  11.251
 7006TIP3    H245214   7.084   4.183  11.336
 7007TIP3   OH245215   7.592   3.878  10.237
 7007TIP3    H145216   7.692   3.836  10.271
 7007TIP3    H245217   7.601   3.992  10.266
 7008TIP3   OH245218   7.198   3.544  10.285
 7008TIP3    H145219   7.091   3.584  10.307
 7008TIP3    H245220   7.248   3.642  10.253
 7009TIP3   OH245221   8.144   2.678  11.336
 7009TIP3    H145222   8.256   2.693  11.361
 7009TIP3    H245223   8.123   2.567  11.362
 7010TIP3   OH245224   8.237   2.610  10.445
 7010TIP3    H145225   8.266   2.682  10.374
 7010TIP3    H245226   8.311   2.642  10.517
 7011TIP3   OH245227   7.951   4.092  10.243
 7011TIP3    H145228   7.866   4.100  10.309
 7011TIP3    H245229   7.997   4.199  10.245
 7012TIP3   OH245230   7.956   2.850  10.532
 7012TIP3    H145231   8.000   2.956  10.548
 7012TIP3    H245232   7.906   2.820  10.617
 7013TIP3   OH245233   8.011   2.982  11.406
 7013TIP3    H145234   8.016   3.024  11.498
 7013TIP3    H245235   8.060   2.875  11.413
 7014TIP3   OH245236   7.986   2.461  10.564
 7014TIP3    H145237   7.944   2.542  10.625
 7014TIP3    H245238   8.088   2.514  10.536
 7015TIP3   OH245239   7.638   4.180  10.315
 7015TIP3    H145240   7.668   4.278  10.266
 7015TIP3    H245241   7.606   4.223  10.402
 7016TIP3   OH245242   7.484   2.616  10.283
 7016TIP3    H145243   7.477   2.711  10.339
 7016TIP3    H245244   7.591   2.581  10.306
 7017TIP3   OH245245   8.676   2.711  11.546
 7017TIP3    H145246   8.576   2.730  11.494
 7017TIP3    H245247   8.759   2.728  11.478
 7018TIP3   OH245248   8.548   3.200  10.897
 7018TIP3    H145249   8.450   3.136  10.889
 7018TIP3    H245250   8.610   3.124  10.953
 7019TIP3   OH245251   7.286   3.827  10.177
 7019TIP3    H145252   7.390   3.850  10.223
 7019TIP3    H245253   7.331   3.796  10.091
 7020TIP3   OH245254   7.103   2.984  10.114
 7020TIP3    H145255   7.094   3.101  10.117
 7020TIP3    H245256   7.018   2.956  10.051
 7021TIP3   OH245257   8.718   4.276  11.064
 7021TIP3    H145258   8.696   4.362  11.000
 7021TIP3    H245259   8.833   4.280  11.075
 7022TIP3   OH245260   7.175   2.360  10.966
 7022TIP3    H145261   7.176   2.347  10.868
 7022TIP3    H245262   7.141   2.254  10.993
 7023TIP3   OH245263   7.006   4.021  10.572
 7023TIP3    H145264   6.914   4.094  10.572
 7023TIP3    H245265   7.055   4.057  10.490
 7024TIP3   OH245266   6.917   4.369  11.686
 7024TIP3    H145267   7.028   4.364  11.656
 7024TIP3    H245268   6.887   4.256  11.671
 7025TIP3   OH245269   7.516   4.222  11.845
 7025TIP3    H145270   7.615   4.163  11.853
 7025TIP3    H245271   7.474   4.172  11.763
 7026TIP3   OH245272   8.012   4.128   9.957
 7026TIP3    H145273   7.946   4.061  10.013
 7026TIP3    H245274   8.117   4.109   9.998
 7027TIP3   OH245275   8.267   4.073  11.732
 7027TIP3    H145276   8.232   3.964  11.758
 7027TIP3    H245277   8.375   4.073  11.771
 7028TIP3   OH245278   8.448   4.132  10.048
 7028TIP3    H145279   8.474   4.024  10.081
 7028TIP3    H245280   8.548   4.172  10.006
 7029TIP3   OH245281   6.902   3.608  11.800
 7029TIP3    H145282   6.860   3.500  11.804
 7029TIP3    H245283   6.851   3.647  11.717
 7030TIP3   OH245284   7.489   3.612  10.022
 7030TIP3    H145285   7.456   3.563  10.105
 7030TIP3    H245286   7.601   3.632  10.043
 7031TIP3   OH245287   7.747   3.614  11.679
 7031TIP3    H145288   7.698   3.678  11.606
 7031TIP3    H245289   7.733   3.500  11.651
 7032TIP3   OH245290   8.430   3.565  11.484
 7032TIP3    H145291   8.536   3.617  11.496
 7032TIP3    H245292   8.363   3.658  11.500
 7033TIP3   OH245293   7.010   3.253  11.765
 7033TIP3    H145294   7.108   3.194  11.783
 7033TIP3    H245295   6.959   3.262  11.852
 7034TIP3   OH245296   7.615   3.421  10.272
 7034TIP3    H145297   7.538   3.350  10.318
 7034TIP3    H245298   7.664   3.348  10.208
 7035TIP3   OH245299   7.513   3.151  11.411
 7035TIP3    H145300   7.430   3.233  11.427
 7035TIP3    H245301   7.597   3.214  11.367
 7036TIP3   OH245302   7.784   3.218  10.068
 7036TIP3    H145303   7.811   3.184   9.977
 7036TIP3    H245304   7.892   3.212  10.110
 7037TIP3   OH245305   8.126   3.472  11.826
 7037TIP3    H145306   8.222   3.440  11.778
 7037TIP3    H245307   8.107   3.373  11.878
 7038TIP3   OH245308   8.807   3.436  19.985
 7038TIP3    H145309   8.878   3.348  19.962
 7038TIP3    H245310   8.872   3.523  19.948
 7039TIP3   OH245311   7.576   2.882  11.541
 7039TIP3    H145312   7.597   2.800  11.475
 7039TIP3    H245313   7.565   2.978  11.483
 7040TIP3   OH245314   7.630   2.630  11.337
 7040TIP3    H145315   7.692   2.692  11.271
 7040TIP3    H245316   7.522   2.630  11.296
 7041TIP3   OH245317   7.771   3.335  11.333
 7041TIP3    H145318   7.878   3.372  11.311
 7041TIP3    H245319   7.706   3.418  11.289
 7042TIP3   OH245320   8.376   3.002  11.814
 7042TIP3    H145321   8.404   2.896  11.784
 7042TIP3    H245322   8.477   3.056  11.792
 7043TIP3   OH245323   8.465   3.383  11.700
 7043TIP3    H145324   8.418   3.428  11.618
 7043TIP3    H245325   8.576   3.365  11.671
 7044TIP3   OH245326   7.393   2.950  11.758
 7044TIP3    H145327   7.292   2.893  11.740
 7044TIP3    H245328   7.462   2.920  11.682
 7045TIP3   OH245329   7.730   2.322  11.346
 7045TIP3    H145330   7.700   2.436  11.353
 7045TIP3    H245331   7.637   2.281  11.300
 7046TIP3   OH245332   7.864   2.837  11.736
 7046TIP3    H145333   7.807   2.820  11.820
 7046TIP3    H245334   7.776   2.826  11.673
 7047TIP3   OH245335   8.195   2.719  11.661
 7047TIP3    H145336   8.083   2.743  11.680
 7047TIP3    H245337   8.233   2.684  11.749
 7048TIP3   OH245338   8.401   2.596  11.845
 7048TIP3    H145339   8.382   2.479  11.840
 7048TIP3    H245340   8.377   2.621  11.939
 7049TIP3   OH245341   7.134   2.736  11.765
 7049TIP3    H145342   7.126   2.639  11.710
 7049TIP3    H245343   7.126   2.689  11.855
 7050TIP3   OH245344   7.679   2.227  11.626
 7050TIP3    H145345   7.764   2.149  11.643
 7050TIP3    H245346   7.687   2.237  11.529
 7051TIP3   OH245347   7.760   2.410  11.875
 7051TIP3    H145348   7.736   2.358  11.789
 7051TIP3    H245349   7.728   2.519  11.855
 7052TIP3   OH245350   7.681   4.446  10.176
 7052TIP3    H145351   7.796   4.457  10.188
 7052TIP3    H245352   7.655   4.530  10.114
 7053TIP3   OH245353   6.966   3.854  10.135
 7053TIP3    H145354   7.082   3.841  10.153
 7053TIP3    H245355   6.947   3.775  10.066
 7054TIP3   OH245356   6.800   4.446  10.607
 7054TIP3    H145357   6.707   4.384  10.576
 7054TIP3    H245358   6.840   4.376  10.679
 7055TIP3   OH245359   6.906   4.246  10.792
 7055TIP3    H145360   6.828   4.169  10.824
 7055TIP3    H245361   6.977   4.258  10.870
 7056TIP3   OH245362   9.067   4.295  11.094
 7056TIP3    H145363   9.078   4.304  11.191
 7056TIP3    H245364   9.062   4.408  11.070
 7057TIP3   OH245365   8.958   4.271  11.383
 7057TIP3    H145366   8.893   4.192  11.334
 7057TIP3    H245367   8.988   4.204  11.460
 7058TIP3   OH245368   8.774   3.785  11.869
 7058TIP3    H145369   8.670   3.794  11.913
 7058TIP3    H245370   8.825   3.884  11.895
 7059TIP3   OH245371   8.921   3.577  10.367
 7059TIP3    H145372   9.026   3.624  10.375
 7059TIP3    H245373   8.926   3.494  10.437
 7060TIP3   OH245374   8.971   3.332  10.567
 7060TIP3    H145375   8.857   3.313  10.587
 7060TIP3    H245376   9.016   3.330  10.657
 7061TIP3   OH245377   8.984   3.646  11.087
 7061TIP3    H145378   9.079   3.622  11.034
 7061TIP3    H245379   8.992   3.764  11.082
 7062TIP3   OH245380   8.770   4.021  11.305
 7062TIP3    H145381   8.674   4.060  11.350
 7062TIP3    H245382   8.732   4.001  11.214
 7063TIP3   OH245383   8.990   3.337  10.192
 7063TIP3    H145384   8.906   3.378  10.135
 7063TIP3    H245385   8.994   3.425  10.257
 7064TIP3   OH245386   8.806   2.932  10.112
 7064TIP3    H145387   8.849   3.025  10.066
 7064TIP3    H245388   8.819   2.850  10.045
 7065TIP3   OH245389   8.699   3.212  10.664
 7065TIP3    H145390   8.670   3.104  10.636
 7065TIP3    H245391   8.662   3.215  10.757
 7066TIP3   OH245392   6.894   3.464  11.071
 7066TIP3    H145393   6.904   3.426  10.978
 7066TIP3    H245394   6.998   3.426  11.105
 7067TIP3   OH245395   8.797   3.398  11.607
 7067TIP3    H145396   8.886   3.325  11.587
 7067TIP3    H245397   8.852   3.500  11.595
 7068TIP3   OH245398   8.974   3.131  11.633
 7068TIP3    H145399   8.856   3.132  11.639
 7068TIP3    H245400   8.998   3.023  11.670
 7069TIP3   OH245401   8.700   2.617   9.969
 7069TIP3    H145402   8.785   2.580  10.029
 7069TIP3    H245403   8.620   2.658  10.030
 7070TIP3   OH245404   8.676   2.918  10.484
 7070TIP3    H145405   8.674   2.802  10.497
 7070TIP3    H245406   8.791   2.936  10.486
 7071TIP3   OH245407   8.694   2.983  11.043
 7071TIP3    H145408   8.810   2.965  11.026
 7071TIP3    H245409   8.690   2.965  11.140
 7072TIP3   OH245410   8.737   3.026  11.326
 7072TIP3    H145411   8.633   3.076  11.343
 7072TIP3    H245412   8.802   3.121  11.306
 7073TIP3   OH245413   6.853   2.820  11.650
 7073TIP3    H145414   6.961   2.806  11.688
 7073TIP3    H245415   6.790   2.748  11.706
 7074TIP3   OH245416   9.006   2.273  11.825
 7074TIP3    H145417   9.066   2.213  11.759
 7074TIP3    H245418   8.990   2.372  11.773
 7075TIP3   OH245419   8.708   2.600  10.491
 7075TIP3    H145420   8.748   2.556  10.576
 7075TIP3    H245421   8.654   2.506  10.457
 7076TIP3   OH245422   7.009   2.647  11.018
 7076TIP3    H145423   7.061   2.543  11.012
 7076TIP3    H245424   7.092   2.724  10.996
 7077TIP3   OH245425   6.827   3.018  11.058
 7077TIP3    H145426   6.893   2.995  10.979
 7077TIP3    H245427   6.880   3.115  11.087
 7078TIP3   OH245428   8.942   2.543  11.690
 7078TIP3    H145429   8.846   2.600  11.724
 7078TIP3    H245430   8.902   2.508  11.604
 7079TIP3   OH245431   8.996   2.543  10.127
 7079TIP3    H145432   9.066   2.453  10.106
 7079TIP3    H245433   9.053   2.630  10.084
 7080TIP3   OH245434   6.845   2.564  10.463
 7080TIP3    H145435   6.734   2.599  10.469
 7080TIP3    H245436   6.875   2.614  10.378
 7081TIP3   OH245437   8.611   4.326  10.655
 7081TIP3    H145438   8.682   4.309  10.578
 7081TIP3    H245439   8.677   4.390  10.713
 7082TIP3   OH245440   6.856   2.395  11.294
 7082TIP3    H145441   6.767   2.334  11.331
 7082TIP3    H245442   6.802   2.474  11.237
 7083TIP3   OH245443   7.132   3.978  11.701
 7083TIP3    H145444   7.063   4.054  11.656
 7083TIP3    H245445   7.088   3.980  11.790
 7084TIP3   OH245446   7.451   4.144  11.331
 7084TIP3    H145447   7.439   4.260  11.340
 7084TIP3    H245448   7.566   4.134  11.351
 7085TIP3   OH245449   7.958   4.304  11.650
 7085TIP3    H145450   7.982   4.286  11.745
 7085TIP3    H245451   8.068   4.327  11.616
 7086TIP3   OH245452   8.231   4.452  11.568
 7086TIP3    H145453   8.322   4.412  11.520
 7086TIP3    H245454   8.275   4.532  11.627
 7087TIP3   OH245455   8.808   2.341  11.497
 7087TIP3    H145456   8.717   2.388  11.451
 7087TIP3    H245457   8.819   2.238  11.451
 7088TIP3   OH245458   7.152   4.522  11.272
 7088TIP3    H145459   7.058   4.591  11.270
 7088TIP3    H245460   7.153   4.478  11.363
 7089TIP3   OH245461   7.462   4.462  11.235
 7089TIP3    H145462   7.346   4.476  11.259
 7089TIP3    H245463   7.460   4.529  11.156
 7090TIP3   OH245464   8.008   4.411  11.152
 7090TIP3    H145465   7.931   4.465  11.095
 7090TIP3    H245466   8.029   4.494  11.219
 7091TIP3   OH245467   8.233   4.259  11.308
 7091TIP3    H145468   8.156   4.292  11.239
 7091TIP3    H245469   8.322   4.332  11.286
 7092TIP3   OH245470   8.540   4.415  11.261
 7092TIP3    H145471   8.551   4.523  11.228
 7092TIP3    H245472   8.608   4.355  11.198
 7093TIP3   OH245473   7.088   4.309  11.015
 7093TIP3    H145474   7.067   4.250  11.099
 7093TIP3    H245475   7.200   4.274  11.000
 7094TIP3   OH245476   7.357   4.196  10.911
 7094TIP3    H145477   7.349   4.080  10.923
 7094TIP3    H245478   7.466   4.216  10.944
 7095TIP3   OH245479   7.636   4.210  11.031
 7095TIP3    H145480   7.684   4.105  11.016
 7095TIP3    H245481   7.615   4.205  11.127
 7096TIP3   OH245482   8.023   2.498  10.848
 7096TIP3    H145483   7.945   2.450  10.908
 7096TIP3    H245484   8.095   2.408  10.835
 7097TIP3   OH245485   8.659   2.287  10.914
 7097TIP3    H145486   8.714   2.356  10.849
 7097TIP3    H245487   8.549   2.314  10.890
 7098TIP3   OH245488   8.820   2.442  10.714
 7098TIP3    H145489   8.903   2.363  10.690
 7098TIP3    H245490   8.891   2.527  10.748
 7099TIP3   OH245491   7.153   2.310  10.688
 7099TIP3    H145492   7.052   2.296  10.641
 7099TIP3    H245493   7.198   2.201  10.680
 7100TIP3   OH245494   6.980   2.308  10.245
 7100TIP3    H145495   7.052   2.386  10.202
 7100TIP3    H245496   6.931   2.370  10.317
 7101TIP3   OH245497   7.669   2.260  10.666
 7101TIP3    H145498   7.756   2.310  10.619
 7101TIP3    H245499   7.684   2.299  10.756
 7102TIP3   OH245500   8.348   2.354  10.828
 7102TIP3    H145501   8.332   2.363  10.733
 7102TIP3    H245502   8.298   2.248  10.847
 7103TIP3   OH245503   8.525   2.324  10.393
 7103TIP3    H145504   8.435   2.390  10.424
 7103TIP3    H245505   8.488   2.216  10.415
 7104TIP3   OH245506   6.980   4.230  10.359
 7104TIP3    H145507   6.878   4.232  10.312
 7104TIP3    H245508   7.006   4.343  10.356
 7105TIP3   OH245509   7.205   2.472  10.105
 7105TIP3    H145510   7.291   2.395  10.117
 7105TIP3    H245511   7.241   2.563  10.155
 7106TIP3   OH245512   7.861   2.604  10.350
 7106TIP3    H145513   7.924   2.544  10.417
 7106TIP3    H245514   7.882   2.711  10.386
 7107TIP3   OH245515   8.032   4.397  10.155
 7107TIP3    H145516   8.149   4.414  10.146
 7107TIP3    H245517   8.012   4.338  10.073
 7108TIP3   OH245518   8.831   4.319  10.455
 7108TIP3    H145519   8.826   4.206  10.426
 7108TIP3    H245520   8.818   4.374  10.371
 7109TIP3   OH245521   7.116   2.423  11.642
 7109TIP3    H145522   7.054   2.323  11.638
 7109TIP3    H245523   7.212   2.389  11.692
 7110TIP3   OH245524   7.372   2.315  11.801
 7110TIP3    H145525   7.482   2.320  11.769
 7110TIP3    H245526   7.378   2.210  11.843
 7111TIP3   OH245527   7.238   4.376  10.113
 7111TIP3    H145528   7.162   4.409  10.182
 7111TIP3    H245529   7.291   4.283  10.150
 7112TIP3   OH245530   8.363   2.263  11.825
 7112TIP3    H145531   8.371   2.198  11.907
 7112TIP3    H245532   8.466   2.237  11.784
 7113TIP3   OH245533   8.746   4.164  11.658
 7113TIP3    H145534   8.684   4.175  11.574
 7113TIP3    H245535   8.728   4.271  11.694
 7114TIP3   OH245536   9.082   3.022  10.561
 7114TIP3    H145537   9.056   3.137  10.559
 7114TIP3    H245538   9.059   2.993  10.467
 7115TIP3   OH245539   9.101   3.604  11.336
 7115TIP3    H145540   9.043   3.599  11.251
 7115TIP3    H245541   9.095   3.493  11.369
 7116TIP3   OH245542   9.052   3.949  11.013
 7116TIP3    H145543   9.158   3.947  10.971
 7116TIP3    H245544   9.066   4.042  11.071
 7117TIP3   OH245545   9.042   2.671  10.717
 7117TIP3    H145546   9.148   2.717  10.734
 7117TIP3    H245547   9.040   2.680  10.620
 7118TIP3   OH245548   9.114   3.293  11.434
 7118TIP3    H145549   9.088   3.221  11.509
 7118TIP3    H245550   9.024   3.269  11.374
 7119TIP3   OH245551   9.169   3.527  11.747
 7119TIP3    H145552   9.102   3.443  11.785
 7119TIP3    H245553   9.091   3.589  11.694
 7120TIP3   OH245554   9.008   4.465  10.645
 7120TIP3    H145555   8.940   4.420  10.575
 7120TIP3    H245556   9.030   4.367  10.697
 7121TIP3   OH245557   9.066   4.198  10.787
 7121TIP3    H145558   9.005   4.103  10.808
 7121TIP3    H245559   9.115   4.220  10.874
 7122TIP3   OH245560   9.149   3.341  11.080
 7122TIP3    H145561   9.122   3.373  10.990
 7122TIP3    H245562   9.242   3.410  11.096
 7123TIP3   OH245563   9.056   2.837  11.698
 7123TIP3    H145564   9.173   2.843  11.685
 7123TIP3    H245565   9.037   2.720  11.698
 7124TIP3   OH245566   9.008   3.006  11.010
 7124TIP3    H145567   9.124   2.978  11.020
 7124TIP3    H245568   9.022   3.120  11.015
 7125TIP3   OH245569   9.013   2.602  10.409
 7125TIP3    H145570   8.898   2.622  10.423
 7125TIP3    H245571   9.020   2.605  10.312
 7126TIP3   OH245572   8.959   2.368  11.253
 7126TIP3    H145573   8.947   2.383  11.349
 7126TIP3    H245574   8.916   2.466  11.215
 7127TIP3   OH245575   1.470   5.714  10.669
 7127TIP3    H145576   1.463   5.821  10.709
 7127TIP3    H245577   1.386   5.723  10.602
 7128TIP3   OH245578   1.324   5.587  11.014
 7128TIP3    H145579   1.332   5.533  11.102
 7128TIP3    H245580   1.248   5.518  10.968
 7129TIP3   OH245581   0.402   5.579  11.175
 7129TIP3    H145582   0.385   5.474  11.216
 7129TIP3    H245583   0.472   5.624  11.245
 7130TIP3   OH245584   1.696   5.946  10.859
 7130TIP3    H145585   1.672   5.860  10.921
 7130TIP3    H245586   1.716   6.035  10.920
 7131TIP3   OH245587   0.413   6.113  10.960
 7131TIP3    H145588   0.389   6.000  10.939
 7131TIP3    H245589   0.526   6.110  10.980
 7132TIP3   OH245590   0.163   5.311  10.496
 7132TIP3    H145591   0.160   5.400  10.557
 7132TIP3    H245592   0.047   5.287  10.495
 7133TIP3   OH245593   0.164   5.611  10.798
 7133TIP3    H145594   0.187   5.502  10.829
 7133TIP3    H245595   0.078   5.600  10.735
 7134TIP3   OH245596   1.416   6.610  10.885
 7134TIP3    H145597   1.495   6.545  10.835
 7134TIP3    H245598   1.356   6.521  10.923
 7135TIP3   OH245599   1.104   5.946  11.077
 7135TIP3    H145600   1.133   5.857  11.019
 7135TIP3    H245601   1.207   5.966  11.122
 7136TIP3   OH245602   2.134   4.884  11.099
 7136TIP3    H145603   2.141   4.952  11.178
 7136TIP3    H245604   2.233   4.912  11.054
 7137TIP3   OH245605   1.558   5.244  11.119
 7137TIP3    H145606   1.571   5.128  11.133
 7137TIP3    H245607   1.514   5.243  11.029
 7138TIP3   OH245608   0.698   4.987  10.796
 7138TIP3    H145609   0.702   5.087  10.744
 7138TIP3    H245610   0.646   4.916  10.731
 7139TIP3   OH245611   1.583   5.003  10.647
 7139TIP3    H145612   1.643   4.974  10.728
 7139TIP3    H245613   1.648   5.090  10.614
 7140TIP3   OH245614   0.353   5.348  10.838
 7140TIP3    H145615   0.407   5.274  10.900
 7140TIP3    H245616   0.330   5.273  10.768
 7141TIP3   OH245617   0.866   5.488  10.829
 7141TIP3    H145618   0.966   5.435  10.856
 7141TIP3    H245619   0.810   5.396  10.790
 7142TIP3   OH245620   2.154   5.051  11.340
 7142TIP3    H145621   2.113   5.154  11.304
 7142TIP3    H245622   2.162   5.081  11.434
 7143TIP3   OH245623   0.559   4.891  11.203
 7143TIP3    H145624   0.523   4.940  11.119
 7143TIP3    H245625   0.487   4.943  11.266
 7144TIP3   OH245626   1.360   6.011  10.553
 7144TIP3    H145627   1.358   6.013  10.455
 7144TIP3    H245628   1.327   6.122  10.572
 7145TIP3   OH245629   0.852   5.808  11.204
 7145TIP3    H145630   0.776   5.890  11.234
 7145TIP3    H245631   0.931   5.875  11.157
 7146TIP3   OH245632   1.793   4.981  10.849
 7146TIP3    H145633   1.775   4.882  10.893
 7146TIP3    H245634   1.900   5.009  10.881
 7147TIP3   OH245635   0.485   5.119  10.988
 7147TIP3    H145636   0.557   5.184  11.045
 7147TIP3    H245637   0.562   5.080  10.922
 7148TIP3   OH245638   0.664   6.061  11.283
 7148TIP3    H145639   0.658   6.154  11.226
 7148TIP3    H245640   0.557   6.060  11.323
 7149TIP3   OH245641   0.139   5.966  10.401
 7149TIP3    H145642   0.130   6.016  10.312
 7149TIP3    H245643   0.170   6.056  10.457
 7150TIP3   OH245644   1.810   6.193  11.063
 7150TIP3    H145645   1.697   6.217  11.081
 7150TIP3    H245646   1.841   6.296  11.025
 7151TIP3   OH245647   1.787   4.817  11.180
 7151TIP3    H145648   1.693   4.858  11.130
 7151TIP3    H245649   1.874   4.847  11.121
 7152TIP3   OH245650   0.978   4.578  10.930
 7152TIP3    H145651   0.940   4.469  10.935
 7152TIP3    H245652   0.880   4.634  10.962
 7153TIP3   OH245653   1.606   6.412  10.735
 7153TIP3    H145654   1.621   6.312  10.684
 7153TIP3    H245655   1.708   6.464  10.713
 7154TIP3   OH245656   1.723   6.151  10.586
 7154TIP3    H145657   1.717   6.070  10.517
 7154TIP3    H245658   1.703   6.086  10.665
 7155TIP3   OH245659   1.922   5.993  11.454
 7155TIP3    H145660   1.952   5.905  11.392
 7155TIP3    H245661   1.925   6.083  11.392
 7156TIP3   OH245662   1.295   5.652  10.418
 7156TIP3    H145663   1.242   5.755  10.400
 7156TIP3    H245664   1.392   5.657  10.361
 7157TIP3   OH245665   1.324   5.468  10.122
 7157TIP3    H145666   1.409   5.520  10.175
 7157TIP3    H245667   1.374   5.363  10.108
 7158TIP3   OH245668   2.182   5.575  11.234
 7158TIP3    H145669   2.098   5.657  11.234
 7158TIP3    H245670   2.250   5.618  11.162
 7159TIP3   OH245671   1.718   5.616  10.515
 7159TIP3    H145672   1.632   5.656  10.573
 7159TIP3    H245673   1.795   5.574  10.582
 7160TIP3   OH245674   1.723   5.454  11.408
 7160TIP3    H145675   1.680   5.551  11.447
 7160TIP3    H245676   1.643   5.436  11.339
 7161TIP3   OH245677   0.716   5.690  10.673
 7161TIP3    H145678   0.740   5.693  10.578
 7161TIP3    H245679   0.802   5.621  10.712
 7162TIP3   OH245680   0.832   6.086  10.954
 7162TIP3    H145681   0.858   6.103  10.860
 7162TIP3    H245682   0.932   6.048  10.993
 7163TIP3   OH245683   0.738   5.557  11.065
 7163TIP3    H145684   0.799   5.562  10.981
 7163TIP3    H245685   0.784   5.644  11.120
 7164TIP3   OH245686   1.500   6.257  11.128
 7164TIP3    H145687   1.490   6.335  11.200
 7164TIP3    H245688   1.448   6.163  11.170
 7165TIP3   OH245689   0.839   6.116  11.518
 7165TIP3    H145690   0.745   6.156  11.567
 7165TIP3    H245691   0.791   6.095  11.431
 7166TIP3   OH245692   1.564   5.574  10.284
 7166TIP3    H145693   1.627   5.585  10.368
 7166TIP3    H245694   1.633   5.630  10.219
 7167TIP3   OH245695   0.526   5.652  11.412
 7167TIP3    H145696   0.521   5.742  11.476
 7167TIP3    H245697   0.424   5.603  11.434
 7168TIP3   OH245698   1.280   6.350  10.562
 7168TIP3    H145699   1.321   6.406  10.639
 7168TIP3    H245700   1.232   6.434  10.509
 7169TIP3   OH245701   0.613   6.312  11.622
 7169TIP3    H145702   0.602   6.355  11.531
 7169TIP3    H245703   0.502   6.301  11.650
 7170TIP3   OH245704   2.034   4.538  10.291
 7170TIP3    H145705   1.920   4.538  10.320
 7170TIP3    H245706   2.048   4.651  10.274
 7171TIP3   OH245707   0.490   5.575  10.492
 7171TIP3    H145708   0.490   5.656  10.419
 7171TIP3    H245709   0.498   5.474  10.445
 7172TIP3   OH245710   2.135   6.307  10.111
 7172TIP3    H145711   2.168   6.420  10.124
 7172TIP3    H245712   2.233   6.247  10.131
 7173TIP3   OH245713   0.192   5.868  11.358
 7173TIP3    H145714   0.076   5.872  11.345
 7173TIP3    H245715   0.215   5.754  11.347
 7174TIP3   OH245716   0.140   6.286  10.987
 7174TIP3    H145717   0.235   6.217  10.990
 7174TIP3    H245718   0.149   6.336  11.075
 7175TIP3   OH245719   2.258   6.300  11.609
 7175TIP3    H145720   2.237   6.191  11.582
 7175TIP3    H245721   2.152   6.328  11.645
 7176TIP3   OH245722   1.139   6.236  11.498
 7176TIP3    H145723   1.157   6.326  11.559
 7176TIP3    H245724   1.022   6.211  11.508
 7177TIP3   OH245725   1.201   6.671  10.437
 7177TIP3    H145726   1.231   6.707  10.349
 7177TIP3    H245727   1.213   6.772  10.488
 7178TIP3   OH245728   0.482   6.518  10.653
 7178TIP3    H145729   0.499   6.497  10.748
 7178TIP3    H245730   0.366   6.509  10.647
 7179TIP3   OH245731   1.556   6.670  10.191
 7179TIP3    H145732   1.619   6.577  10.158
 7179TIP3    H245733   1.584   6.668  10.286
 7180TIP3   OH245734   1.531   6.594  10.466
 7180TIP3    H145735   1.416   6.587  10.471
 7180TIP3    H245736   1.562   6.490  10.502
 7181TIP3   OH245737   1.868   5.266  11.644
 7181TIP3    H145738   1.802   5.317  11.574
 7181TIP3    H245739   1.874   5.156  11.608
 7182TIP3   OH245740   0.392   6.090  11.437
 7182TIP3    H145741   0.412   6.023  11.516
 7182TIP3    H245742   0.304   6.028  11.397
 7183TIP3   OH245743   0.706   4.704  11.022
 7183TIP3    H145744   0.594   4.705  10.990
 7183TIP3    H245745   0.690   4.760  11.107
 7184TIP3   OH245746   1.285   4.621  11.343
 7184TIP3    H145747   1.321   4.547  11.412
 7184TIP3    H245748   1.168   4.622  11.355
 7185TIP3   OH245749   1.576   5.118  11.482
 7185TIP3    H145750   1.518   5.062  11.555
 7185TIP3    H245751   1.506   5.210  11.469
 7186TIP3   OH245752   1.762   5.711  10.120
 7186TIP3    H145753   1.714   5.714  10.029
 7186TIP3    H245754   1.872   5.737  10.093
 7187TIP3   OH245755   1.216   4.958  10.127
 7187TIP3    H145756   1.151   4.920  10.203
 7187TIP3    H245757   1.159   4.908  10.054
 7188TIP3   OH245758   0.698   5.260  11.153
 7188TIP3    H145759   0.612   5.269  11.219
 7188TIP3    H245760   0.719   5.374  11.132
 7189TIP3   OH245761   0.692   5.275  10.681
 7189TIP3    H145762   0.587   5.232  10.651
 7189TIP3    H245763   0.743   5.286  10.593
 7190TIP3   OH245764   1.382   5.381  10.548
 7190TIP3    H145765   1.339   5.477  10.503
 7190TIP3    H245766   1.450   5.338  10.477
 7191TIP3   OH245767   1.228   5.384  11.654
 7191TIP3    H145768   1.171   5.290  11.686
 7191TIP3    H245769   1.319   5.387  11.714
 7192TIP3   OH245770   1.484   5.294  10.814
 7192TIP3    H145771   1.476   5.398  10.768
 7192TIP3    H245772   1.480   5.225  10.736
 7193TIP3   OH245773   0.410   5.261  11.296
 7193TIP3    H145774   0.438   5.309  11.381
 7193TIP3    H245775   0.364   5.158  11.325
 7194TIP3   OH245776   0.824   4.956  10.009
 7194TIP3    H145777   0.791   4.932  10.099
 7194TIP3    H245778   0.749   5.039   9.984
 7195TIP3   OH245779   0.137   5.033  10.739
 7195TIP3    H145780   0.179   4.962  10.808
 7195TIP3    H245781   0.116   4.962  10.664
 7196TIP3   OH245782   0.130   5.032  10.252
 7196TIP3    H145783   0.216   5.092  10.211
 7196TIP3    H245784   0.049   5.114  10.262
 7197TIP3   OH245785   1.376   5.449  11.252
 7197TIP3    H145786   1.452   5.370  11.215
 7197TIP3    H245787   1.304   5.380  11.305
 7198TIP3   OH245788   1.033   5.002  10.764
 7198TIP3    H145789   0.920   5.002  10.788
 7198TIP3    H245790   1.081   4.937  10.835
 7199TIP3   OH245791   0.410   5.174  10.604
 7199TIP3    H145792   0.316   5.198  10.548
 7199TIP3    H245793   0.410   5.056  10.605
 7200TIP3   OH245794   0.798   5.226  10.418
 7200TIP3    H145795   0.913   5.204  10.418
 7200TIP3    H245796   0.779   5.257  10.324
 7201TIP3   OH245797   1.519   4.916  11.072
 7201TIP3    H145798   1.446   4.898  11.147
 7201TIP3    H245799   1.481   4.838  11.007
 7202TIP3   OH245800   0.750   5.288  10.144
 7202TIP3    H145801   0.637   5.297  10.123
 7202TIP3    H245802   0.802   5.369  10.088
 7203TIP3   OH245803   1.898   6.781  11.715
 7203TIP3    H145804   1.940   6.812  11.628
 7203TIP3    H245805   1.990   6.810  11.770
 7204TIP3   OH245806   0.509   5.879  11.608
 7204TIP3    H145807   0.593   5.893  11.675
 7204TIP3    H245808   0.415   5.864  11.664
 7205TIP3   OH245809   1.138   5.330  10.933
 7205TIP3    H145810   1.234   5.298  10.885
 7205TIP3    H245811   1.103   5.231  10.971
 7206TIP3   OH245812   0.485   4.867  10.600
 7206TIP3    H145813   0.422   4.778  10.639
 7206TIP3    H245814   0.497   4.831  10.508
 7207TIP3   OH245815   0.977   5.099  11.173
 7207TIP3    H145816   0.880   5.166  11.167
 7207TIP3    H245817   1.054   5.173  11.211
 7208TIP3   OH245818   1.072   5.888  10.362
 7208TIP3    H145819   0.980   5.825  10.332
 7208TIP3    H245820   1.031   5.917  10.452
 7209TIP3   OH245821   1.962   5.824  11.234
 7209TIP3    H145822   2.017   5.891  11.166
 7209TIP3    H245823   1.861   5.804  11.189
 7210TIP3   OH245824   1.518   5.008  10.178
 7210TIP3    H145825   1.400   5.012  10.167
 7210TIP3    H245826   1.543   5.114  10.215
 7211TIP3   OH245827   1.181   5.910  11.477
 7211TIP3    H145828   1.127   5.875  11.558
 7211TIP3    H245829   1.174   6.026  11.488
 7212TIP3   OH245830   1.607   5.262  10.322
 7212TIP3    H145831   1.702   5.240  10.376
 7212TIP3    H245832   1.624   5.372  10.293
 7213TIP3   OH245833   0.510   5.790  10.904
 7213TIP3    H145834   0.604   5.857  10.890
 7213TIP3    H245835   0.539   5.732  10.986
 7214TIP3   OH245836   1.345   6.062  10.271
 7214TIP3    H145837   1.296   6.170  10.274
 7214TIP3    H245838   1.250   5.996  10.286
 7215TIP3   OH245839   0.210   5.525  11.408
 7215TIP3    H145840   0.208   5.491  11.502
 7215TIP3    H245841   0.094   5.534  11.395
 7216TIP3   OH245842   0.941   5.569  11.640
 7216TIP3    H145843   0.875   5.496  11.586
 7216TIP3    H245844   1.042   5.509  11.650
 7217TIP3   OH245845   1.544   6.190  11.506
 7217TIP3    H145846   1.447   6.209  11.455
 7217TIP3    H245847   1.514   6.241  11.590
 7218TIP3   OH245848   2.197   5.238  10.336
 7218TIP3    H145849   2.112   5.221  10.270
 7218TIP3    H245850   2.214   5.353  10.319
 7219TIP3   OH245851   2.219   5.958  11.571
 7219TIP3    H145852   2.107   5.968  11.539
 7219TIP3    H245853   2.280   5.958  11.487
 7220TIP3   OH245854   2.032   6.265  10.362
 7220TIP3    H145855   1.928   6.212  10.369
 7220TIP3    H245856   2.044   6.276  10.265
 7221TIP3   OH245857   1.648   5.692  11.041
 7221TIP3    H145858   1.536   5.660  11.025
 7221TIP3    H245859   1.704   5.609  10.991
 7222TIP3   OH245860   0.736   6.198  10.699
 7222TIP3    H145861   0.779   6.305  10.679
 7222TIP3    H245862   0.628   6.208  10.664
 7223TIP3   OH245863   0.283   5.578  10.119
 7223TIP3    H145864   0.343   5.668  10.155
 7223TIP3    H245865   0.180   5.590  10.163
 7224TIP3   OH245866   0.923   5.938  10.608
 7224TIP3    H145867   0.864   6.040  10.617
 7224TIP3    H245868   0.889   5.879  10.687
 7225TIP3   OH245869   1.004   6.409  11.280
 7225TIP3    H145870   1.068   6.500  11.247
 7225TIP3    H245871   1.076   6.362  11.347
 7226TIP3   OH245872   0.798   6.498  10.582
 7226TIP3    H145873   0.684   6.520  10.598
 7226TIP3    H245874   0.844   6.604  10.605
 7227TIP3   OH245875   1.369   5.958  11.228
 7227TIP3    H145876   1.313   5.914  11.305
 7227TIP3    H245877   1.430   5.864  11.201
 7228TIP3   OH245878   1.702   6.077  10.118
 7228TIP3    H145879   1.716   6.019  10.203
 7228TIP3    H245880   1.585   6.068  10.116
 7229TIP3   OH245881   1.762   6.484  11.460
 7229TIP3    H145882   1.652   6.439  11.463
 7229TIP3    H245883   1.758   6.554  11.381
 7230TIP3   OH245884   2.225   6.617  10.161
 7230TIP3    H145885   2.315   6.688  10.143
 7230TIP3    H245886   2.154   6.690  10.212
 7231TIP3   OH245887   0.319   4.988  11.402
 7231TIP3    H145888   0.282   5.026  11.489
 7231TIP3    H245889   0.289   4.876  11.407
 7232TIP3   OH245890   1.788   5.922  10.344
 7232TIP3    H145891   1.777   5.807  10.344
 7232TIP3    H245892   1.906   5.930  10.342
 7233TIP3   OH245893   0.270   6.388  11.230
 7233TIP3    H145894   0.364   6.323  11.252
 7233TIP3    H245895   0.241   6.428  11.317
 7234TIP3   OH245896   0.802   6.139  10.217
 7234TIP3    H145897   0.905   6.101  10.245
 7234TIP3    H245898   0.811   6.253  10.242
 7235TIP3   OH245899   0.421   5.825  10.292
 7235TIP3    H145900   0.319   5.875  10.320
 7235TIP3    H245901   0.474   5.912  10.245
 7236TIP3   OH245902   1.364   4.931  11.320
 7236TIP3    H145903   1.464   4.957  11.362
 7236TIP3    H245904   1.343   4.819  11.350
 7237TIP3   OH245905   1.476   4.860  10.430
 7237TIP3    H145906   1.508   4.928  10.355
 7237TIP3    H245907   1.530   4.912  10.507
 7238TIP3   OH245908   1.178   6.352  10.255
 7238TIP3    H145909   1.076   6.385  10.294
 7238TIP3    H245910   1.230   6.456  10.244
 7239TIP3   OH245911   1.138   5.094  10.524
 7239TIP3    H145912   1.212   5.184  10.536
 7239TIP3    H245913   1.097   5.074  10.615
 7240TIP3   OH245914   1.244   5.231  11.406
 7240TIP3    H145915   1.260   5.258  11.499
 7240TIP3    H245916   1.268   5.116  11.400
 7241TIP3   OH245917   1.218   4.722  10.559
 7241TIP3    H145918   1.171   4.817  10.601
 7241TIP3    H245919   1.313   4.772  10.516
 7242TIP3   OH245920   0.856   6.445  10.297
 7242TIP3    H145921   0.872   6.553  10.260
 7242TIP3    H245922   0.839   6.472  10.391
 7243TIP3   OH245923   0.694   4.880  10.290
 7243TIP3    H145924   0.689   4.982  10.336
 7243TIP3    H245925   0.803   4.842  10.308
 7244TIP3   OH245926   1.894   4.994  11.501
 7244TIP3    H145927   1.780   5.011  11.483
 7244TIP3    H245928   1.937   4.984  11.411
 7245TIP3   OH245929   1.771   5.407  10.899
 7245TIP3    H145930   1.682   5.333  10.891
 7245TIP3    H245931   1.848   5.346  10.952
 7246TIP3   OH245932   0.491   6.114  10.142
 7246TIP3    H145933   0.586   6.148  10.192
 7246TIP3    H245934   0.544   6.044  10.078
 7247TIP3   OH245935   0.391   5.252  10.138
 7247TIP3    H145936   0.371   5.362  10.168
 7247TIP3    H245937   0.302   5.246  10.072
 7248TIP3   OH245938   1.888   6.529  11.060
 7248TIP3    H145939   1.900   6.607  10.987
 7248TIP3    H245940   2.003   6.518  11.080
 7249TIP3   OH245941   0.397   4.646  10.953
 7249TIP3    H145942   0.395   4.607  10.861
 7249TIP3    H245943   0.362   4.546  10.998
 7250TIP3   OH245944   0.253   6.250  10.532
 7250TIP3    H145945   0.152   6.306  10.541
 7250TIP3    H245946   0.318   6.324  10.481
 7251TIP3   OH245947   0.192   6.629  11.682
 7251TIP3    H145948   0.270   6.629  11.755
 7251TIP3    H245949   0.146   6.524  11.699
 7252TIP3   OH245950   0.738   6.520  11.829
 7252TIP3    H145951   0.826   6.458  11.868
 7252TIP3    H245952   0.714   6.462  11.747
 7253TIP3   OH245953   1.212   6.400   9.967
 7253TIP3    H145954   1.144   6.334  10.024
 7253TIP3    H245955   1.315   6.370  10.004
 7254TIP3   OH245956   1.476   6.331  11.735
 7254TIP3    H145957   1.438   6.226  11.769
 7254TIP3    H245958   1.583   6.336  11.777
 7255TIP3   OH245959   1.705   6.392  10.104
 7255TIP3    H145960   1.727   6.277  10.093
 7255TIP3    H245961   1.752   6.440  10.024
 7256TIP3   OH245962   0.239   5.911  11.774
 7256TIP3    H145963   0.254   5.821  11.834
 7256TIP3    H245964   0.122   5.896  11.762
 7257TIP3   OH245965   0.731   5.840  10.065
 7257TIP3    H145966   0.740   5.798  10.156
 7257TIP3    H245967   0.832   5.897  10.055
 7258TIP3   OH245968   0.932   5.897  11.700
 7258TIP3    H145969   0.898   5.956  11.621
 7258TIP3    H245970   0.914   5.782  11.679
 7259TIP3   OH245971   1.625   5.854  11.489
 7259TIP3    H145972   1.727   5.915  11.488
 7259TIP3    H245973   1.554   5.946  11.499
 7260TIP3   OH245974   0.241   5.483  11.739
 7260TIP3    H145975   0.358   5.486  11.751
 7260TIP3    H245976   0.206   5.542  11.818
 7261TIP3   OH245977   0.812   5.652  10.271
 7261TIP3    H145978   0.743   5.561  10.286
 7261TIP3    H245979   0.889   5.608  10.207
 7262TIP3   OH245980   0.744   5.419  11.446
 7262TIP3    H145981   0.670   5.512  11.448
 7262TIP3    H245982   0.829   5.461  11.387
 7263TIP3   OH245983   0.995   5.483  10.069
 7263TIP3    H145984   1.013   5.418   9.989
 7263TIP3    H245985   1.104   5.477  10.109
 7264TIP3   OH245986   1.372   5.755  11.788
 7264TIP3    H145987   1.442   5.693  11.731
 7264TIP3    H245988   1.315   5.671  11.835
 7265TIP3   OH245989   2.039   5.724  19.985
 7265TIP3    H145990   2.123   5.665  19.938
 7265TIP3    H245991   2.084   5.830  19.979
 7266TIP3   OH245992   0.809   5.119  11.522
 7266TIP3    H145993   0.812   5.042  11.447
 7266TIP3    H245994   0.793   5.224  11.479
 7267TIP3   OH245995   0.841   4.883  11.334
 7267TIP3    H145996   0.906   4.948  11.271
 7267TIP3    H245997   0.739   4.879  11.286
 7268TIP3   OH245998   1.009   5.558  11.322
 7268TIP3    H145999   1.118   5.592  11.331
 7268TIP3    H246000   0.955   5.656  11.291
 7269TIP3   OH246001   1.531   5.269  11.829
 7269TIP3    H146002   1.562   5.158  11.829
 7269TIP3    H246003   1.632   5.324  11.814
 7270TIP3   OH246004   1.720   5.657  11.687
 7270TIP3    H146005   1.678   5.719  11.611
 7270TIP3    H246006   1.832   5.650  11.660
 7271TIP3   OH246007   0.644   5.170  11.753
 7271TIP3    H146008   0.529   5.144  11.752
 7271TIP3    H246009   0.682   5.146  11.662
 7272TIP3   OH246010   0.958   4.588  11.326
 7272TIP3    H146011   0.916   4.697  11.341
 7272TIP3    H246012   0.858   4.532  11.306
 7273TIP3   OH246013   1.054   5.114  11.735
 7273TIP3    H146014   0.986   5.082  11.811
 7273TIP3    H246015   0.977   5.099  11.662
 7274TIP3   OH246016   1.374   5.017  11.667
 7274TIP3    H146017   1.262   5.022  11.696
 7274TIP3    H246018   1.426   4.963  11.743
 7275TIP3   OH246019   1.579   4.844  11.830
 7275TIP3    H146020   1.583   4.727  11.825
 7275TIP3    H246021   1.576   4.861  11.927
 7276TIP3   OH246022   0.359   4.985  11.770
 7276TIP3    H146023   0.385   4.886  11.722
 7276TIP3    H246024   0.337   4.939  11.859
 7277TIP3   OH246025   0.943   4.555  11.605
 7277TIP3    H146026   1.034   4.486  11.624
 7277TIP3    H246027   0.937   4.546  11.507
 7278TIP3   OH246028   0.971   4.666  11.865
 7278TIP3    H146029   0.950   4.627  11.773
 7278TIP3    H246030   0.934   4.777  11.858
 7279TIP3   OH246031   0.900   6.738  10.189
 7279TIP3    H146032   1.015   6.740  10.205
 7279TIP3    H246033   0.894   6.774  10.098
 7280TIP3   OH246034   0.182   6.062  10.136
 7280TIP3    H146035   0.295   6.096  10.140
 7280TIP3    H246036   0.185   5.990  10.059
 7281TIP3   OH246037   0.097   6.682  10.577
 7281TIP3    H146038  -0.006   6.734  10.598
 7281TIP3    H246039   0.122   6.635  10.665
 7282TIP3   OH246040   0.199   6.527  10.798
 7282TIP3    H146041   0.169   6.414  10.803
 7282TIP3    H246042   0.250   6.544  10.885
 7283TIP3   OH246043   2.208   6.598  11.065
 7283TIP3    H146044   2.252   6.599  11.154
 7283TIP3    H246045   2.302   6.618  11.009
 7284TIP3   OH246046   2.130   6.550  11.362
 7284TIP3    H146047   2.089   6.452  11.317
 7284TIP3    H246048   2.166   6.503  11.446
 7285TIP3   OH246049   1.993   6.029  11.855
 7285TIP3    H146050   1.883   6.034  11.888
 7285TIP3    H246051   2.036   6.128  11.892
 7286TIP3   OH246052   2.104   5.857  10.368
 7286TIP3    H146053   2.207   5.906  10.390
 7286TIP3    H246054   2.083   5.791  10.447
 7287TIP3   OH246055   2.180   5.624  10.603
 7287TIP3    H146056   2.081   5.569  10.631
 7287TIP3    H246057   2.239   5.633  10.688
 7288TIP3   OH246058   2.142   5.951  11.045
 7288TIP3    H146059   2.222   5.866  11.031
 7288TIP3    H246060   2.192   6.044  11.003
 7289TIP3   OH246061   1.981   6.277  11.293
 7289TIP3    H146062   1.895   6.326  11.344
 7289TIP3    H246063   1.924   6.234  11.214
 7290TIP3   OH246064   2.228   5.596  10.200
 7290TIP3    H146065   2.146   5.617  10.134
 7290TIP3    H246066   2.206   5.680  10.265
 7291TIP3   OH246067   1.955   5.232  10.138
 7291TIP3    H146068   1.924   5.311  10.071
 7291TIP3    H246069   2.022   5.165  10.082
 7292TIP3   OH246070   1.926   5.450  10.670
 7292TIP3    H146071   1.903   5.340  10.646
 7292TIP3    H246072   1.891   5.449  10.764
 7293TIP3   OH246073   0.192   5.776  11.033
 7293TIP3    H146074   0.199   5.716  10.949
 7293TIP3    H246075   0.287   5.738  11.082
 7294TIP3   OH246076   2.056   5.681  11.613
 7294TIP3    H146077   2.114   5.580  11.627
 7294TIP3    H246078   2.140   5.761  11.598
 7295TIP3   OH246079   2.173   5.360  11.652
 7295TIP3    H146080   2.062   5.322  11.646
 7295TIP3    H246081   2.236   5.261  11.667
 7296TIP3   OH246082   1.933   4.960   9.966
 7296TIP3    H146083   2.002   4.914  10.035
 7296TIP3    H246084   1.828   4.933   9.999
 7297TIP3   OH246085   1.852   5.164  10.476
 7297TIP3    H146086   1.874   5.053  10.506
 7297TIP3    H246087   1.958   5.189  10.445
 7298TIP3   OH246088   1.980   5.209  11.038
 7298TIP3    H146089   2.095   5.234  11.046
 7298TIP3    H246090   1.946   5.225  11.130
 7299TIP3   OH246091   1.987   5.312  11.294
 7299TIP3    H146092   1.890   5.347  11.341
 7299TIP3    H246093   2.039   5.417  11.275
 7300TIP3   OH246094   0.137   5.090  11.606
 7300TIP3    H146095   0.222   5.125  11.668
 7300TIP3    H246096   0.144   4.975  11.614
 7301TIP3   OH246097   2.252   4.619  11.823
 7301TIP3    H146098   2.286   4.529  11.768
 7301TIP3    H246099   2.237   4.703  11.755
 7302TIP3   OH246100   1.968   4.856  10.517
 7302TIP3    H146101   2.012   4.798  10.594
 7302TIP3    H246102   1.909   4.770  10.474
 7303TIP3   OH246103   0.196   4.919  11.009
 7303TIP3    H146104   0.268   4.826  11.013
 7303TIP3    H246105   0.266   5.010  11.019
 7304TIP3   OH246106   0.104   5.285  11.027
 7304TIP3    H146107   0.199   5.278  10.971
 7304TIP3    H246108   0.128   5.369  11.090
 7305TIP3   OH246109   2.167   4.865  11.666
 7305TIP3    H146110   2.082   4.916  11.721
 7305TIP3    H246111   2.107   4.837  11.586
 7306TIP3   OH246112   2.182   4.864  10.154
 7306TIP3    H146113   2.233   4.795  10.088
 7306TIP3    H246114   2.273   4.931  10.180
 7307TIP3   OH246115   0.118   4.840  10.464
 7307TIP3    H146116   0.001   4.829  10.460
 7307TIP3    H246117   0.134   4.895  10.378
 7308TIP3   OH246118   1.830   6.614  10.667
 7308TIP3    H146119   1.908   6.605  10.594
 7308TIP3    H246120   1.877   6.692  10.727
 7309TIP3   OH246121   0.079   4.627  11.299
 7309TIP3    H146122  -0.032   4.602  11.321
 7309TIP3    H246123   0.061   4.696  11.222
 7310TIP3   OH246124   0.292   6.214  11.712
 7310TIP3    H146125   0.230   6.203  11.632
 7310TIP3    H246126   0.311   6.098  11.731
 7311TIP3   OH246127   0.680   6.431  11.350
 7311TIP3    H146128   0.674   6.538  11.310
 7311TIP3    H246129   0.796   6.408  11.343
 7312TIP3   OH246130   1.175   6.570  11.596
 7312TIP3    H146131   1.181   6.539  11.690
 7312TIP3    H246132   1.284   6.608  11.579
 7313TIP3   OH246133   1.445   6.744  11.551
 7313TIP3    H146134   1.542   6.708  11.509
 7313TIP3    H246135   1.483   6.772  11.642
 7314TIP3   OH246136   2.064   4.596  11.466
 7314TIP3    H146137   1.972   4.639  11.420
 7314TIP3    H246138   2.071   4.487  11.428
 7315TIP3   OH246139   0.379   6.779  11.340
 7315TIP3    H146140   0.283   6.833  11.303
 7315TIP3    H246141   0.353   6.774  11.434
 7316TIP3   OH246142   0.654   6.716  11.224
 7316TIP3    H146143   0.542   6.734  11.253
 7316TIP3    H246144   0.658   6.786  11.147
 7317TIP3   OH246145   1.188   6.659  11.162
 7317TIP3    H146146   1.151   6.725  11.089
 7317TIP3    H246147   1.225   6.742  11.224
 7318TIP3   OH246148   1.459   6.515  11.294
 7318TIP3    H146149   1.381   6.558  11.231
 7318TIP3    H246150   1.550   6.584  11.275
 7319TIP3   OH246151   1.760   6.701  11.260
 7319TIP3    H146152   1.782   6.812  11.237
 7319TIP3    H246153   1.814   6.648  11.184
 7320TIP3   OH246154   0.347   6.618  11.042
 7320TIP3    H146155   0.308   6.558  11.121
 7320TIP3    H246156   0.438   6.553  11.011
 7321TIP3   OH246157   0.560   6.444  10.909
 7321TIP3    H146158   0.524   6.336  10.924
 7321TIP3    H246159   0.674   6.440  10.938
 7322TIP3   OH246160   0.854   6.438  11.015
 7322TIP3    H146161   0.912   6.337  11.011
 7322TIP3    H246162   0.871   6.467  11.108
 7323TIP3   OH246163   1.252   4.750  10.907
 7323TIP3    H146164   1.156   4.706  10.948
 7323TIP3    H246165   1.272   4.669  10.840
 7324TIP3   OH246166   1.903   4.522  10.877
 7324TIP3    H146167   1.982   4.592  10.834
 7324TIP3    H246168   1.802   4.561  10.837
 7325TIP3   OH246169   2.101   4.678  10.715
 7325TIP3    H146170   2.178   4.607  10.670
 7325TIP3    H246171   2.171   4.770  10.737
 7326TIP3   OH246172   0.400   4.576  10.683
 7326TIP3    H146173   0.307   4.568  10.623
 7326TIP3    H246174   0.454   4.474  10.664
 7327TIP3   OH246175   0.125   4.615  10.219
 7327TIP3    H146176   0.200   4.676  10.163
 7327TIP3    H246177   0.145   4.667  10.304
 7328TIP3   OH246178   0.888   4.562  10.659
 7328TIP3    H146179   0.989   4.606  10.627
 7328TIP3    H246180   0.899   4.584  10.754
 7329TIP3   OH246181   1.612   4.585  10.775
 7329TIP3    H146182   1.542   4.597  10.699
 7329TIP3    H246183   1.554   4.507  10.830
 7330TIP3   OH246184   1.753   4.579  10.396
 7330TIP3    H146185   1.664   4.654  10.386
 7330TIP3    H246186   1.706   4.499  10.455
 7331TIP3   OH246187   0.229   6.557  10.296
 7331TIP3    H146188   0.121   6.556  10.329
 7331TIP3    H246189   0.241   6.673  10.281
 7332TIP3   OH246190   0.414   4.758  10.105
 7332TIP3    H146191   0.480   4.686  10.054
 7332TIP3    H246192   0.490   4.798  10.170
 7333TIP3   OH246193   1.042   4.859  10.341
 7333TIP3    H146194   1.080   4.780  10.403
 7333TIP3    H246195   1.070   4.956  10.390
 7334TIP3   OH246196   1.244   6.643  10.158
 7334TIP3    H146197   1.361   6.672  10.162
 7334TIP3    H246198   1.242   6.593  10.070
 7335TIP3   OH246199   2.036   6.557  10.481
 7335TIP3    H146200   2.030   6.448  10.443
 7335TIP3    H246201   2.021   6.624  10.402
 7336TIP3   OH246202   0.317   4.672  11.637
 7336TIP3    H146203   0.256   4.571  11.639
 7336TIP3    H246204   0.421   4.637  11.671
 7337TIP3   OH246205   0.593   4.589  11.812
 7337TIP3    H146206   0.704   4.571  11.790
 7337TIP3    H246207   0.566   4.481  11.844
 7338TIP3   OH246208   0.547   6.654  10.110
 7338TIP3    H146209   0.458   6.626  10.168
 7338TIP3    H246210   0.630   6.581  10.142
 7339TIP3   OH246211   1.573   4.518  11.811
 7339TIP3    H146212   1.568   4.440  11.885
 7339TIP3    H246213   1.684   4.496  11.783
 7340TIP3   OH246214   1.979   6.450  11.651
 7340TIP3    H146215   1.904   6.452  11.574
 7340TIP3    H246216   1.958   6.557  11.687
 7341TIP3   OH246217   3.734   5.720  10.670
 7341TIP3    H146218   3.722   5.824  10.715
 7341TIP3    H246219   3.640   5.719  10.614
 7342TIP3   OH246220   3.575   5.573  11.003
 7342TIP3    H146221   3.576   5.526  11.093
 7342TIP3    H246222   3.505   5.500  10.953
 7343TIP3   OH246223   2.627   5.576  11.148
 7343TIP3    H146224   2.621   5.489  11.213
 7343TIP3    H246225   2.717   5.635  11.184
 7344TIP3   OH246226   3.958   5.952  10.861
 7344TIP3    H146227   3.941   5.864  10.924
 7344TIP3    H246228   3.994   6.035  10.922
 7345TIP3   OH246229   2.748   6.134  10.982
 7345TIP3    H146230   2.707   6.026  10.965
 7345TIP3    H246231   2.862   6.108  10.977
 7346TIP3   OH246232   2.359   5.328  10.563
 7346TIP3    H146233   2.308   5.431  10.574
 7346TIP3    H246234   2.293   5.281  10.493
 7347TIP3   OH246235   2.423   5.622  10.805
 7347TIP3    H146236   2.478   5.519  10.819
 7347TIP3    H246237   2.503   5.688  10.761
 7348TIP3   OH246238   3.668   6.612  10.842
 7348TIP3    H146239   3.746   6.540  10.797
 7348TIP3    H246240   3.635   6.541  10.913
 7349TIP3   OH246241   3.349   5.904  11.097
 7349TIP3    H146242   3.385   5.846  11.020
 7349TIP3    H246243   3.454   5.938  11.134
 7350TIP3   OH246244   4.397   4.877  11.106
 7350TIP3    H146245   4.394   4.956  11.178
 7350TIP3    H246246   4.495   4.909  11.062
 7351TIP3   OH246247   3.802   5.246  11.120
 7351TIP3    H146248   3.815   5.131  11.132
 7351TIP3    H246249   3.749   5.251  11.033
 7352TIP3   OH246250   2.929   4.973  10.780
 7352TIP3    H146251   2.946   5.070  10.726
 7352TIP3    H246252   2.880   4.904  10.711
 7353TIP3   OH246253   3.836   5.017  10.659
 7353TIP3    H146254   3.911   4.967  10.724
 7353TIP3    H246255   3.908   5.090  10.613
 7354TIP3   OH246256   2.520   5.318  10.879
 7354TIP3    H146257   2.593   5.250  10.929
 7354TIP3    H246258   2.537   5.275  10.789
 7355TIP3   OH246259   3.104   5.471  10.833
 7355TIP3    H146260   3.204   5.419  10.860
 7355TIP3    H246261   3.050   5.384  10.786
 7356TIP3   OH246262   4.408   5.047  11.346
 7356TIP3    H146263   4.370   5.152  11.308
 7356TIP3    H246264   4.430   5.084  11.436
 7357TIP3   OH246265   2.816   4.885  11.203
 7357TIP3    H146266   2.764   4.939  11.127
 7357TIP3    H246267   2.741   4.912  11.275
 7358TIP3   OH246268   3.638   6.022  10.559
 7358TIP3    H146269   3.637   6.014  10.463
 7358TIP3    H246270   3.604   6.132  10.574
 7359TIP3   OH246271   3.067   5.797  11.180
 7359TIP3    H146272   3.005   5.887  11.217
 7359TIP3    H246273   3.161   5.855  11.144
 7360TIP3   OH246274   4.081   4.927  10.823
 7360TIP3    H146275   4.039   4.854  10.889
 7360TIP3    H246276   4.172   4.972  10.869
 7361TIP3   OH246277   2.749   5.104  10.993
 7361TIP3    H146278   2.825   5.174  11.041
 7361TIP3    H246279   2.815   5.069  10.917
 7362TIP3   OH246280   2.923   6.065  11.295
 7362TIP3    H146281   2.903   6.156  11.238
 7362TIP3    H246282   2.820   6.055  11.342
 7363TIP3   OH246283   2.424   5.984  10.381
 7363TIP3    H146284   2.423   6.049  10.298
 7363TIP3    H246285   2.435   6.067  10.450
 7364TIP3   OH246286   4.073   6.202  11.066
 7364TIP3    H146287   3.960   6.226  11.088
 7364TIP3    H246288   4.099   6.304  11.024
 7365TIP3   OH246289   4.062   4.813  11.173
 7365TIP3    H146290   3.988   4.830  11.098
 7365TIP3    H246291   4.162   4.844  11.130
 7366TIP3   OH246292   3.228   4.571  10.930
 7366TIP3    H146293   3.200   4.462  10.951
 7366TIP3    H246294   3.124   4.624  10.955
 7367TIP3   OH246295   3.872   6.412  10.726
 7367TIP3    H146296   3.895   6.312  10.677
 7367TIP3    H246297   3.971   6.473  10.704
 7368TIP3   OH246298   3.986   6.150  10.589
 7368TIP3    H146299   3.980   6.070  10.518
 7368TIP3    H246300   3.979   6.082  10.667
 7369TIP3   OH246301   4.187   5.995  11.448
 7369TIP3    H146302   4.217   5.906  11.386
 7369TIP3    H246303   4.199   6.085  11.386
 7370TIP3   OH246304   3.539   5.635  10.408
 7370TIP3    H146305   3.486   5.737  10.388
 7370TIP3    H246306   3.641   5.642  10.359
 7371TIP3   OH246307   3.601   5.464  10.120
 7371TIP3    H146308   3.690   5.508  10.174
 7371TIP3    H246309   3.641   5.354  10.104
 7372TIP3   OH246310   4.440   5.569  11.237
 7372TIP3    H146311   4.357   5.652  11.234
 7372TIP3    H246312   4.514   5.611  11.171
 7373TIP3   OH246313   3.982   5.614  10.521
 7373TIP3    H146314   3.898   5.660  10.579
 7373TIP3    H246315   4.058   5.569  10.585
 7374TIP3   OH246316   3.958   5.420  11.425
 7374TIP3    H146317   3.953   5.528  11.461
 7374TIP3    H246318   3.881   5.431  11.353
 7375TIP3   OH246319   2.944   5.706  10.705
 7375TIP3    H146320   2.909   5.675  10.615
 7375TIP3    H246321   3.019   5.618  10.725
 7376TIP3   OH246322   3.110   6.114  10.960
 7376TIP3    H146323   3.116   6.097  10.864
 7376TIP3    H246324   3.200   6.053  10.993
 7377TIP3   OH246325   2.962   5.530  11.073
 7377TIP3    H146326   3.004   5.536  10.981
 7377TIP3    H246327   3.014   5.623  11.114
 7378TIP3   OH246328   3.764   6.248  11.139
 7378TIP3    H146329   3.737   6.314  11.216
 7378TIP3    H246330   3.743   6.140  11.171
 7379TIP3   OH246331   3.121   6.116  11.507
 7379TIP3    H146332   3.035   6.172  11.556
 7379TIP3    H246333   3.066   6.098  11.422
 7380TIP3   OH246334   3.826   5.584  10.291
 7380TIP3    H146335   3.886   5.591  10.377
 7380TIP3    H246336   3.901   5.635  10.227
 7381TIP3   OH246337   2.746   5.640  11.421
 7381TIP3    H146338   2.770   5.728  11.481
 7381TIP3    H246339   2.653   5.593  11.466
 7382TIP3   OH246340   3.527   6.377  10.556
 7382TIP3    H146341   3.550   6.404  10.647
 7382TIP3    H246342   3.492   6.476  10.515
 7383TIP3   OH246343   2.899   6.306  11.616
 7383TIP3    H146344   2.880   6.366  11.533
 7383TIP3    H246345   2.789   6.272  11.634
 7384TIP3   OH246346   4.304   4.540  10.299
 7384TIP3    H146347   4.189   4.540  10.318
 7384TIP3    H246348   4.320   4.652  10.277
 7385TIP3   OH246349   2.827   5.573  10.468
 7385TIP3    H146350   2.772   5.662  10.425
 7385TIP3    H246351   2.776   5.480  10.429
 7386TIP3   OH246352   4.394   6.311  10.121
 7386TIP3    H146353   4.418   6.426  10.132
 7386TIP3    H246354   4.499   6.262  10.132
 7387TIP3   OH246355   2.388   5.908  11.352
 7387TIP3    H146356   2.340   5.897  11.264
 7387TIP3    H246357   2.434   5.800  11.362
 7388TIP3   OH246358   2.350   6.221  10.997
 7388TIP3    H146359   2.465   6.208  10.994
 7388TIP3    H246360   2.340   6.304  11.064
 7389TIP3   OH246361   4.514   6.311  11.612
 7389TIP3    H146362   4.501   6.199  11.587
 7389TIP3    H246363   4.404   6.335  11.645
 7390TIP3   OH246364   3.415   6.246  11.495
 7390TIP3    H146365   3.422   6.344  11.546
 7390TIP3    H246366   3.301   6.215  11.505
 7391TIP3   OH246367   3.472   6.686  10.448
 7391TIP3    H146368   3.526   6.726  10.369
 7391TIP3    H246369   3.474   6.786  10.500
 7392TIP3   OH246370   2.725   6.547  10.660
 7392TIP3    H146371   2.762   6.517  10.750
 7392TIP3    H246372   2.621   6.493  10.660
 7393TIP3   OH246373   3.824   6.660  10.185
 7393TIP3    H146374   3.882   6.565  10.151
 7393TIP3    H246375   3.863   6.660  10.277
 7394TIP3   OH246376   3.793   6.577  10.456
 7394TIP3    H146377   3.684   6.598  10.483
 7394TIP3    H246378   3.810   6.468  10.489
 7395TIP3   OH246379   4.144   5.266  11.640
 7395TIP3    H146380   4.082   5.306  11.564
 7395TIP3    H246381   4.156   5.152  11.617
 7396TIP3   OH246382   2.650   6.064  11.439
 7396TIP3    H146383   2.651   6.016  11.530
 7396TIP3    H246384   2.548   6.019  11.406
 7397TIP3   OH246385   2.962   4.692  11.030
 7397TIP3    H146386   2.855   4.686  10.989
 7397TIP3    H246387   2.933   4.747  11.113
 7398TIP3   OH246388   3.546   4.626  11.345
 7398TIP3    H146389   3.576   4.578  11.430
 7398TIP3    H246390   3.427   4.630  11.349
 7399TIP3   OH246391   3.874   5.105  11.459
 7399TIP3    H146392   3.805   5.094  11.539
 7399TIP3    H246393   3.905   5.218  11.461
 7400TIP3   OH246394   4.019   5.704  10.120
 7400TIP3    H146395   3.974   5.713  10.027
 7400TIP3    H246396   4.132   5.725  10.095
 7401TIP3   OH246397   3.493   4.960  10.123
 7401TIP3    H146398   3.439   4.928  10.206
 7401TIP3    H246399   3.419   4.916  10.058
 7402TIP3   OH246400   2.970   5.234  11.166
 7402TIP3    H146401   2.874   5.251  11.221
 7402TIP3    H246402   2.983   5.344  11.129
 7403TIP3   OH246403   2.953   5.239  10.641
 7403TIP3    H146404   2.838   5.245  10.623
 7403TIP3    H246405   2.999   5.231  10.550
 7404TIP3   OH246406   3.646   5.377  10.554
 7404TIP3    H146407   3.601   5.471  10.506
 7404TIP3    H246408   3.715   5.333  10.486
 7405TIP3   OH246409   3.503   5.378  11.670
 7405TIP3    H146410   3.457   5.282  11.712
 7405TIP3    H246411   3.594   5.394  11.729
 7406TIP3   OH246412   3.740   5.296  10.833
 7406TIP3    H146413   3.748   5.384  10.770
 7406TIP3    H246414   3.745   5.204  10.772
 7407TIP3   OH246415   2.678   5.274  11.284
 7407TIP3    H146416   2.710   5.318  11.370
 7407TIP3    H246417   2.638   5.170  11.309
 7408TIP3   OH246418   3.082   4.973  10.037
 7408TIP3    H146419   3.024   4.937  10.117
 7408TIP3    H246420   2.998   5.000   9.975
 7409TIP3   OH246421   2.290   4.933  10.745
 7409TIP3    H146422   2.374   4.940  10.811
 7409TIP3    H246423   2.348   4.933  10.661
 7410TIP3   OH246424   2.434   5.022  10.266
 7410TIP3    H146425   2.516   5.089  10.224
 7410TIP3    H246426   2.356   5.107  10.288
 7411TIP3   OH246427   3.631   5.471  11.257
 7411TIP3    H146428   3.701   5.388  11.217
 7411TIP3    H246429   3.568   5.402  11.319
 7412TIP3   OH246430   3.298   4.975  10.760
 7412TIP3    H146431   3.184   4.976  10.776
 7412TIP3    H246432   3.341   4.948  10.847
 7413TIP3   OH246433   2.617   5.165  10.647
 7413TIP3    H146434   2.531   5.203  10.589
 7413TIP3    H246435   2.650   5.062  10.610
 7414TIP3   OH246436   3.100   5.192  10.404
 7414TIP3    H146437   3.214   5.204  10.396
 7414TIP3    H246438   3.055   5.261  10.333
 7415TIP3   OH246439   3.800   4.895  11.038
 7415TIP3    H146440   3.737   4.896  11.120
 7415TIP3    H246441   3.736   4.825  10.980
 7416TIP3   OH246442   2.928   5.339  10.208
 7416TIP3    H146443   2.828   5.312  10.163
 7416TIP3    H246444   3.005   5.352  10.134
 7417TIP3   OH246445   4.163   6.784  11.722
 7417TIP3    H146446   4.199   6.826  11.637
 7417TIP3    H246447   4.255   6.812  11.776
 7418TIP3   OH246448   2.671   5.884  11.667
 7418TIP3    H146449   2.764   5.900  11.726
 7418TIP3    H246450   2.585   5.862  11.731
 7419TIP3   OH246451   3.413   5.302  10.926
 7419TIP3    H146452   3.506   5.276  10.873
 7419TIP3    H246453   3.396   5.206  10.977
 7420TIP3   OH246454   2.752   4.837  10.579
 7420TIP3    H146455   2.688   4.757  10.627
 7420TIP3    H246456   2.806   4.769  10.515
 7421TIP3   OH246457   3.258   5.096  11.171
 7421TIP3    H146458   3.160   5.161  11.172
 7421TIP3    H246459   3.332   5.162  11.222
 7422TIP3   OH246460   3.334   5.899  10.370
 7422TIP3    H146461   3.252   5.827  10.330
 7422TIP3    H246462   3.283   5.912  10.459
 7423TIP3   OH246463   4.217   5.812  11.237
 7423TIP3    H146464   4.271   5.872  11.165
 7423TIP3    H246465   4.109   5.809  11.202
 7424TIP3   OH246466   3.798   5.017  10.176
 7424TIP3    H146467   3.682   5.018  10.171
 7424TIP3    H246468   3.822   5.123  10.213
 7425TIP3   OH246469   3.457   5.923  11.466
 7425TIP3    H146470   3.449   5.885  11.557
 7425TIP3    H246471   3.446   6.040  11.480
 7426TIP3   OH246472   3.863   5.266  10.330
 7426TIP3    H146473   3.964   5.236  10.375
 7426TIP3    H246474   3.886   5.375  10.301
 7427TIP3   OH246475   2.756   5.809  10.927
 7427TIP3    H146476   2.834   5.784  10.856
 7427TIP3    H246477   2.754   5.710  10.977
 7428TIP3   OH246478   3.571   6.085  10.253
 7428TIP3    H146479   3.514   6.188  10.262
 7428TIP3    H246480   3.492   6.013  10.293
 7429TIP3   OH246481   2.404   5.572  11.457
 7429TIP3    H146482   2.372   5.514  11.538
 7429TIP3    H246483   2.330   5.527  11.390
 7430TIP3   OH246484   3.204   5.567  11.646
 7430TIP3    H146485   3.146   5.488  11.593
 7430TIP3    H246486   3.314   5.528  11.638
 7431TIP3   OH246487   3.806   6.197  11.494
 7431TIP3    H146488   3.702   6.204  11.453
 7431TIP3    H246489   3.782   6.245  11.581
 7432TIP3   OH246490   4.463   5.250  10.335
 7432TIP3    H146491   4.378   5.232  10.270
 7432TIP3    H246492   4.477   5.365  10.322
 7433TIP3   OH246493   4.478   5.962  11.570
 7433TIP3    H146494   4.369   5.980  11.536
 7433TIP3    H246495   4.538   5.947  11.486
 7434TIP3   OH246496   4.271   6.263  10.367
 7434TIP3    H146497   4.162   6.222  10.367
 7434TIP3    H246498   4.295   6.275  10.272
 7435TIP3   OH246499   3.913   5.688  11.045
 7435TIP3    H146500   3.802   5.656  11.034
 7435TIP3    H246501   3.966   5.605  10.992
 7436TIP3   OH246502   3.012   6.205  10.683
 7436TIP3    H146503   3.054   6.312  10.664
 7436TIP3    H246504   2.903   6.217  10.652
 7437TIP3   OH246505   2.543   5.574  10.087
 7437TIP3    H146506   2.606   5.645  10.143
 7437TIP3    H246507   2.438   5.580  10.130
 7438TIP3   OH246508   3.179   5.934  10.613
 7438TIP3    H146509   3.122   6.035  10.631
 7438TIP3    H246510   3.126   5.858  10.673
 7439TIP3   OH246511   3.254   6.427  11.299
 7439TIP3    H146512   3.328   6.503  11.256
 7439TIP3    H246513   3.325   6.372  11.362
 7440TIP3   OH246514   3.037   6.520  10.564
 7440TIP3    H146515   2.927   6.532  10.598
 7440TIP3    H246516   3.086   6.618  10.600
 7441TIP3   OH246517   3.629   5.936  11.233
 7441TIP3    H146518   3.568   5.908  11.314
 7441TIP3    H246519   3.686   5.837  11.215
 7442TIP3   OH246520   3.964   6.080  10.124
 7442TIP3    H146521   3.977   6.026  10.211
 7442TIP3    H246522   3.848   6.068  10.118
 7443TIP3   OH246523   4.020   6.482  11.456
 7443TIP3    H146524   3.912   6.437  11.444
 7443TIP3    H246525   4.028   6.559  11.382
 7444TIP3   OH246526   4.493   6.611  10.167
 7444TIP3    H146527   4.574   6.688  10.137
 7444TIP3    H246528   4.421   6.684  10.218
 7445TIP3   OH246529   2.608   4.969  11.408
 7445TIP3    H146530   2.533   5.026  11.466
 7445TIP3    H246531   2.623   4.870  11.458
 7446TIP3   OH246532   4.050   5.918  10.345
 7446TIP3    H146533   4.051   5.802  10.339
 7446TIP3    H246534   4.165   5.936  10.341
 7447TIP3   OH246535   2.540   6.390  11.241
 7447TIP3    H146536   2.612   6.301  11.254
 7447TIP3    H246537   2.543   6.438  11.329
 7448TIP3   OH246538   3.071   6.144  10.242
 7448TIP3    H146539   3.169   6.110  10.286
 7448TIP3    H246540   3.074   6.262  10.257
 7449TIP3   OH246541   2.666   5.816  10.263
 7449TIP3    H146542   2.582   5.872  10.315
 7449TIP3    H246543   2.737   5.904  10.239
 7450TIP3   OH246544   3.630   4.981  11.289
 7450TIP3    H146545   3.712   5.015  11.354
 7450TIP3    H246546   3.596   4.877  11.321
 7451TIP3   OH246547   3.733   4.849  10.439
 7451TIP3    H146548   3.764   4.927  10.371
 7451TIP3    H246549   3.793   4.885  10.518
 7452TIP3   OH246550   3.422   6.372  10.264
 7452TIP3    H146551   3.344   6.407  10.329
 7452TIP3    H246552   3.485   6.470  10.253
 7453TIP3   OH246553   3.416   5.105  10.531
 7453TIP3    H146554   3.479   5.203  10.543
 7453TIP3    H246555   3.380   5.077  10.621
 7454TIP3   OH246556   3.486   5.257  11.414
 7454TIP3    H146557   3.494   5.282  11.510
 7454TIP3    H246558   3.536   5.153  11.403
 7455TIP3   OH246559   3.463   4.720  10.566
 7455TIP3    H146560   3.406   4.801  10.616
 7455TIP3    H246561   3.560   4.780  10.536
 7456TIP3   OH246562   3.094   6.472  10.285
 7456TIP3    H146563   3.155   6.564  10.258
 7456TIP3    H246564   3.062   6.499  10.376
 7457TIP3   OH246565   2.951   4.871  10.288
 7457TIP3    H146566   2.946   4.967  10.342
 7457TIP3    H246567   3.065   4.844  10.298
 7458TIP3   OH246568   4.164   4.970  11.531
 7458TIP3    H146569   4.050   4.970  11.503
 7458TIP3    H246570   4.217   4.988  11.446
 7459TIP3   OH246571   4.036   5.399  10.904
 7459TIP3    H146572   3.940   5.333  10.914
 7459TIP3    H246573   4.115   5.340  10.958
 7460TIP3   OH246574   2.764   6.140  10.154
 7460TIP3    H146575   2.874   6.139  10.190
 7460TIP3    H246576   2.782   6.094  10.067
 7461TIP3   OH246577   2.563   5.254  10.120
 7461TIP3    H146578   2.572   5.371  10.115
 7461TIP3    H246579   2.489   5.233  10.047
 7462TIP3   OH246580   4.146   6.534  11.053
 7462TIP3    H146581   4.144   6.618  10.984
 7462TIP3    H246582   4.262   6.524  11.059
 7463TIP3   OH246583   2.651   4.619  10.965
 7463TIP3    H146584   2.647   4.606  10.868
 7463TIP3    H246585   2.615   4.512  10.994
 7464TIP3   OH246586   2.490   6.302  10.571
 7464TIP3    H146587   2.389   6.360  10.565
 7464TIP3    H246588   2.539   6.338  10.489
 7465TIP3   OH246589   2.408   6.605  11.693
 7465TIP3    H146590   2.485   6.593  11.766
 7465TIP3    H246591   2.374   6.496  11.676
 7466TIP3   OH246592   3.004   6.492  11.845
 7466TIP3    H146593   3.104   6.445  11.872
 7466TIP3    H246594   2.983   6.442  11.759
 7467TIP3   OH246595   3.469   6.402   9.971
 7467TIP3    H146596   3.398   6.322  10.010
 7467TIP3    H246597   3.569   6.371  10.016
 7468TIP3   OH246598   3.754   6.326  11.736
 7468TIP3    H146599   3.712   6.221  11.767
 7468TIP3    H246600   3.856   6.331  11.786
 7469TIP3   OH246601   3.977   6.391  10.101
 7469TIP3    H146602   3.992   6.275  10.094
 7469TIP3    H246603   4.030   6.434  10.021
 7470TIP3   OH246604   2.377   5.880  11.805
 7470TIP3    H146605   2.322   5.777  11.811
 7470TIP3    H246606   2.336   5.922  11.719
 7471TIP3   OH246607   2.999   5.820  10.044
 7471TIP3    H146608   3.004   5.783  10.137
 7471TIP3    H246609   3.091   5.892  10.048
 7472TIP3   OH246610   3.202   5.885  11.690
 7472TIP3    H146611   3.184   5.939  11.604
 7472TIP3    H246612   3.192   5.770  11.667
 7473TIP3   OH246613   3.886   5.848  11.492
 7473TIP3    H146614   3.989   5.905  11.492
 7473TIP3    H246615   3.814   5.939  11.497
 7474TIP3   OH246616   2.558   5.515  11.756
 7474TIP3    H146617   2.623   5.426  11.788
 7474TIP3    H246618   2.578   5.594  11.827
 7475TIP3   OH246619   3.108   5.683  10.271
 7475TIP3    H146620   3.020   5.623  10.310
 7475TIP3    H246621   3.150   5.610  10.203
 7476TIP3   OH246622   2.971   5.419  11.430
 7476TIP3    H146623   2.899   5.509  11.410
 7476TIP3    H246624   3.065   5.455  11.379
 7477TIP3   OH246625   3.252   5.472  10.078
 7477TIP3    H146626   3.271   5.431   9.988
 7477TIP3    H246627   3.361   5.474  10.115
 7478TIP3   OH246628   3.638   5.750  11.810
 7478TIP3    H146629   3.725   5.699  11.761
 7478TIP3    H246630   3.607   5.666  11.872
 7479TIP3   OH246631   4.296   5.707  19.991
 7479TIP3    H146632   4.366   5.662  19.925
 7479TIP3    H246633   4.338   5.818  19.989
 7480TIP3   OH246634   3.072   5.125  11.521
 7480TIP3    H146635   3.068   5.044  11.448
 7480TIP3    H246636   3.052   5.226  11.472
 7481TIP3   OH246637   3.096   4.885  11.330
 7481TIP3    H146638   3.161   4.944  11.263
 7481TIP3    H246639   2.990   4.889  11.286
 7482TIP3   OH246640   3.241   5.588  11.331
 7482TIP3    H146641   3.346   5.633  11.310
 7482TIP3    H246642   3.173   5.671  11.291
 7483TIP3   OH246643   3.787   5.270  11.828
 7483TIP3    H146644   3.838   5.166  11.816
 7483TIP3    H246645   3.875   5.335  11.863
 7484TIP3   OH246646   3.989   5.648  11.692
 7484TIP3    H146647   3.941   5.712  11.620
 7484TIP3    H246648   4.102   5.646  11.666
 7485TIP3   OH246649   2.897   5.197  11.748
 7485TIP3    H146650   2.794   5.146  11.728
 7485TIP3    H246651   2.964   5.158  11.673
 7486TIP3   OH246652   3.222   4.594  11.329
 7486TIP3    H146653   3.172   4.700  11.338
 7486TIP3    H246654   3.131   4.535  11.296
 7487TIP3   OH246655   3.338   5.089  11.757
 7487TIP3    H146656   3.254   5.060  11.822
 7487TIP3    H246657   3.280   5.076  11.674
 7488TIP3   OH246658   3.654   5.008  11.641
 7488TIP3    H146659   3.551   5.022  11.685
 7488TIP3    H246660   3.708   4.940  11.708
 7489TIP3   OH246661   3.832   4.842  11.820
 7489TIP3    H146662   3.850   4.728  11.833
 7489TIP3    H246663   3.817   4.879  11.912
 7490TIP3   OH246664   2.628   4.991  11.757
 7490TIP3    H146665   2.603   4.896  11.704
 7490TIP3    H246666   2.598   4.956  11.849
 7491TIP3   OH246667   3.188   4.560  11.617
 7491TIP3    H146668   3.272   4.482  11.639
 7491TIP3    H246669   3.186   4.548  11.519
 7492TIP3   OH246670   3.215   4.696  11.886
 7492TIP3    H146671   3.198   4.655  11.795
 7492TIP3    H246672   3.152   4.795  11.886
 7493TIP3   OH246673   3.210   6.794  10.142
 7493TIP3    H146674   3.317   6.746  10.157
 7493TIP3    H246675   3.226   6.896  10.191
 7494TIP3   OH246676   2.424   6.139  10.143
 7494TIP3    H146677   2.542   6.142  10.133
 7494TIP3    H246678   2.390   6.066  10.071
 7495TIP3   OH246679   2.282   6.701  10.599
 7495TIP3    H146680   2.182   6.648  10.571
 7495TIP3    H246681   2.311   6.640  10.679
 7496TIP3   OH246682   2.382   6.502  10.804
 7496TIP3    H146683   2.323   6.406  10.830
 7496TIP3    H246684   2.456   6.521  10.878
 7497TIP3   OH246685   4.472   6.600  11.070
 7497TIP3    H146686   4.513   6.610  11.161
 7497TIP3    H246687   4.546   6.671  11.024
 7498TIP3   OH246688   4.410   6.556  11.365
 7498TIP3    H146689   4.367   6.463  11.315
 7498TIP3    H246690   4.427   6.504  11.451
 7499TIP3   OH246691   4.256   6.038  11.877
 7499TIP3    H146692   4.147   6.055  11.911
 7499TIP3    H246693   4.302   6.146  11.886
 7500TIP3   OH246694   4.370   5.864  10.362
 7500TIP3    H146695   4.476   5.910  10.383
 7500TIP3    H246696   4.350   5.801  10.441
 7501TIP3   OH246697   4.441   5.626  10.602
 7501TIP3    H146698   4.343   5.569  10.627
 7501TIP3    H246699   4.501   5.628  10.686
 7502TIP3   OH246700   4.392   5.942  11.051
 7502TIP3    H146701   4.471   5.855  11.047
 7502TIP3    H246702   4.451   6.034  11.014
 7503TIP3   OH246703   4.252   6.281  11.303
 7503TIP3    H146704   4.168   6.329  11.357
 7503TIP3    H246705   4.193   6.250  11.221
 7504TIP3   OH246706   4.492   5.603  10.210
 7504TIP3    H146707   4.404   5.624  10.148
 7504TIP3    H246708   4.486   5.698  10.266
 7505TIP3   OH246709   4.226   5.226  10.137
 7505TIP3    H146710   4.199   5.300  10.065
 7505TIP3    H246711   4.306   5.164  10.089
 7506TIP3   OH246712   4.194   5.438  10.668
 7506TIP3    H146713   4.174   5.328  10.645
 7506TIP3    H246714   4.156   5.442  10.760
 7507TIP3   OH246715   2.370   5.720  11.063
 7507TIP3    H146716   2.383   5.686  10.969
 7507TIP3    H246717   2.474   5.683  11.097
 7508TIP3   OH246718   4.313   5.683  11.608
 7508TIP3    H146719   4.368   5.579  11.621
 7508TIP3    H246720   4.400   5.758  11.587
 7509TIP3   OH246721   4.430   5.394  11.647
 7509TIP3    H146722   4.324   5.344  11.654
 7509TIP3    H246723   4.502   5.302  11.661
 7510TIP3   OH246724   4.198   4.945   9.968
 7510TIP3    H146725   4.261   4.901  10.040
 7510TIP3    H246726   4.091   4.932  10.002
 7511TIP3   OH246727   4.115   5.158  10.473
 7511TIP3    H146728   4.147   5.052  10.508
 7511TIP3    H246729   4.213   5.184  10.428
 7512TIP3   OH246730   4.249   5.218  11.048
 7512TIP3    H146731   4.367   5.238  11.059
 7512TIP3    H246732   4.217   5.225  11.141
 7513TIP3   OH246733   4.249   5.314  11.309
 7513TIP3    H146734   4.144   5.345  11.342
 7513TIP3    H246735   4.300   5.418  11.289
 7514TIP3   OH246736   2.368   5.104  11.646
 7514TIP3    H146737   2.470   5.093  11.695
 7514TIP3    H246738   2.318   4.998  11.663
 7515TIP3   OH246739   4.512   4.619  11.831
 7515TIP3    H146740   4.555   4.531  11.775
 7515TIP3    H246741   4.494   4.704  11.763
 7516TIP3   OH246742   4.237   4.860  10.517
 7516TIP3    H146743   4.278   4.799  10.593
 7516TIP3    H246744   4.171   4.777  10.475
 7517TIP3   OH246745   2.478   4.908  11.012
 7517TIP3    H146746   2.527   4.801  11.007
 7517TIP3    H246747   2.567   4.980  10.989
 7518TIP3   OH246748   2.291   5.286  11.061
 7518TIP3    H146749   2.359   5.252  10.987
 7518TIP3    H246750   2.353   5.376  11.091
 7519TIP3   OH246751   4.415   4.831  11.656
 7519TIP3    H146752   4.310   4.885  11.643
 7519TIP3    H246753   4.410   4.757  11.581
 7520TIP3   OH246754   4.448   4.860  10.159
 7520TIP3    H146755   4.500   4.799  10.090
 7520TIP3    H246756   4.538   4.931  10.185
 7521TIP3   OH246757   2.320   4.824  10.463
 7521TIP3    H146758   2.210   4.859  10.472
 7521TIP3    H246759   2.348   4.873  10.377
 7522TIP3   OH246760   4.097   6.614  10.667
 7522TIP3    H146761   4.176   6.598  10.597
 7522TIP3    H246762   4.150   6.689  10.728
 7523TIP3   OH246763   2.320   4.652  11.292
 7523TIP3    H146764   2.239   4.622  11.359
 7523TIP3    H246765   2.266   4.738  11.245
 7524TIP3   OH246766   2.590   6.242  11.688
 7524TIP3    H146767   2.484   6.278  11.659
 7524TIP3    H246768   2.569   6.188  11.771
 7525TIP3   OH246769   2.940   6.427  11.360
 7525TIP3    H146770   2.945   6.534  11.319
 7525TIP3    H246771   3.054   6.398  11.354
 7526TIP3   OH246772   3.431   6.562  11.602
 7526TIP3    H146773   3.440   6.545  11.699
 7526TIP3    H246774   3.536   6.607  11.582
 7527TIP3   OH246775   3.685   6.757  11.565
 7527TIP3    H146776   3.773   6.716  11.511
 7527TIP3    H246777   3.739   6.781  11.651
 7528TIP3   OH246778   4.337   4.583  11.485
 7528TIP3    H146779   4.264   4.624  11.419
 7528TIP3    H246780   4.346   4.470  11.456
 7529TIP3   OH246781   2.612   6.772  11.333
 7529TIP3    H146782   2.520   6.844  11.316
 7529TIP3    H246783   2.616   6.770  11.430
 7530TIP3   OH246784   2.892   6.716  11.226
 7530TIP3    H146785   2.780   6.732  11.257
 7530TIP3    H246786   2.894   6.782  11.146
 7531TIP3   OH246787   3.446   6.667  11.152
 7531TIP3    H146788   3.364   6.734  11.113
 7531TIP3    H246789   3.493   6.742  11.217
 7532TIP3   OH246790   3.727   6.518  11.299
 7532TIP3    H146791   3.650   6.559  11.236
 7532TIP3    H246792   3.822   6.584  11.278
 7533TIP3   OH246793   4.043   6.702  11.258
 7533TIP3    H146794   4.073   6.808  11.226
 7533TIP3    H246795   4.080   6.640  11.180
 7534TIP3   OH246796   2.561   6.572  11.021
 7534TIP3    H146797   2.540   6.505  11.101
 7534TIP3    H246798   2.669   6.535  10.998
 7535TIP3   OH246799   2.828   6.460  10.898
 7535TIP3    H146800   2.814   6.346  10.917
 7535TIP3    H246801   2.932   6.476  10.942
 7536TIP3   OH246802   3.091   6.438  11.039
 7536TIP3    H146803   3.128   6.331  11.014
 7536TIP3    H246804   3.133   6.450  11.130
 7537TIP3   OH246805   3.551   4.757  10.907
 7537TIP3    H146806   3.449   4.732  10.948
 7537TIP3    H246807   3.560   4.672  10.842
 7538TIP3   OH246808   4.162   4.532  10.884
 7538TIP3    H146809   4.236   4.603  10.836
 7538TIP3    H246810   4.057   4.561  10.843
 7539TIP3   OH246811   4.364   4.678  10.713
 7539TIP3    H146812   4.445   4.609  10.667
 7539TIP3    H246813   4.429   4.774  10.736
 7540TIP3   OH246814   2.628   4.574  10.687
 7540TIP3    H146815   2.524   4.565  10.643
 7540TIP3    H246816   2.674   4.468  10.669
 7541TIP3   OH246817   2.471   4.571  10.255
 7541TIP3    H146818   2.539   4.650  10.207
 7541TIP3    H246819   2.423   4.634  10.326
 7542TIP3   OH246820   3.145   4.516  10.669
 7542TIP3    H146821   3.234   4.561  10.621
 7542TIP3    H246822   3.167   4.549  10.761
 7543TIP3   OH246823   3.864   4.591  10.780
 7543TIP3    H146824   3.806   4.603  10.697
 7543TIP3    H246825   3.800   4.510  10.827
 7544TIP3   OH246826   4.022   4.585  10.408
 7544TIP3    H146827   3.924   4.645  10.393
 7544TIP3    H246828   3.979   4.492  10.455
 7545TIP3   OH246829   2.456   6.497  10.340
 7545TIP3    H146830   2.348   6.497  10.304
 7545TIP3    H246831   2.458   6.605  10.374
 7546TIP3   OH246832   2.668   4.747  10.106
 7546TIP3    H146833   2.760   4.676  10.101
 7546TIP3    H246834   2.708   4.841  10.150
 7547TIP3   OH246835   3.318   4.870  10.344
 7547TIP3    H146836   3.368   4.800  10.411
 7547TIP3    H246837   3.334   4.972  10.391
 7548TIP3   OH246838   3.512   6.655  10.160
 7548TIP3    H146839   3.631   6.676  10.164
 7548TIP3    H246840   3.514   6.595  10.076
 7549TIP3   OH246841   4.300   6.556  10.479
 7549TIP3    H146842   4.289   6.446  10.442
 7549TIP3    H246843   4.280   6.622  10.400
 7550TIP3   OH246844   2.575   4.687  11.618
 7550TIP3    H146845   2.516   4.585  11.622
 7550TIP3    H246846   2.659   4.670  11.685
 7551TIP3   OH246847   2.815   4.600  11.809
 7551TIP3    H146848   2.927   4.586  11.780
 7551TIP3    H246849   2.791   4.488  11.830
 7552TIP3   OH246850   2.725   6.602  10.140
 7552TIP3    H146851   2.650   6.677  10.184
 7552TIP3    H246852   2.694   6.504  10.185
 7553TIP3   OH246853   3.857   4.502  11.843
 7553TIP3    H146854   3.857   4.388  11.861
 7553TIP3    H246855   3.949   4.505  11.782
 7554TIP3   OH246856   4.235   6.444  11.643
 7554TIP3    H146857   4.150   6.436  11.577
 7554TIP3    H246858   4.212   6.548  11.681
 7555TIP3   OH246859   5.982   5.728  10.668
 7555TIP3    H146860   5.971   5.837  10.701
 7555TIP3    H246861   5.911   5.732  10.591
 7556TIP3   OH246862   5.864   5.564  11.007
 7556TIP3    H146863   5.849   5.525  11.099
 7556TIP3    H246864   5.778   5.510  10.958
 7557TIP3   OH246865   4.872   5.561  11.160
 7557TIP3    H146866   4.889   5.478  11.228
 7557TIP3    H246867   4.973   5.618  11.163
 7558TIP3   OH246868   6.215   5.951  10.857
 7558TIP3    H146869   6.198   5.864  10.922
 7558TIP3    H246870   6.251   6.035  10.917
 7559TIP3   OH246871   5.022   6.132  10.977
 7559TIP3    H146872   4.986   6.020  10.967
 7559TIP3    H246873   5.136   6.113  10.963
 7560TIP3   OH246874   4.628   5.323  10.563
 7560TIP3    H146875   4.579   5.429  10.573
 7560TIP3    H246876   4.562   5.280  10.491
 7561TIP3   OH246877   4.690   5.621  10.810
 7561TIP3    H146878   4.741   5.515  10.821
 7561TIP3    H246879   4.763   5.677  10.752
 7562TIP3   OH246880   5.939   6.616  10.842
 7562TIP3    H146881   6.022   6.542  10.807
 7562TIP3    H246882   5.884   6.542  10.900
 7563TIP3   OH246883   5.616   5.900  11.101
 7563TIP3    H146884   5.646   5.848  11.019
 7563TIP3    H246885   5.723   5.933  11.134
 7564TIP3   OH246886   6.666   4.883  11.098
 7564TIP3    H146887   6.674   4.951  11.177
 7564TIP3    H246888   6.764   4.912  11.052
 7565TIP3   OH246889   6.062   5.252  11.118
 7565TIP3    H146890   6.088   5.140  11.126
 7565TIP3    H246891   6.023   5.255  11.025
 7566TIP3   OH246892   5.195   4.964  10.778
 7566TIP3    H146893   5.215   5.060  10.724
 7566TIP3    H246894   5.136   4.901  10.713
 7567TIP3   OH246895   6.101   5.017  10.657
 7567TIP3    H146896   6.167   4.970  10.730
 7567TIP3    H246897   6.178   5.092  10.617
 7568TIP3   OH246898   4.768   5.310  10.875
 7568TIP3    H146899   4.842   5.249  10.929
 7568TIP3    H246900   4.795   5.268  10.787
 7569TIP3   OH246901   5.376   5.483  10.843
 7569TIP3    H146902   5.485   5.446  10.862
 7569TIP3    H246903   5.334   5.388  10.798
 7570TIP3   OH246904   6.676   5.053  11.341
 7570TIP3    H146905   6.628   5.153  11.306
 7570TIP3    H246906   6.703   5.089  11.431
 7571TIP3   OH246907   5.092   4.878  11.196
 7571TIP3    H146908   5.029   4.933  11.127
 7571TIP3    H246909   5.021   4.898  11.272
 7572TIP3   OH246910   5.900   6.038  10.568
 7572TIP3    H146911   5.893   6.026  10.470
 7572TIP3    H246912   5.867   6.149  10.576
 7573TIP3   OH246913   5.327   5.803  11.174
 7573TIP3    H146914   5.272   5.893  11.218
 7573TIP3    H246915   5.429   5.855  11.147
 7574TIP3   OH246916   6.312   4.937  10.850
 7574TIP3    H146917   6.308   4.842  10.906
 7574TIP3    H246918   6.419   4.975  10.870
 7575TIP3   OH246919   5.020   5.106  10.999
 7575TIP3    H146920   5.094   5.182  11.043
 7575TIP3    H246921   5.080   5.077  10.918
 7576TIP3   OH246922   5.189   6.059  11.301
 7576TIP3    H146923   5.159   6.144  11.239
 7576TIP3    H246924   5.086   6.043  11.349
 7577TIP3   OH246925   4.690   5.978  10.386
 7577TIP3    H146926   4.686   6.055  10.311
 7577TIP3    H246927   4.698   6.050  10.462
 7578TIP3   OH246928   6.328   6.191  11.061
 7578TIP3    H146929   6.212   6.206  11.079
 7578TIP3    H246930   6.353   6.296  11.027
 7579TIP3   OH246931   6.349   4.783  11.181
 7579TIP3    H146932   6.260   4.792  11.117
 7579TIP3    H246933   6.436   4.837  11.134
 7580TIP3   OH246934   5.494   4.565  10.942
 7580TIP3    H146935   5.464   4.453  10.950
 7580TIP3    H246936   5.388   4.614  10.962
 7581TIP3   OH246937   6.145   6.403  10.747
 7581TIP3    H146938   6.154   6.313  10.684
 7581TIP3    H246939   6.244   6.463  10.723
 7582TIP3   OH246940   6.239   6.157  10.590
 7582TIP3    H146941   6.232   6.082  10.513
 7582TIP3    H246942   6.222   6.080  10.662
 7583TIP3   OH246943   6.445   5.992  11.451
 7583TIP3    H146944   6.478   5.902  11.393
 7583TIP3    H246945   6.458   6.080  11.387
 7584TIP3   OH246946   5.804   5.654  10.407
 7584TIP3    H146947   5.740   5.753  10.393
 7584TIP3    H246948   5.884   5.668  10.337
 7585TIP3   OH246949   5.863   5.449  10.125
 7585TIP3    H146950   5.945   5.509  10.177
 7585TIP3    H246951   5.924   5.352  10.105
 7586TIP3   OH246952   6.703   5.572  11.229
 7586TIP3    H146953   6.619   5.653  11.234
 7586TIP3    H246954   6.772   5.622  11.162
 7587TIP3   OH246955   6.233   5.597  10.534
 7587TIP3    H146956   6.150   5.656  10.586
 7587TIP3    H246957   6.317   5.576  10.600
 7588TIP3   OH246958   6.218   5.432  11.423
 7588TIP3    H146959   6.194   5.526  11.477
 7588TIP3    H246960   6.137   5.444  11.355
 7589TIP3   OH246961   5.208   5.710  10.710
 7589TIP3    H146962   5.180   5.681  10.617
 7589TIP3    H246963   5.281   5.621  10.732
 7590TIP3   OH246964   5.360   6.109  10.953
 7590TIP3    H146965   5.378   6.089  10.859
 7590TIP3    H246966   5.448   6.053  10.998
 7591TIP3   OH246967   5.210   5.539  11.074
 7591TIP3    H146968   5.262   5.534  10.985
 7591TIP3    H246969   5.272   5.628  11.115
 7592TIP3   OH246970   6.023   6.241  11.143
 7592TIP3    H146971   6.005   6.322  11.212
 7592TIP3    H246972   5.989   6.143  11.188
 7593TIP3   OH246973   5.390   6.115  11.510
 7593TIP3    H146974   5.303   6.169  11.559
 7593TIP3    H246975   5.332   6.090  11.427
 7594TIP3   OH246976   6.097   5.551  10.288
 7594TIP3    H146977   6.152   5.580  10.372
 7594TIP3    H246978   6.138   5.632  10.225
 7595TIP3   OH246979   5.000   5.616  11.439
 7595TIP3    H146980   5.027   5.699  11.505
 7595TIP3    H246981   4.898   5.582  11.476
 7596TIP3   OH246982   5.818   6.430  10.556
 7596TIP3    H146983   5.825   6.430  10.652
 7596TIP3    H246984   5.748   6.521  10.533
 7597TIP3   OH246985   5.162   6.305  11.609
 7597TIP3    H146986   5.142   6.358  11.522
 7597TIP3    H246987   5.052   6.280  11.634
 7598TIP3   OH246988   6.564   4.538  10.292
 7598TIP3    H146989   6.446   4.538  10.305
 7598TIP3    H246990   6.578   4.651  10.272
 7599TIP3   OH246991   5.089   5.572  10.469
 7599TIP3    H146992   5.053   5.670  10.426
 7599TIP3    H246993   5.027   5.491  10.422
 7600TIP3   OH246994   6.658   6.308  10.117
 7600TIP3    H146995   6.682   6.422  10.135
 7600TIP3    H246996   6.760   6.256  10.132
 7601TIP3   OH246997   4.651   5.903  11.357
 7601TIP3    H146998   4.591   5.894  11.275
 7601TIP3    H246999   4.706   5.798  11.356
 7602TIP3   OH247000   4.603   6.222  11.020
 7602TIP3    H147001   4.716   6.193  11.017
 7602TIP3    H247002   4.606   6.316  11.077
 7603TIP3   OH247003   6.785   6.304  11.605
 7603TIP3    H147004   6.768   6.192  11.585
 7603TIP3    H247005   6.678   6.329  11.643
 7604TIP3   OH247006   5.683   6.245  11.477
 7604TIP3    H147007   5.687   6.346  11.527
 7604TIP3    H247008   5.572   6.208  11.489
 7605TIP3   OH247009   5.705   6.712  10.430
 7605TIP3    H147010   5.756   6.722  10.344
 7605TIP3    H247011   5.748   6.808  10.476
 7606TIP3   OH247012   4.982   6.536  10.656
 7606TIP3    H147013   5.015   6.508  10.748
 7606TIP3    H247014   4.873   6.492  10.654
 7607TIP3   OH247015   6.070   6.658  10.200
 7607TIP3    H147016   6.134   6.572  10.158
 7607TIP3    H247017   6.091   6.643  10.296
 7608TIP3   OH247018   6.067   6.602  10.470
 7608TIP3    H147019   5.954   6.571  10.473
 7608TIP3    H247020   6.110   6.516  10.525
 7609TIP3   OH247021   6.438   5.276  11.631
 7609TIP3    H147022   6.362   5.314  11.563
 7609TIP3    H247023   6.430   5.160  11.621
 7610TIP3   OH247024   4.913   6.052  11.442
 7610TIP3    H147025   4.914   6.005  11.532
 7610TIP3    H247026   4.808   6.014  11.408
 7611TIP3   OH247027   5.216   4.670  11.021
 7611TIP3    H147028   5.111   4.673  10.980
 7611TIP3    H247029   5.200   4.745  11.095
 7612TIP3   OH247030   5.807   4.628  11.341
 7612TIP3    H147031   5.844   4.582  11.426
 7612TIP3    H247032   5.689   4.621  11.346
 7613TIP3   OH247033   6.152   5.099  11.477
 7613TIP3    H147034   6.071   5.058  11.541
 7613TIP3    H247035   6.108   5.201  11.447
 7614TIP3   OH247036   6.296   5.701  10.128
 7614TIP3    H147037   6.236   5.717  10.043
 7614TIP3    H247038   6.407   5.723  10.097
 7615TIP3   OH247039   5.742   4.957  10.122
 7615TIP3    H147040   5.676   4.927  10.200
 7615TIP3    H247041   5.689   4.896  10.053
 7616TIP3   OH247042   5.240   5.246  11.168
 7616TIP3    H147043   5.140   5.243  11.219
 7616TIP3    H247044   5.236   5.357  11.134
 7617TIP3   OH247045   5.219   5.222  10.635
 7617TIP3    H147046   5.104   5.238  10.622
 7617TIP3    H247047   5.261   5.216  10.544
 7618TIP3   OH247048   5.902   5.383  10.547
 7618TIP3    H147049   5.863   5.483  10.505
 7618TIP3    H247050   5.977   5.350  10.478
 7619TIP3   OH247051   5.771   5.375  11.655
 7619TIP3    H147052   5.698   5.292  11.689
 7619TIP3    H247053   5.852   5.372  11.723
 7620TIP3   OH247054   6.008   5.296  10.829
 7620TIP3    H147055   6.007   5.395  10.777
 7620TIP3    H247056   6.005   5.219  10.756
 7621TIP3   OH247057   4.957   5.256  11.291
 7621TIP3    H147058   4.985   5.303  11.376
 7621TIP3    H247059   4.909   5.154  11.319
 7622TIP3   OH247060   5.342   5.005  10.027
 7622TIP3    H147061   5.294   4.963  10.109
 7622TIP3    H247062   5.257   4.992   9.963
 7623TIP3   OH247063   4.552   4.936  10.746
 7623TIP3    H147064   4.633   4.943  10.814
 7623TIP3    H247065   4.612   4.933  10.663
 7624TIP3   OH247066   4.691   5.027  10.263
 7624TIP3    H147067   4.787   5.078  10.228
 7624TIP3    H247068   4.622   5.122  10.275
 7625TIP3   OH247069   5.898   5.483  11.265
 7625TIP3    H147070   5.964   5.404  11.218
 7625TIP3    H247071   5.820   5.411  11.308
 7626TIP3   OH247072   5.575   4.972  10.757
 7626TIP3    H147073   5.459   4.978  10.771
 7626TIP3    H247074   5.616   4.918  10.836
 7627TIP3   OH247075   4.891   5.160  10.648
 7627TIP3    H147076   4.802   5.201  10.594
 7627TIP3    H247077   4.915   5.054  10.609
 7628TIP3   OH247078   5.374   5.165  10.388
 7628TIP3    H147079   5.483   5.200  10.405
 7628TIP3    H247080   5.328   5.249  10.330
 7629TIP3   OH247081   6.066   4.878  11.056
 7629TIP3    H147082   5.983   4.883  11.124
 7629TIP3    H247083   6.013   4.831  10.979
 7630TIP3   OH247084   5.197   5.335  10.197
 7630TIP3    H147085   5.100   5.302  10.151
 7630TIP3    H247086   5.274   5.339  10.124
 7631TIP3   OH247087   6.414   6.792  11.725
 7631TIP3    H147088   6.443   6.858  11.649
 7631TIP3    H247089   6.514   6.798  11.775
 7632TIP3   OH247090   4.964   5.846  11.670
 7632TIP3    H147091   5.036   5.892  11.738
 7632TIP3    H247092   4.864   5.837  11.720
 7633TIP3   OH247093   5.662   5.346  10.913
 7633TIP3    H147094   5.755   5.294  10.875
 7633TIP3    H247095   5.638   5.281  10.990
 7634TIP3   OH247096   5.004   4.838  10.583
 7634TIP3    H147097   4.932   4.764  10.631
 7634TIP3    H247098   5.051   4.766  10.518
 7635TIP3   OH247099   5.534   5.105  11.173
 7635TIP3    H147100   5.434   5.167  11.180
 7635TIP3    H247101   5.604   5.167  11.231
 7636TIP3   OH247102   5.585   5.885  10.373
 7636TIP3    H147103   5.500   5.818  10.337
 7636TIP3    H247104   5.540   5.914  10.460
 7637TIP3   OH247105   6.484   5.820  11.233
 7637TIP3    H147106   6.540   5.884  11.164
 7637TIP3    H247107   6.383   5.804  11.187
 7638TIP3   OH247108   6.048   5.014  10.166
 7638TIP3    H147109   5.930   5.023  10.165
 7638TIP3    H247110   6.080   5.112  10.213
 7639TIP3   OH247111   5.720   5.896  11.463
 7639TIP3    H147112   5.690   5.818  11.529
 7639TIP3    H247113   5.699   5.999  11.504
 7640TIP3   OH247114   6.126   5.246  10.331
 7640TIP3    H147115   6.226   5.218  10.377
 7640TIP3    H247116   6.146   5.358  10.303
 7641TIP3   OH247117   5.017   5.812  10.927
 7641TIP3    H147118   5.089   5.794  10.851
 7641TIP3    H247119   5.027   5.712  10.977
 7642TIP3   OH247120   5.845   6.091  10.311
 7642TIP3    H147121   5.754   6.162  10.297
 7642TIP3    H247122   5.848   6.025  10.230
 7643TIP3   OH247123   4.657   5.587  11.460
 7643TIP3    H147124   4.631   5.543  11.547
 7643TIP3    H247125   4.583   5.531  11.401
 7644TIP3   OH247126   5.485   5.579  11.626
 7644TIP3    H147127   5.407   5.513  11.578
 7644TIP3    H247128   5.518   5.501  11.695
 7645TIP3   OH247129   6.070   6.205  11.492
 7645TIP3    H147130   5.966   6.217  11.447
 7645TIP3    H247131   6.044   6.253  11.579
 7646TIP3   OH247132   6.746   5.240  10.318
 7646TIP3    H147133   6.650   5.232  10.261
 7646TIP3    H247134   6.774   5.352  10.301
 7647TIP3   OH247135   6.730   5.941  11.577
 7647TIP3    H147136   6.616   5.965  11.555
 7647TIP3    H247137   6.780   5.935  11.489
 7648TIP3   OH247138   6.536   6.266  10.360
 7648TIP3    H147139   6.426   6.227  10.362
 7648TIP3    H247140   6.558   6.272  10.263
 7649TIP3   OH247141   6.178   5.682  11.037
 7649TIP3    H147142   6.064   5.662  11.026
 7649TIP3    H247143   6.222   5.591  10.986
 7650TIP3   OH247144   5.276   6.212  10.671
 7650TIP3    H147145   5.324   6.307  10.627
 7650TIP3    H247146   5.164   6.238  10.660
 7651TIP3   OH247147   4.806   5.569  10.089
 7651TIP3    H147148   4.866   5.639  10.150
 7651TIP3    H247149   4.699   5.575  10.129
 7652TIP3   OH247150   5.443   5.932  10.616
 7652TIP3    H147151   5.386   6.032  10.632
 7652TIP3    H247152   5.389   5.857  10.676
 7653TIP3   OH247153   5.524   6.438  11.297
 7653TIP3    H147154   5.597   6.510  11.250
 7653TIP3    H247155   5.597   6.377  11.353
 7654TIP3   OH247156   5.310   6.520  10.577
 7654TIP3    H147157   5.197   6.532  10.600
 7654TIP3    H247158   5.348   6.626  10.606
 7655TIP3   OH247159   5.894   5.936  11.235
 7655TIP3    H147160   5.830   5.904  11.314
 7655TIP3    H247161   5.956   5.838  11.218
 7656TIP3   OH247162   6.229   6.072  10.130
 7656TIP3    H147163   6.200   6.077  10.224
 7656TIP3    H247164   6.149   5.989  10.108
 7657TIP3   OH247165   6.278   6.481  11.460
 7657TIP3    H147166   6.173   6.436  11.440
 7657TIP3    H247167   6.294   6.560  11.387
 7658TIP3   OH247168   6.757   6.606  10.170
 7658TIP3    H147169   6.838   6.682  10.138
 7658TIP3    H247170   6.688   6.682  10.221
 7659TIP3   OH247171   4.865   4.960  11.393
 7659TIP3    H147172   4.766   5.014  11.419
 7659TIP3    H247173   4.866   4.871  11.456
 7660TIP3   OH247174   6.302   5.940  10.380
 7660TIP3    H147175   6.264   5.846  10.332
 7660TIP3    H247176   6.415   5.934  10.353
 7661TIP3   OH247177   4.807   6.395  11.249
 7661TIP3    H147178   4.892   6.317  11.261
 7661TIP3    H247179   4.820   6.458  11.330
 7662TIP3   OH247180   5.321   6.146  10.238
 7662TIP3    H147181   5.424   6.102  10.267
 7662TIP3    H247182   5.335   6.260  10.263
 7663TIP3   OH247183   4.924   5.803  10.264
 7663TIP3    H147184   4.840   5.860  10.315
 7663TIP3    H247185   4.990   5.894  10.235
 7664TIP3   OH247186   5.893   4.956  11.346
 7664TIP3    H147187   6.006   4.961  11.369
 7664TIP3    H247188   5.867   4.843  11.362
 7665TIP3   OH247189   6.018   4.826  10.448
 7665TIP3    H147190   6.022   4.914  10.383
 7665TIP3    H247191   6.058   4.882  10.529
 7666TIP3   OH247192   5.669   6.374  10.262
 7666TIP3    H147193   5.587   6.419  10.320
 7666TIP3    H247194   5.718   6.472  10.227
 7667TIP3   OH247195   5.682   5.096  10.521
 7667TIP3    H147196   5.742   5.196  10.527
 7667TIP3    H247197   5.654   5.070  10.614
 7668TIP3   OH247198   5.744   5.257  11.400
 7668TIP3    H147199   5.738   5.296  11.493
 7668TIP3    H247200   5.783   5.147  11.412
 7669TIP3   OH247201   5.719   4.721  10.560
 7669TIP3    H147202   5.680   4.814  10.609
 7669TIP3    H247203   5.825   4.762  10.532
 7670TIP3   OH247204   5.348   6.469  10.304
 7670TIP3    H147205   5.383   6.572  10.267
 7670TIP3    H247206   5.330   6.497  10.398
 7671TIP3   OH247207   5.224   4.891  10.284
 7671TIP3    H147208   5.230   4.990  10.336
 7671TIP3    H247209   5.333   4.853  10.300
 7672TIP3   OH247210   6.434   4.961  11.513
 7672TIP3    H147211   6.325   4.999  11.490
 7672TIP3    H247212   6.488   4.968  11.426
 7673TIP3   OH247213   6.295   5.402  10.909
 7673TIP3    H147214   6.205   5.329  10.900
 7673TIP3    H247215   6.374   5.336  10.957
 7674TIP3   OH247216   5.011   6.102  10.174
 7674TIP3    H147217   5.119   6.134  10.206
 7674TIP3    H247218   5.034   6.092  10.079
 7675TIP3   OH247219   4.834   5.249  10.112
 7675TIP3    H147220   4.831   5.366  10.117
 7675TIP3    H247221   4.750   5.227  10.047
 7676TIP3   OH247222   6.404   6.530  11.055
 7676TIP3    H147223   6.396   6.611  10.984
 7676TIP3    H247224   6.522   6.522  11.058
 7677TIP3   OH247225   4.896   4.622  10.970
 7677TIP3    H147226   4.891   4.609  10.872
 7677TIP3    H247227   4.872   4.513  10.999
 7678TIP3   OH247228   4.735   6.282  10.571
 7678TIP3    H147229   4.644   6.353  10.570
 7678TIP3    H247230   4.789   6.324  10.493
 7679TIP3   OH247231   4.668   6.636  11.692
 7679TIP3    H147232   4.756   6.613  11.754
 7679TIP3    H247233   4.628   6.528  11.675
 7680TIP3   OH247234   5.249   6.487  11.820
 7680TIP3    H147235   5.352   6.444  11.850
 7680TIP3    H247236   5.234   6.431  11.735
 7681TIP3   OH247237   5.740   6.386   9.961
 7681TIP3    H147238   5.666   6.296   9.959
 7681TIP3    H247239   5.816   6.342  10.025
 7682TIP3   OH247240   6.019   6.316  11.740
 7682TIP3    H147241   5.984   6.211  11.779
 7682TIP3    H247242   6.122   6.329  11.785
 7683TIP3   OH247243   6.218   6.386  10.104
 7683TIP3    H147244   6.221   6.268  10.099
 7683TIP3    H247245   6.269   6.420  10.020
 7684TIP3   OH247246   4.646   5.880  11.785
 7684TIP3    H147247   4.597   5.774  11.791
 7684TIP3    H247248   4.595   5.922  11.704
 7685TIP3   OH247249   5.262   5.827  10.031
 7685TIP3    H147250   5.218   5.780  10.111
 7685TIP3    H247251   5.352   5.887  10.068
 7686TIP3   OH247252   5.471   5.891  11.702
 7686TIP3    H147253   5.462   5.964  11.624
 7686TIP3    H247254   5.482   5.784  11.660
 7687TIP3   OH247255   6.137   5.848  11.504
 7687TIP3    H147256   6.232   5.917  11.496
 7687TIP3    H247257   6.053   5.928  11.497
 7688TIP3   OH247258   4.796   5.534  11.756
 7688TIP3    H147259   4.884   5.464  11.729
 7688TIP3    H247260   4.849   5.594  11.828
 7689TIP3   OH247261   5.357   5.663  10.270
 7689TIP3    H147262   5.290   5.582  10.313
 7689TIP3    H247263   5.413   5.599  10.202
 7690TIP3   OH247264   5.227   5.405  11.451
 7690TIP3    H147265   5.154   5.494  11.431
 7690TIP3    H247266   5.315   5.430  11.391
 7691TIP3   OH247267   5.518   5.486  10.076
 7691TIP3    H147268   5.533   5.464   9.983
 7691TIP3    H247269   5.630   5.483  10.109
 7692TIP3   OH247270   5.875   5.726  11.814
 7692TIP3    H147271   5.960   5.717  11.748
 7692TIP3    H247272   5.802   5.642  11.790
 7693TIP3   OH247273   6.581   5.696  20.014
 7693TIP3    H147274   6.598   5.642  19.929
 7693TIP3    H247275   6.619   5.804  19.992
 7694TIP3   OH247276   5.268   5.059  11.538
 7694TIP3    H147277   5.326   4.998  11.468
 7694TIP3    H247278   5.258   5.165  11.499
 7695TIP3   OH247279   5.382   4.898  11.330
 7695TIP3    H147280   5.452   4.946  11.262
 7695TIP3    H247281   5.278   4.912  11.286
 7696TIP3   OH247282   5.507   5.572  11.318
 7696TIP3    H147283   5.604   5.612  11.357
 7696TIP3    H247284   5.448   5.666  11.290
 7697TIP3   OH247285   6.083   5.250  11.871
 7697TIP3    H147286   6.072   5.162  11.808
 7697TIP3    H247287   6.167   5.318  11.836
 7698TIP3   OH247288   6.241   5.634  11.686
 7698TIP3    H147289   6.205   5.706  11.613
 7698TIP3    H247290   6.356   5.633  11.665
 7699TIP3   OH247291   5.064   5.306  11.748
 7699TIP3    H147292   5.050   5.203  11.704
 7699TIP3    H247293   5.180   5.317  11.744
 7700TIP3   OH247294   5.483   4.594  11.315
 7700TIP3    H147295   5.441   4.702  11.336
 7700TIP3    H247296   5.384   4.537  11.297
 7701TIP3   OH247297   5.635   5.057  11.708
 7701TIP3    H147298   5.600   5.099  11.795
 7701TIP3    H247299   5.532   5.057  11.665
 7702TIP3   OH247300   5.950   4.974  11.657
 7702TIP3    H147301   5.832   4.981  11.663
 7702TIP3    H247302   5.974   4.918  11.741
 7703TIP3   OH247303   6.090   4.817  11.869
 7703TIP3    H147304   6.109   4.712  11.825
 7703TIP3    H247305   6.104   4.792  11.962
 7704TIP3   OH247306   4.858   5.006  11.766
 7704TIP3    H147307   4.883   4.915  11.710
 7704TIP3    H247308   4.874   4.963  11.857
 7705TIP3   OH247309   5.440   4.543  11.609
 7705TIP3    H147310   5.527   4.476  11.644
 7705TIP3    H247311   5.458   4.530  11.514
 7706TIP3   OH247312   5.485   4.686  11.866
 7706TIP3    H147313   5.462   4.652  11.774
 7706TIP3    H247314   5.449   4.799  11.868
 7707TIP3   OH247315   5.440   6.748  10.191
 7707TIP3    H147316   5.556   6.739  10.192
 7707TIP3    H247317   5.419   6.791  10.104
 7708TIP3   OH247318   4.693   6.138  10.145
 7708TIP3    H147319   4.810   6.124  10.157
 7708TIP3    H247320   4.672   6.068  10.070
 7709TIP3   OH247321   4.547   6.704  10.604
 7709TIP3    H147322   4.452   6.647  10.573
 7709TIP3    H247323   4.579   6.640  10.682
 7710TIP3   OH247324   4.648   6.506  10.804
 7710TIP3    H147325   4.580   6.414  10.828
 7710TIP3    H247326   4.715   6.521  10.884
 7711TIP3   OH247327   6.736   6.595  11.067
 7711TIP3    H147328   6.773   6.608  11.158
 7711TIP3    H247329   6.820   6.650  11.018
 7712TIP3   OH247330   6.666   6.552  11.371
 7712TIP3    H147331   6.622   6.462  11.319
 7712TIP3    H247332   6.700   6.493  11.451
 7713TIP3   OH247333   6.522   6.036  11.859
 7713TIP3    H147334   6.408   6.042  11.876
 7713TIP3    H247335   6.560   6.132  11.905
 7714TIP3   OH247336   6.628   5.857  10.368
 7714TIP3    H147337   6.731   5.904  10.395
 7714TIP3    H247338   6.606   5.786  10.443
 7715TIP3   OH247339   6.700   5.632  10.609
 7715TIP3    H147340   6.604   5.572  10.637
 7715TIP3    H247341   6.761   5.632  10.693
 7716TIP3   OH247342   6.666   5.950  11.044
 7716TIP3    H147343   6.745   5.866  11.029
 7716TIP3    H247344   6.724   6.047  11.019
 7717TIP3   OH247345   6.502   6.283  11.295
 7717TIP3    H147346   6.420   6.330  11.352
 7717TIP3    H247347   6.440   6.252  11.215
 7718TIP3   OH247348   6.775   5.604  10.216
 7718TIP3    H147349   6.686   5.628  10.154
 7718TIP3    H247350   6.764   5.696  10.276
 7719TIP3   OH247351   6.481   5.236  10.141
 7719TIP3    H147352   6.461   5.315  10.071
 7719TIP3    H247353   6.528   5.154  10.083
 7720TIP3   OH247354   6.458   5.443  10.679
 7720TIP3    H147355   6.424   5.336  10.654
 7720TIP3    H247356   6.420   5.448  10.772
 7721TIP3   OH247357   4.632   5.730  11.071
 7721TIP3    H147358   4.645   5.688  10.980
 7721TIP3    H247359   4.732   5.684  11.110
 7722TIP3   OH247360   6.559   5.670  11.607
 7722TIP3    H147361   6.625   5.573  11.620
 7722TIP3    H247362   6.641   5.753  11.596
 7723TIP3   OH247363   6.736   5.396  11.648
 7723TIP3    H147364   6.626   5.353  11.643
 7723TIP3    H247365   6.796   5.296  11.661
 7724TIP3   OH247366   6.455   4.957   9.977
 7724TIP3    H147367   6.521   4.896  10.039
 7724TIP3    H247368   6.347   4.928  10.003
 7725TIP3   OH247369   6.379   5.144  10.480
 7725TIP3    H147370   6.419   5.038  10.506
 7725TIP3    H247371   6.479   5.190  10.449
 7726TIP3   OH247372   6.514   5.216  11.037
 7726TIP3    H147373   6.631   5.233  11.047
 7726TIP3    H247374   6.484   5.222  11.131
 7727TIP3   OH247375   6.508   5.316  11.293
 7727TIP3    H147376   6.397   5.350  11.304
 7727TIP3    H247377   6.563   5.419  11.282
 7728TIP3   OH247378   4.574   5.112  11.658
 7728TIP3    H147379   4.674   5.102  11.709
 7728TIP3    H247380   4.530   5.004  11.660
 7729TIP3   OH247381   6.814   4.601  11.850
 7729TIP3    H147382   6.863   4.524  11.787
 7729TIP3    H247383   6.780   4.679  11.782
 7730TIP3   OH247384   6.534   4.852  10.510
 7730TIP3    H147385   6.560   4.790  10.592
 7730TIP3    H247386   6.458   4.780  10.469
 7731TIP3   OH247387   4.748   4.912  11.014
 7731TIP3    H147388   4.795   4.804  11.009
 7731TIP3    H247389   4.837   4.982  10.990
 7732TIP3   OH247390   4.555   5.281  11.066
 7732TIP3    H147391   4.614   5.250  10.986
 7732TIP3    H247392   4.618   5.376  11.089
 7733TIP3   OH247393   6.715   4.819  11.676
 7733TIP3    H147394   6.626   4.888  11.705
 7733TIP3    H247395   6.671   4.782  11.592
 7734TIP3   OH247396   6.703   4.843  10.147
 7734TIP3    H147397   6.761   4.768  10.091
 7734TIP3    H247398   6.787   4.922  10.165
 7735TIP3   OH247399   4.582   4.825  10.461
 7735TIP3    H147400   4.474   4.862  10.475
 7735TIP3    H247401   4.607   4.874  10.374
 7736TIP3   OH247402   6.352   6.619  10.665
 7736TIP3    H147403   6.430   6.596  10.595
 7736TIP3    H247404   6.404   6.696  10.724
 7737TIP3   OH247405   4.585   4.654  11.295
 7737TIP3    H147406   4.512   4.597  11.354
 7737TIP3    H247407   4.516   4.726  11.245
 7738TIP3   OH247408   4.855   6.251  11.694
 7738TIP3    H147409   4.750   6.284  11.662
 7738TIP3    H247410   4.834   6.203  11.779
 7739TIP3   OH247411   5.200   6.421  11.356
 7739TIP3    H147412   5.202   6.530  11.319
 7739TIP3    H247413   5.314   6.397  11.354
 7740TIP3   OH247414   5.690   6.569  11.608
 7740TIP3    H147415   5.710   6.523  11.697
 7740TIP3    H247416   5.800   6.602  11.584
 7741TIP3   OH247417   5.964   6.718  11.542
 7741TIP3    H147418   6.055   6.655  11.511
 7741TIP3    H247419   6.004   6.758  11.628
 7742TIP3   OH247420   6.577   4.591  11.479
 7742TIP3    H147421   6.491   4.646  11.433
 7742TIP3    H247422   6.594   4.496  11.423
 7743TIP3   OH247423   4.883   6.774  11.325
 7743TIP3    H147424   4.789   6.833  11.293
 7743TIP3    H247425   4.872   6.791  11.421
 7744TIP3   OH247426   5.166   6.718  11.229
 7744TIP3    H147427   5.053   6.734  11.256
 7744TIP3    H247428   5.173   6.793  11.155
 7745TIP3   OH247429   5.734   6.665  11.140
 7745TIP3    H147430   5.669   6.725  11.077
 7745TIP3    H247431   5.766   6.751  11.203
 7746TIP3   OH247432   5.986   6.512  11.296
 7746TIP3    H147433   5.905   6.562  11.237
 7746TIP3    H247434   6.077   6.580  11.271
 7747TIP3   OH247435   6.304   6.708  11.264
 7747TIP3    H147436   6.312   6.817  11.231
 7747TIP3    H247437   6.350   6.649  11.188
 7748TIP3   OH247438   4.836   6.583  11.027
 7748TIP3    H147439   4.810   6.509  11.101
 7748TIP3    H247440   4.942   6.542  10.998
 7749TIP3   OH247441   5.086   6.455  10.899
 7749TIP3    H147442   5.074   6.342  10.924
 7749TIP3    H247443   5.192   6.476  10.938
 7750TIP3   OH247444   5.364   6.449  11.025
 7750TIP3    H147445   5.399   6.338  11.008
 7750TIP3    H247446   5.393   6.462  11.119
 7751TIP3   OH247447   5.790   4.756  10.904
 7751TIP3    H147448   5.699   4.714  10.953
 7751TIP3    H247449   5.810   4.669  10.841
 7752TIP3   OH247450   6.422   4.526  10.882
 7752TIP3    H147451   6.504   4.595  10.838
 7752TIP3    H247452   6.322   4.568  10.845
 7753TIP3   OH247453   6.631   4.674  10.722
 7753TIP3    H147454   6.707   4.603  10.673
 7753TIP3    H247455   6.698   4.770  10.737
 7754TIP3   OH247456   4.865   4.573  10.689
 7754TIP3    H147457   4.766   4.556  10.638
 7754TIP3    H247458   4.922   4.474  10.671
 7755TIP3   OH247459   4.721   4.567  10.249
 7755TIP3    H147460   4.789   4.650  10.208
 7755TIP3    H247461   4.669   4.625  10.321
 7756TIP3   OH247462   5.412   4.530  10.667
 7756TIP3    H147463   5.501   4.579  10.621
 7756TIP3    H247464   5.425   4.566  10.758
 7757TIP3   OH247465   6.120   4.604  10.788
 7757TIP3    H147466   6.077   4.607  10.699
 7757TIP3    H247467   6.058   4.518  10.831
 7758TIP3   OH247468   6.288   4.574  10.407
 7758TIP3    H147469   6.198   4.646  10.400
 7758TIP3    H247470   6.240   4.486  10.456
 7759TIP3   OH247471   4.711   6.503  10.357
 7759TIP3    H147472   4.608   6.502  10.311
 7759TIP3    H247473   4.733   6.617  10.348
 7760TIP3   OH247474   4.922   4.747  10.104
 7760TIP3    H147475   5.014   4.674  10.099
 7760TIP3    H247476   4.966   4.837  10.154
 7761TIP3   OH247477   5.570   4.841  10.340
 7761TIP3    H147478   5.621   4.766  10.404
 7761TIP3    H247479   5.576   4.938  10.393
 7762TIP3   OH247480   5.764   6.664  10.157
 7762TIP3    H147481   5.880   6.685  10.169
 7762TIP3    H247482   5.770   6.611  10.071
 7763TIP3   OH247483   6.562   6.553  10.482
 7763TIP3    H147484   6.553   6.448  10.436
 7763TIP3    H247485   6.557   6.628  10.406
 7764TIP3   OH247486   4.832   4.676  11.627
 7764TIP3    H147487   4.780   4.573  11.637
 7764TIP3    H247488   4.926   4.662  11.685
 7765TIP3   OH247489   5.086   4.602  11.808
 7765TIP3    H147490   5.194   4.568  11.786
 7765TIP3    H247491   5.046   4.504  11.851
 7766TIP3   OH247492   4.974   6.642  10.123
 7766TIP3    H147493   4.901   6.668  10.196
 7766TIP3    H247494   5.032   6.550  10.156
 7767TIP3   OH247495   6.104   4.508  11.788
 7767TIP3    H147496   6.102   4.441  11.870
 7767TIP3    H247497   6.216   4.494  11.763
 7768TIP3   OH247498   6.504   6.440  11.646
 7768TIP3    H147499   6.413   6.431  11.584
 7768TIP3    H247500   6.479   6.544  11.686
 7769TIP3   OH247501   8.250   5.723  10.673
 7769TIP3    H147502   8.242   5.827  10.717
 7769TIP3    H247503   8.158   5.731  10.614
 7770TIP3   OH247504   8.081   5.575  10.991
 7770TIP3    H147505   8.105   5.525  11.077
 7770TIP3    H247506   7.997   5.508  10.951
 7771TIP3   OH247507   7.154   5.578  11.143
 7771TIP3    H147508   7.139   5.500  11.215
 7771TIP3    H247509   7.247   5.633  11.178
 7772TIP3   OH247510   8.538   5.978  10.870
 7772TIP3    H147511   8.532   5.886  10.929
 7772TIP3    H247512   8.524   6.067  10.932
 7773TIP3   OH247513   7.289   6.139  10.997
 7773TIP3    H147514   7.247   6.031  10.981
 7773TIP3    H247515   7.402   6.115  10.978
 7774TIP3   OH247516   6.872   5.324  10.562
 7774TIP3    H147517   6.821   5.429  10.569
 7774TIP3    H247518   6.821   5.279  10.484
 7775TIP3   OH247519   6.943   5.612  10.810
 7775TIP3    H147520   7.000   5.509  10.821
 7775TIP3    H247521   7.014   5.675  10.753
 7776TIP3   OH247522   8.189   6.608  10.878
 7776TIP3    H147523   8.260   6.538  10.825
 7776TIP3    H247524   8.146   6.530  10.939
 7777TIP3   OH247525   7.876   5.899  11.109
 7777TIP3    H147526   7.912   5.844  11.030
 7777TIP3    H247527   7.979   5.932  11.148
 7778TIP3   OH247528   8.948   4.919  11.094
 7778TIP3    H147529   8.947   4.997  11.166
 7778TIP3    H247530   9.023   4.968  11.031
 7779TIP3   OH247531   8.300   5.233  11.110
 7779TIP3    H147532   8.356   5.137  11.138
 7779TIP3    H247533   8.294   5.214  11.014
 7780TIP3   OH247534   7.444   4.978  10.784
 7780TIP3    H147535   7.465   5.072  10.729
 7780TIP3    H247536   7.404   4.904  10.714
 7781TIP3   OH247537   8.382   5.008  10.652
 7781TIP3    H147538   8.447   4.990  10.733
 7781TIP3    H247539   8.446   5.087  10.606
 7782TIP3   OH247540   7.044   5.323  10.877
 7782TIP3    H147541   7.121   5.276  10.940
 7782TIP3    H247542   7.069   5.264  10.795
 7783TIP3   OH247543   7.640   5.476  10.825
 7783TIP3    H147544   7.732   5.420  10.865
 7783TIP3    H247545   7.596   5.389  10.772
 7784TIP3   OH247546   8.940   5.041  11.372
 7784TIP3    H147547   8.867   5.122  11.334
 7784TIP3    H247548   9.030   5.110  11.394
 7785TIP3   OH247549   7.350   4.890  11.197
 7785TIP3    H147550   7.301   4.949  11.124
 7785TIP3    H247551   7.267   4.906  11.265
 7786TIP3   OH247552   8.149   6.025  10.554
 7786TIP3    H147553   8.138   6.018  10.457
 7786TIP3    H247554   8.123   6.139  10.568
 7787TIP3   OH247555   7.589   5.806  11.182
 7787TIP3    H147556   7.532   5.903  11.214
 7787TIP3    H247557   7.687   5.855  11.147
 7788TIP3   OH247558   8.570   4.978  10.869
 7788TIP3    H147559   8.531   4.894  10.929
 7788TIP3    H247560   8.672   5.010  10.911
 7789TIP3   OH247561   7.279   5.113  11.000
 7789TIP3    H147562   7.360   5.185  11.042
 7789TIP3    H247563   7.339   5.075  10.922
 7790TIP3   OH247564   7.457   6.076  11.295
 7790TIP3    H147565   7.440   6.160  11.230
 7790TIP3    H247566   7.346   6.066  11.332
 7791TIP3   OH247567   6.944   5.974  10.392
 7791TIP3    H147568   6.935   6.036  10.309
 7791TIP3    H247569   6.947   6.059  10.459
 7792TIP3   OH247570   8.586   6.222  11.055
 7792TIP3    H147571   8.476   6.234  11.085
 7792TIP3    H247572   8.609   6.331  11.028
 7793TIP3   OH247573   8.640   4.858  11.196
 7793TIP3    H147574   8.545   4.886  11.143
 7793TIP3    H247575   8.731   4.889  11.140
 7794TIP3   OH247576   7.751   4.577  10.925
 7794TIP3    H147577   7.712   4.475  10.958
 7794TIP3    H247578   7.656   4.642  10.953
 7795TIP3   OH247579   8.369   6.398  10.736
 7795TIP3    H147580   8.393   6.296  10.692
 7795TIP3    H247581   8.472   6.452  10.718
 7796TIP3   OH247582   8.497   6.160  10.587
 7796TIP3    H147583   8.486   6.074  10.522
 7796TIP3    H247584   8.544   6.104  10.663
 7797TIP3   OH247585   8.705   5.982  11.441
 7797TIP3    H147586   8.687   5.910  11.365
 7797TIP3    H247587   8.732   6.080  11.394
 7798TIP3   OH247588   8.059   5.635  10.401
 7798TIP3    H147589   8.010   5.742  10.395
 7798TIP3    H247590   8.149   5.645  10.341
 7799TIP3   OH247591   8.113   5.474  10.116
 7799TIP3    H147592   8.208   5.508  10.169
 7799TIP3    H247593   8.146   5.365  10.093
 7800TIP3   OH247594   8.900   5.542  11.237
 7800TIP3    H147595   8.830   5.632  11.212
 7800TIP3    H247596   8.992   5.561  11.178
 7801TIP3   OH247597   8.491   5.638  10.508
 7801TIP3    H147598   8.406   5.680  10.567
 7801TIP3    H247599   8.564   5.592  10.576
 7802TIP3   OH247600   8.476   5.436  11.422
 7802TIP3    H147601   8.449   5.538  11.463
 7802TIP3    H247602   8.401   5.444  11.347
 7803TIP3   OH247603   7.464   5.707  10.700
 7803TIP3    H147604   7.426   5.683  10.609
 7803TIP3    H247605   7.536   5.615  10.716
 7804TIP3   OH247606   7.626   6.106  10.964
 7804TIP3    H147607   7.642   6.092  10.869
 7804TIP3    H247608   7.721   6.055  11.002
 7805TIP3   OH247609   7.501   5.539  11.064
 7805TIP3    H147610   7.538   5.544  10.970
 7805TIP3    H247611   7.553   5.635  11.102
 7806TIP3   OH247612   8.290   6.241  11.140
 7806TIP3    H147613   8.275   6.330  11.202
 7806TIP3    H247614   8.245   6.151  11.191
 7807TIP3   OH247615   7.644   6.114  11.518
 7807TIP3    H147616   7.558   6.168  11.569
 7807TIP3    H247617   7.586   6.100  11.433
 7808TIP3   OH247618   8.346   5.568  10.275
 7808TIP3    H147619   8.389   5.582  10.366
 7808TIP3    H247620   8.418   5.638  10.223
 7809TIP3   OH247621   7.268   5.630  11.419
 7809TIP3    H147622   7.270   5.738  11.452
 7809TIP3    H247623   7.204   5.580  11.488
 7810TIP3   OH247624   8.076   6.354  10.562
 7810TIP3    H147625   8.117   6.382  10.651
 7810TIP3    H247626   8.012   6.446  10.537
 7811TIP3   OH247627   7.424   6.302  11.620
 7811TIP3    H147628   7.412   6.359  11.535
 7811TIP3    H247629   7.312   6.276  11.639
 7812TIP3   OH247630   8.790   4.524  10.231
 7812TIP3    H147631   8.672   4.531  10.240
 7812TIP3    H247632   8.821   4.625  10.271
 7813TIP3   OH247633   7.346   5.578  10.463
 7813TIP3    H147634   7.289   5.663  10.417
 7813TIP3    H247635   7.307   5.482  10.421
 7814TIP3   OH247636   8.964   6.305  10.139
 7814TIP3    H147637   8.984   6.421  10.147
 7814TIP3    H247638   9.070   6.260  10.154
 7815TIP3   OH247639   6.913   5.902  11.359
 7815TIP3    H147640   6.859   5.893  11.274
 7815TIP3    H247641   6.959   5.792  11.363
 7816TIP3   OH247642   6.876   6.222  11.010
 7816TIP3    H147643   6.990   6.199  11.012
 7816TIP3    H247644   6.871   6.313  11.068
 7817TIP3   OH247645   9.024   6.313  11.580
 7817TIP3    H147646   9.019   6.198  11.570
 7817TIP3    H247647   8.936   6.328  11.644
 7818TIP3   OH247648   7.944   6.228  11.496
 7818TIP3    H147649   7.967   6.328  11.544
 7818TIP3    H247650   7.829   6.209  11.512
 7819TIP3   OH247651   8.004   6.685  10.435
 7819TIP3    H147652   8.020   6.710  10.341
 7819TIP3    H247653   8.004   6.793  10.475
 7820TIP3   OH247654   7.252   6.536  10.655
 7820TIP3    H147655   7.285   6.508  10.746
 7820TIP3    H247656   7.142   6.492  10.654
 7821TIP3   OH247657   8.341   6.670  10.177
 7821TIP3    H147658   8.390   6.571  10.142
 7821TIP3    H247659   8.364   6.665  10.271
 7822TIP3   OH247660   8.324   6.581  10.446
 7822TIP3    H147661   8.210   6.587  10.468
 7822TIP3    H247662   8.364   6.497  10.505
 7823TIP3   OH247663   8.666   5.302  11.637
 7823TIP3    H147664   8.581   5.323  11.571
 7823TIP3    H247665   8.680   5.186  11.629
 7824TIP3   OH247666   7.171   6.065  11.427
 7824TIP3    H147667   7.177   6.028  11.520
 7824TIP3    H247668   7.068   6.018  11.400
 7825TIP3   OH247669   7.481   4.688  11.027
 7825TIP3    H147670   7.375   4.687  10.986
 7825TIP3    H247671   7.457   4.752  11.107
 7826TIP3   OH247672   8.071   4.627  11.364
 7826TIP3    H147673   8.095   4.547  11.431
 7826TIP3    H247674   7.954   4.622  11.355
 7827TIP3   OH247675   8.405   5.084  11.450
 7827TIP3    H147676   8.335   5.048  11.524
 7827TIP3    H247677   8.376   5.197  11.445
 7828TIP3   OH247678   8.532   5.726  10.114
 7828TIP3    H147679   8.477   5.736  10.026
 7828TIP3    H247680   8.642   5.729  10.081
 7829TIP3   OH247681   8.020   4.954  10.120
 7829TIP3    H147682   7.964   4.916  10.201
 7829TIP3    H247683   7.945   4.914  10.053
 7830TIP3   OH247684   7.495   5.256  11.170
 7830TIP3    H147685   7.398   5.256  11.226
 7830TIP3    H247686   7.490   5.366  11.133
 7831TIP3   OH247687   7.487   5.234  10.636
 7831TIP3    H147688   7.372   5.245  10.625
 7831TIP3    H247689   7.524   5.209  10.545
 7832TIP3   OH247690   8.182   5.388  10.555
 7832TIP3    H147691   8.126   5.471  10.502
 7832TIP3    H247692   8.249   5.339  10.486
 7833TIP3   OH247693   7.986   5.362  11.680
 7833TIP3    H147694   7.948   5.257  11.711
 7833TIP3    H247695   8.088   5.369  11.727
 7834TIP3   OH247696   8.272   5.317  10.820
 7834TIP3    H147697   8.252   5.418  10.775
 7834TIP3    H247698   8.276   5.248  10.743
 7835TIP3   OH247699   7.201   5.264  11.297
 7835TIP3    H147700   7.230   5.311  11.382
 7835TIP3    H247701   7.163   5.158  11.321
 7836TIP3   OH247702   7.606   4.958  10.032
 7836TIP3    H147703   7.549   4.944  10.117
 7836TIP3    H247704   7.520   4.993   9.973
 7837TIP3   OH247705   6.814   4.945  10.737
 7837TIP3    H147706   6.895   4.942  10.807
 7837TIP3    H247707   6.875   4.934  10.656
 7838TIP3   OH247708   6.964   5.014  10.266
 7838TIP3    H147709   7.054   5.078  10.232
 7838TIP3    H247710   6.887   5.101  10.280
 7839TIP3   OH247711   8.179   5.480  11.255
 7839TIP3    H147712   8.232   5.396  11.201
 7839TIP3    H247713   8.112   5.413  11.314
 7840TIP3   OH247714   7.828   4.958  10.753
 7840TIP3    H147715   7.714   4.973  10.769
 7840TIP3    H247716   7.867   4.919  10.837
 7841TIP3   OH247717   7.145   5.158  10.656
 7841TIP3    H147718   7.061   5.196  10.595
 7841TIP3    H247719   7.183   5.058  10.616
 7842TIP3   OH247720   7.618   5.185  10.394
 7842TIP3    H147721   7.729   5.214  10.397
 7842TIP3    H247722   7.572   5.266  10.333
 7843TIP3   OH247723   8.346   4.884  11.059
 7843TIP3    H147724   8.267   4.884  11.130
 7843TIP3    H247725   8.275   4.846  10.987
 7844TIP3   OH247726   7.445   5.345  10.202
 7844TIP3    H147727   7.354   5.304  10.152
 7844TIP3    H247728   7.526   5.354  10.132
 7845TIP3   OH247729   8.694   6.739  11.723
 7845TIP3    H147730   8.735   6.796  11.644
 7845TIP3    H247731   8.783   6.755  11.786
 7846TIP3   OH247732   7.186   5.900  11.667
 7846TIP3    H147733   7.279   5.928  11.721
 7846TIP3    H247734   7.108   5.864  11.733
 7847TIP3   OH247735   7.925   5.298  10.922
 7847TIP3    H147736   8.029   5.279  10.883
 7847TIP3    H247737   7.908   5.203  10.976
 7848TIP3   OH247738   7.289   4.829  10.578
 7848TIP3    H147739   7.211   4.753  10.618
 7848TIP3    H247740   7.348   4.756  10.520
 7849TIP3   OH247741   7.772   5.093  11.175
 7849TIP3    H147742   7.675   5.160  11.174
 7849TIP3    H247743   7.848   5.162  11.219
 7850TIP3   OH247744   7.849   5.902  10.367
 7850TIP3    H147745   7.762   5.836  10.331
 7850TIP3    H247746   7.805   5.920  10.457
 7851TIP3   OH247747   8.710   5.813  11.209
 7851TIP3    H147748   8.779   5.858  11.140
 7851TIP3    H247749   8.610   5.797  11.157
 7852TIP3   OH247750   8.322   5.020  10.182
 7852TIP3    H147751   8.206   5.011  10.169
 7852TIP3    H247752   8.330   5.129  10.218
 7853TIP3   OH247753   7.994   5.904  11.517
 7853TIP3    H147754   7.943   5.892  11.604
 7853TIP3    H247755   7.982   6.020  11.507
 7854TIP3   OH247756   8.390   5.261  10.341
 7854TIP3    H147757   8.501   5.240  10.369
 7854TIP3    H247758   8.399   5.366  10.300
 7855TIP3   OH247759   7.283   5.813  10.932
 7855TIP3    H147760   7.345   5.784  10.853
 7855TIP3    H247761   7.280   5.713  10.983
 7856TIP3   OH247762   8.119   6.029  10.269
 7856TIP3    H147763   8.106   6.143  10.281
 7856TIP3    H247764   8.010   5.992  10.291
 7857TIP3   OH247765   6.929   5.585  11.426
 7857TIP3    H147766   6.901   5.540  11.513
 7857TIP3    H247767   6.853   5.534  11.365
 7858TIP3   OH247768   7.727   5.562  11.638
 7858TIP3    H147769   7.687   5.518  11.555
 7858TIP3    H247770   7.832   5.509  11.645
 7859TIP3   OH247771   8.336   6.182  11.496
 7859TIP3    H147772   8.239   6.194  11.445
 7859TIP3    H247773   8.302   6.224  11.583
 7860TIP3   OH247774   8.946   5.272  10.330
 7860TIP3    H147775   8.886   5.219  10.257
 7860TIP3    H247776   8.954   5.377  10.288
 7861TIP3   OH247777   8.977   5.947  11.575
 7861TIP3    H147778   8.868   5.970  11.542
 7861TIP3    H247779   9.037   5.935  11.491
 7862TIP3   OH247780   8.782   6.272  10.362
 7862TIP3    H147781   8.692   6.202  10.363
 7862TIP3    H247782   8.830   6.257  10.274
 7863TIP3   OH247783   8.468   5.726  11.026
 7863TIP3    H147784   8.360   5.725  10.991
 7863TIP3    H247785   8.503   5.622  10.989
 7864TIP3   OH247786   7.530   6.218  10.685
 7864TIP3    H147787   7.560   6.325  10.652
 7864TIP3    H247788   7.417   6.218  10.660
 7865TIP3   OH247789   7.067   5.550  10.097
 7865TIP3    H147790   7.129   5.629  10.146
 7865TIP3    H247791   6.959   5.566  10.137
 7866TIP3   OH247792   7.710   5.932  10.621
 7866TIP3    H147793   7.648   6.030  10.635
 7866TIP3    H247794   7.660   5.852  10.680
 7867TIP3   OH247795   7.787   6.428  11.298
 7867TIP3    H147796   7.862   6.511  11.270
 7867TIP3    H247797   7.853   6.371  11.363
 7868TIP3   OH247798   7.564   6.514  10.573
 7868TIP3    H147799   7.450   6.533  10.593
 7868TIP3    H247800   7.606   6.620  10.596
 7869TIP3   OH247801   8.147   5.935  11.244
 7869TIP3    H147802   8.090   5.903  11.326
 7869TIP3    H247803   8.201   5.836  11.221
 7870TIP3   OH247804   8.477   6.092  10.128
 7870TIP3    H147805   8.524   6.032  10.203
 7870TIP3    H247806   8.368   6.053  10.133
 7871TIP3   OH247807   8.536   6.482  11.461
 7871TIP3    H147808   8.437   6.419  11.458
 7871TIP3    H247809   8.536   6.545  11.377
 7872TIP3   OH247810   9.036   6.617  10.130
 7872TIP3    H147811   9.109   6.706  10.126
 7872TIP3    H247812   8.938   6.670  10.164
 7873TIP3   OH247813   7.121   4.964  11.400
 7873TIP3    H147814   7.054   5.029  11.459
 7873TIP3    H247815   7.122   4.864  11.450
 7874TIP3   OH247816   8.592   5.926  10.352
 7874TIP3    H147817   8.556   5.815  10.352
 7874TIP3    H247818   8.708   5.911  10.354
 7875TIP3   OH247819   7.074   6.396  11.241
 7875TIP3    H147820   7.134   6.299  11.258
 7875TIP3    H247821   7.080   6.446  11.328
 7876TIP3   OH247822   7.586   6.143  10.235
 7876TIP3    H147823   7.688   6.104  10.270
 7876TIP3    H247824   7.594   6.258  10.261
 7877TIP3   OH247825   7.196   5.813  10.274
 7877TIP3    H147826   7.103   5.866  10.315
 7877TIP3    H247827   7.252   5.906  10.236
 7878TIP3   OH247828   8.125   4.966  11.327
 7878TIP3    H147829   8.232   4.976  11.365
 7878TIP3    H247830   8.100   4.854  11.349
 7879TIP3   OH247831   8.254   4.853  10.434
 7879TIP3    H147832   8.274   4.932  10.364
 7879TIP3    H247833   8.318   4.895  10.509
 7880TIP3   OH247834   7.961   6.350  10.252
 7880TIP3    H147835   7.871   6.376  10.310
 7880TIP3    H247836   8.009   6.457  10.243
 7881TIP3   OH247837   7.958   5.106  10.534
 7881TIP3    H147838   8.006   5.212  10.550
 7881TIP3    H247839   7.924   5.069  10.622
 7882TIP3   OH247840   8.024   5.256  11.405
 7882TIP3    H147841   8.020   5.268  11.503
 7882TIP3    H247842   8.064   5.147  11.390
 7883TIP3   OH247843   8.000   4.720  10.573
 7883TIP3    H147844   7.936   4.801  10.616
 7883TIP3    H247845   8.099   4.777  10.547
 7884TIP3   OH247846   7.633   6.443  10.311
 7884TIP3    H147847   7.660   6.546  10.267
 7884TIP3    H247848   7.601   6.480  10.400
 7885TIP3   OH247849   7.486   4.879  10.279
 7885TIP3    H147850   7.474   4.976  10.331
 7885TIP3    H247851   7.596   4.853  10.300
 7886TIP3   OH247852   8.695   4.949  11.533
 7886TIP3    H147853   8.592   4.974  11.492
 7886TIP3    H247854   8.771   4.972  11.460
 7887TIP3   OH247855   8.540   5.450  10.906
 7887TIP3    H147856   8.443   5.386  10.893
 7887TIP3    H247857   8.608   5.374  10.957
 7888TIP3   OH247858   7.283   6.103  10.164
 7888TIP3    H147859   7.391   6.128  10.201
 7888TIP3    H247860   7.310   6.092  10.070
 7889TIP3   OH247861   7.108   5.233  10.118
 7889TIP3    H147862   7.108   5.351  10.118
 7889TIP3    H247863   7.020   5.213  10.055
 7890TIP3   OH247864   8.707   6.527  11.064
 7890TIP3    H147865   8.688   6.612  10.997
 7890TIP3    H247866   8.822   6.532  11.077
 7891TIP3   OH247867   7.169   4.624  10.968
 7891TIP3    H147868   7.169   4.590  10.874
 7891TIP3    H247869   7.140   4.524  11.015
 7892TIP3   OH247870   7.006   6.288  10.572
 7892TIP3    H147871   6.914   6.360  10.572
 7892TIP3    H247872   7.057   6.323  10.491
 7893TIP3   OH247873   6.932   6.622  11.677
 7893TIP3    H147874   7.010   6.610  11.750
 7893TIP3    H247875   6.893   6.511  11.671
 7894TIP3   OH247876   7.536   6.506  11.836
 7894TIP3    H147877   7.630   6.461  11.881
 7894TIP3    H247878   7.520   6.436  11.760
 7895TIP3   OH247879   8.005   6.401   9.966
 7895TIP3    H147880   7.924   6.341  10.015
 7895TIP3    H247881   8.101   6.370  10.014
 7896TIP3   OH247882   8.274   6.352  11.735
 7896TIP3    H147883   8.237   6.246  11.768
 7896TIP3    H247884   8.376   6.362  11.783
 7897TIP3   OH247885   8.462   6.403  10.057
 7897TIP3    H147886   8.490   6.294  10.084
 7897TIP3    H247887   8.557   6.444  10.010
 7898TIP3   OH247888   6.894   5.866  11.801
 7898TIP3    H147889   6.845   5.761  11.814
 7898TIP3    H247890   6.846   5.899  11.715
 7899TIP3   OH247891   7.495   5.825  10.031
 7899TIP3    H147892   7.471   5.816  10.126
 7899TIP3    H247893   7.600   5.873  10.038
 7900TIP3   OH247894   7.733   5.886  11.701
 7900TIP3    H147895   7.712   5.953  11.622
 7900TIP3    H247896   7.717   5.777  11.667
 7901TIP3   OH247897   8.428   5.839  11.494
 7901TIP3    H147898   8.542   5.870  11.500
 7901TIP3    H247899   8.382   5.946  11.507
 7902TIP3   OH247900   7.100   5.525  11.732
 7902TIP3    H147901   7.105   5.422  11.778
 7902TIP3    H247902   7.086   5.596  11.809
 7903TIP3   OH247903   7.624   5.690  10.272
 7903TIP3    H147904   7.540   5.628  10.315
 7903TIP3    H247905   7.670   5.615  10.209
 7904TIP3   OH247906   7.489   5.412  11.428
 7904TIP3    H147907   7.414   5.501  11.416
 7904TIP3    H247908   7.578   5.454  11.375
 7905TIP3   OH247909   7.782   5.479  10.082
 7905TIP3    H147910   7.802   5.444   9.991
 7905TIP3    H247911   7.892   5.483  10.119
 7906TIP3   OH247912   8.128   5.717  11.835
 7906TIP3    H147913   8.201   5.705  11.760
 7906TIP3    H247914   8.158   5.627  11.891
 7907TIP3   OH247915   8.820   5.680  19.989
 7907TIP3    H147916   8.869   5.587  19.946
 7907TIP3    H247917   8.893   5.765  19.958
 7908TIP3   OH247918   7.600   5.128  11.536
 7908TIP3    H147919   7.610   5.053  11.461
 7908TIP3    H247920   7.555   5.224  11.493
 7909TIP3   OH247921   7.620   4.885  11.340
 7909TIP3    H147922   7.684   4.942  11.271
 7909TIP3    H247923   7.512   4.890  11.301
 7910TIP3   OH247924   7.754   5.590  11.348
 7910TIP3    H147925   7.864   5.617  11.325
 7910TIP3    H247926   7.694   5.671  11.300
 7911TIP3   OH247927   8.299   5.285  11.844
 7911TIP3    H147928   8.303   5.172  11.863
 7911TIP3    H247929   8.405   5.323  11.869
 7912TIP3   OH247930   8.465   5.656  11.709
 7912TIP3    H147931   8.434   5.711  11.627
 7912TIP3    H247932   8.574   5.623  11.688
 7913TIP3   OH247933   7.416   5.203  11.766
 7913TIP3    H147934   7.308   5.159  11.756
 7913TIP3    H247935   7.466   5.166  11.684
 7914TIP3   OH247936   7.758   4.600  11.312
 7914TIP3    H147937   7.711   4.705  11.333
 7914TIP3    H247938   7.661   4.541  11.291
 7915TIP3   OH247939   7.879   5.045  11.742
 7915TIP3    H147940   7.796   5.047  11.812
 7915TIP3    H247941   7.813   5.058  11.662
 7916TIP3   OH247942   8.212   4.992  11.646
 7916TIP3    H147943   8.102   4.978  11.680
 7916TIP3    H247944   8.273   4.937  11.717
 7917TIP3   OH247945   8.347   4.828  11.841
 7917TIP3    H147946   8.384   4.717  11.849
 7917TIP3    H247947   8.347   4.864  11.936
 7918TIP3   OH247948   7.158   5.000  11.720
 7918TIP3    H147949   7.134   4.896  11.679
 7918TIP3    H247950   7.145   4.973  11.816
 7919TIP3   OH247951   7.706   4.530  11.654
 7919TIP3    H147952   7.777   4.436  11.654
 7919TIP3    H247953   7.704   4.558  11.560
 7920TIP3   OH247954   7.710   4.672  11.898
 7920TIP3    H147955   7.706   4.615  11.811
 7920TIP3    H247956   7.693   4.781  11.870
 7921TIP3   OH247957   7.688   6.726  10.188
 7921TIP3    H147958   7.805   6.728  10.196
 7921TIP3    H247959   7.667   6.798  10.114
 7922TIP3   OH247960   6.953   6.116  10.149
 7922TIP3    H147961   7.072   6.106  10.156
 7922TIP3    H247962   6.931   6.058  10.068
 7923TIP3   OH247963   6.802   6.708  10.601
 7923TIP3    H147964   6.709   6.644  10.570
 7923TIP3    H247965   6.835   6.646  10.680
 7924TIP3   OH247966   6.900   6.511  10.801
 7924TIP3    H147967   6.824   6.431  10.833
 7924TIP3    H247968   6.973   6.524  10.878
 7925TIP3   OH247969   9.047   6.572  11.123
 7925TIP3    H147970   9.052   6.575  11.221
 7925TIP3    H247971   9.038   6.686  11.106
 7926TIP3   OH247972   8.944   6.548  11.394
 7926TIP3    H147973   8.888   6.466  11.341
 7926TIP3    H247974   8.981   6.484  11.470
 7927TIP3   OH247975   8.774   6.026  11.867
 7927TIP3    H147976   8.676   6.052  11.917
 7927TIP3    H247977   8.814   6.132  11.845
 7928TIP3   OH247978   8.926   5.855  10.375
 7928TIP3    H147979   9.031   5.904  10.384
 7928TIP3    H247980   8.933   5.768  10.440
 7929TIP3   OH247981   8.963   5.618  10.585
 7929TIP3    H147982   8.850   5.585  10.579
 7929TIP3    H247983   8.978   5.596  10.679
 7930TIP3   OH247984   8.987   5.904  11.075
 7930TIP3    H147985   9.098   5.902  11.048
 7930TIP3    H247986   8.969   6.019  11.056
 7931TIP3   OH247987   8.776   6.277  11.308
 7931TIP3    H147988   8.680   6.313  11.355
 7931TIP3    H247989   8.737   6.263  11.217
 7932TIP3   OH247990   8.998   5.611  10.204
 7932TIP3    H147991   8.920   5.639  10.135
 7932TIP3    H247992   8.996   5.712  10.252
 7933TIP3   OH247993   8.788   5.227  10.107
 7933TIP3    H147994   8.741   5.298  10.042
 7933TIP3    H247995   8.791   5.126  10.057
 7934TIP3   OH247996   8.695   5.474  10.663
 7934TIP3    H147997   8.662   5.369  10.629
 7934TIP3    H247998   8.647   5.476  10.752
 7935TIP3   OH247999   6.896   5.720  11.063
 7935TIP3    H148000   6.902   5.680  10.970
 7935TIP3    H248001   7.004   5.688  11.093
 7936TIP3   OH248002   8.800   5.660  11.618
 7936TIP3    H148003   8.879   5.574  11.609
 7936TIP3    H248004   8.862   5.758  11.599
 7937TIP3   OH248005   8.971   5.396  11.630
 7937TIP3    H148006   8.854   5.380  11.638
 7937TIP3    H248007   9.010   5.292  11.664
 7938TIP3   OH248008   8.718   4.967   9.970
 7938TIP3    H148009   8.780   4.888  10.018
 7938TIP3    H248010   8.611   4.948  10.005
 7939TIP3   OH248011   8.672   5.182  10.489
 7939TIP3    H148012   8.665   5.064  10.493
 7939TIP3    H248013   8.786   5.196  10.479
 7940TIP3   OH248014   8.693   5.230  11.041
 7940TIP3    H148015   8.810   5.221  11.030
 7940TIP3    H248016   8.688   5.230  11.139
 7941TIP3   OH248017   8.738   5.282  11.313
 7941TIP3    H148018   8.640   5.327  11.351
 7941TIP3    H248019   8.798   5.382  11.294
 7942TIP3   OH248020   6.857   5.102  11.650
 7942TIP3    H148021   6.966   5.096  11.686
 7942TIP3    H248022   6.817   4.993  11.665
 7943TIP3   OH248023   9.011   4.542  11.833
 7943TIP3    H148024   9.061   4.471  11.768
 7943TIP3    H248025   9.000   4.639  11.779
 7944TIP3   OH248026   8.713   4.849  10.486
 7944TIP3    H148027   8.741   4.816  10.577
 7944TIP3    H248028   8.656   4.754  10.455
 7945TIP3   OH248029   7.014   4.915  10.980
 7945TIP3    H148030   7.061   4.807  10.991
 7945TIP3    H248031   7.110   4.984  10.975
 7946TIP3   OH248032   6.823   5.282  11.061
 7946TIP3    H148033   6.888   5.250  10.984
 7946TIP3    H248034   6.874   5.383  11.083
 7947TIP3   OH248035   8.936   4.807  11.699
 7947TIP3    H148036   8.832   4.865  11.711
 7947TIP3    H248037   8.926   4.783  11.604
 7948TIP3   OH248038   9.024   4.838  10.134
 7948TIP3    H148039   9.058   4.735  10.100
 7948TIP3    H248040   9.098   4.914  10.090
 7949TIP3   OH248041   6.853   4.820  10.465
 7949TIP3    H148042   6.742   4.852  10.470
 7949TIP3    H248043   6.883   4.873  10.381
 7950TIP3   OH248044   8.608   6.577  10.651
 7950TIP3    H148045   8.676   6.566  10.572
 7950TIP3    H248046   8.683   6.628  10.710
 7951TIP3   OH248047   6.830   4.650  11.281
 7951TIP3    H148048   6.764   4.612  11.355
 7951TIP3    H248049   6.763   4.728  11.236
 7952TIP3   OH248050   7.116   6.244  11.681
 7952TIP3    H148051   7.009   6.277  11.655
 7952TIP3    H248052   7.102   6.185  11.763
 7953TIP3   OH248053   7.472   6.442  11.366
 7953TIP3    H148054   7.466   6.546  11.319
 7953TIP3    H248055   7.585   6.416  11.356
 7954TIP3   OH248056   7.963   6.558  11.605
 7954TIP3    H148057   7.974   6.526  11.699
 7954TIP3    H248058   8.071   6.600  11.586
 7955TIP3   OH248059   8.232   6.730  11.564
 7955TIP3    H148060   8.323   6.676  11.526
 7955TIP3    H248061   8.275   6.774  11.646
 7956TIP3   OH248062   8.839   4.596  11.484
 7956TIP3    H148063   8.741   4.644  11.450
 7956TIP3    H248064   8.839   4.489  11.445
 7957TIP3   OH248065   7.147   6.774  11.322
 7957TIP3    H148066   7.056   6.841  11.294
 7957TIP3    H248067   7.138   6.776  11.418
 7958TIP3   OH248068   7.434   6.725  11.227
 7958TIP3    H148069   7.324   6.744  11.260
 7958TIP3    H248070   7.435   6.792  11.148
 7959TIP3   OH248071   8.006   6.672  11.153
 7959TIP3    H148072   7.946   6.730  11.087
 7959TIP3    H248073   8.023   6.756  11.221
 7960TIP3   OH248074   8.228   6.505  11.302
 7960TIP3    H148075   8.147   6.553  11.243
 7960TIP3    H248076   8.314   6.583  11.291
 7961TIP3   OH248077   8.550   6.685  11.253
 7961TIP3    H148078   8.561   6.794  11.221
 7961TIP3    H248079   8.611   6.629  11.183
 7962TIP3   OH248080   7.088   6.584  11.020
 7962TIP3    H148081   7.054   6.527  11.102
 7962TIP3    H248082   7.194   6.535  11.005
 7963TIP3   OH248083   7.352   6.457  10.903
 7963TIP3    H148084   7.339   6.344  10.926
 7963TIP3    H248085   7.458   6.478  10.943
 7964TIP3   OH248086   7.632   6.463  11.021
 7964TIP3    H148087   7.670   6.355  11.000
 7964TIP3    H248088   7.654   6.466  11.116
 7965TIP3   OH248089   8.063   4.781  10.931
 7965TIP3    H148090   7.967   4.717  10.947
 7965TIP3    H248091   8.122   4.712  10.869
 7966TIP3   OH248092   8.653   4.535  10.896
 7966TIP3    H148093   8.706   4.618  10.840
 7966TIP3    H248094   8.542   4.564  10.876
 7967TIP3   OH248095   8.821   4.708  10.716
 7967TIP3    H148096   8.908   4.630  10.696
 7967TIP3    H248097   8.888   4.799  10.746
 7968TIP3   OH248098   7.162   4.566  10.686
 7968TIP3    H148099   7.055   4.554  10.646
 7968TIP3    H248100   7.207   4.459  10.670
 7969TIP3   OH248101   6.990   4.567  10.247
 7969TIP3    H148102   7.063   4.643  10.203
 7969TIP3    H248103   6.941   4.634  10.315
 7970TIP3   OH248104   7.644   4.535  10.656
 7970TIP3    H148105   7.736   4.578  10.611
 7970TIP3    H248106   7.675   4.546  10.750
 7971TIP3   OH248107   8.336   4.604  10.807
 7971TIP3    H148108   8.322   4.586  10.712
 7971TIP3    H248109   8.284   4.510  10.846
 7972TIP3   OH248110   8.530   4.578  10.403
 7972TIP3    H148111   8.436   4.645  10.405
 7972TIP3    H248112   8.484   4.476  10.437
 7973TIP3   OH248113   6.983   6.504  10.357
 7973TIP3    H148114   6.876   6.502  10.319
 7973TIP3    H248115   7.009   6.617  10.345
 7974TIP3   OH248116   7.208   4.729  10.102
 7974TIP3    H148117   7.302   4.664  10.117
 7974TIP3    H248118   7.235   4.829  10.145
 7975TIP3   OH248119   7.854   4.865  10.349
 7975TIP3    H148120   7.920   4.806  10.413
 7975TIP3    H248121   7.860   4.970  10.392
 7976TIP3   OH248122   8.028   6.652  10.162
 7976TIP3    H148123   8.144   6.676  10.147
 7976TIP3    H248124   8.006   6.595  10.078
 7977TIP3   OH248125   8.831   6.571  10.457
 7977TIP3    H148126   8.812   6.460  10.429
 7977TIP3    H248127   8.826   6.628  10.372
 7978TIP3   OH248128   7.117   4.691  11.599
 7978TIP3    H148129   7.080   4.582  11.584
 7978TIP3    H248130   7.214   4.666  11.650
 7979TIP3   OH248131   7.337   4.600  11.810
 7979TIP3    H148132   7.440   4.572  11.771
 7979TIP3    H248133   7.290   4.493  11.819
 7980TIP3   OH248134   7.244   6.654  10.114
 7980TIP3    H148135   7.169   6.679  10.184
 7980TIP3    H248136   7.280   6.547  10.138
 7981TIP3   OH248137   8.411   4.504  11.851
 7981TIP3    H148138   8.425   4.392  11.877
 7981TIP3    H248139   8.501   4.511  11.787
 7982TIP3   OH248140   8.741   6.420  11.657
 7982TIP3    H148141   8.675   6.431  11.576
 7982TIP3    H248142   8.728   6.529  11.690
 7983TIP3   OH248143   9.082   5.322  10.559
 7983TIP3    H148144   9.049   5.434  10.558
 7983TIP3    H248145   9.036   5.287  10.473
 7984TIP3   OH248146   9.091   5.862  11.331
 7984TIP3    H148147   9.032   5.858  11.246
 7984TIP3    H248148   9.090   5.752  11.363
 7985TIP3   OH248149   9.050   6.210  11.019
 7985TIP3    H148150   9.162   6.220  10.986
 7985TIP3    H248151   9.048   6.300  11.080
 7986TIP3   OH248152   9.047   4.933  10.721
 7986TIP3    H148153   9.145   4.994  10.742
 7986TIP3    H248154   9.053   4.931  10.624
 7987TIP3   OH248155   9.109   5.566  11.441
 7987TIP3    H148156   9.086   5.500  11.521
 7987TIP3    H248157   9.023   5.531  11.382
 7988TIP3   OH248158   9.163   5.808  11.756
 7988TIP3    H148159   9.120   5.705  11.783
 7988TIP3    H248160   9.078   5.856  11.701
 7989TIP3   OH248161   9.006   6.725  10.644
 7989TIP3    H148162   8.938   6.676  10.575
 7989TIP3    H248163   9.036   6.626  10.693
 7990TIP3   OH248164   9.062   6.466  10.798
 7990TIP3    H148165   9.023   6.356  10.810
 7990TIP3    H248166   9.104   6.487  10.887
 7991TIP3   OH248167   9.152   5.597  11.081
 7991TIP3    H148168   9.106   5.656  11.006
 7991TIP3    H248169   9.246   5.665  11.098
 7992TIP3   OH248170   9.058   5.108  11.699
 7992TIP3    H148171   9.172   5.102  11.673
 7992TIP3    H248172   9.022   4.997  11.697
 7993TIP3   OH248173   9.006   5.256  11.022
 7993TIP3    H148174   9.122   5.240  11.008
 7993TIP3    H248175   9.008   5.365  11.053
 7994TIP3   OH248176   9.016   4.860  10.409
 7994TIP3    H148177   8.900   4.871  10.429
 7994TIP3    H248178   9.014   4.860  10.310
 7995TIP3   OH248179   8.984   4.633  11.253
 7995TIP3    H148180   8.962   4.642  11.348
 7995TIP3    H248181   8.924   4.723  11.215
 7996TIP3   OH248182   1.462   7.981  10.671
 7996TIP3    H148183   1.436   8.087  10.703
 7996TIP3    H248184   1.378   7.967  10.604
 7997TIP3   OH248185   1.331   7.830  11.010
 7997TIP3    H148186   1.319   7.782  11.100
 7997TIP3    H248187   1.256   7.766  10.956
 7998TIP3   OH248188   0.366   7.837  11.147
 7998TIP3    H148189   0.348   7.736  11.194
 7998TIP3    H248190   0.454   7.879  11.200
 7999TIP3   OH248191   1.718   8.180  10.862
 7999TIP3    H148192   1.710   8.098  10.930
 7999TIP3    H248193   1.711   8.278  10.915
 8000TIP3   OH248194   0.444   8.354  11.044
 8000TIP3    H148195   0.445   8.250  10.994
 8000TIP3    H248196   0.551   8.390  11.017
 8001TIP3   OH248197   0.176   7.631  10.527
 8001TIP3    H148198   0.154   7.666  10.617
 8001TIP3    H248199   0.077   7.573  10.509
 8002TIP3   OH248200   0.118   7.837  10.816
 8002TIP3    H148201   0.185   7.746  10.844
 8002TIP3    H248202   0.192   7.901  10.765
 8003TIP3   OH248203   1.380   8.792  10.819
 8003TIP3    H148204   1.490   8.753  10.805
 8003TIP3    H248205   1.348   8.722  10.891
 8004TIP3   OH248206   1.129   8.180  11.053
 8004TIP3    H148207   1.165   8.088  11.003
 8004TIP3    H248208   1.224   8.204  11.106
 8005TIP3   OH248209   2.140   7.168  11.063
 8005TIP3    H148210   2.138   7.225  11.149
 8005TIP3    H248211   2.248   7.193  11.034
 8006TIP3   OH248212   1.519   7.513  11.126
 8006TIP3    H148213   1.543   7.399  11.134
 8006TIP3    H248214   1.499   7.523  11.031
 8007TIP3   OH248215   0.695   7.243  10.787
 8007TIP3    H148216   0.703   7.338  10.729
 8007TIP3    H248217   0.647   7.168  10.724
 8008TIP3   OH248218   1.567   7.278  10.657
 8008TIP3    H148219   1.636   7.223  10.724
 8008TIP3    H248220   1.644   7.355  10.621
 8009TIP3   OH248221   0.326   7.584  10.858
 8009TIP3    H148222   0.391   7.516  10.917
 8009TIP3    H248223   0.343   7.529  10.773
 8010TIP3   OH248224   0.830   7.736  10.826
 8010TIP3    H148225   0.936   7.690  10.844
 8010TIP3    H248226   0.785   7.650  10.770
 8011TIP3   OH248227   2.148   7.304  11.313
 8011TIP3    H148228   2.098   7.412  11.319
 8011TIP3    H248229   2.236   7.321  11.376
 8012TIP3   OH248230   0.557   7.144  11.200
 8012TIP3    H148231   0.518   7.204  11.122
 8012TIP3    H248232   0.487   7.188  11.269
 8013TIP3   OH248233   1.370   8.288  10.572
 8013TIP3    H148234   1.366   8.272  10.475
 8013TIP3    H248235   1.344   8.401  10.577
 8014TIP3   OH248236   0.874   8.058  11.184
 8014TIP3    H148237   0.811   8.144  11.224
 8014TIP3    H248238   0.953   8.120  11.134
 8015TIP3   OH248239   1.807   7.193  10.821
 8015TIP3    H148240   1.794   7.117  10.894
 8015TIP3    H248241   1.908   7.242  10.845
 8016TIP3   OH248242   0.492   7.370  11.008
 8016TIP3    H148243   0.562   7.450  11.054
 8016TIP3    H248244   0.565   7.334  10.936
 8017TIP3   OH248245   0.712   8.322  11.301
 8017TIP3    H148246   0.713   8.437  11.319
 8017TIP3    H248247   0.635   8.278  11.366
 8018TIP3   OH248248   0.154   8.192  10.391
 8018TIP3    H148249   0.139   8.248  10.304
 8018TIP3    H248250   0.181   8.280  10.452
 8019TIP3   OH248251   1.807   8.508  11.104
 8019TIP3    H148252   1.691   8.501  11.110
 8019TIP3    H248253   1.817   8.582  11.030
 8020TIP3   OH248254   1.828   7.079  11.185
 8020TIP3    H148255   1.739   7.098  11.121
 8020TIP3    H248256   1.919   7.123  11.135
 8021TIP3   OH248257   0.983   6.836  10.929
 8021TIP3    H148258   0.950   6.726  10.939
 8021TIP3    H248259   0.882   6.890  10.957
 8022TIP3   OH248260   1.663   8.658  10.773
 8022TIP3    H148261   1.657   8.561  10.719
 8022TIP3    H248262   1.740   8.718  10.717
 8023TIP3   OH248263   1.759   8.388  10.612
 8023TIP3    H148264   1.714   8.351  10.528
 8023TIP3    H248265   1.750   8.292  10.667
 8024TIP3   OH248266   1.934   8.256  11.440
 8024TIP3    H148267   1.957   8.170  11.376
 8024TIP3    H248268   1.958   8.348  11.383
 8025TIP3   OH248269   1.294   7.919  10.429
 8025TIP3    H148270   1.226   8.010  10.400
 8025TIP3    H248271   1.384   7.920  10.367
 8026TIP3   OH248272   1.318   7.730  10.123
 8026TIP3    H148273   1.400   7.782  10.179
 8026TIP3    H248274   1.367   7.625  10.108
 8027TIP3   OH248275   2.177   7.818  11.232
 8027TIP3    H148276   2.106   7.910  11.238
 8027TIP3    H248277   2.251   7.854  11.163
 8028TIP3   OH248278   1.714   7.870  10.523
 8028TIP3    H148279   1.631   7.914  10.583
 8028TIP3    H248280   1.794   7.831  10.588
 8029TIP3   OH248281   1.702   7.705  11.420
 8029TIP3    H148282   1.680   7.807  11.463
 8029TIP3    H248283   1.630   7.709  11.344
 8030TIP3   OH248284   0.694   7.997  10.705
 8030TIP3    H148285   0.622   7.963  10.633
 8030TIP3    H248286   0.738   7.894  10.732
 8031TIP3   OH248287   0.842   8.380  10.966
 8031TIP3    H148288   0.876   8.376  10.872
 8031TIP3    H248289   0.932   8.332  11.011
 8032TIP3   OH248290   0.734   7.802  11.070
 8032TIP3    H148291   0.772   7.813  10.977
 8032TIP3    H248292   0.787   7.895  11.113
 8033TIP3   OH248293   1.488   8.504  11.136
 8033TIP3    H148294   1.444   8.588  11.193
 8033TIP3    H248295   1.460   8.407  11.186
 8034TIP3   OH248296   0.834   8.376  11.567
 8034TIP3    H148297   0.750   8.450  11.599
 8034TIP3    H248298   0.802   8.359  11.475
 8035TIP3   OH248299   1.560   7.842  10.288
 8035TIP3    H148300   1.619   7.847  10.374
 8035TIP3    H248301   1.637   7.896  10.227
 8036TIP3   OH248302   0.518   7.915  11.413
 8036TIP3    H148303   0.528   7.979  11.495
 8036TIP3    H248304   0.408   7.879  11.419
 8037TIP3   OH248305   1.297   8.629  10.567
 8037TIP3    H148306   1.318   8.660  10.660
 8037TIP3    H248307   1.224   8.712  10.540
 8038TIP3   OH248308   0.600   8.597  11.611
 8038TIP3    H148309   0.583   8.605  11.515
 8038TIP3    H248310   0.493   8.566  11.643
 8039TIP3   OH248311   2.045   6.808  10.301
 8039TIP3    H148312   1.927   6.809  10.308
 8039TIP3    H248313   2.063   6.919  10.278
 8040TIP3   OH248314   0.504   7.847  10.501
 8040TIP3    H148315   0.468   7.927  10.435
 8040TIP3    H248316   0.486   7.748  10.453
 8041TIP3   OH248317   2.159   8.561  10.133
 8041TIP3    H148318   2.221   8.658  10.113
 8041TIP3    H248319   2.239   8.476  10.128
 8042TIP3   OH248320   0.190   8.137  11.358
 8042TIP3    H148321   0.072   8.130  11.356
 8042TIP3    H248322   0.215   8.026  11.341
 8043TIP3   OH248323   0.134   8.518  10.972
 8043TIP3    H148324   0.221   8.440  10.989
 8043TIP3    H248325   0.113   8.556  11.061
 8044TIP3   OH248326   2.230   8.568  11.616
 8044TIP3    H148327   2.207   8.454  11.624
 8044TIP3    H248328   2.122   8.611  11.637
 8045TIP3   OH248329   1.163   8.483  11.488
 8045TIP3    H148330   1.170   8.596  11.515
 8045TIP3    H248331   1.055   8.453  11.518
 8046TIP3   OH248332   1.280   9.001  10.469
 8046TIP3    H148333   1.276   8.982  10.373
 8046TIP3    H248334   1.238   9.108  10.479
 8047TIP3   OH248335   0.482   8.782  10.649
 8047TIP3    H148336   0.509   8.774  10.744
 8047TIP3    H248337   0.376   8.735  10.650
 8048TIP3   OH248338   1.585   8.884  10.208
 8048TIP3    H148339   1.643   8.808  10.149
 8048TIP3    H248340   1.595   8.827  10.294
 8049TIP3   OH248341   1.541   8.820  10.462
 8049TIP3    H148342   1.448   8.884  10.489
 8049TIP3    H248343   1.502   8.712  10.481
 8050TIP3   OH248344   1.859   7.541  11.644
 8050TIP3    H148345   1.816   7.573  11.558
 8050TIP3    H248346   1.889   7.430  11.626
 8051TIP3   OH248347   0.451   8.268  11.453
 8051TIP3    H148348   0.439   8.248  11.548
 8051TIP3    H248349   0.368   8.194  11.418
 8052TIP3   OH248350   0.710   6.955  11.025
 8052TIP3    H148351   0.605   6.962  10.982
 8052TIP3    H248352   0.686   7.009  11.109
 8053TIP3   OH248353   1.270   6.883  11.345
 8053TIP3    H148354   1.315   6.816  11.417
 8053TIP3    H248355   1.153   6.877  11.361
 8054TIP3   OH248356   1.614   7.369  11.467
 8054TIP3    H148357   1.567   7.325  11.549
 8054TIP3    H248358   1.570   7.477  11.464
 8055TIP3   OH248359   1.756   7.973  10.121
 8055TIP3    H148360   1.709   7.986  10.031
 8055TIP3    H248361   1.867   7.994  10.098
 8056TIP3   OH248362   1.223   7.225  10.127
 8056TIP3    H148363   1.166   7.178  10.205
 8056TIP3    H248364   1.166   7.171  10.055
 8057TIP3   OH248365   0.713   7.508  11.162
 8057TIP3    H148366   0.617   7.523  11.217
 8057TIP3    H248367   0.730   7.621  11.132
 8058TIP3   OH248368   0.728   7.513  10.647
 8058TIP3    H148369   0.613   7.524  10.624
 8058TIP3    H248370   0.772   7.483  10.560
 8059TIP3   OH248371   1.394   7.639  10.552
 8059TIP3    H148372   1.350   7.734  10.508
 8059TIP3    H248373   1.457   7.592  10.479
 8060TIP3   OH248374   1.250   7.632  11.670
 8060TIP3    H148375   1.194   7.540  11.710
 8060TIP3    H248376   1.346   7.637  11.724
 8061TIP3   OH248377   1.482   7.547  10.833
 8061TIP3    H148378   1.480   7.639  10.772
 8061TIP3    H248379   1.469   7.459  10.769
 8062TIP3   OH248380   0.420   7.526  11.286
 8062TIP3    H148381   0.455   7.565  11.373
 8062TIP3    H248382   0.385   7.416  11.309
 8063TIP3   OH248383   0.793   7.260  10.034
 8063TIP3    H148384   0.758   7.207  10.115
 8063TIP3    H248385   0.710   7.337  10.015
 8064TIP3   OH248386   0.160   7.262  10.712
 8064TIP3    H148387   0.185   7.189  10.786
 8064TIP3    H248388   0.145   7.193  10.635
 8065TIP3   OH248389   0.132   7.289  10.257
 8065TIP3    H148390   0.216   7.340  10.205
 8065TIP3    H248391   0.053   7.373  10.263
 8066TIP3   OH248392   1.338   7.721  11.260
 8066TIP3    H148393   1.424   7.656  11.219
 8066TIP3    H248394   1.294   7.640  11.322
 8067TIP3   OH248395   1.038   7.244  10.762
 8067TIP3    H148396   0.924   7.258  10.782
 8067TIP3    H248397   1.080   7.194  10.843
 8068TIP3   OH248398   0.425   7.460  10.609
 8068TIP3    H148399   0.340   7.496  10.548
 8068TIP3    H248400   0.404   7.345  10.613
 8069TIP3   OH248401   0.820   7.426  10.391
 8069TIP3    H148402   0.931   7.460  10.401
 8069TIP3    H248403   0.773   7.512  10.337
 8070TIP3   OH248404   1.555   7.147  11.060
 8070TIP3    H148405   1.478   7.153  11.135
 8070TIP3    H248406   1.498   7.087  10.991
 8071TIP3   OH248407   0.703   7.626  10.194
 8071TIP3    H148408   0.613   7.570  10.151
 8071TIP3    H248409   0.790   7.622  10.128
 8072TIP3   OH248410   1.872   9.030  11.696
 8072TIP3    H148411   1.894   9.070  11.606
 8072TIP3    H248412   1.976   9.055  11.740
 8073TIP3   OH248413   0.486   8.094  11.679
 8073TIP3    H148414   0.575   8.131  11.735
 8073TIP3    H248415   0.400   8.141  11.732
 8074TIP3   OH248416   1.144   7.582  10.908
 8074TIP3    H148417   1.243   7.543  10.870
 8074TIP3    H248418   1.122   7.501  10.976
 8075TIP3   OH248419   0.484   7.136  10.589
 8075TIP3    H148420   0.422   7.046  10.627
 8075TIP3    H248421   0.488   7.108  10.495
 8076TIP3   OH248422   0.998   7.352  11.170
 8076TIP3    H148423   0.901   7.418  11.159
 8076TIP3    H248424   1.066   7.426  11.220
 8077TIP3   OH248425   1.072   8.144  10.367
 8077TIP3    H148426   0.978   8.086  10.332
 8077TIP3    H248427   1.030   8.173  10.456
 8078TIP3   OH248428   1.958   8.066  11.235
 8078TIP3    H148429   2.012   8.130  11.165
 8078TIP3    H248430   1.853   8.057  11.194
 8079TIP3   OH248431   1.525   7.276  10.175
 8079TIP3    H148432   1.408   7.279  10.159
 8079TIP3    H248433   1.546   7.381  10.214
 8080TIP3   OH248434   1.181   8.154  11.474
 8080TIP3    H148435   1.206   8.117  11.562
 8080TIP3    H248436   1.186   8.270  11.485
 8081TIP3   OH248437   1.595   7.526  10.325
 8081TIP3    H148438   1.692   7.499  10.376
 8081TIP3    H248439   1.618   7.634  10.296
 8082TIP3   OH248440   0.499   8.081  10.910
 8082TIP3    H148441   0.554   8.065  10.822
 8082TIP3    H248442   0.542   7.991  10.959
 8083TIP3   OH248443   1.324   8.321  10.312
 8083TIP3    H148444   1.279   8.431  10.312
 8083TIP3    H248445   1.225   8.254  10.321
 8084TIP3   OH248446   0.209   7.813  11.414
 8084TIP3    H148447   0.209   7.801  11.512
 8084TIP3    H248448   0.094   7.798  11.398
 8085TIP3   OH248449   0.966   7.818  11.644
 8085TIP3    H148450   0.890   7.752  11.592
 8085TIP3    H248451   1.064   7.752  11.647
 8086TIP3   OH248452   1.541   8.435  11.493
 8086TIP3    H148453   1.442   8.460  11.447
 8086TIP3    H248454   1.523   8.497  11.575
 8087TIP3   OH248455   2.202   7.513  10.332
 8087TIP3    H148456   2.116   7.494  10.268
 8087TIP3    H248457   2.212   7.630  10.323
 8088TIP3   OH248458   2.213   8.226  11.577
 8088TIP3    H148459   2.106   8.239  11.537
 8088TIP3    H248460   2.278   8.209  11.496
 8089TIP3   OH248461   2.003   8.520  10.365
 8089TIP3    H148462   1.915   8.444  10.362
 8089TIP3    H248463   2.045   8.520  10.273
 8090TIP3   OH248464   1.669   7.946  11.043
 8090TIP3    H148465   1.559   7.946  11.011
 8090TIP3    H248466   1.718   7.872  10.979
 8091TIP3   OH248467   0.757   8.466  10.693
 8091TIP3    H148468   0.792   8.563  10.645
 8091TIP3    H248469   0.643   8.465  10.675
 8092TIP3   OH248470   0.268   7.842  10.110
 8092TIP3    H148471   0.341   7.919  10.152
 8092TIP3    H248472   0.174   7.848  10.167
 8093TIP3   OH248473   0.932   8.204  10.618
 8093TIP3    H148474   0.866   8.300  10.635
 8093TIP3    H248475   0.875   8.123  10.668
 8094TIP3   OH248476   0.989   8.689  11.314
 8094TIP3    H148477   1.027   8.800  11.310
 8094TIP3    H248478   1.087   8.628  11.327
 8095TIP3   OH248479   0.790   8.756  10.579
 8095TIP3    H148480   0.674   8.783  10.582
 8095TIP3    H248481   0.839   8.850  10.622
 8096TIP3   OH248482   1.373   8.201  11.237
 8096TIP3    H148483   1.313   8.153  11.311
 8096TIP3    H248484   1.448   8.114  11.220
 8097TIP3   OH248485   1.697   8.338  10.110
 8097TIP3    H148486   1.733   8.286  10.193
 8097TIP3    H248487   1.583   8.332  10.126
 8098TIP3   OH248488   1.738   8.759  11.474
 8098TIP3    H148489   1.649   8.692  11.442
 8098TIP3    H248490   1.751   8.843  11.407
 8099TIP3   OH248491   2.275   8.857  10.113
 8099TIP3    H148492   2.350   8.945  10.129
 8099TIP3    H248493   2.177   8.899  10.157
 8100TIP3   OH248494   0.346   7.248  11.406
 8100TIP3    H148495   0.300   7.295  11.488
 8100TIP3    H248496   0.312   7.138  11.416
 8101TIP3   OH248497   1.788   8.183  10.337
 8101TIP3    H148498   1.771   8.069  10.343
 8101TIP3    H248499   1.906   8.186  10.339
 8102TIP3   OH248500   0.272   8.659  11.282
 8102TIP3    H148501   0.232   8.707  11.200
 8102TIP3    H248502   0.282   8.760  11.332
 8103TIP3   OH248503   0.808   8.405  10.219
 8103TIP3    H148504   0.900   8.348  10.254
 8103TIP3    H248505   0.822   8.515  10.250
 8104TIP3   OH248506   0.420   8.054  10.300
 8104TIP3    H148507   0.326   8.107  10.341
 8104TIP3    H248508   0.478   8.144  10.260
 8105TIP3   OH248509   1.397   7.193  11.312
 8105TIP3    H148510   1.486   7.218  11.371
 8105TIP3    H248511   1.360   7.088  11.344
 8106TIP3   OH248512   1.477   7.111  10.445
 8106TIP3    H148513   1.492   7.187  10.371
 8106TIP3    H248514   1.531   7.168  10.520
 8107TIP3   OH248515   1.216   8.617  10.265
 8107TIP3    H148516   1.116   8.629  10.312
 8107TIP3    H248517   1.232   8.726  10.232
 8108TIP3   OH248518   1.133   7.366  10.520
 8108TIP3    H148519   1.210   7.452  10.533
 8108TIP3    H248520   1.099   7.338  10.611
 8109TIP3   OH248521   1.234   7.495  11.425
 8109TIP3    H148522   1.232   7.537  11.517
 8109TIP3    H248523   1.273   7.385  11.434
 8110TIP3   OH248524   1.210   6.982  10.555
 8110TIP3    H148525   1.170   7.079  10.597
 8110TIP3    H248526   1.310   7.025  10.516
 8111TIP3   OH248527   0.859   8.732  10.296
 8111TIP3    H148528   0.872   8.833  10.247
 8111TIP3    H248529   0.805   8.768  10.378
 8112TIP3   OH248530   0.678   7.133  10.308
 8112TIP3    H148531   0.694   7.237  10.351
 8112TIP3    H248532   0.786   7.087  10.317
 8113TIP3   OH248533   1.908   7.232  11.513
 8113TIP3    H148534   1.800   7.267  11.486
 8113TIP3    H248535   1.967   7.240  11.429
 8114TIP3   OH248536   1.776   7.661  10.894
 8114TIP3    H148537   1.680   7.594  10.896
 8114TIP3    H248538   1.849   7.604  10.955
 8115TIP3   OH248539   0.487   8.354  10.163
 8115TIP3    H148540   0.576   8.418  10.198
 8115TIP3    H248541   0.547   8.293  10.097
 8116TIP3   OH248542   0.388   7.520  10.123
 8116TIP3    H148543   0.361   7.631  10.148
 8116TIP3    H248544   0.288   7.498  10.072
 8117TIP3   OH248545   1.908   8.874  11.092
 8117TIP3    H148546   1.897   8.908  10.998
 8117TIP3    H248547   2.026   8.855  11.094
 8118TIP3   OH248548   0.402   6.901  10.952
 8118TIP3    H148549   0.385   6.871  10.858
 8118TIP3    H248550   0.368   6.800  10.996
 8119TIP3   OH248551   0.247   8.515  10.515
 8119TIP3    H148552   0.144   8.554  10.542
 8119TIP3    H248553   0.271   8.592  10.443
 8120TIP3   OH248554   0.170   8.884  11.658
 8120TIP3    H148555   0.266   8.875  11.713
 8120TIP3    H248556   0.104   8.797  11.691
 8121TIP3   OH248557   0.722   8.688  11.863
 8121TIP3    H148558   0.833   8.725  11.861
 8121TIP3    H248559   0.697   8.670  11.769
 8122TIP3   OH248560   1.242   8.654  19.960
 8122TIP3    H148561   1.153   8.580  19.953
 8122TIP3    H248562   1.314   8.603  20.022
 8123TIP3   OH248563   1.494   8.570  11.743
 8123TIP3    H148564   1.444   8.468  11.770
 8123TIP3    H248565   1.585   8.570  11.803
 8124TIP3   OH248566   1.706   8.653  10.062
 8124TIP3    H148567   1.752   8.546  10.074
 8124TIP3    H248568   1.787   8.712  10.008
 8125TIP3   OH248569   0.206   8.189  11.809
 8125TIP3    H148570   0.218   8.076  11.791
 8125TIP3    H248571   0.092   8.192  11.785
 8126TIP3   OH248572   0.728   8.147  10.030
 8126TIP3    H148573   0.763   8.114  10.119
 8126TIP3    H248574   0.814   8.106   9.973
 8127TIP3   OH248575   0.949   8.134  11.723
 8127TIP3    H148576   0.919   8.198  11.645
 8127TIP3    H248577   0.958   8.024  11.685
 8128TIP3   OH248578   1.633   8.098  11.475
 8128TIP3    H148579   1.736   8.156  11.474
 8128TIP3    H248580   1.564   8.191  11.482
 8129TIP3   OH248581   0.259   7.774  11.751
 8129TIP3    H148582   0.367   7.732  11.758
 8129TIP3    H248583   0.240   7.822  11.839
 8130TIP3   OH248584   0.835   7.944  10.272
 8130TIP3    H148585   0.752   7.879  10.315
 8130TIP3    H248586   0.880   7.867  10.208
 8131TIP3   OH248587   0.749   7.686  11.461
 8131TIP3    H148588   0.671   7.770  11.441
 8131TIP3    H248589   0.832   7.714  11.395
 8132TIP3   OH248590   0.986   7.736  10.067
 8132TIP3    H148591   1.014   7.684   9.983
 8132TIP3    H248592   1.093   7.738  10.109
 8133TIP3   OH248593   1.373   7.986  11.802
 8133TIP3    H148594   1.466   7.936  11.762
 8133TIP3    H248595   1.332   7.898  11.859
 8134TIP3   OH248596   2.026   7.956  19.987
 8134TIP3    H148597   2.095   7.921  19.915
 8134TIP3    H248598   2.054   8.071  19.987
 8135TIP3   OH248599   0.802   7.382  11.536
 8135TIP3    H148600   0.826   7.312  11.460
 8135TIP3    H248601   0.794   7.489  11.494
 8136TIP3   OH248602   0.847   7.166  11.334
 8136TIP3    H148603   0.922   7.212  11.268
 8136TIP3    H248604   0.748   7.175  11.282
 8137TIP3   OH248605   0.998   7.793  11.311
 8137TIP3    H148606   1.115   7.796  11.306
 8137TIP3    H248607   0.966   7.898  11.278
 8138TIP3   OH248608   1.602   7.518  11.830
 8138TIP3    H148609   1.619   7.406  11.809
 8138TIP3    H248610   1.709   7.560  11.808
 8139TIP3   OH248611   1.728   7.907  11.694
 8139TIP3    H148612   1.696   7.970  11.616
 8139TIP3    H248613   1.837   7.873  11.670
 8140TIP3   OH248614   0.583   7.513  11.752
 8140TIP3    H148615   0.499   7.433  11.756
 8140TIP3    H248616   0.641   7.481  11.672
 8141TIP3   OH248617   0.941   6.859  11.347
 8141TIP3    H148618   0.899   6.970  11.349
 8141TIP3    H248619   0.848   6.800  11.314
 8142TIP3   OH248620   1.079   7.369  11.743
 8142TIP3    H148621   1.004   7.328  11.811
 8142TIP3    H248622   1.012   7.360  11.664
 8143TIP3   OH248623   1.404   7.261  11.662
 8143TIP3    H148624   1.290   7.261  11.683
 8143TIP3    H248625   1.446   7.200  11.738
 8144TIP3   OH248626   1.592   7.090  11.837
 8144TIP3    H148627   1.584   6.973  11.832
 8144TIP3    H248628   1.576   7.114  11.932
 8145TIP3   OH248629   0.367   7.271  11.762
 8145TIP3    H148630   0.410   7.177  11.717
 8145TIP3    H248631   0.335   7.223  11.849
 8146TIP3   OH248632   0.938   6.822  11.631
 8146TIP3    H148633   1.032   6.752  11.630
 8146TIP3    H248634   0.925   6.834  11.534
 8147TIP3   OH248635   0.940   6.937  11.886
 8147TIP3    H148636   0.931   6.894  11.794
 8147TIP3    H248637   0.893   7.044  11.876
 8148TIP3   OH248638   0.935   9.006  10.155
 8148TIP3    H148639   1.037   9.024  10.198
 8148TIP3    H248640   0.962   9.017  10.060
 8149TIP3   OH248641   0.169   8.320  10.144
 8149TIP3    H148642   0.284   8.344  10.162
 8149TIP3    H248643   0.179   8.276  10.055
 8150TIP3   OH248644   0.062   9.000  10.520
 8150TIP3    H148645  -0.054   9.017  10.520
 8150TIP3    H248646   0.067   8.935  10.600
 8151TIP3   OH248647   0.190   8.768  10.758
 8151TIP3    H148648   0.168   8.654  10.752
 8151TIP3    H248649   0.192   8.785  10.853
 8152TIP3   OH248650   2.234   8.875  11.080
 8152TIP3    H148651   2.255   8.934  11.163
 8152TIP3    H248652   2.317   8.920  11.023
 8153TIP3   OH248653   2.164   8.776  11.406
 8153TIP3    H148654   2.128   8.696  11.341
 8153TIP3    H248655   2.212   8.704  11.472
 8154TIP3   OH248656   1.994   8.318  11.852
 8154TIP3    H148657   1.894   8.315  11.904
 8154TIP3    H248658   2.038   8.423  11.883
 8155TIP3   OH248659   2.105   8.122  10.357
 8155TIP3    H148660   2.210   8.167  10.376
 8155TIP3    H248661   2.084   8.060  10.438
 8156TIP3   OH248662   2.165   7.882  10.607
 8156TIP3    H148663   2.071   7.812  10.623
 8156TIP3    H248664   2.195   7.912  10.698
 8157TIP3   OH248665   2.138   8.195  11.048
 8157TIP3    H148666   2.208   8.099  11.045
 8157TIP3    H248667   2.212   8.279  11.019
 8158TIP3   OH248668   1.992   8.530  11.310
 8158TIP3    H148669   1.907   8.588  11.354
 8158TIP3    H248670   1.942   8.512  11.222
 8159TIP3   OH248671   2.232   7.866  10.204
 8159TIP3    H148672   2.154   7.897  10.136
 8159TIP3    H248673   2.225   7.960  10.263
 8160TIP3   OH248674   1.952   7.490  10.141
 8160TIP3    H148675   1.921   7.589  10.094
 8160TIP3    H248676   2.018   7.440  10.072
 8161TIP3   OH248677   1.931   7.687  10.661
 8161TIP3    H148678   1.904   7.578  10.637
 8161TIP3    H248679   1.897   7.691  10.755
 8162TIP3   OH248680   0.185   8.056  11.015
 8162TIP3    H148681   0.185   7.982  10.938
 8162TIP3    H248682   0.274   8.009  11.066
 8163TIP3   OH248683   2.048   7.922  11.599
 8163TIP3    H148684   2.102   7.817  11.603
 8163TIP3    H248685   2.136   7.998  11.596
 8164TIP3   OH248686   2.182   7.622  11.625
 8164TIP3    H148687   2.075   7.589  11.654
 8164TIP3    H248688   2.248   7.584  11.700
 8165TIP3   OH248689   1.940   7.212   9.965
 8165TIP3    H148690   2.009   7.163  10.032
 8165TIP3    H248691   1.835   7.195  10.002
 8166TIP3   OH248692   1.843   7.422  10.479
 8166TIP3    H148693   1.883   7.318  10.509
 8166TIP3    H248694   1.936   7.453  10.427
 8167TIP3   OH248695   1.981   7.494  11.059
 8167TIP3    H148696   2.100   7.506  11.059
 8167TIP3    H248697   1.964   7.502  11.155
 8168TIP3   OH248698   1.974   7.573  11.319
 8168TIP3    H148699   1.862   7.607  11.334
 8168TIP3    H248700   2.026   7.679  11.310
 8169TIP3   OH248701   0.138   7.344  11.592
 8169TIP3    H148702   0.218   7.380  11.656
 8169TIP3    H248703   0.126   7.232  11.618
 8170TIP3   OH248704   2.278   6.860  11.857
 8170TIP3    H148705   2.314   6.776  11.796
 8170TIP3    H248706   2.255   6.944  11.790
 8171TIP3   OH248707   1.987   7.126  10.501
 8171TIP3    H148708   2.023   7.074  10.584
 8171TIP3    H248709   1.914   7.042  10.470
 8172TIP3   OH248710   0.212   7.163  10.986
 8172TIP3    H148711   0.287   7.072  10.997
 8172TIP3    H248712   0.278   7.256  11.003
 8173TIP3   OH248713   0.085   7.536  11.049
 8173TIP3    H148714   0.173   7.535  10.984
 8173TIP3    H248715   0.115   7.624  11.107
 8174TIP3   OH248716   2.153   7.076  11.695
 8174TIP3    H148717   2.082   7.151  11.742
 8174TIP3    H248718   2.110   7.084  11.605
 8175TIP3   OH248719   2.195   7.109  10.148
 8175TIP3    H148720   2.251   7.058  10.074
 8175TIP3    H248721   2.276   7.186  10.177
 8176TIP3   OH248722   0.116   7.088  10.460
 8176TIP3    H148723   0.000   7.080  10.462
 8176TIP3    H248724   0.128   7.150  10.376
 8177TIP3   OH248725   1.823   8.868  10.625
 8177TIP3    H148726   1.926   8.860  10.579
 8177TIP3    H248727   1.852   8.930  10.704
 8178TIP3   OH248728   0.078   6.894  11.304
 8178TIP3    H148729  -0.028   6.880  11.342
 8178TIP3    H248730   0.053   6.966  11.230
 8179TIP3   OH248731   0.311   8.504  11.701
 8179TIP3    H148732   0.210   8.512  11.655
 8179TIP3    H248733   0.280   8.531  11.792
 8180TIP3   OH248734   0.666   8.629  11.343
 8180TIP3    H148735   0.638   8.735  11.304
 8180TIP3    H248736   0.782   8.648  11.353
 8181TIP3   OH248737   1.204   8.782  11.601
 8181TIP3    H148738   1.189   8.749  11.693
 8181TIP3    H248739   1.306   8.839  11.603
 8182TIP3   OH248740   1.489   8.994  11.561
 8182TIP3    H148741   1.568   8.917  11.531
 8182TIP3    H248742   1.525   9.007  11.654
 8183TIP3   OH248743   2.056   6.848  11.468
 8183TIP3    H148744   1.974   6.900  11.414
 8183TIP3    H248745   2.071   6.746  11.422
 8184TIP3   OH248746   0.334   8.978  11.328
 8184TIP3    H148747   0.251   9.042  11.277
 8184TIP3    H248748   0.313   9.024  11.415
 8185TIP3   OH248749   0.640   8.915  11.238
 8185TIP3    H148750   0.540   8.965  11.271
 8185TIP3    H248751   0.664   8.978  11.158
 8186TIP3   OH248752   1.232   8.935  11.167
 8186TIP3    H148753   1.142   8.956  11.105
 8186TIP3    H248754   1.241   9.040  11.208
 8187TIP3   OH248755   1.452   8.766  11.308
 8187TIP3    H148756   1.363   8.824  11.264
 8187TIP3    H248757   1.541   8.831  11.276
 8188TIP3   OH248758   1.757   9.029  11.281
 8188TIP3    H148759   1.717   9.133  11.253
 8188TIP3    H248760   1.798   8.983  11.196
 8189TIP3   OH248761   0.326   8.836  11.059
 8189TIP3    H148762   0.392   8.869  11.134
 8189TIP3    H248763   0.410   8.800  10.996
 8190TIP3   OH248764   0.560   8.723  10.897
 8190TIP3    H148765   0.593   8.614  10.876
 8190TIP3    H248766   0.653   8.752  10.954
 8191TIP3   OH248767   0.829   8.712  11.036
 8191TIP3    H148768   0.887   8.618  11.001
 8191TIP3    H248769   0.866   8.713  11.128
 8192TIP3   OH248770   1.261   7.012  10.903
 8192TIP3    H148771   1.165   6.966  10.945
 8192TIP3    H248772   1.273   6.942  10.827
 8193TIP3   OH248773   1.900   6.800  10.885
 8193TIP3    H148774   1.979   6.868  10.837
 8193TIP3    H248775   1.800   6.824  10.835
 8194TIP3   OH248776   2.101   6.938  10.706
 8194TIP3    H148777   2.178   6.869  10.658
 8194TIP3    H248778   2.172   7.028  10.733
 8195TIP3   OH248779   0.402   6.839  10.673
 8195TIP3    H148780   0.300   6.823  10.627
 8195TIP3    H248781   0.457   6.737  10.655
 8196TIP3   OH248782   0.168   6.864  10.213
 8196TIP3    H148783   0.238   6.937  10.163
 8196TIP3    H248784   0.148   6.930  10.290
 8197TIP3   OH248785   0.890   6.782  10.669
 8197TIP3    H148786   0.958   6.859  10.625
 8197TIP3    H248787   0.905   6.812  10.763
 8198TIP3   OH248788   1.600   6.841  10.771
 8198TIP3    H148789   1.531   6.846  10.693
 8198TIP3    H248790   1.541   6.763  10.827
 8199TIP3   OH248791   1.754   6.839  10.392
 8199TIP3    H148792   1.675   6.920  10.375
 8199TIP3    H248793   1.702   6.762  10.451
 8200TIP3   OH248794   0.235   8.760  10.342
 8200TIP3    H148795   0.125   8.734  10.320
 8200TIP3    H248796   0.228   8.876  10.333
 8201TIP3   OH248797   0.416   7.036  10.116
 8201TIP3    H148798   0.485   6.971  10.061
 8201TIP3    H248799   0.493   7.070  10.183
 8202TIP3   OH248800   1.049   7.102  10.335
 8202TIP3    H148801   1.092   7.028  10.402
 8202TIP3    H248802   1.055   7.202  10.385
 8203TIP3   OH248803   1.278   8.916  10.174
 8203TIP3    H148804   1.396   8.921  10.185
 8203TIP3    H248805   1.271   8.866  10.086
 8204TIP3   OH248806   2.064   8.820  10.472
 8204TIP3    H148807   2.036   8.716  10.433
 8204TIP3    H248808   2.052   8.892  10.395
 8205TIP3   OH248809   0.294   6.934  11.620
 8205TIP3    H148810   0.240   6.829  11.634
 8205TIP3    H248811   0.397   6.912  11.662
 8206TIP3   OH248812   0.588   6.862  11.822
 8206TIP3    H148813   0.700   6.852  11.793
 8206TIP3    H248814   0.570   6.751  11.849
 8207TIP3   OH248815   0.504   8.952  10.080
 8207TIP3    H148816   0.433   8.972  10.156
 8207TIP3    H248817   0.547   8.851  10.108
 8208TIP3   OH248818   1.583   6.767  11.795
 8208TIP3    H148819   1.596   6.698  11.875
 8208TIP3    H248820   1.694   6.763  11.765
 8209TIP3   OH248821   1.939   8.692  11.674
 8209TIP3    H148822   1.844   8.700  11.616
 8209TIP3    H248823   1.957   8.806  11.691
 8210TIP3   OH248824   3.716   7.967  10.669
 8210TIP3    H148825   3.698   8.072  10.707
 8210TIP3    H248826   3.634   7.966  10.600
 8211TIP3   OH248827   3.576   7.855  11.008
 8211TIP3    H148828   3.578   7.800  11.095
 8211TIP3    H248829   3.500   7.792  10.956
 8212TIP3   OH248830   2.617   7.810  11.153
 8212TIP3    H148831   2.634   7.723  11.217
 8212TIP3    H248832   2.689   7.891  11.188
 8213TIP3   OH248833   3.973   8.168  10.874
 8213TIP3    H148834   3.953   8.092  10.948
 8213TIP3    H248835   3.976   8.270  10.920
 8214TIP3   OH248836   2.755   8.390  10.995
 8214TIP3    H148837   2.717   8.282  10.970
 8214TIP3    H248838   2.869   8.369  10.984
 8215TIP3   OH248839   2.362   7.586  10.562
 8215TIP3    H148840   2.316   7.692  10.580
 8215TIP3    H248841   2.293   7.547  10.491
 8216TIP3   OH248842   2.418   7.861  10.811
 8216TIP3    H148843   2.466   7.753  10.822
 8216TIP3    H248844   2.488   7.912  10.745
 8217TIP3   OH248845   3.643   8.807  10.831
 8217TIP3    H148846   3.749   8.760  10.813
 8217TIP3    H248847   3.611   8.747  10.909
 8218TIP3   OH248848   3.368   8.197  11.068
 8218TIP3    H148849   3.400   8.114  11.005
 8218TIP3    H248850   3.468   8.210  11.119
 8219TIP3   OH248851   4.391   7.145  11.101
 8219TIP3    H148852   4.397   7.213  11.181
 8219TIP3    H248853   4.496   7.169  11.065
 8220TIP3   OH248854   3.791   7.501  11.122
 8220TIP3    H148855   3.812   7.386  11.117
 8220TIP3    H248856   3.750   7.518  11.032
 8221TIP3   OH248857   2.932   7.235  10.780
 8221TIP3    H148858   2.952   7.331  10.724
 8221TIP3    H248859   2.886   7.164  10.713
 8222TIP3   OH248860   3.852   7.264  10.640
 8222TIP3    H148861   3.910   7.240  10.724
 8222TIP3    H248862   3.911   7.357  10.606
 8223TIP3   OH248863   2.528   7.568  10.872
 8223TIP3    H148864   2.603   7.502  10.924
 8223TIP3    H248865   2.549   7.526  10.783
 8224TIP3   OH248866   3.108   7.750  10.830
 8224TIP3    H148867   3.208   7.700  10.864
 8224TIP3    H248868   3.085   7.674  10.758
 8225TIP3   OH248869   4.415   7.312  11.337
 8225TIP3    H148870   4.376   7.415  11.301
 8225TIP3    H248871   4.429   7.342  11.430
 8226TIP3   OH248872   2.843   7.135  11.200
 8226TIP3    H148873   2.791   7.198  11.130
 8226TIP3    H248874   2.758   7.139  11.267
 8227TIP3   OH248875   3.638   8.284  10.562
 8227TIP3    H148876   3.635   8.274  10.465
 8227TIP3    H248877   3.616   8.398  10.573
 8228TIP3   OH248878   3.083   8.065  11.186
 8228TIP3    H148879   3.019   8.154  11.222
 8228TIP3    H248880   3.166   8.123  11.136
 8229TIP3   OH248881   4.046   7.220  10.857
 8229TIP3    H148882   4.042   7.124  10.911
 8229TIP3    H248883   4.156   7.254  10.870
 8230TIP3   OH248884   2.754   7.366  10.996
 8230TIP3    H148885   2.830   7.445  11.034
 8230TIP3    H248886   2.815   7.325  10.918
 8231TIP3   OH248887   2.926   8.327  11.301
 8231TIP3    H148888   2.914   8.438  11.275
 8231TIP3    H248889   2.820   8.304  11.341
 8232TIP3   OH248890   2.426   8.233  10.384
 8232TIP3    H148891   2.424   8.298  10.301
 8232TIP3    H248892   2.438   8.316  10.452
 8233TIP3   OH248893   4.069   8.513  11.108
 8233TIP3    H148894   3.953   8.503  11.112
 8233TIP3    H248895   4.079   8.579  11.029
 8234TIP3   OH248896   4.055   7.086  11.191
 8234TIP3    H148897   3.960   7.135  11.149
 8234TIP3    H248898   4.144   7.120  11.134
 8235TIP3   OH248899   3.229   6.827  10.956
 8235TIP3    H148900   3.197   6.719  10.938
 8235TIP3    H248901   3.122   6.877  10.970
 8236TIP3   OH248902   3.912   8.653  10.763
 8236TIP3    H148903   3.916   8.561  10.702
 8236TIP3    H248904   3.991   8.720  10.716
 8237TIP3   OH248905   4.016   8.401  10.605
 8237TIP3    H148906   3.978   8.353  10.522
 8237TIP3    H248907   4.008   8.310  10.665
 8238TIP3   OH248908   4.193   8.252  11.453
 8238TIP3    H148909   4.212   8.165  11.389
 8238TIP3    H248910   4.207   8.344  11.392
 8239TIP3   OH248911   3.547   7.908  10.412
 8239TIP3    H148912   3.476   7.996  10.384
 8239TIP3    H248913   3.641   7.916  10.353
 8240TIP3   OH248914   3.602   7.702  10.119
 8240TIP3    H148915   3.694   7.753  10.166
 8240TIP3    H248916   3.658   7.606  10.083
 8241TIP3   OH248917   4.439   7.829  11.230
 8241TIP3    H148918   4.368   7.920  11.243
 8241TIP3    H248919   4.505   7.872  11.158
 8242TIP3   OH248920   3.978   7.885  10.520
 8242TIP3    H148921   3.893   7.927  10.579
 8242TIP3    H248922   4.051   7.835  10.586
 8243TIP3   OH248923   3.984   7.687  11.425
 8243TIP3    H148924   3.960   7.786  11.474
 8243TIP3    H248925   3.913   7.702  11.347
 8244TIP3   OH248926   2.946   7.988  10.702
 8244TIP3    H148927   2.918   7.939  10.615
 8244TIP3    H248928   3.012   7.904  10.742
 8245TIP3   OH248929   3.106   8.374  10.956
 8245TIP3    H148930   3.121   8.358  10.861
 8245TIP3    H248931   3.204   8.328  10.995
 8246TIP3   OH248932   2.951   7.822  11.069
 8246TIP3    H148933   3.005   7.812  10.982
 8246TIP3    H248934   3.012   7.909  11.112
 8247TIP3   OH248935   3.739   8.506  11.129
 8247TIP3    H148936   3.697   8.588  11.188
 8247TIP3    H248937   3.703   8.407  11.175
 8248TIP3   OH248938   3.103   8.364  11.532
 8248TIP3    H148939   3.026   8.443  11.569
 8248TIP3    H248940   3.055   8.346  11.443
 8249TIP3   OH248941   3.823   7.840  10.283
 8249TIP3    H148942   3.874   7.846  10.372
 8249TIP3    H248943   3.901   7.898  10.226
 8250TIP3   OH248944   2.742   7.892  11.425
 8250TIP3    H148945   2.752   8.002  11.457
 8250TIP3    H248946   2.672   7.852  11.496
 8251TIP3   OH248947   3.562   8.640  10.564
 8251TIP3    H148948   3.592   8.647  10.657
 8251TIP3    H248949   3.472   8.714  10.559
 8252TIP3   OH248950   2.881   8.597  11.603
 8252TIP3    H148951   2.861   8.612  11.507
 8252TIP3    H248952   2.776   8.560  11.635
 8253TIP3   OH248953   4.304   6.804  10.300
 8253TIP3    H148954   4.190   6.810  10.328
 8253TIP3    H248955   4.324   6.917  10.282
 8254TIP3   OH248956   2.824   7.838  10.467
 8254TIP3    H148957   2.768   7.930  10.426
 8254TIP3    H248958   2.770   7.750  10.425
 8255TIP3   OH248959   4.421   8.564  10.127
 8255TIP3    H148960   4.484   8.662  10.115
 8255TIP3    H248961   4.502   8.478  10.125
 8256TIP3   OH248962   2.393   8.168  11.352
 8256TIP3    H148963   2.330   8.168  11.271
 8256TIP3    H248964   2.431   8.056  11.355
 8257TIP3   OH248965   2.360   8.452  11.007
 8257TIP3    H148966   2.476   8.436  11.010
 8257TIP3    H248967   2.345   8.548  11.059
 8258TIP3   OH248968   4.495   8.575  11.633
 8258TIP3    H148969   4.472   8.461  11.628
 8258TIP3    H248970   4.388   8.612  11.664
 8259TIP3   OH248971   3.418   8.492  11.469
 8259TIP3    H148972   3.430   8.594  11.517
 8259TIP3    H248973   3.311   8.455  11.495
 8260TIP3   OH248974   3.530   8.989  10.460
 8260TIP3    H148975   3.533   8.984  10.363
 8260TIP3    H248976   3.492   9.096  10.478
 8261TIP3   OH248977   2.732   8.768  10.661
 8261TIP3    H148978   2.779   8.783  10.751
 8261TIP3    H248979   2.652   8.687  10.684
 8262TIP3   OH248980   3.844   8.898  10.199
 8262TIP3    H148981   3.900   8.820  10.142
 8262TIP3    H248982   3.848   8.842  10.286
 8263TIP3   OH248983   3.805   8.826  10.450
 8263TIP3    H148984   3.704   8.870  10.484
 8263TIP3    H248985   3.810   8.724  10.496
 8264TIP3   OH248986   4.138   7.524  11.643
 8264TIP3    H148987   4.082   7.584  11.572
 8264TIP3    H248988   4.145   7.416  11.604
 8265TIP3   OH248989   2.654   8.299  11.443
 8265TIP3    H148990   2.650   8.251  11.534
 8265TIP3    H248991   2.549   8.268  11.408
 8266TIP3   OH248992   2.950   6.940  11.011
 8266TIP3    H148993   2.839   6.922  10.982
 8266TIP3    H248994   2.933   7.013  11.086
 8267TIP3   OH248995   3.542   6.866  11.348
 8267TIP3    H148996   3.595   6.833  11.432
 8267TIP3    H248997   3.430   6.862  11.375
 8268TIP3   OH248998   3.857   7.385  11.460
 8268TIP3    H148999   3.841   7.355  11.554
 8268TIP3    H249000   3.918   7.486  11.465
 8269TIP3   OH249001   4.014   7.976  10.117
 8269TIP3    H149002   3.970   7.980  10.025
 8269TIP3    H249003   4.127   7.994  10.093
 8270TIP3   OH249004   3.457   7.249  10.123
 8270TIP3    H149005   3.408   7.196  10.198
 8270TIP3    H249006   3.422   7.178  10.053
 8271TIP3   OH249007   2.965   7.524  11.161
 8271TIP3    H149008   2.869   7.523  11.218
 8271TIP3    H249009   2.958   7.633  11.125
 8272TIP3   OH249010   2.965   7.484  10.615
 8272TIP3    H149011   2.851   7.507  10.605
 8272TIP3    H249012   3.004   7.465  10.522
 8273TIP3   OH249013   3.661   7.638  10.550
 8273TIP3    H149014   3.617   7.734  10.505
 8273TIP3    H249015   3.724   7.592  10.476
 8274TIP3   OH249016   3.504   7.621  11.662
 8274TIP3    H149017   3.452   7.537  11.713
 8274TIP3    H249018   3.595   7.646  11.720
 8275TIP3   OH249019   3.752   7.553  10.820
 8275TIP3    H149020   3.745   7.655  10.772
 8275TIP3    H249021   3.738   7.482  10.744
 8276TIP3   OH249022   2.688   7.524  11.289
 8276TIP3    H149023   2.718   7.562  11.377
 8276TIP3    H249024   2.650   7.415  11.308
 8277TIP3   OH249025   3.071   7.199  10.022
 8277TIP3    H149026   3.029   7.202  10.114
 8277TIP3    H249027   3.006   7.276   9.974
 8278TIP3   OH249028   2.293   7.192  10.739
 8278TIP3    H149029   2.370   7.206  10.812
 8278TIP3    H249030   2.354   7.206  10.658
 8279TIP3   OH249031   2.434   7.285  10.264
 8279TIP3    H149032   2.525   7.348  10.229
 8279TIP3    H249033   2.362   7.374  10.286
 8280TIP3   OH249034   3.629   7.726  11.251
 8280TIP3    H149035   3.708   7.652  11.210
 8280TIP3    H249036   3.566   7.657  11.311
 8281TIP3   OH249037   3.316   7.262  10.746
 8281TIP3    H149038   3.202   7.253  10.761
 8281TIP3    H249039   3.362   7.190  10.814
 8282TIP3   OH249040   2.638   7.454  10.630
 8282TIP3    H149041   2.542   7.489  10.582
 8282TIP3    H249042   2.656   7.345  10.601
 8283TIP3   OH249043   3.120   7.442  10.380
 8283TIP3    H149044   3.226   7.484  10.392
 8283TIP3    H249045   3.065   7.523  10.324
 8284TIP3   OH249046   3.786   7.180  11.072
 8284TIP3    H149047   3.709   7.135  11.134
 8284TIP3    H249048   3.746   7.146  10.985
 8285TIP3   OH249049   2.928   7.600  10.197
 8285TIP3    H149050   2.840   7.558  10.145
 8285TIP3    H249051   3.000   7.639  10.128
 8286TIP3   OH249052   4.105   9.071  11.701
 8286TIP3    H149053   4.139   9.083  11.608
 8286TIP3    H249054   4.213   9.058  11.742
 8287TIP3   OH249055   2.678   8.106  11.671
 8287TIP3    H149056   2.762   8.147  11.730
 8287TIP3    H249057   2.587   8.099  11.732
 8288TIP3   OH249058   3.388   7.600  10.920
 8288TIP3    H149059   3.478   7.560  10.867
 8288TIP3    H249060   3.378   7.514  10.984
 8289TIP3   OH249061   2.771   7.090  10.570
 8289TIP3    H149062   2.692   7.028  10.622
 8289TIP3    H249063   2.820   7.002  10.523
 8290TIP3   OH249064   3.223   7.351  11.173
 8290TIP3    H149065   3.125   7.415  11.152
 8290TIP3    H249066   3.299   7.435  11.196
 8291TIP3   OH249067   3.332   8.155  10.370
 8291TIP3    H149068   3.247   8.086  10.335
 8291TIP3    H249069   3.288   8.176  10.460
 8292TIP3   OH249070   4.208   8.062  11.247
 8292TIP3    H149071   4.270   8.123  11.179
 8292TIP3    H249072   4.104   8.059  11.204
 8293TIP3   OH249073   3.764   7.271  10.180
 8293TIP3    H149074   3.648   7.282  10.167
 8293TIP3    H249075   3.791   7.378  10.216
 8294TIP3   OH249076   3.454   8.168  11.478
 8294TIP3    H149077   3.455   8.130  11.569
 8294TIP3    H249078   3.456   8.285  11.490
 8295TIP3   OH249079   3.862   7.523  10.336
 8295TIP3    H149080   3.966   7.493  10.376
 8295TIP3    H249081   3.886   7.628  10.298
 8296TIP3   OH249082   2.755   8.083  10.908
 8296TIP3    H149083   2.820   8.070  10.827
 8296TIP3    H249084   2.779   7.987  10.959
 8297TIP3   OH249085   3.594   8.327  10.289
 8297TIP3    H149086   3.546   8.435  10.290
 8297TIP3    H249087   3.500   8.256  10.299
 8298TIP3   OH249088   2.389   7.860  11.445
 8298TIP3    H149089   2.389   7.798  11.527
 8298TIP3    H249090   2.317   7.796  11.389
 8299TIP3   OH249091   3.203   7.801  11.642
 8299TIP3    H149092   3.139   7.728  11.588
 8299TIP3    H249093   3.308   7.753  11.639
 8300TIP3   OH249094   3.806   8.455  11.496
 8300TIP3    H149095   3.719   8.472  11.436
 8300TIP3    H249096   3.766   8.514  11.574
 8301TIP3   OH249097   4.465   7.518  10.326
 8301TIP3    H149098   4.373   7.500  10.267
 8301TIP3    H249099   4.478   7.633  10.314
 8302TIP3   OH249100   4.475   8.231  11.587
 8302TIP3    H149101   4.363   8.248  11.557
 8302TIP3    H249102   4.531   8.222  11.501
 8303TIP3   OH249103   4.264   8.533  10.362
 8303TIP3    H149104   4.172   8.464  10.364
 8303TIP3    H249105   4.302   8.526  10.270
 8304TIP3   OH249106   3.910   7.938  11.055
 8304TIP3    H149107   3.800   7.926  11.021
 8304TIP3    H249108   3.966   7.860  10.998
 8305TIP3   OH249109   3.016   8.467  10.676
 8305TIP3    H149110   3.054   8.575  10.652
 8305TIP3    H249111   2.920   8.462  10.623
 8306TIP3   OH249112   2.540   7.847  10.082
 8306TIP3    H149113   2.604   7.913  10.144
 8306TIP3    H249114   2.436   7.850  10.126
 8307TIP3   OH249115   3.196   8.200  10.617
 8307TIP3    H149116   3.140   8.303  10.633
 8307TIP3    H249117   3.131   8.129  10.672
 8308TIP3   OH249118   3.250   8.688  11.300
 8308TIP3    H149119   3.307   8.788  11.281
 8308TIP3    H249120   3.335   8.623  11.340
 8309TIP3   OH249121   3.041   8.768  10.568
 8309TIP3    H149122   2.927   8.788  10.589
 8309TIP3    H249123   3.094   8.863  10.607
 8310TIP3   OH249124   3.629   8.204  11.229
 8310TIP3    H149125   3.569   8.176  11.311
 8310TIP3    H249126   3.684   8.104  11.209
 8311TIP3   OH249127   3.959   8.351  10.130
 8311TIP3    H149128   3.978   8.292  10.213
 8311TIP3    H249129   3.842   8.348  10.130
 8312TIP3   OH249130   3.997   8.766  11.480
 8312TIP3    H149131   3.902   8.702  11.456
 8312TIP3    H249132   4.008   8.839  11.404
 8313TIP3   OH249133   4.536   8.866  10.118
 8313TIP3    H149134   4.614   8.947  10.141
 8313TIP3    H249135   4.438   8.914  10.156
 8314TIP3   OH249136   2.587   7.204  11.391
 8314TIP3    H149137   2.519   7.264  11.453
 8314TIP3    H249138   2.605   7.111  11.448
 8315TIP3   OH249139   4.049   8.182  10.342
 8315TIP3    H149140   4.034   8.068  10.352
 8315TIP3    H249141   4.166   8.185  10.339
 8316TIP3   OH249142   2.552   8.623  11.263
 8316TIP3    H149143   2.611   8.524  11.260
 8316TIP3    H249144   2.617   8.683  11.327
 8317TIP3   OH249145   3.078   8.411  10.228
 8317TIP3    H149146   3.172   8.356  10.263
 8317TIP3    H249147   3.095   8.521  10.259
 8318TIP3   OH249148   2.670   8.058  10.275
 8318TIP3    H149149   2.582   8.117  10.320
 8318TIP3    H249150   2.732   8.148  10.239
 8319TIP3   OH249151   3.613   7.199  11.335
 8319TIP3    H149152   3.722   7.224  11.367
 8319TIP3    H249153   3.606   7.084  11.346
 8320TIP3   OH249154   3.752   7.084  10.437
 8320TIP3    H149155   3.758   7.177  10.378
 8320TIP3    H249156   3.793   7.130  10.521
 8321TIP3   OH249157   3.463   8.622  10.267
 8321TIP3    H149158   3.371   8.642  10.322
 8321TIP3    H249159   3.485   8.730  10.234
 8322TIP3   OH249160   3.433   7.342  10.495
 8322TIP3    H149161   3.488   7.445  10.501
 8322TIP3    H249162   3.382   7.331  10.582
 8323TIP3   OH249163   3.491   7.500  11.408
 8323TIP3    H149164   3.514   7.558  11.492
 8323TIP3    H249165   3.583   7.427  11.399
 8324TIP3   OH249166   3.476   6.980  10.563
 8324TIP3    H149167   3.438   7.067  10.620
 8324TIP3    H249168   3.574   7.033  10.525
 8325TIP3   OH249169   3.115   8.724  10.302
 8325TIP3    H149170   3.138   8.826  10.256
 8325TIP3    H249171   3.068   8.761  10.387
 8326TIP3   OH249172   2.974   7.165  10.280
 8326TIP3    H149173   2.976   7.265  10.332
 8326TIP3    H249174   3.072   7.115  10.310
 8327TIP3   OH249175   4.156   7.246  11.501
 8327TIP3    H149176   4.044   7.235  11.473
 8327TIP3    H249177   4.214   7.242  11.416
 8328TIP3   OH249178   4.040   7.684  10.906
 8328TIP3    H149179   3.948   7.614  10.896
 8328TIP3    H249180   4.120   7.614  10.951
 8329TIP3   OH249181   2.749   8.364  10.166
 8329TIP3    H149182   2.838   8.428  10.200
 8329TIP3    H249183   2.784   8.346  10.074
 8330TIP3   OH249184   2.569   7.513  10.114
 8330TIP3    H149185   2.579   7.630  10.109
 8330TIP3    H249186   2.485   7.492  10.049
 8331TIP3   OH249187   4.182   8.882  11.099
 8331TIP3    H149188   4.163   8.910  11.005
 8331TIP3    H249189   4.300   8.864  11.091
 8332TIP3   OH249190   2.635   6.884  10.977
 8332TIP3    H149191   2.628   6.876  10.879
 8332TIP3    H249192   2.600   6.776  11.004
 8333TIP3   OH249193   2.490   8.513  10.542
 8333TIP3    H149194   2.393   8.574  10.541
 8333TIP3    H249195   2.546   8.574  10.474
 8334TIP3   OH249196   2.429   8.896  11.708
 8334TIP3    H149197   2.534   8.890  11.749
 8334TIP3    H249198   2.396   8.784  11.707
 8335TIP3   OH249199   3.011   8.693  11.849
 8335TIP3    H149200   3.125   8.702  11.842
 8335TIP3    H249201   2.980   8.671  11.757
 8336TIP3   OH249202   3.485   8.622  19.929
 8336TIP3    H149203   3.385   8.585  19.968
 8336TIP3    H249204   3.564   8.591  19.995
 8337TIP3   OH249205   3.743   8.582  11.741
 8337TIP3    H149206   3.706   8.473  11.766
 8337TIP3    H249207   3.835   8.594  11.801
 8338TIP3   OH249208   3.966   8.658  10.063
 8338TIP3    H149209   4.012   8.554  10.086
 8338TIP3    H249210   4.046   8.712  10.007
 8339TIP3   OH249211   2.380   8.134  11.793
 8339TIP3    H149212   2.322   8.034  11.810
 8339TIP3    H249213   2.320   8.173  11.715
 8340TIP3   OH249214   3.010   8.076  10.058
 8340TIP3    H149215   3.007   8.028  10.147
 8340TIP3    H249216   3.114   8.129  10.066
 8341TIP3   OH249217   3.204   8.128  11.693
 8341TIP3    H149218   3.172   8.192  11.614
 8341TIP3    H249219   3.194   8.016  11.662
 8342TIP3   OH249220   3.884   8.108  11.479
 8342TIP3    H149221   3.982   8.176  11.479
 8342TIP3    H249222   3.806   8.195  11.482
 8343TIP3   OH249223   2.540   7.760  11.748
 8343TIP3    H149224   2.593   7.661  11.771
 8343TIP3    H249225   2.581   7.834  11.816
 8344TIP3   OH249226   3.108   7.933  10.279
 8344TIP3    H149227   3.014   7.873  10.311
 8344TIP3    H249228   3.152   7.862  10.210
 8345TIP3   OH249229   2.965   7.668  11.435
 8345TIP3    H149230   2.893   7.760  11.422
 8345TIP3    H249231   3.059   7.705  11.385
 8346TIP3   OH249232   3.251   7.740  10.086
 8346TIP3    H149233   3.266   7.693   9.998
 8346TIP3    H249234   3.361   7.735  10.122
 8347TIP3   OH249235   3.620   7.982  11.799
 8347TIP3    H149236   3.701   7.937  11.740
 8347TIP3    H249237   3.601   7.892  11.861
 8348TIP3   OH249238   4.300   7.963  19.998
 8348TIP3    H149239   4.379   7.922  19.936
 8348TIP3    H249240   4.324   8.078  19.986
 8349TIP3   OH249241   3.083   7.380  11.520
 8349TIP3    H149242   3.056   7.297  11.453
 8349TIP3    H249243   3.030   7.475  11.480
 8350TIP3   OH249244   3.122   7.145  11.344
 8350TIP3    H149245   3.169   7.204  11.268
 8350TIP3    H249246   3.013   7.127  11.307
 8351TIP3   OH249247   3.242   7.837  11.331
 8351TIP3    H149248   3.342   7.886  11.303
 8351TIP3    H249249   3.168   7.924  11.307
 8352TIP3   OH249250   3.785   7.528  11.821
 8352TIP3    H149251   3.830   7.421  11.831
 8352TIP3    H249252   3.870   7.594  11.856
 8353TIP3   OH249253   3.979   7.909  11.674
 8353TIP3    H149254   3.943   7.984  11.604
 8353TIP3    H249255   4.096   7.912  11.659
 8354TIP3   OH249256   2.879   7.494  11.762
 8354TIP3    H149257   2.771   7.447  11.768
 8354TIP3    H249258   2.918   7.447  11.681
 8355TIP3   OH249259   3.206   6.842  11.345
 8355TIP3    H149260   3.163   6.950  11.356
 8355TIP3    H249261   3.116   6.790  11.302
 8356TIP3   OH249262   3.346   7.337  11.780
 8356TIP3    H149263   3.415   7.292  11.852
 8356TIP3    H249264   3.241   7.316  11.823
 8357TIP3   OH249265   3.646   7.271  11.659
 8357TIP3    H149266   3.622   7.342  11.733
 8357TIP3    H249267   3.702   7.187  11.710
 8358TIP3   OH249268   3.834   7.099  11.817
 8358TIP3    H149269   3.846   6.982  11.822
 8358TIP3    H249270   3.832   7.133  11.910
 8359TIP3   OH249271   2.628   7.285  11.749
 8359TIP3    H149272   2.604   7.184  11.703
 8359TIP3    H249273   2.590   7.261  11.839
 8360TIP3   OH249274   3.199   6.820  11.621
 8360TIP3    H149275   3.289   6.745  11.630
 8360TIP3    H249276   3.180   6.808  11.524
 8361TIP3   OH249277   3.232   6.965  11.869
 8361TIP3    H149278   3.209   6.904  11.788
 8361TIP3    H249279   3.158   7.057  11.858
 8362TIP3   OH249280   3.202   8.994  10.153
 8362TIP3    H149281   3.310   9.008  10.189
 8362TIP3    H249282   3.222   9.004  10.055
 8363TIP3   OH249283   2.426   8.358  10.134
 8363TIP3    H149284   2.544   8.362  10.146
 8363TIP3    H249285   2.418   8.328  10.041
 8364TIP3   OH249286   2.276   8.981  10.607
 8364TIP3    H149287   2.180   8.929  10.569
 8364TIP3    H249288   2.297   8.904  10.679
 8365TIP3   OH249289   2.377   8.760  10.803
 8365TIP3    H149290   2.294   8.688  10.834
 8365TIP3    H249291   2.453   8.762  10.879
 8366TIP3   OH249292   4.504   8.879  11.064
 8366TIP3    H149293   4.520   8.920  11.155
 8366TIP3    H249294   4.558   8.963  11.015
 8367TIP3   OH249295   4.422   8.798  11.403
 8367TIP3    H149296   4.393   8.706  11.346
 8367TIP3    H249297   4.478   8.742  11.475
 8368TIP3   OH249298   4.248   8.299  11.871
 8368TIP3    H149299   4.142   8.305  11.914
 8368TIP3    H249300   4.295   8.405  11.891
 8369TIP3   OH249301   4.361   8.122  10.366
 8369TIP3    H149302   4.466   8.170  10.385
 8369TIP3    H249303   4.343   8.057  10.446
 8370TIP3   OH249304   4.429   7.889  10.596
 8370TIP3    H149305   4.332   7.829  10.621
 8370TIP3    H249306   4.486   7.897  10.682
 8371TIP3   OH249307   4.397   8.196  11.062
 8371TIP3    H149308   4.470   8.107  11.041
 8371TIP3    H249309   4.454   8.286  11.021
 8372TIP3   OH249310   4.246   8.534  11.322
 8372TIP3    H149311   4.175   8.604  11.373
 8372TIP3    H249312   4.183   8.520  11.239
 8373TIP3   OH249313   4.494   7.878  10.209
 8373TIP3    H149314   4.418   7.909  10.139
 8373TIP3    H249315   4.482   7.968  10.271
 8374TIP3   OH249316   4.230   7.493  10.137
 8374TIP3    H149317   4.193   7.573  10.074
 8374TIP3    H249318   4.306   7.438  10.080
 8375TIP3   OH249319   4.187   7.705  10.669
 8375TIP3    H149320   4.170   7.595  10.648
 8375TIP3    H249321   4.153   7.709  10.763
 8376TIP3   OH249322   2.371   7.970  11.065
 8376TIP3    H149323   2.372   7.934  10.971
 8376TIP3    H249324   2.474   7.926  11.095
 8377TIP3   OH249325   4.313   7.936  11.619
 8377TIP3    H149326   4.369   7.832  11.625
 8377TIP3    H249327   4.396   8.016  11.599
 8378TIP3   OH249328   4.434   7.626  11.645
 8378TIP3    H149329   4.322   7.585  11.647
 8378TIP3    H249330   4.500   7.529  11.660
 8379TIP3   OH249331   4.199   7.211   9.963
 8379TIP3    H149332   4.266   7.163  10.033
 8379TIP3    H249333   4.092   7.189   9.996
 8380TIP3   OH249334   4.130   7.427  10.475
 8380TIP3    H149335   4.146   7.315  10.505
 8380TIP3    H249336   4.238   7.447  10.444
 8381TIP3   OH249337   4.254   7.483  11.030
 8381TIP3    H149338   4.370   7.496  11.044
 8381TIP3    H249339   4.217   7.489  11.122
 8382TIP3   OH249340   4.235   7.562  11.293
 8382TIP3    H149341   4.136   7.598  11.338
 8382TIP3    H249342   4.292   7.664  11.284
 8383TIP3   OH249343   2.368   7.312  11.576
 8383TIP3    H149344   2.435   7.356  11.648
 8383TIP3    H249345   2.285   7.266  11.634
 8384TIP3   OH249346   4.508   6.907  11.822
 8384TIP3    H149347   4.548   6.812  11.775
 8384TIP3    H249348   4.505   6.985  11.747
 8385TIP3   OH249349   4.238   7.116  10.512
 8385TIP3    H149350   4.278   7.055  10.589
 8385TIP3    H249351   4.168   7.037  10.472
 8386TIP3   OH249352   2.489   7.176  10.984
 8386TIP3    H149353   2.526   7.064  10.991
 8386TIP3    H249354   2.586   7.240  10.982
 8387TIP3   OH249355   2.292   7.559  11.045
 8387TIP3    H149356   2.362   7.549  10.967
 8387TIP3    H249357   2.358   7.628  11.099
 8388TIP3   OH249358   4.433   7.136  11.650
 8388TIP3    H149359   4.337   7.184  11.693
 8388TIP3    H249360   4.384   7.080  11.575
 8389TIP3   OH249361   4.445   7.126  10.149
 8389TIP3    H149362   4.507   7.057  10.090
 8389TIP3    H249363   4.523   7.211  10.167
 8390TIP3   OH249364   2.324   7.081  10.461
 8390TIP3    H149365   2.214   7.117  10.465
 8390TIP3    H249366   2.358   7.126  10.375
 8391TIP3   OH249367   4.070   8.863  10.624
 8391TIP3    H149368   4.170   8.850  10.573
 8391TIP3    H249369   4.105   8.934  10.695
 8392TIP3   OH249370   2.315   6.913  11.292
 8392TIP3    H149371   2.226   6.859  11.338
 8392TIP3    H249372   2.261   6.996  11.242
 8393TIP3   OH249373   2.590   8.484  11.696
 8393TIP3    H149374   2.491   8.498  11.644
 8393TIP3    H249375   2.554   8.497  11.787
 8394TIP3   OH249376   2.923   8.653  11.343
 8394TIP3    H149377   2.917   8.768  11.322
 8394TIP3    H249378   3.041   8.647  11.352
 8395TIP3   OH249379   3.456   8.765  11.613
 8395TIP3    H149380   3.444   8.749  11.710
 8395TIP3    H249381   3.550   8.836  11.608
 8396TIP3   OH249382   3.737   9.005  11.557
 8396TIP3    H149383   3.833   8.944  11.537
 8396TIP3    H249384   3.746   9.011  11.655
 8397TIP3   OH249385   4.326   6.858  11.475
 8397TIP3    H149386   4.241   6.905  11.422
 8397TIP3    H249387   4.343   6.755  11.429
 8398TIP3   OH249388   2.610   9.048  11.317
 8398TIP3    H149389   2.506   9.060  11.276
 8398TIP3    H249390   2.580   9.049  11.411
 8399TIP3   OH249391   2.905   8.958  11.272
 8399TIP3    H149392   2.797   9.000  11.296
 8399TIP3    H249393   2.910   8.989  11.178
 8400TIP3   OH249394   3.487   8.933  11.156
 8400TIP3    H149395   3.408   8.954  11.085
 8400TIP3    H249396   3.492   9.037  11.201
 8401TIP3   OH249397   3.713   8.768  11.307
 8401TIP3    H149398   3.625   8.824  11.260
 8401TIP3    H249399   3.800   8.843  11.290
 8402TIP3   OH249400   3.992   9.023  11.275
 8402TIP3    H149401   3.971   9.132  11.245
 8402TIP3    H249402   4.054   8.980  11.197
 8403TIP3   OH249403   2.563   8.792  11.019
 8403TIP3    H149404   2.545   8.725  11.099
 8403TIP3    H249405   2.668   8.754  10.987
 8404TIP3   OH249406   2.832   8.707  10.908
 8404TIP3    H149407   2.818   8.591  10.924
 8404TIP3    H249408   2.933   8.722  10.957
 8405TIP3   OH249409   3.104   8.705  11.034
 8405TIP3    H149410   3.137   8.597  11.007
 8405TIP3    H249411   3.131   8.707  11.129
 8406TIP3   OH249412   3.473   6.997  10.869
 8406TIP3    H149413   3.395   6.959  10.936
 8406TIP3    H249414   3.523   6.896  10.846
 8407TIP3   OH249415   4.163   6.791  10.886
 8407TIP3    H149416   4.247   6.854  10.842
 8407TIP3    H249417   4.066   6.830  10.841
 8408TIP3   OH249418   4.366   6.944  10.722
 8408TIP3    H149419   4.442   6.880  10.670
 8408TIP3    H249420   4.432   7.042  10.738
 8409TIP3   OH249421   2.620   6.854  10.693
 8409TIP3    H149422   2.522   6.856  10.639
 8409TIP3    H249423   2.664   6.749  10.669
 8410TIP3   OH249424   2.472   6.822  10.239
 8410TIP3    H149425   2.528   6.911  10.193
 8410TIP3    H249426   2.411   6.878  10.307
 8411TIP3   OH249427   3.157   6.796  10.676
 8411TIP3    H149428   3.253   6.828  10.630
 8411TIP3    H249429   3.158   6.864  10.756
 8412TIP3   OH249430   3.866   6.848  10.770
 8412TIP3    H149431   3.798   6.870  10.694
 8412TIP3    H249432   3.805   6.763  10.815
 8413TIP3   OH249433   4.022   6.834  10.406
 8413TIP3    H149434   3.930   6.904  10.396
 8413TIP3    H249435   3.977   6.748  10.461
 8414TIP3   OH249436   2.462   8.746  10.358
 8414TIP3    H149437   2.353   8.735  10.325
 8414TIP3    H249438   2.488   8.852  10.326
 8415TIP3   OH249439   2.664   7.009  10.103
 8415TIP3    H149440   2.765   6.961  10.078
 8415TIP3    H249441   2.699   7.106  10.149
 8416TIP3   OH249442   3.302   7.081  10.338
 8416TIP3    H149443   3.364   7.030  10.410
 8416TIP3    H249444   3.307   7.190  10.374
 8417TIP3   OH249445   3.535   8.933  10.171
 8417TIP3    H149446   3.654   8.932  10.178
 8417TIP3    H249447   3.523   8.879  10.085
 8418TIP3   OH249448   4.315   8.827  10.473
 8418TIP3    H149449   4.291   8.722  10.433
 8418TIP3    H249450   4.315   8.896  10.393
 8419TIP3   OH249451   2.591   6.940  11.630
 8419TIP3    H149452   2.525   6.842  11.640
 8419TIP3    H249453   2.681   6.917  11.690
 8420TIP3   OH249454   2.825   6.840  11.819
 8420TIP3    H149455   2.936   6.822  11.799
 8420TIP3    H249456   2.795   6.734  11.856
 8421TIP3   OH249457   2.712   8.951  10.072
 8421TIP3    H149458   2.636   8.959  10.145
 8421TIP3    H249459   2.783   8.869  10.108
 8422TIP3   OH249460   3.848   6.780  11.801
 8422TIP3    H149461   3.836   6.704  11.876
 8422TIP3    H249462   3.962   6.762  11.780
 8423TIP3   OH249463   4.205   8.692  11.682
 8423TIP3    H149464   4.109   8.690  11.625
 8423TIP3    H249465   4.231   8.806  11.679
 8424TIP3   OH249466   5.995   7.981  10.665
 8424TIP3    H149467   5.966   8.090  10.688
 8424TIP3    H249468   5.908   7.956  10.604
 8425TIP3   OH249469   5.837   7.836  11.006
 8425TIP3    H149470   5.843   7.787  11.096
 8425TIP3    H249471   5.764   7.764  10.960
 8426TIP3   OH249472   4.876   7.825  11.152
 8426TIP3    H149473   4.891   7.738  11.214
 8426TIP3    H249474   4.961   7.897  11.176
 8427TIP3   OH249475   6.233   8.176  10.866
 8427TIP3    H149476   6.210   8.094  10.933
 8427TIP3    H249477   6.229   8.272  10.919
 8428TIP3   OH249478   5.022   8.381  10.995
 8428TIP3    H149479   4.984   8.275  10.967
 8428TIP3    H249480   5.137   8.359  10.990
 8429TIP3   OH249481   4.626   7.589  10.556
 8429TIP3    H149482   4.576   7.691  10.580
 8429TIP3    H249483   4.590   7.578  10.463
 8430TIP3   OH249484   4.670   7.860  10.792
 8430TIP3    H149485   4.716   7.753  10.814
 8430TIP3    H249486   4.754   7.912  10.740
 8431TIP3   OH249487   5.891   8.802  10.814
 8431TIP3    H149488   6.000   8.756  10.808
 8431TIP3    H249489   5.855   8.754  10.897
 8432TIP3   OH249490   5.629   8.158  11.078
 8432TIP3    H149491   5.663   8.078  11.012
 8432TIP3    H249492   5.732   8.192  11.114
 8433TIP3   OH249493   6.654   7.146  11.106
 8433TIP3    H149494   6.661   7.205  11.190
 8433TIP3    H249495   6.756   7.181  11.068
 8434TIP3   OH249496   6.047   7.506  11.112
 8434TIP3    H149497   6.076   7.394  11.124
 8434TIP3    H249498   6.013   7.502  11.019
 8435TIP3   OH249499   5.194   7.234  10.775
 8435TIP3    H149500   5.210   7.331  10.720
 8435TIP3    H249501   5.141   7.164  10.708
 8436TIP3   OH249502   6.110   7.285  10.647
 8436TIP3    H149503   6.168   7.242  10.725
 8436TIP3    H249504   6.187   7.362  10.611
 8437TIP3   OH249505   4.775   7.570  10.876
 8437TIP3    H149506   4.852   7.511  10.930
 8437TIP3    H249507   4.807   7.530  10.788
 8438TIP3   OH249508   5.359   7.738  10.828
 8438TIP3    H149509   5.464   7.692  10.853
 8438TIP3    H249510   5.311   7.650  10.777
 8439TIP3   OH249511   6.680   7.315  11.336
 8439TIP3    H149512   6.637   7.418  11.306
 8439TIP3    H249513   6.686   7.336  11.432
 8440TIP3   OH249514   5.076   7.138  11.213
 8440TIP3    H149515   5.029   7.189  11.134
 8440TIP3    H249516   4.996   7.169  11.280
 8441TIP3   OH249517   5.902   8.279  10.564
 8441TIP3    H149518   5.896   8.268  10.466
 8441TIP3    H249519   5.875   8.392  10.573
 8442TIP3   OH249520   5.339   8.056  11.179
 8442TIP3    H149521   5.278   8.144  11.218
 8442TIP3    H249522   5.428   8.113  11.134
 8443TIP3   OH249523   6.322   7.200  10.839
 8443TIP3    H149524   6.320   7.106  10.895
 8443TIP3    H249525   6.422   7.249  10.864
 8444TIP3   OH249526   5.015   7.366  10.988
 8444TIP3    H149527   5.093   7.435  11.035
 8444TIP3    H249528   5.078   7.330  10.911
 8445TIP3   OH249529   5.184   8.316  11.301
 8445TIP3    H149530   5.167   8.423  11.264
 8445TIP3    H249531   5.080   8.297  11.346
 8446TIP3   OH249532   4.676   8.224  10.388
 8446TIP3    H149533   4.682   8.290  10.306
 8446TIP3    H249534   4.698   8.304  10.456
 8447TIP3   OH249535   6.334   8.509  11.110
 8447TIP3    H149536   6.216   8.498  11.115
 8447TIP3    H249537   6.341   8.590  11.041
 8448TIP3   OH249538   6.328   7.072  11.178
 8448TIP3    H149539   6.233   7.086  11.121
 8448TIP3    H249540   6.412   7.106  11.117
 8449TIP3   OH249541   5.501   6.840  10.947
 8449TIP3    H149542   5.460   6.732  10.937
 8449TIP3    H249543   5.399   6.894  10.970
 8450TIP3   OH249544   6.179   8.665  10.769
 8450TIP3    H149545   6.176   8.570  10.712
 8450TIP3    H249546   6.253   8.731  10.715
 8451TIP3   OH249547   6.276   8.399  10.607
 8451TIP3    H149548   6.242   8.352  10.523
 8451TIP3    H249549   6.264   8.308  10.667
 8452TIP3   OH249550   6.452   8.260  11.447
 8452TIP3    H149551   6.474   8.170  11.386
 8452TIP3    H249552   6.472   8.350  11.387
 8453TIP3   OH249553   5.806   7.910  10.412
 8453TIP3    H149554   5.740   8.003  10.386
 8453TIP3    H249555   5.894   7.914  10.347
 8454TIP3   OH249556   5.845   7.708  10.116
 8454TIP3    H149557   5.926   7.765  10.170
 8454TIP3    H249558   5.904   7.607  10.099
 8455TIP3   OH249559   6.703   7.826  11.228
 8455TIP3    H149560   6.625   7.914  11.238
 8455TIP3    H249561   6.767   7.874  11.155
 8456TIP3   OH249562   6.241   7.868  10.511
 8456TIP3    H149563   6.160   7.916  10.570
 8456TIP3    H249564   6.318   7.828  10.578
 8457TIP3   OH249565   6.212   7.702  11.442
 8457TIP3    H149566   6.196   7.814  11.462
 8457TIP3    H249567   6.134   7.688  11.370
 8458TIP3   OH249568   5.212   7.973  10.689
 8458TIP3    H149569   5.188   7.946  10.594
 8458TIP3    H249570   5.272   7.877  10.717
 8459TIP3   OH249571   5.375   8.372  10.958
 8459TIP3    H149572   5.387   8.342  10.865
 8459TIP3    H249573   5.472   8.327  10.998
 8460TIP3   OH249574   5.221   7.799  11.068
 8460TIP3    H149575   5.267   7.799  10.978
 8460TIP3    H249576   5.280   7.888  11.110
 8461TIP3   OH249577   6.008   8.496  11.129
 8461TIP3    H149578   5.965   8.586  11.181
 8461TIP3    H249579   5.965   8.404  11.178
 8462TIP3   OH249580   5.378   8.359  11.533
 8462TIP3    H149581   5.304   8.435  11.577
 8462TIP3    H249582   5.326   8.345  11.446
 8463TIP3   OH249583   6.074   7.841  10.267
 8463TIP3    H149584   6.132   7.844  10.354
 8463TIP3    H249585   6.154   7.891  10.206
 8464TIP3   OH249586   5.015   7.900  11.433
 8464TIP3    H149587   5.000   8.011  11.457
 8464TIP3    H249588   4.951   7.852  11.503
 8465TIP3   OH249589   5.813   8.646  10.566
 8465TIP3    H149590   5.838   8.663  10.659
 8465TIP3    H249591   5.734   8.731  10.555
 8466TIP3   OH249592   5.146   8.580  11.595
 8466TIP3    H149593   5.132   8.587  11.498
 8466TIP3    H249594   5.044   8.531  11.622
 8467TIP3   OH249595   6.572   6.806  10.300
 8467TIP3    H149596   6.456   6.803  10.314
 8467TIP3    H249597   6.586   6.919  10.278
 8468TIP3   OH249598   5.087   7.841  10.462
 8468TIP3    H149599   5.026   7.930  10.425
 8468TIP3    H249600   5.028   7.750  10.428
 8469TIP3   OH249601   6.689   8.564  10.137
 8469TIP3    H149602   6.744   8.666  10.118
 8469TIP3    H249603   6.776   8.485  10.134
 8470TIP3   OH249604   4.648   8.160  11.361
 8470TIP3    H149605   4.606   8.148  11.272
 8470TIP3    H249606   4.686   8.051  11.379
 8471TIP3   OH249607   4.622   8.459  10.985
 8471TIP3    H149608   4.739   8.454  10.989
 8471TIP3    H249609   4.602   8.549  11.044
 8472TIP3   OH249610   6.766   8.574  11.625
 8472TIP3    H149611   6.740   8.461  11.607
 8472TIP3    H249612   6.664   8.610  11.665
 8473TIP3   OH249613   5.684   8.491  11.481
 8473TIP3    H149614   5.698   8.598  11.522
 8473TIP3    H249615   5.574   8.464  11.502
 8474TIP3   OH249616   5.794   8.998  10.464
 8474TIP3    H149617   5.797   8.986  10.367
 8474TIP3    H249618   5.760   9.108  10.476
 8475TIP3   OH249619   4.993   8.768  10.662
 8475TIP3    H149620   5.033   8.783  10.754
 8475TIP3    H249621   4.913   8.684  10.680
 8476TIP3   OH249622   6.106   8.894  10.207
 8476TIP3    H149623   6.163   8.819  10.148
 8476TIP3    H249624   6.112   8.837  10.293
 8477TIP3   OH249625   6.065   8.830  10.458
 8477TIP3    H149626   5.958   8.864  10.484
 8477TIP3    H249627   6.070   8.722  10.495
 8478TIP3   OH249628   6.401   7.514  11.649
 8478TIP3    H149629   6.361   7.571  11.570
 8478TIP3    H249630   6.426   7.409  11.610
 8479TIP3   OH249631   4.912   8.306  11.443
 8479TIP3    H149632   4.910   8.264  11.535
 8479TIP3    H249633   4.804   8.276  11.411
 8480TIP3   OH249634   5.227   6.961  11.024
 8480TIP3    H149635   5.119   6.948  10.986
 8480TIP3    H249636   5.202   7.018  11.107
 8481TIP3   OH249637   5.812   6.884  11.337
 8481TIP3    H149638   5.855   6.834  11.419
 8481TIP3    H249639   5.694   6.881  11.350
 8482TIP3   OH249640   6.122   7.390  11.490
 8482TIP3    H149641   6.052   7.344  11.558
 8482TIP3    H249642   6.158   7.487  11.534
 8483TIP3   OH249643   6.288   7.976  10.120
 8483TIP3    H149644   6.247   7.981  10.026
 8483TIP3    H249645   6.402   7.985  10.101
 8484TIP3   OH249646   5.764   7.213  10.121
 8484TIP3    H149647   5.711   7.172  10.202
 8484TIP3    H249648   5.682   7.186  10.056
 8485TIP3   OH249649   5.234   7.501  11.160
 8485TIP3    H149650   5.141   7.514  11.219
 8485TIP3    H249651   5.240   7.612  11.125
 8486TIP3   OH249652   5.215   7.506  10.639
 8486TIP3    H149653   5.100   7.513  10.621
 8486TIP3    H249654   5.266   7.507  10.549
 8487TIP3   OH249655   5.912   7.649  10.554
 8487TIP3    H149656   5.870   7.740  10.502
 8487TIP3    H249657   5.986   7.602  10.487
 8488TIP3   OH249658   5.765   7.652  11.659
 8488TIP3    H149659   5.714   7.553  11.691
 8488TIP3    H249660   5.861   7.651  11.712
 8489TIP3   OH249661   6.031   7.556  10.813
 8489TIP3    H149662   6.010   7.657  10.769
 8489TIP3    H249663   6.020   7.487  10.735
 8490TIP3   OH249664   4.946   7.534  11.287
 8490TIP3    H149665   4.976   7.577  11.373
 8490TIP3    H249666   4.897   7.432  11.313
 8491TIP3   OH249667   5.352   7.243  10.040
 8491TIP3    H149668   5.300   7.214  10.124
 8491TIP3    H249669   5.288   7.334  10.010
 8492TIP3   OH249670   4.559   7.205  10.747
 8492TIP3    H149671   4.642   7.214  10.813
 8492TIP3    H249672   4.606   7.253  10.668
 8493TIP3   OH249673   4.693   7.283  10.270
 8493TIP3    H149674   4.783   7.344  10.232
 8493TIP3    H249675   4.620   7.372  10.288
 8494TIP3   OH249676   5.902   7.730  11.255
 8494TIP3    H149677   5.966   7.648  11.209
 8494TIP3    H249678   5.830   7.662  11.309
 8495TIP3   OH249679   5.569   7.235  10.764
 8495TIP3    H149680   5.455   7.246  10.779
 8495TIP3    H249681   5.609   7.186  10.845
 8496TIP3   OH249682   4.882   7.429  10.650
 8496TIP3    H149683   4.793   7.464  10.593
 8496TIP3    H249684   4.914   7.324  10.616
 8497TIP3   OH249685   5.374   7.457  10.398
 8497TIP3    H149686   5.486   7.475  10.381
 8497TIP3    H249687   5.317   7.525  10.332
 8498TIP3   OH249688   6.061   7.160  11.056
 8498TIP3    H149689   5.988   7.147  11.131
 8498TIP3    H249690   6.010   7.098  10.986
 8499TIP3   OH249691   5.159   7.595  10.220
 8499TIP3    H149692   5.063   7.586  10.165
 8499TIP3    H249693   5.243   7.595  10.152
 8500TIP3   OH249694   6.389   9.102  11.691
 8500TIP3    H149695   6.422   9.102  11.598
 8500TIP3    H249696   6.493   9.082  11.735
 8501TIP3   OH249697   4.954   8.110  11.682
 8501TIP3    H149698   5.033   8.125  11.752
 8501TIP3    H249699   4.855   8.093  11.734
 8502TIP3   OH249700   5.681   7.573  10.931
 8502TIP3    H149701   5.759   7.529  10.870
 8502TIP3    H249702   5.648   7.480  10.982
 8503TIP3   OH249703   5.022   7.098  10.581
 8503TIP3    H149704   4.943   7.027  10.624
 8503TIP3    H249705   5.068   7.022  10.518
 8504TIP3   OH249706   5.515   7.344  11.167
 8504TIP3    H149707   5.422   7.417  11.165
 8504TIP3    H249708   5.594   7.408  11.213
 8505TIP3   OH249709   5.592   8.142  10.364
 8505TIP3    H149710   5.502   8.077  10.332
 8505TIP3    H249711   5.550   8.174  10.453
 8506TIP3   OH249712   6.482   8.060  11.247
 8506TIP3    H149713   6.539   8.128  11.179
 8506TIP3    H249714   6.379   8.048  11.203
 8507TIP3   OH249715   6.065   7.274  10.191
 8507TIP3    H149716   5.951   7.266  10.168
 8507TIP3    H249717   6.078   7.390  10.201
 8508TIP3   OH249718   5.730   8.165  11.471
 8508TIP3    H149719   5.719   8.124  11.561
 8508TIP3    H249720   5.708   8.279  11.484
 8509TIP3   OH249721   6.136   7.541  10.337
 8509TIP3    H149722   6.235   7.506  10.378
 8509TIP3    H249723   6.164   7.638  10.288
 8510TIP3   OH249724   5.016   8.076  10.906
 8510TIP3    H149725   5.081   8.052  10.826
 8510TIP3    H249726   5.034   7.981  10.959
 8511TIP3   OH249727   5.844   8.320  10.307
 8511TIP3    H149728   5.802   8.430  10.305
 8511TIP3    H249729   5.747   8.254  10.308
 8512TIP3   OH249730   4.648   7.852  11.462
 8512TIP3    H149731   4.632   7.782  11.539
 8512TIP3    H249732   4.582   7.800  11.394
 8513TIP3   OH249733   5.462   7.800  11.649
 8513TIP3    H149734   5.428   7.716  11.590
 8513TIP3    H249735   5.578   7.778  11.654
 8514TIP3   OH249736   6.071   8.449  11.492
 8514TIP3    H149737   5.966   8.460  11.449
 8514TIP3    H249738   6.046   8.503  11.577
 8515TIP3   OH249739   6.726   7.516  10.331
 8515TIP3    H149740   6.643   7.494  10.263
 8515TIP3    H249741   6.734   7.631  10.322
 8516TIP3   OH249742   6.748   8.225  11.572
 8516TIP3    H149743   6.638   8.239  11.537
 8516TIP3    H249744   6.810   8.208  11.489
 8517TIP3   OH249745   6.532   8.528  10.370
 8517TIP3    H149746   6.440   8.456  10.368
 8517TIP3    H249747   6.571   8.525  10.278
 8518TIP3   OH249748   6.174   7.948  11.052
 8518TIP3    H149749   6.064   7.913  11.041
 8518TIP3    H249750   6.227   7.884  10.983
 8519TIP3   OH249751   5.272   8.453  10.680
 8519TIP3    H149752   5.321   8.556  10.658
 8519TIP3    H249753   5.166   8.465  10.640
 8520TIP3   OH249754   4.796   7.841  10.082
 8520TIP3    H149755   4.862   7.913  10.136
 8520TIP3    H249756   4.692   7.855  10.124
 8521TIP3   OH249757   5.452   8.192  10.611
 8521TIP3    H149758   5.389   8.291  10.624
 8521TIP3    H249759   5.395   8.117  10.668
 8522TIP3   OH249760   5.509   8.687  11.306
 8522TIP3    H149761   5.569   8.784  11.286
 8522TIP3    H249762   5.594   8.618  11.341
 8523TIP3   OH249763   5.310   8.759  10.573
 8523TIP3    H149764   5.197   8.783  10.595
 8523TIP3    H249765   5.366   8.855  10.607
 8524TIP3   OH249766   5.891   8.209  11.227
 8524TIP3    H149767   5.840   8.185  11.314
 8524TIP3    H249768   5.929   8.105  11.199
 8525TIP3   OH249769   6.232   8.354  10.136
 8525TIP3    H149770   6.259   8.296  10.218
 8525TIP3    H249771   6.116   8.351  10.146
 8526TIP3   OH249772   6.280   8.755  11.458
 8526TIP3    H149773   6.190   8.684  11.434
 8526TIP3    H249774   6.274   8.843  11.393
 8527TIP3   OH249775   6.796   8.868  10.115
 8527TIP3    H149776   6.884   8.938  10.142
 8527TIP3    H249777   6.704   8.923  10.157
 8528TIP3   OH249778   4.864   7.238  11.406
 8528TIP3    H149779   4.789   7.291  11.467
 8528TIP3    H249780   4.885   7.141  11.458
 8529TIP3   OH249781   6.308   8.178  10.351
 8529TIP3    H149782   6.290   8.064  10.355
 8529TIP3    H249783   6.426   8.178  10.347
 8530TIP3   OH249784   4.816   8.614  11.275
 8530TIP3    H149785   4.878   8.516  11.266
 8530TIP3    H249786   4.880   8.675  11.337
 8531TIP3   OH249787   5.338   8.426  10.235
 8531TIP3    H149788   5.432   8.368  10.260
 8531TIP3    H249789   5.358   8.536  10.269
 8532TIP3   OH249790   4.938   8.054  10.264
 8532TIP3    H149791   4.853   8.112  10.310
 8532TIP3    H249792   5.005   8.142  10.232
 8533TIP3   OH249793   5.881   7.222  11.318
 8533TIP3    H149794   5.983   7.244  11.361
 8533TIP3    H249795   5.858   7.111  11.346
 8534TIP3   OH249796   6.001   7.110  10.445
 8534TIP3    H149797   6.028   7.196  10.382
 8534TIP3    H249798   6.054   7.148  10.527
 8535TIP3   OH249799   5.737   8.618  10.253
 8535TIP3    H149800   5.646   8.630  10.311
 8535TIP3    H249801   5.752   8.729  10.222
 8536TIP3   OH249802   5.692   7.355  10.519
 8536TIP3    H149803   5.753   7.456  10.519
 8536TIP3    H249804   5.645   7.349  10.607
 8537TIP3   OH249805   5.747   7.519  11.405
 8537TIP3    H149806   5.754   7.566  11.495
 8537TIP3    H249807   5.819   7.427  11.409
 8538TIP3   OH249808   5.737   6.988  10.573
 8538TIP3    H149809   5.683   7.074  10.620
 8538TIP3    H249810   5.831   7.046  10.533
 8539TIP3   OH249811   5.375   8.753  10.303
 8539TIP3    H149812   5.402   8.860  10.269
 8539TIP3    H249813   5.327   8.776  10.390
 8540TIP3   OH249814   5.244   7.172  10.283
 8540TIP3    H149815   5.250   7.266  10.342
 8540TIP3    H249816   5.340   7.115  10.308
 8541TIP3   OH249817   6.421   7.238  11.501
 8541TIP3    H149818   6.306   7.246  11.484
 8541TIP3    H249819   6.467   7.230  11.411
 8542TIP3   OH249820   6.308   7.685  10.907
 8542TIP3    H149821   6.216   7.615  10.895
 8542TIP3    H249822   6.380   7.618  10.960
 8543TIP3   OH249823   5.014   8.368  10.164
 8543TIP3    H149824   5.101   8.435  10.198
 8543TIP3    H249825   5.054   8.339  10.076
 8544TIP3   OH249826   4.814   7.512  10.121
 8544TIP3    H149827   4.817   7.628  10.120
 8544TIP3    H249828   4.738   7.489  10.051
 8545TIP3   OH249829   6.440   8.882  11.092
 8545TIP3    H149830   6.425   8.914  10.998
 8545TIP3    H249831   6.558   8.874  11.088
 8546TIP3   OH249832   4.915   6.889  10.970
 8546TIP3    H149833   4.910   6.868  10.873
 8546TIP3    H249834   4.882   6.782  11.004
 8547TIP3   OH249835   4.764   8.516  10.556
 8547TIP3    H149836   4.673   8.580  10.582
 8547TIP3    H249837   4.793   8.574  10.474
 8548TIP3   OH249838   4.675   8.885  11.678
 8548TIP3    H149839   4.765   8.875  11.740
 8548TIP3    H249840   4.624   8.779  11.692
 8549TIP3   OH249841   5.185   8.755  11.853
 8549TIP3    H149842   5.290   8.806  11.861
 8549TIP3    H249843   5.209   8.674  11.785
 8550TIP3   OH249844   5.756   8.628  19.943
 8550TIP3    H149845   5.658   8.566  19.951
 8550TIP3    H249846   5.825   8.570  20.004
 8551TIP3   OH249847   6.020   8.574  11.735
 8551TIP3    H149848   5.987   8.471  11.773
 8551TIP3    H249849   6.120   8.598  11.784
 8552TIP3   OH249850   6.239   8.665  10.070
 8552TIP3    H149851   6.278   8.557  10.089
 8552TIP3    H249852   6.316   8.716  10.009
 8553TIP3   OH249853   4.650   8.122  11.800
 8553TIP3    H149854   4.608   8.012  11.803
 8553TIP3    H249855   4.595   8.165  11.721
 8554TIP3   OH249856   5.226   8.077  10.047
 8554TIP3    H149857   5.243   8.023  10.133
 8554TIP3    H249858   5.332   8.059  10.004
 8555TIP3   OH249859   5.471   8.118  11.689
 8555TIP3    H149860   5.437   8.196  11.619
 8555TIP3    H249861   5.444   8.012  11.651
 8556TIP3   OH249862   6.155   8.117  11.486
 8556TIP3    H149863   6.251   8.185  11.479
 8556TIP3    H249864   6.076   8.202  11.483
 8557TIP3   OH249865   4.807   7.787  11.756
 8557TIP3    H149866   4.888   7.708  11.737
 8557TIP3    H249867   4.852   7.843  11.833
 8558TIP3   OH249868   5.338   7.903  10.263
 8558TIP3    H149869   5.250   7.837  10.299
 8558TIP3    H249870   5.392   7.825  10.204
 8559TIP3   OH249871   5.234   7.669  11.434
 8559TIP3    H149872   5.172   7.769  11.438
 8559TIP3    H249873   5.322   7.708  11.379
 8560TIP3   OH249874   5.492   7.703  10.106
 8560TIP3    H149875   5.479   7.760  10.021
 8560TIP3    H249876   5.609   7.698  10.114
 8561TIP3   OH249877   5.904   7.991  11.813
 8561TIP3    H149878   5.972   7.933  11.751
 8561TIP3    H249879   5.855   7.907  11.868
 8562TIP3   OH249880   6.569   7.962  20.004
 8562TIP3    H149881   6.640   7.926  19.934
 8562TIP3    H249882   6.587   8.080  19.994
 8563TIP3   OH249883   5.328   7.376  11.523
 8563TIP3    H149884   5.333   7.294  11.453
 8563TIP3    H249885   5.305   7.475  11.473
 8564TIP3   OH249886   5.365   7.144  11.333
 8564TIP3    H149887   5.424   7.205  11.264
 8564TIP3    H249888   5.255   7.144  11.297
 8565TIP3   OH249889   5.513   7.846  11.335
 8565TIP3    H149890   5.618   7.890  11.316
 8565TIP3    H249891   5.442   7.925  11.293
 8566TIP3   OH249892   6.029   7.547  11.822
 8566TIP3    H149893   6.055   7.433  11.814
 8566TIP3    H249894   6.102   7.594  11.758
 8567TIP3   OH249895   6.239   7.907  11.679
 8567TIP3    H149896   6.203   7.985  11.613
 8567TIP3    H249897   6.354   7.909  11.664
 8568TIP3   OH249898   5.150   7.474  11.752
 8568TIP3    H149899   5.046   7.421  11.739
 8568TIP3    H249900   5.209   7.436  11.673
 8569TIP3   OH249901   5.485   6.851  11.338
 8569TIP3    H149902   5.438   6.959  11.349
 8569TIP3    H249903   5.392   6.788  11.314
 8570TIP3   OH249904   5.592   7.378  11.734
 8570TIP3    H149905   5.534   7.324  11.806
 8570TIP3    H249906   5.516   7.361  11.661
 8571TIP3   OH249907   5.916   7.278  11.663
 8571TIP3    H149908   5.801   7.276  11.678
 8571TIP3    H249909   5.956   7.201  11.730
 8572TIP3   OH249910   6.094   7.102  11.829
 8572TIP3    H149911   6.096   6.984  11.826
 8572TIP3    H249912   6.101   7.130  11.923
 8573TIP3   OH249913   4.889   7.270  11.756
 8573TIP3    H149914   4.878   7.170  11.704
 8573TIP3    H249915   4.866   7.230  11.848
 8574TIP3   OH249916   5.466   6.816  11.630
 8574TIP3    H149917   5.552   6.740  11.646
 8574TIP3    H249918   5.472   6.820  11.533
 8575TIP3   OH249919   5.496   6.962  11.873
 8575TIP3    H149920   5.474   6.916  11.784
 8575TIP3    H249921   5.412   7.044  11.876
 8576TIP3   OH249922   5.472   9.012  10.152
 8576TIP3    H149923   5.585   9.012  10.177
 8576TIP3    H249924   5.482   9.023  10.054
 8577TIP3   OH249925   4.692   8.359  10.142
 8577TIP3    H149926   4.810   8.368  10.152
 8577TIP3    H249927   4.682   8.332  10.049
 8578TIP3   OH249928   4.531   8.998  10.597
 8578TIP3    H149929   4.441   8.938  10.558
 8578TIP3    H249930   4.550   8.927  10.673
 8579TIP3   OH249931   4.644   8.759  10.807
 8579TIP3    H149932   4.561   8.682  10.834
 8579TIP3    H249933   4.704   8.771  10.891
 8580TIP3   OH249934   6.770   8.890  11.046
 8580TIP3    H149935   6.785   8.939  11.134
 8580TIP3    H249936   6.830   8.960  10.990
 8581TIP3   OH249937   6.688   8.801  11.390
 8581TIP3    H149938   6.652   8.712  11.331
 8581TIP3    H249939   6.748   8.735  11.453
 8582TIP3   OH249940   6.518   8.314  11.839
 8582TIP3    H149941   6.409   8.330  11.809
 8582TIP3    H249942   6.552   8.420  11.869
 8583TIP3   OH249943   6.629   8.120  10.365
 8583TIP3    H149944   6.734   8.166  10.386
 8583TIP3    H249945   6.608   8.051  10.442
 8584TIP3   OH249946   6.703   7.884  10.602
 8584TIP3    H149947   6.607   7.828  10.635
 8584TIP3    H249948   6.762   7.904  10.685
 8585TIP3   OH249949   6.666   8.202  11.065
 8585TIP3    H149950   6.746   8.117  11.051
 8585TIP3    H249951   6.721   8.293  11.024
 8586TIP3   OH249952   6.520   8.550  11.317
 8586TIP3    H149953   6.434   8.610  11.362
 8586TIP3    H249954   6.464   8.526  11.232
 8587TIP3   OH249955   6.763   7.872  10.210
 8587TIP3    H149956   6.689   7.907  10.139
 8587TIP3    H249957   6.752   7.962  10.272
 8588TIP3   OH249958   6.500   7.492  10.129
 8588TIP3    H149959   6.490   7.573  10.059
 8588TIP3    H249960   6.560   7.412  10.079
 8589TIP3   OH249961   6.460   7.702  10.669
 8589TIP3    H149962   6.437   7.594  10.640
 8589TIP3    H249963   6.416   7.703  10.761
 8590TIP3   OH249964   4.634   7.972  11.048
 8590TIP3    H149965   4.642   7.936  10.954
 8590TIP3    H249966   4.736   7.928  11.081
 8591TIP3   OH249967   6.580   7.928  11.615
 8591TIP3    H149968   6.635   7.825  11.633
 8591TIP3    H249969   6.667   8.000  11.591
 8592TIP3   OH249970   6.696   7.624  11.653
 8592TIP3    H149971   6.586   7.583  11.652
 8592TIP3    H249972   6.760   7.529  11.678
 8593TIP3   OH249973   6.468   7.194   9.960
 8593TIP3    H149974   6.536   7.153  10.032
 8593TIP3    H249975   6.361   7.181   9.996
 8594TIP3   OH249976   6.396   7.422  10.489
 8594TIP3    H149977   6.419   7.312  10.517
 8594TIP3    H249978   6.482   7.438  10.426
 8595TIP3   OH249979   6.512   7.482  11.058
 8595TIP3    H149980   6.631   7.490  11.066
 8595TIP3    H249981   6.482   7.490  11.152
 8596TIP3   OH249982   6.500   7.576  11.323
 8596TIP3    H149983   6.394   7.610  11.350
 8596TIP3    H249984   6.553   7.676  11.298
 8597TIP3   OH249985   4.626   7.379  11.656
 8597TIP3    H149986   4.728   7.357  11.700
 8597TIP3    H249987   4.567   7.278  11.670
 8598TIP3   OH249988   6.767   6.899  11.820
 8598TIP3    H149989   6.809   6.803  11.777
 8598TIP3    H249990   6.769   6.977  11.746
 8599TIP3   OH249991   6.484   7.117  10.514
 8599TIP3    H149992   6.532   7.062  10.591
 8599TIP3    H249993   6.424   7.030  10.473
 8600TIP3   OH249994   4.739   7.170  11.018
 8600TIP3    H149995   4.788   7.063  11.012
 8600TIP3    H249996   4.828   7.240  10.994
 8601TIP3   OH249997   4.564   7.541  11.074
 8601TIP3    H149998   4.630   7.511  10.997
 8601TIP3    H249999   4.619   7.637  11.102
 8602TIP3   OH250000   6.707   7.117  11.624
 8602TIP3    H150001   6.608   7.171  11.652
 8602TIP3    H250002   6.662   7.039  11.561
 8603TIP3   OH250003   6.700   7.122  10.157
 8603TIP3    H150004   6.751   7.040  10.103
 8603TIP3    H250005   6.791   7.194  10.173
 8604TIP3   OH250006   4.579   7.085  10.463
 8604TIP3    H150007   4.468   7.116  10.473
 8604TIP3    H250008   4.604   7.128  10.374
 8605TIP3   OH250009   6.335   8.873  10.619
 8605TIP3    H150010   6.437   8.864  10.571
 8605TIP3    H250011   6.371   8.933  10.698
 8606TIP3   OH250012   4.585   6.918  11.294
 8606TIP3    H150013   4.500   6.886  11.354
 8606TIP3    H250014   4.536   7.000  11.239
 8607TIP3   OH250015   4.862   8.473  11.696
 8607TIP3    H150016   4.763   8.472  11.645
 8607TIP3    H250017   4.824   8.479  11.786
 8608TIP3   OH250018   5.188   8.640  11.326
 8608TIP3    H150019   5.176   8.758  11.316
 8608TIP3    H250020   5.304   8.639  11.339
 8609TIP3   OH250021   5.735   8.774  11.611
 8609TIP3    H150022   5.725   8.735  11.704
 8609TIP3    H250023   5.827   8.845  11.619
 8610TIP3   OH250024   5.998   8.987  11.559
 8610TIP3    H150025   6.073   8.904  11.537
 8610TIP3    H250026   6.022   9.001  11.655
 8611TIP3   OH250027   6.588   6.854  11.464
 8611TIP3    H150028   6.493   6.890  11.416
 8611TIP3    H250029   6.604   6.748  11.424
 8612TIP3   OH250030   4.861   9.026  11.320
 8612TIP3    H150031   4.752   9.044  11.285
 8612TIP3    H250032   4.843   9.042  11.415
 8613TIP3   OH250033   5.167   8.948  11.274
 8613TIP3    H150034   5.057   8.982  11.298
 8613TIP3    H250035   5.172   8.981  11.180
 8614TIP3   OH250036   5.764   8.938  11.133
 8614TIP3    H150037   5.672   8.954  11.073
 8614TIP3    H250038   5.762   9.036  11.185
 8615TIP3   OH250039   5.981   8.767  11.285
 8615TIP3    H150040   5.897   8.836  11.245
 8615TIP3    H250041   6.072   8.837  11.268
 8616TIP3   OH250042   6.259   9.023  11.274
 8616TIP3    H150043   6.233   9.133  11.255
 8616TIP3    H250044   6.312   8.986  11.190
 8617TIP3   OH250045   4.828   8.785  11.036
 8617TIP3    H150046   4.818   8.730  11.123
 8617TIP3    H250047   4.927   8.742  10.999
 8618TIP3   OH250048   5.086   8.699  10.904
 8618TIP3    H150049   5.077   8.582  10.918
 8618TIP3    H250050   5.188   8.719  10.950
 8619TIP3   OH250051   5.362   8.708  11.028
 8619TIP3    H150052   5.388   8.597  11.012
 8619TIP3    H250053   5.387   8.724  11.123
 8620TIP3   OH250054   5.795   7.008  10.911
 8620TIP3    H150055   5.699   6.960  10.949
 8620TIP3    H250056   5.808   6.944  10.832
 8621TIP3   OH250057   6.421   6.799  10.883
 8621TIP3    H150058   6.504   6.866  10.837
 8621TIP3    H250059   6.323   6.832  10.836
 8622TIP3   OH250060   6.623   6.948  10.720
 8622TIP3    H150061   6.697   6.876  10.673
 8622TIP3    H250062   6.695   7.040  10.736
 8623TIP3   OH250063   4.880   6.842  10.696
 8623TIP3    H150064   4.777   6.840  10.650
 8623TIP3    H250065   4.925   6.738  10.669
 8624TIP3   OH250066   4.729   6.830  10.254
 8624TIP3    H150067   4.799   6.910  10.208
 8624TIP3    H250068   4.682   6.895  10.325
 8625TIP3   OH250069   5.387   6.811  10.675
 8625TIP3    H150070   5.486   6.828  10.628
 8625TIP3    H250071   5.396   6.881  10.752
 8626TIP3   OH250072   6.125   6.859  10.778
 8626TIP3    H150073   6.061   6.870  10.698
 8626TIP3    H250074   6.068   6.772  10.824
 8627TIP3   OH250075   6.283   6.842  10.399
 8627TIP3    H150076   6.187   6.907  10.385
 8627TIP3    H250077   6.241   6.758  10.458
 8628TIP3   OH250078   4.717   8.748  10.376
 8628TIP3    H150079   4.606   8.736  10.353
 8628TIP3    H250080   4.745   8.849  10.331
 8629TIP3   OH250081   4.930   7.006  10.114
 8629TIP3    H150082   5.020   6.932  10.100
 8629TIP3    H250083   4.980   7.105  10.140
 8630TIP3   OH250084   5.597   7.087  10.337
 8630TIP3    H150085   5.635   7.018  10.408
 8630TIP3    H250086   5.599   7.190  10.384
 8631TIP3   OH250087   5.800   8.930  10.165
 8631TIP3    H150088   5.917   8.933  10.177
 8631TIP3    H250089   5.795   8.874  10.079
 8632TIP3   OH250090   6.583   8.827  10.472
 8632TIP3    H150091   6.559   8.719  10.436
 8632TIP3    H250092   6.574   8.893  10.391
 8633TIP3   OH250093   4.852   6.953  11.633
 8633TIP3    H150094   4.792   6.852  11.635
 8633TIP3    H250095   4.931   6.931  11.704
 8634TIP3   OH250096   5.081   6.859  11.813
 8634TIP3    H150097   5.192   6.841  11.789
 8634TIP3    H250098   5.051   6.751  11.845
 8635TIP3   OH250099   4.984   8.957  10.067
 8635TIP3    H150100   4.910   8.970  10.142
 8635TIP3    H250101   5.045   8.866  10.101
 8636TIP3   OH250102   6.103   6.772  11.795
 8636TIP3    H150103   6.109   6.710  11.879
 8636TIP3    H250104   6.216   6.770  11.770
 8637TIP3   OH250105   6.473   8.705  11.671
 8637TIP3    H150106   6.409   8.712  11.588
 8637TIP3    H250107   6.515   8.813  11.674
 8638TIP3   OH250108   8.234   7.973  10.674
 8638TIP3    H150109   8.209   8.075  10.717
 8638TIP3    H250110   8.152   7.970  10.606
 8639TIP3   OH250111   8.072   7.835  10.997
 8639TIP3    H150112   8.101   7.786  11.083
 8639TIP3    H250113   7.981   7.769  10.968
 8640TIP3   OH250114   7.148   7.826  11.146
 8640TIP3    H150115   7.171   7.740  11.208
 8640TIP3    H250116   7.220   7.908  11.179
 8641TIP3   OH250117   8.543   8.233  10.877
 8641TIP3    H150118   8.526   8.136  10.930
 8641TIP3    H250119   8.530   8.314  10.945
 8642TIP3   OH250120   7.279   8.383  10.997
 8642TIP3    H150121   7.243   8.276  10.968
 8642TIP3    H250122   7.394   8.363  10.989
 8643TIP3   OH250123   6.883   7.591  10.558
 8643TIP3    H150124   6.838   7.697  10.577
 8643TIP3    H250125   6.823   7.561  10.479
 8644TIP3   OH250126   6.946   7.872  10.813
 8644TIP3    H150127   6.988   7.763  10.827
 8644TIP3    H250128   7.021   7.920  10.751
 8645TIP3   OH250129   8.170   8.849  10.891
 8645TIP3    H150130   8.246   8.785  10.837
 8645TIP3    H250131   8.134   8.764  10.949
 8646TIP3   OH250132   7.896   8.162  11.078
 8646TIP3    H150133   7.933   8.078  11.019
 8646TIP3    H250134   7.997   8.195  11.122
 8647TIP3   OH250135   8.905   7.211  11.072
 8647TIP3    H150136   8.936   7.259  11.157
 8647TIP3    H250137   9.004   7.222  11.020
 8648TIP3   OH250138   8.293   7.483  11.106
 8648TIP3    H150139   8.351   7.385  11.126
 8648TIP3    H250140   8.280   7.470  11.010
 8649TIP3   OH250141   7.458   7.240  10.776
 8649TIP3    H150142   7.474   7.336  10.720
 8649TIP3    H250143   7.404   7.170  10.711
 8650TIP3   OH250144   8.401   7.267  10.632
 8650TIP3    H150145   8.466   7.248  10.714
 8650TIP3    H250146   8.458   7.357  10.593
 8651TIP3   OH250147   7.026   7.567  10.876
 8651TIP3    H150148   7.106   7.516  10.932
 8651TIP3    H250149   7.057   7.524  10.789
 8652TIP3   OH250150   7.648   7.732  10.824
 8652TIP3    H150151   7.732   7.660  10.856
 8652TIP3    H250152   7.601   7.666  10.754
 8653TIP3   OH250153   8.936   7.284  11.352
 8653TIP3    H150154   8.879   7.384  11.332
 8653TIP3    H250155   9.001   7.315  11.428
 8654TIP3   OH250156   7.334   7.136  11.208
 8654TIP3    H150157   7.289   7.201  11.136
 8654TIP3    H250158   7.259   7.163  11.280
 8655TIP3   OH250159   8.152   8.284  10.546
 8655TIP3    H150160   8.140   8.292  10.448
 8655TIP3    H250161   8.118   8.389  10.573
 8656TIP3   OH250162   7.607   8.062  11.183
 8656TIP3    H150163   7.548   8.152  11.221
 8656TIP3    H250164   7.694   8.118  11.137
 8657TIP3   OH250165   8.572   7.238  10.862
 8657TIP3    H150166   8.534   7.147  10.914
 8657TIP3    H250167   8.669   7.271  10.909
 8658TIP3   OH250168   7.282   7.369  10.999
 8658TIP3    H150169   7.357   7.446  11.040
 8658TIP3    H250170   7.344   7.334  10.920
 8659TIP3   OH250171   7.459   8.315  11.302
 8659TIP3    H150172   7.442   8.423  11.266
 8659TIP3    H250173   7.354   8.296  11.344
 8660TIP3   OH250174   6.948   8.231  10.379
 8660TIP3    H150175   6.953   8.302  10.300
 8660TIP3    H250176   6.960   8.309  10.452
 8661TIP3   OH250177   8.590   8.507  11.108
 8661TIP3    H150178   8.472   8.507  11.100
 8661TIP3    H250179   8.610   8.617  11.078
 8662TIP3   OH250180   8.634   7.099  11.183
 8662TIP3    H150181   8.537   7.108  11.128
 8662TIP3    H250182   8.712   7.160  11.130
 8663TIP3   OH250183   7.758   6.835  10.929
 8663TIP3    H150184   7.727   6.726  10.948
 8663TIP3    H250185   7.657   6.890  10.957
 8664TIP3   OH250186   8.374   8.675  10.746
 8664TIP3    H150187   8.411   8.572  10.708
 8664TIP3    H250188   8.464   8.743  10.720
 8665TIP3   OH250189   8.486   8.407  10.619
 8665TIP3    H150190   8.479   8.330  10.546
 8665TIP3    H250191   8.527   8.340  10.692
 8666TIP3   OH250192   8.687   8.237  11.442
 8666TIP3    H150193   8.700   8.159  11.369
 8666TIP3    H250194   8.713   8.335  11.395
 8667TIP3   OH250195   8.062   7.891  10.414
 8667TIP3    H150196   8.014   7.997  10.397
 8667TIP3    H250197   8.158   7.895  10.360
 8668TIP3   OH250198   8.111   7.730  10.116
 8668TIP3    H150199   8.195   7.770  10.178
 8668TIP3    H250200   8.156   7.625  10.095
 8669TIP3   OH250201   8.896   7.790  11.226
 8669TIP3    H150202   8.822   7.878  11.202
 8669TIP3    H250203   8.986   7.817  11.165
 8670TIP3   OH250204   8.500   7.918  10.518
 8670TIP3    H150205   8.411   7.951  10.577
 8670TIP3    H250206   8.566   7.858  10.583
 8671TIP3   OH250207   8.466   7.687  11.407
 8671TIP3    H150208   8.430   7.775  11.464
 8671TIP3    H250209   8.393   7.702  11.331
 8672TIP3   OH250210   7.458   7.973  10.698
 8672TIP3    H150211   7.422   7.950  10.606
 8672TIP3    H250212   7.535   7.884  10.714
 8673TIP3   OH250213   7.631   8.378  10.959
 8673TIP3    H150214   7.644   8.380  10.862
 8673TIP3    H250215   7.727   8.322  10.990
 8674TIP3   OH250216   7.494   7.807  11.063
 8674TIP3    H150217   7.544   7.807  10.975
 8674TIP3    H250218   7.550   7.895  11.109
 8675TIP3   OH250219   8.267   8.506  11.132
 8675TIP3    H150220   8.226   8.586  11.194
 8675TIP3    H250221   8.250   8.408  11.185
 8676TIP3   OH250222   7.649   8.362  11.531
 8676TIP3    H150223   7.571   8.435  11.572
 8676TIP3    H250224   7.603   8.350  11.441
 8677TIP3   OH250225   8.339   7.832  10.283
 8677TIP3    H150226   8.404   7.859  10.362
 8677TIP3    H250227   8.402   7.886  10.213
 8678TIP3   OH250228   7.280   7.897  11.427
 8678TIP3    H150229   7.294   8.005  11.462
 8678TIP3    H250230   7.196   7.856  11.486
 8679TIP3   OH250231   8.063   8.628  10.553
 8679TIP3    H150232   8.108   8.635  10.641
 8679TIP3    H250233   7.986   8.716  10.553
 8680TIP3   OH250234   7.405   8.578  11.595
 8680TIP3    H150235   7.393   8.585  11.498
 8680TIP3    H250236   7.304   8.528  11.624
 8681TIP3   OH250237   8.782   6.779  10.226
 8681TIP3    H150238   8.665   6.792  10.238
 8681TIP3    H250239   8.821   6.878  10.262
 8682TIP3   OH250240   7.345   7.843  10.462
 8682TIP3    H150241   7.302   7.934  10.412
 8682TIP3    H250242   7.292   7.753  10.419
 8683TIP3   OH250243   8.928   8.504  10.152
 8683TIP3    H150244   8.930   8.623  10.154
 8683TIP3    H250245   9.040   8.489  10.125
 8684TIP3   OH250246   6.911   8.167  11.352
 8684TIP3    H150247   6.851   8.162  11.269
 8684TIP3    H250248   6.955   8.057  11.353
 8685TIP3   OH250249   6.888   8.465  10.995
 8685TIP3    H150250   7.003   8.455  11.000
 8685TIP3    H250251   6.871   8.562  11.045
 8686TIP3   OH250252   9.029   8.556  11.584
 8686TIP3    H150253   9.008   8.441  11.582
 8686TIP3    H250254   8.939   8.590  11.640
 8687TIP3   OH250255   7.955   8.500  11.452
 8687TIP3    H150256   7.970   8.594  11.509
 8687TIP3    H250257   7.854   8.456  11.484
 8688TIP3   OH250258   8.042   8.988  10.470
 8688TIP3    H150259   8.023   8.994  10.375
 8688TIP3    H250260   7.991   9.085  10.502
 8689TIP3   OH250261   7.259   8.764  10.658
 8689TIP3    H150262   7.302   8.773  10.749
 8689TIP3    H250263   7.176   8.683  10.675
 8690TIP3   OH250264   8.350   8.911  10.204
 8690TIP3    H150265   8.395   8.842  10.134
 8690TIP3    H250266   8.375   8.848  10.284
 8691TIP3   OH250267   8.334   8.838  10.460
 8691TIP3    H150268   8.222   8.872  10.476
 8691TIP3    H250269   8.351   8.755  10.527
 8692TIP3   OH250270   8.684   7.550  11.622
 8692TIP3    H150271   8.611   7.576  11.550
 8692TIP3    H250272   8.706   7.436  11.608
 8693TIP3   OH250273   7.181   8.303  11.441
 8693TIP3    H150274   7.172   8.260  11.532
 8693TIP3    H250275   7.073   8.280  11.407
 8694TIP3   OH250276   7.488   6.958  11.021
 8694TIP3    H150277   7.385   6.947  10.979
 8694TIP3    H250278   7.456   7.018  11.101
 8695TIP3   OH250279   8.068   6.875  11.354
 8695TIP3    H150280   8.105   6.818  11.434
 8695TIP3    H250281   7.949   6.875  11.361
 8696TIP3   OH250282   8.424   7.325  11.446
 8696TIP3    H150283   8.370   7.291  11.528
 8696TIP3    H250284   8.423   7.441  11.456
 8697TIP3   OH250285   8.522   7.964  10.107
 8697TIP3    H150286   8.474   7.982  10.018
 8697TIP3    H250287   8.629   8.006  10.092
 8698TIP3   OH250288   8.012   7.217  10.124
 8698TIP3    H150289   7.963   7.177  10.208
 8698TIP3    H250290   7.937   7.174  10.062
 8699TIP3   OH250291   7.501   7.517  11.163
 8699TIP3    H150292   7.402   7.518  11.217
 8699TIP3    H250293   7.499   7.627  11.128
 8700TIP3   OH250294   7.482   7.500  10.631
 8700TIP3    H150295   7.368   7.522  10.617
 8700TIP3    H250296   7.523   7.474  10.541
 8701TIP3   OH250297   8.188   7.649  10.557
 8701TIP3    H150298   8.130   7.733  10.507
 8701TIP3    H250299   8.248   7.600  10.484
 8702TIP3   OH250300   7.999   7.615  11.658
 8702TIP3    H150301   7.951   7.518  11.696
 8702TIP3    H250302   8.095   7.625  11.715
 8703TIP3   OH250303   8.273   7.574  10.818
 8703TIP3    H150304   8.252   7.680  10.778
 8703TIP3    H250305   8.272   7.513  10.735
 8704TIP3   OH250306   7.214   7.522  11.289
 8704TIP3    H150307   7.240   7.570  11.374
 8704TIP3    H250308   7.164   7.421  11.318
 8705TIP3   OH250309   7.613   7.265  10.045
 8705TIP3    H150310   7.554   7.216  10.119
 8705TIP3    H250311   7.540   7.259   9.971
 8706TIP3   OH250312   6.822   7.198  10.748
 8706TIP3    H150313   6.898   7.214  10.820
 8706TIP3    H250314   6.877   7.241  10.671
 8707TIP3   OH250315   6.954   7.285  10.267
 8707TIP3    H150316   7.046   7.344  10.230
 8707TIP3    H250317   6.881   7.376  10.281
 8708TIP3   OH250318   8.179   7.745  11.235
 8708TIP3    H150319   8.234   7.657  11.187
 8708TIP3    H250320   8.114   7.681  11.297
 8709TIP3   OH250321   7.806   7.228  10.760
 8709TIP3    H150322   7.692   7.230  10.780
 8709TIP3    H250323   7.853   7.174  10.837
 8710TIP3   OH250324   7.146   7.433  10.646
 8710TIP3    H150325   7.061   7.472  10.587
 8710TIP3    H250326   7.177   7.327  10.612
 8711TIP3   OH250327   7.631   7.446  10.391
 8711TIP3    H150328   7.741   7.481  10.390
 8711TIP3    H250329   7.577   7.522  10.330
 8712TIP3   OH250330   8.335   7.141  11.050
 8712TIP3    H150331   8.257   7.134  11.123
 8712TIP3    H250332   8.264   7.123  10.973
 8713TIP3   OH250333   7.450   7.598  10.205
 8713TIP3    H150334   7.349   7.570  10.164
 8713TIP3    H250335   7.524   7.594  10.130
 8714TIP3   OH250336   8.690   9.012  11.706
 8714TIP3    H150337   8.746   9.037  11.622
 8714TIP3    H250338   8.770   9.046  11.771
 8715TIP3   OH250339   7.204   8.105  11.676
 8715TIP3    H150340   7.284   8.140  11.741
 8715TIP3    H250341   7.109   8.087  11.732
 8716TIP3   OH250342   7.922   7.553  10.929
 8716TIP3    H150343   8.021   7.538  10.878
 8716TIP3    H250344   7.918   7.453  10.978
 8717TIP3   OH250345   7.274   7.099  10.586
 8717TIP3    H150346   7.196   7.028  10.630
 8717TIP3    H250347   7.322   7.021  10.525
 8718TIP3   OH250348   7.768   7.352  11.175
 8718TIP3    H150349   7.672   7.421  11.171
 8718TIP3    H250350   7.843   7.423  11.219
 8719TIP3   OH250351   7.853   8.149  10.365
 8719TIP3    H150352   7.768   8.080  10.331
 8719TIP3    H250353   7.808   8.174  10.454
 8720TIP3   OH250354   8.702   8.050  11.226
 8720TIP3    H150355   8.756   8.099  11.150
 8720TIP3    H250356   8.598   8.028  11.189
 8721TIP3   OH250357   8.315   7.274  10.183
 8721TIP3    H150358   8.198   7.261  10.168
 8721TIP3    H250359   8.317   7.385  10.216
 8722TIP3   OH250360   7.976   8.152  11.508
 8722TIP3    H150361   7.990   8.118  11.601
 8722TIP3    H250362   7.998   8.266  11.512
 8723TIP3   OH250363   8.377   7.524  10.341
 8723TIP3    H150364   8.484   7.489  10.368
 8723TIP3    H250365   8.398   7.633  10.308
 8724TIP3   OH250366   7.283   8.078  10.919
 8724TIP3    H150367   7.349   8.053  10.840
 8724TIP3    H250368   7.294   7.982  10.973
 8725TIP3   OH250369   8.123   8.312  10.271
 8725TIP3    H150370   8.088   8.425  10.280
 8725TIP3    H250371   8.022   8.254  10.279
 8726TIP3   OH250372   6.914   7.848  11.451
 8726TIP3    H150373   6.895   7.783  11.530
 8726TIP3    H250374   6.844   7.798  11.384
 8727TIP3   OH250375   7.733   7.794  11.648
 8727TIP3    H150376   7.685   7.726  11.581
 8727TIP3    H250377   7.841   7.746  11.652
 8728TIP3   OH250378   8.327   8.434  11.501
 8728TIP3    H150379   8.230   8.462  11.456
 8728TIP3    H250380   8.308   8.483  11.589
 8729TIP3   OH250381   8.963   7.474  10.319
 8729TIP3    H150382   8.875   7.460  10.254
 8729TIP3    H250383   9.010   7.568  10.278
 8730TIP3   OH250384   8.962   8.219  11.565
 8730TIP3    H150385   8.846   8.245  11.554
 8730TIP3    H250386   8.995   8.208  11.471
 8731TIP3   OH250387   8.766   8.557  10.376
 8731TIP3    H150388   8.681   8.479  10.388
 8731TIP3    H250389   8.821   8.516  10.297
 8732TIP3   OH250390   8.459   7.981  11.033
 8732TIP3    H150391   8.347   7.969  11.007
 8732TIP3    H250392   8.501   7.886  10.986
 8733TIP3   OH250393   7.532   8.460  10.691
 8733TIP3    H150394   7.574   8.567  10.671
 8733TIP3    H250395   7.438   8.461  10.635
 8734TIP3   OH250396   7.063   7.842  10.085
 8734TIP3    H150397   7.123   7.913  10.146
 8734TIP3    H250398   6.958   7.843  10.128
 8735TIP3   OH250399   7.711   8.195  10.616
 8735TIP3    H150400   7.656   8.294  10.638
 8735TIP3    H250401   7.663   8.119  10.678
 8736TIP3   OH250402   7.769   8.707  11.274
 8736TIP3    H150403   7.824   8.810  11.267
 8736TIP3    H250404   7.860   8.639  11.296
 8737TIP3   OH250405   7.568   8.765  10.569
 8737TIP3    H150406   7.456   8.786  10.590
 8737TIP3    H250407   7.624   8.861  10.604
 8738TIP3   OH250408   8.154   8.200  11.236
 8738TIP3    H150409   8.096   8.186  11.321
 8738TIP3    H250410   8.197   8.092  11.224
 8739TIP3   OH250411   8.476   8.363  10.126
 8739TIP3    H150412   8.522   8.305  10.203
 8739TIP3    H250413   8.363   8.344  10.147
 8740TIP3   OH250414   8.503   8.766  11.476
 8740TIP3    H150415   8.424   8.688  11.444
 8740TIP3    H250416   8.525   8.839  11.402
 8741TIP3   OH250417   9.002   8.816  10.126
 8741TIP3    H150418   9.074   8.904  10.106
 8741TIP3    H250419   8.912   8.878  10.165
 8742TIP3   OH250420   7.120   7.234  11.403
 8742TIP3    H150421   7.014   7.282  11.412
 8742TIP3    H250422   7.121   7.151  11.471
 8743TIP3   OH250423   8.599   8.189  10.322
 8743TIP3    H150424   8.544   8.099  10.365
 8743TIP3    H250425   8.712   8.155  10.331
 8744TIP3   OH250426   7.078   8.618  11.265
 8744TIP3    H150427   7.139   8.520  11.261
 8744TIP3    H250428   7.142   8.681  11.327
 8745TIP3   OH250429   7.603   8.398  10.229
 8745TIP3    H150430   7.698   8.344  10.262
 8745TIP3    H250431   7.625   8.509  10.257
 8746TIP3   OH250432   7.204   8.054  10.278
 8746TIP3    H150433   7.109   8.108  10.315
 8746TIP3    H250434   7.260   8.148  10.239
 8747TIP3   OH250435   8.138   7.217  11.341
 8747TIP3    H150436   8.250   7.234  11.367
 8747TIP3    H250437   8.112   7.115  11.382
 8748TIP3   OH250438   8.233   7.123  10.430
 8748TIP3    H150439   8.267   7.188  10.354
 8748TIP3    H250440   8.304   7.164  10.500
 8749TIP3   OH250441   7.978   8.612  10.244
 8749TIP3    H150442   7.880   8.630  10.296
 8749TIP3    H250443   8.023   8.719  10.246
 8750TIP3   OH250444   7.951   7.355  10.544
 8750TIP3    H150445   7.993   7.463  10.552
 8750TIP3    H250446   7.910   7.328  10.633
 8751TIP3   OH250447   8.020   7.519  11.398
 8751TIP3    H150448   8.009   7.538  11.495
 8751TIP3    H250449   8.072   7.414  11.391
 8752TIP3   OH250450   7.993   6.980  10.571
 8752TIP3    H150451   7.933   7.073  10.605
 8752TIP3    H250452   8.090   7.033  10.536
 8753TIP3   OH250453   7.650   8.712  10.301
 8753TIP3    H150454   7.678   8.812  10.258
 8753TIP3    H250455   7.594   8.748  10.382
 8754TIP3   OH250456   7.472   7.139  10.290
 8754TIP3    H150457   7.474   7.242  10.335
 8754TIP3    H250458   7.583   7.105  10.307
 8755TIP3   OH250459   8.704   7.202  11.530
 8755TIP3    H150460   8.602   7.224  11.485
 8755TIP3    H250461   8.779   7.226  11.457
 8756TIP3   OH250462   8.543   7.718  10.901
 8756TIP3    H150463   8.448   7.649  10.893
 8756TIP3    H250464   8.612   7.642  10.949
 8757TIP3   OH250465   7.279   8.358  10.166
 8757TIP3    H150466   7.380   8.401  10.201
 8757TIP3    H250467   7.307   8.344  10.073
 8758TIP3   OH250468   7.090   7.510  10.123
 8758TIP3    H150469   7.087   7.626  10.123
 8758TIP3    H250470   7.010   7.487  10.053
 8759TIP3   OH250471   8.719   8.815  11.083
 8759TIP3    H150472   8.692   8.879  11.003
 8759TIP3    H250473   8.836   8.814  11.074
 8760TIP3   OH250474   7.171   6.887  10.967
 8760TIP3    H150475   7.162   6.871  10.870
 8760TIP3    H250476   7.141   6.778  10.997
 8761TIP3   OH250477   7.022   8.518  10.550
 8761TIP3    H150478   6.923   8.573  10.567
 8761TIP3    H250479   7.058   8.585  10.475
 8762TIP3   OH250480   6.955   8.894  11.698
 8762TIP3    H150481   7.066   8.893  11.728
 8762TIP3    H250482   6.926   8.782  11.699
 8763TIP3   OH250483   7.532   8.702  11.857
 8763TIP3    H150484   7.646   8.680  11.857
 8763TIP3    H250485   7.506   8.681  11.765
 8764TIP3   OH250486   8.023   8.632  19.947
 8764TIP3    H150487   7.918   8.602  19.979
 8764TIP3    H250488   8.093   8.588  20.014
 8765TIP3   OH250489   8.286   8.570  11.747
 8765TIP3    H150490   8.238   8.467  11.771
 8765TIP3    H250491   8.382   8.572  11.803
 8766TIP3   OH250492   8.458   8.674  10.059
 8766TIP3    H150493   8.486   8.572  10.102
 8766TIP3    H250494   8.558   8.723  10.030
 8767TIP3   OH250495   6.900   8.123  11.796
 8767TIP3    H150496   6.864   8.011  11.788
 8767TIP3    H250497   6.857   8.170  11.714
 8768TIP3   OH250498   7.525   8.076  10.050
 8768TIP3    H150499   7.534   8.023  10.138
 8768TIP3    H250500   7.619   8.144  10.058
 8769TIP3   OH250501   7.739   8.114  11.717
 8769TIP3    H150502   7.730   8.180  11.636
 8769TIP3    H250503   7.741   8.004  11.680
 8770TIP3   OH250504   8.412   8.098  11.495
 8770TIP3    H150505   8.522   8.143  11.492
 8770TIP3    H250506   8.356   8.197  11.511
 8771TIP3   OH250507   7.066   7.786  11.747
 8771TIP3    H150508   7.136   7.696  11.749
 8771TIP3    H250509   7.100   7.847  11.825
 8772TIP3   OH250510   7.624   7.930  10.269
 8772TIP3    H150511   7.534   7.868  10.307
 8772TIP3    H250512   7.666   7.856  10.201
 8773TIP3   OH250513   7.505   7.669  11.434
 8773TIP3    H150514   7.432   7.760  11.422
 8773TIP3    H250515   7.596   7.711  11.385
 8774TIP3   OH250516   7.772   7.732  10.074
 8774TIP3    H150517   7.781   7.717   9.979
 8774TIP3    H250518   7.884   7.722  10.106
 8775TIP3   OH250519   8.158   7.994  11.798
 8775TIP3    H150520   8.256   7.946  11.766
 8775TIP3    H250521   8.111   7.907  11.849
 8776TIP3   OH250522   8.809   8.034  19.974
 8776TIP3    H150523   8.796   7.919  19.963
 8776TIP3    H250524   8.904   8.048  19.916
 8777TIP3   OH250525   7.585   7.376  11.532
 8777TIP3    H150526   7.595   7.297  11.459
 8777TIP3    H250527   7.552   7.474  11.483
 8778TIP3   OH250528   7.618   7.145  11.334
 8778TIP3    H150529   7.687   7.205  11.272
 8778TIP3    H250530   7.519   7.133  11.282
 8779TIP3   OH250531   7.769   7.850  11.338
 8779TIP3    H150532   7.872   7.900  11.321
 8779TIP3    H250533   7.699   7.932  11.299
 8780TIP3   OH250534   8.250   7.556  11.819
 8780TIP3    H150535   8.261   7.446  11.792
 8780TIP3    H250536   8.357   7.580  11.856
 8781TIP3   OH250537   8.476   7.912  11.703
 8781TIP3    H150538   8.456   7.975  11.621
 8781TIP3    H250539   8.581   7.868  11.682
 8782TIP3   OH250540   7.411   7.475  11.755
 8782TIP3    H150541   7.308   7.427  11.730
 8782TIP3    H250542   7.478   7.448  11.677
 8783TIP3   OH250543   7.745   6.850  11.329
 8783TIP3    H150544   7.706   6.960  11.336
 8783TIP3    H250545   7.644   6.796  11.311
 8784TIP3   OH250546   7.850   7.346  11.745
 8784TIP3    H150547   7.774   7.316  11.815
 8784TIP3    H250548   7.780   7.343  11.667
 8785TIP3   OH250549   8.203   7.254  11.646
 8785TIP3    H150550   8.088   7.260  11.656
 8785TIP3    H250551   8.233   7.192  11.725
 8786TIP3   OH250552   8.366   7.098  11.833
 8786TIP3    H150553   8.369   6.979  11.834
 8786TIP3    H250554   8.358   7.124  11.928
 8787TIP3   OH250555   7.152   7.254  11.762
 8787TIP3    H150556   7.135   7.156  11.712
 8787TIP3    H250557   7.121   7.220  11.854
 8788TIP3   OH250558   7.721   6.821  11.637
 8788TIP3    H150559   7.819   6.760  11.641
 8788TIP3    H250560   7.704   6.821  11.541
 8789TIP3   OH250561   7.760   6.966  11.880
 8789TIP3    H150562   7.736   6.908  11.796
 8789TIP3    H250563   7.688   7.058  11.871
 8790TIP3   OH250564   7.716   9.000  10.153
 8790TIP3    H150565   7.825   9.017  10.183
 8790TIP3    H250566   7.729   9.014  10.056
 8791TIP3   OH250567   6.953   8.364  10.134
 8791TIP3    H150568   7.072   8.365  10.143
 8791TIP3    H250569   6.937   8.332  10.042
 8792TIP3   OH250570   6.798   9.001  10.603
 8792TIP3    H150571   6.708   8.945  10.560
 8792TIP3    H250572   6.810   8.933  10.681
 8793TIP3   OH250573   6.906   8.750  10.806
 8793TIP3    H150574   6.820   8.683  10.840
 8793TIP3    H250575   6.977   8.760  10.884
 8794TIP3   OH250576   9.084   8.863  11.063
 8794TIP3    H150577   9.088   8.898  11.156
 8794TIP3    H250578   9.055   8.964  11.023
 8795TIP3   OH250579   8.940   8.780  11.402
 8795TIP3    H150580   8.902   8.700  11.339
 8795TIP3    H250581   8.996   8.707  11.464
 8796TIP3   OH250582   8.726   8.314  11.840
 8796TIP3    H150583   8.636   8.315  11.905
 8796TIP3    H250584   8.795   8.400  11.873
 8797TIP3   OH250585   8.917   8.089  10.375
 8797TIP3    H150586   9.004   8.160  10.401
 8797TIP3    H250587   8.930   8.004  10.441
 8798TIP3   OH250588   8.964   7.866  10.570
 8798TIP3    H150589   8.850   7.837  10.576
 8798TIP3    H250590   8.996   7.849  10.662
 8799TIP3   OH250591   8.941   8.162  11.085
 8799TIP3    H150592   9.020   8.108  11.030
 8799TIP3    H250593   8.945   8.272  11.046
 8800TIP3   OH250594   8.784   8.522  11.315
 8800TIP3    H150595   8.700   8.581  11.360
 8800TIP3    H250596   8.732   8.503  11.228
 8801TIP3   OH250597   8.982   7.864  10.184
 8801TIP3    H150598   8.881   7.898  10.148
 8801TIP3    H250599   8.993   7.943  10.255
 8802TIP3   OH250600   8.788   7.483  10.104
 8802TIP3    H150601   8.849   7.538  10.034
 8802TIP3    H250602   8.779   7.379  10.061
 8803TIP3   OH250603   8.696   7.720  10.661
 8803TIP3    H150604   8.666   7.613  10.630
 8803TIP3    H250605   8.660   7.718  10.755
 8804TIP3   OH250606   6.895   7.978  11.065
 8804TIP3    H150607   6.906   7.938  10.971
 8804TIP3    H250608   7.000   7.943  11.099
 8805TIP3   OH250609   8.808   7.912  11.605
 8805TIP3    H150610   8.905   7.847  11.592
 8805TIP3    H250611   8.852   8.020  11.597
 8806TIP3   OH250612   8.995   7.670  11.675
 8806TIP3    H150613   8.879   7.652  11.678
 8806TIP3    H250614   9.030   7.560  11.693
 8807TIP3   OH250615   8.711   7.228   9.964
 8807TIP3    H150616   8.778   7.148  10.008
 8807TIP3    H250617   8.608   7.216  10.009
 8808TIP3   OH250618   8.660   7.433  10.477
 8808TIP3    H150619   8.662   7.316  10.496
 8808TIP3    H250620   8.773   7.453  10.460
 8809TIP3   OH250621   8.693   7.495  11.030
 8809TIP3    H150622   8.809   7.481  11.015
 8809TIP3    H250623   8.689   7.475  11.126
 8810TIP3   OH250624   8.732   7.537  11.316
 8810TIP3    H150625   8.633   7.595  11.337
 8810TIP3    H250626   8.796   7.630  11.285
 8811TIP3   OH250627   6.884   7.372  11.668
 8811TIP3    H150628   6.992   7.349  11.703
 8811TIP3    H250629   6.834   7.264  11.669
 8812TIP3   OH250630   9.012   6.779  11.825
 8812TIP3    H150631   9.066   6.714  11.759
 8812TIP3    H250632   9.006   6.882  11.778
 8813TIP3   OH250633   8.713   7.114  10.503
 8813TIP3    H150634   8.749   7.074  10.591
 8813TIP3    H250635   8.656   7.020  10.470
 8814TIP3   OH250636   7.010   7.176  11.014
 8814TIP3    H150637   7.057   7.067  11.008
 8814TIP3    H250638   7.104   7.243  10.996
 8815TIP3   OH250639   6.824   7.544  11.072
 8815TIP3    H150640   6.889   7.525  10.993
 8815TIP3    H250641   6.877   7.640  11.104
 8816TIP3   OH250642   8.965   7.064  11.711
 8816TIP3    H150643   8.858   7.100  11.743
 8816TIP3    H250644   8.930   7.044  11.619
 8817TIP3   OH250645   9.023   7.090  10.136
 8817TIP3    H150646   9.059   6.989  10.098
 8817TIP3    H250647   9.080   7.172  10.086
 8818TIP3   OH250648   6.846   7.082  10.458
 8818TIP3    H150649   6.738   7.120  10.475
 8818TIP3    H250650   6.869   7.130  10.371
 8819TIP3   OH250651   8.584   8.868  10.634
 8819TIP3    H150652   8.666   8.870  10.563
 8819TIP3    H250653   8.647   8.902  10.711
 8820TIP3   OH250654   6.853   6.912  11.298
 8820TIP3    H150655   6.767   6.878  11.358
 8820TIP3    H250656   6.799   6.986  11.237
 8821TIP3   OH250657   7.116   8.478  11.686
 8821TIP3    H150658   7.015   8.478  11.636
 8821TIP3    H250659   7.080   8.488  11.777
 8822TIP3   OH250660   7.457   8.646  11.332
 8822TIP3    H150661   7.442   8.764  11.323
 8822TIP3    H250662   7.573   8.646  11.330
 8823TIP3   OH250663   8.009   8.770  11.603
 8823TIP3    H150664   7.992   8.746  11.698
 8823TIP3    H250665   8.099   8.846  11.608
 8824TIP3   OH250666   8.274   8.986  11.567
 8824TIP3    H150667   8.347   8.900  11.543
 8824TIP3    H250668   8.305   9.004  11.660
 8825TIP3   OH250669   8.812   6.860  11.490
 8825TIP3    H150670   8.716   6.905  11.450
 8825TIP3    H250671   8.819   6.756  11.446
 8826TIP3   OH250672   7.123   9.048  11.315
 8826TIP3    H150673   7.012   9.041  11.284
 8826TIP3    H250674   7.110   9.068  11.410
 8827TIP3   OH250675   7.430   8.956  11.279
 8827TIP3    H150676   7.321   8.995  11.303
 8827TIP3    H250677   7.434   8.984  11.185
 8828TIP3   OH250678   8.018   8.939  11.156
 8828TIP3    H150679   7.931   8.958  11.091
 8828TIP3    H250680   8.018   9.042  11.202
 8829TIP3   OH250681   8.231   8.758  11.298
 8829TIP3    H150682   8.149   8.816  11.246
 8829TIP3    H250683   8.321   8.827  11.283
 8830TIP3   OH250684   8.558   9.022  11.259
 8830TIP3    H150685   8.537   9.125  11.218
 8830TIP3    H250686   8.616   8.962  11.189
 8831TIP3   OH250687   7.096   8.779  11.026
 8831TIP3    H150688   7.094   8.718  11.110
 8831TIP3    H250689   7.196   8.744  10.983
 8832TIP3   OH250690   7.357   8.701  10.899
 8832TIP3    H150691   7.346   8.585  10.912
 8832TIP3    H250692   7.453   8.722  10.954
 8833TIP3   OH250693   7.624   8.702  11.034
 8833TIP3    H150694   7.655   8.590  11.019
 8833TIP3    H250695   7.658   8.719  11.127
 8834TIP3   OH250696   8.047   7.033  10.916
 8834TIP3    H150697   7.955   6.968  10.939
 8834TIP3    H250698   8.104   6.961  10.856
 8835TIP3   OH250699   8.647   6.793  10.903
 8835TIP3    H150700   8.708   6.870  10.849
 8835TIP3    H250701   8.538   6.823  10.873
 8836TIP3   OH250702   8.820   6.961  10.727
 8836TIP3    H150703   8.905   6.886  10.700
 8836TIP3    H250704   8.890   7.051  10.753
 8837TIP3   OH250705   7.133   6.829  10.692
 8837TIP3    H150706   7.034   6.816  10.642
 8837TIP3    H250707   7.190   6.728  10.671
 8838TIP3   OH250708   6.983   6.826  10.251
 8838TIP3    H150709   7.049   6.907  10.205
 8838TIP3    H250710   6.935   6.888  10.324
 8839TIP3   OH250711   7.649   6.802  10.657
 8839TIP3    H150712   7.747   6.835  10.616
 8839TIP3    H250713   7.669   6.826  10.750
 8840TIP3   OH250714   8.342   6.865  10.800
 8840TIP3    H150715   8.316   6.864  10.706
 8840TIP3    H250716   8.284   6.770  10.835
 8841TIP3   OH250717   8.524   6.838  10.404
 8841TIP3    H150718   8.431   6.907  10.411
 8841TIP3    H250719   8.479   6.733  10.434
 8842TIP3   OH250720   6.977   8.747  10.368
 8842TIP3    H150721   6.864   8.735  10.347
 8842TIP3    H250722   7.002   8.849  10.325
 8843TIP3   OH250723   7.200   6.990  10.111
 8843TIP3    H150724   7.294   6.923  10.123
 8843TIP3    H250725   7.234   7.090  10.152
 8844TIP3   OH250726   7.858   7.110  10.337
 8844TIP3    H150727   7.921   7.055  10.404
 8844TIP3    H250728   7.852   7.216  10.380
 8845TIP3   OH250729   8.041   8.935  10.163
 8845TIP3    H150730   8.160   8.933  10.170
 8845TIP3    H250731   8.027   8.876  10.079
 8846TIP3   OH250732   8.834   8.839  10.480
 8846TIP3    H150733   8.810   8.726  10.459
 8846TIP3    H250734   8.827   8.882  10.390
 8847TIP3   OH250735   7.104   6.948  11.637
 8847TIP3    H150736   7.042   6.848  11.636
 8847TIP3    H250737   7.190   6.922  11.699
 8848TIP3   OH250738   7.342   6.848  11.829
 8848TIP3    H150739   7.450   6.827  11.797
 8848TIP3    H250740   7.307   6.739  11.851
 8849TIP3   OH250741   7.238   8.966  10.071
 8849TIP3    H150742   7.162   8.969  10.145
 8849TIP3    H250743   7.304   8.878  10.100
 8850TIP3   OH250744   8.378   6.782  11.828
 8850TIP3    H150745   8.374   6.718  11.909
 8850TIP3    H250746   8.484   6.751  11.792
 8851TIP3   OH250747   8.741   8.677  11.678
 8851TIP3    H150748   8.669   8.716  11.608
 8851TIP3    H250749   8.786   8.778  11.708
 8852TIP3   OH250750   9.089   7.549  10.549
 8852TIP3    H150751   9.060   7.662  10.552
 8852TIP3    H250752   9.028   7.512  10.471
 8853TIP3   OH250753   9.077   8.102  11.334
 8853TIP3    H150754   9.025   8.111  11.246
 8853TIP3    H250755   9.054   7.992  11.362
 8854TIP3   OH250756   9.024   8.442  10.988
 8854TIP3    H150757   9.124   8.466  10.941
 8854TIP3    H250758   9.037   8.507  11.067
 8855TIP3   OH250759   9.052   7.186  10.721
 8855TIP3    H150760   9.154   7.242  10.732
 8855TIP3    H250761   9.043   7.186  10.625
 8856TIP3   OH250762   9.098   7.798  11.442
 8856TIP3    H150763   9.085   7.726  11.519
 8856TIP3    H250764   9.004   7.771  11.386
 8857TIP3   OH250765   9.118   8.065  11.765
 8857TIP3    H150766   9.047   7.978  11.790
 8857TIP3    H250767   9.066   8.112  11.686
 8858TIP3   OH250768   8.992   8.993  10.667
 8858TIP3    H150769   8.926   8.933  10.602
 8858TIP3    H250770   9.018   8.906  10.730
 8859TIP3   OH250771   9.061   8.712  10.813
 8859TIP3    H150772   8.968   8.660  10.853
 8859TIP3    H250773   9.131   8.726  10.891
 8860TIP3   OH250774   9.133   7.886  11.069
 8860TIP3    H150775   9.136   7.896  10.972
 8860TIP3    H250776   9.235   7.939  11.089
 8861TIP3   OH250777   9.044   7.362  11.648
 8861TIP3    H150778   9.160   7.352  11.631
 8861TIP3    H250779   9.024   7.270  11.707
 8862TIP3   OH250780   9.002   7.510  11.002
 8862TIP3    H150781   9.108   7.463  11.017
 8862TIP3    H250782   9.035   7.620  11.004
 8863TIP3   OH250783   9.013   7.110  10.416
 8863TIP3    H150784   8.902   7.141  10.432
 8863TIP3    H250785   9.019   7.115  10.318
 8864TIP3   OH250786   8.971   6.902  11.257
 8864TIP3    H150787   8.945   6.911  11.353
 8864TIP3    H250788   8.903   6.985  11.218
 8865TIP3   OH250789   0.990   9.028  11.012
 8865TIP3    H150790   0.996   8.948  10.939
 8865TIP3    H250791   0.872   9.032  11.027
 8866TIP3   OH250792   2.029   8.987  10.253
 8866TIP3    H150793   1.916   8.999  10.280
 8866TIP3    H250794   2.048   9.104  10.257
 8867TIP3   OH250795   0.694   9.133  11.043
 8867TIP3    H150796   0.582   9.127  11.011
 8867TIP3    H250797   0.712   9.250  11.024
 8868TIP3   OH250798   1.265   9.108  11.394
 8868TIP3    H150799   1.361   9.064  11.437
 8868TIP3    H250800   1.184   9.036  11.430
 8869TIP3   OH250801   0.392   9.104  10.938
 8869TIP3    H150802   0.382   9.106  10.840
 8869TIP3    H250803   0.324   9.013  10.962
 8870TIP3   OH250804   0.936   9.002  11.353
 8870TIP3    H150805   0.935   9.121  11.351
 8870TIP3    H250806   0.850   8.972  11.293
 8871TIP3   OH250807   0.905   8.971  11.614
 8871TIP3    H150808   1.008   8.941  11.650
 8871TIP3    H250809   0.924   8.958  11.518
 8872TIP3   OH250810   2.166   9.058  11.778
 8872TIP3    H150811   2.261   9.000  11.747
 8872TIP3    H250812   2.215   9.134  11.838
 8873TIP3   OH250813   0.090   9.150  11.264
 8873TIP3    H150814  -0.013   9.155  11.307
 8873TIP3    H250815   0.113   9.265  11.253
 8874TIP3   OH250816   2.020   9.065  11.445
 8874TIP3    H150817   1.940   9.053  11.373
 8874TIP3    H250818   2.057   8.953  11.456
 8875TIP3   OH250819   1.902   9.005  10.855
 8875TIP3    H150820   1.950   9.108  10.874
 8875TIP3    H250821   1.790   9.038  10.844
 8876TIP3   OH250822   0.342   9.073  10.654
 8876TIP3    H150823   0.244   9.047  10.605
 8876TIP3    H250824   0.403   8.974  10.639
 8877TIP3   OH250825   0.212   9.032  10.196
 8877TIP3    H150826   0.242   9.110  10.129
 8877TIP3    H250827   0.174   9.106  10.265
 8878TIP3   OH250828   0.907   9.028  10.687
 8878TIP3    H150829   0.942   9.116  10.631
 8878TIP3    H250830   0.823   9.082  10.737
 8879TIP3   OH250831   1.579   9.059  10.771
 8879TIP3    H150832   1.517   9.079  10.692
 8879TIP3    H250833   1.528   8.962  10.805
 8880TIP3   OH250834   1.756   9.076  10.373
 8880TIP3    H150835   1.681   9.054  10.300
 8880TIP3    H250836   1.722   8.993  10.437
 8881TIP3   OH250837   0.551   9.043  11.732
 8881TIP3    H150838   0.623   8.980  11.678
 8881TIP3    H250839   0.529   8.971  11.807
 8882TIP3   OH250840   1.596   8.953  11.807
 8882TIP3    H150841   1.608   8.917  11.900
 8882TIP3    H250842   1.709   8.951  11.780
 8883TIP3   OH250843   3.245   9.029  11.006
 8883TIP3    H150844   3.242   8.941  10.940
 8883TIP3    H250845   3.131   9.038  11.028
 8884TIP3   OH250846   4.290   9.001  10.247
 8884TIP3    H150847   4.180   9.005  10.281
 8884TIP3    H250848   4.308   9.119  10.255
 8885TIP3   OH250849   2.936   9.140  11.045
 8885TIP3    H150850   2.830   9.130  11.005
 8885TIP3    H250851   2.951   9.257  11.040
 8886TIP3   OH250852   3.535   9.108  11.379
 8886TIP3    H150853   3.625   9.072  11.437
 8886TIP3    H250854   3.456   9.029  11.405
 8887TIP3   OH250855   2.626   9.091  10.937
 8887TIP3    H150856   2.616   9.082  10.839
 8887TIP3    H250857   2.586   8.987  10.967
 8888TIP3   OH250858   3.216   9.006  11.352
 8888TIP3    H150859   3.223   9.121  11.330
 8888TIP3    H250860   3.108   8.983  11.319
 8889TIP3   OH250861   3.132   8.968  11.608
 8889TIP3    H150862   3.220   8.915  11.653
 8889TIP3    H250863   3.173   8.974  11.515
 8890TIP3   OH250864   4.393   9.004  11.775
 8890TIP3    H150865   4.498   8.977  11.738
 8890TIP3    H250866   4.421   9.095  11.831
 8891TIP3   OH250867   2.298   9.094  11.277
 8891TIP3    H150868   2.208   9.095  11.341
 8891TIP3    H250869   2.302   9.206  11.249
 8892TIP3   OH250870   4.250   9.071  11.448
 8892TIP3    H150871   4.176   9.054  11.374
 8892TIP3    H250872   4.314   8.971  11.443
 8893TIP3   OH250873   4.172   9.000  10.855
 8893TIP3    H150874   4.218   9.106  10.875
 8893TIP3    H250875   4.062   9.030  10.839
 8894TIP3   OH250876   2.585   9.052  10.660
 8894TIP3    H150877   2.477   9.031  10.624
 8894TIP3    H250878   2.640   8.952  10.636
 8895TIP3   OH250879   2.482   9.043  10.267
 8895TIP3    H150880   2.544   9.143  10.283
 8895TIP3    H250881   2.396   9.059  10.333
 8896TIP3   OH250882   3.162   9.020  10.693
 8896TIP3    H150883   3.209   9.106  10.638
 8896TIP3    H250884   3.076   9.084  10.729
 8897TIP3   OH250885   3.844   9.062  10.770
 8897TIP3    H150886   3.785   9.065  10.687
 8897TIP3    H250887   3.793   8.970  10.812
 8898TIP3   OH250888   4.010   9.079  10.368
 8898TIP3    H150889   3.930   9.052  10.301
 8898TIP3    H250890   3.978   9.002  10.438
 8899TIP3   OH250891   2.814   9.025  11.709
 8899TIP3    H150892   2.917   8.970  11.696
 8899TIP3    H250893   2.770   8.965  11.786
 8900TIP3   OH250894   3.834   8.947  11.807
 8900TIP3    H150895   3.851   8.911  11.899
 8900TIP3    H250896   3.944   8.950  11.774
 8901TIP3   OH250897   5.504   9.026  11.012
 8901TIP3    H150898   5.490   8.942  10.946
 8901TIP3    H250899   5.395   9.041  11.046
 8902TIP3   OH250900   6.550   8.996  10.247
 8902TIP3    H150901   6.439   8.995  10.280
 8902TIP3    H250902   6.559   9.115  10.250
 8903TIP3   OH250903   5.197   9.140  11.048
 8903TIP3    H150904   5.086   9.130  11.019
 8903TIP3    H250905   5.213   9.257  11.039
 8904TIP3   OH250906   5.810   9.101  11.366
 8904TIP3    H150907   5.893   9.068  11.430
 8904TIP3    H250908   5.722   9.035  11.397
 8905TIP3   OH250909   4.873   9.084  10.933
 8905TIP3    H150910   4.862   9.072  10.836
 8905TIP3    H250911   4.840   8.978  10.966
 8906TIP3   OH250912   5.490   9.001  11.361
 8906TIP3    H150913   5.485   9.114  11.332
 8906TIP3    H250914   5.384   8.964  11.331
 8907TIP3   OH250915   5.442   8.981  11.628
 8907TIP3    H150916   5.536   8.930  11.667
 8907TIP3    H250917   5.464   8.971  11.532
 8908TIP3   OH250918   6.673   9.012  11.765
 8908TIP3    H150919   6.778   8.988  11.725
 8908TIP3    H250920   6.704   9.096  11.827
 8909TIP3   OH250921   4.546   9.089  11.264
 8909TIP3    H150922   4.474   9.107  11.338
 8909TIP3    H250923   4.574   9.200  11.241
 8910TIP3   OH250924   6.528   9.071  11.440
 8910TIP3    H150925   6.449   9.058  11.369
 8910TIP3    H250926   6.590   8.970  11.430
 8911TIP3   OH250927   6.434   9.004  10.851
 8911TIP3    H150928   6.484   9.106  10.874
 8911TIP3    H250929   6.324   9.038  10.840
 8912TIP3   OH250930   4.842   9.048  10.640
 8912TIP3    H150931   4.733   9.030  10.607
 8912TIP3    H250932   4.892   8.945  10.624
 8913TIP3   OH250933   4.763   9.037  10.264
 8913TIP3    H150934   4.820   9.139  10.274
 8913TIP3    H250935   4.674   9.062  10.325
 8914TIP3   OH250936   5.426   9.020  10.685
 8914TIP3    H150937   5.472   9.114  10.642
 8914TIP3    H250938   5.335   9.073  10.724
 8915TIP3   OH250939   6.100   9.059  10.774
 8915TIP3    H150940   6.056   9.050  10.685
 8915TIP3    H250941   6.044   8.969  10.815
 8916TIP3   OH250942   6.275   9.076  10.374
 8916TIP3    H150943   6.200   9.047  10.303
 8916TIP3    H250944   6.238   9.004  10.445
 8917TIP3   OH250945   5.074   9.026  11.712
 8917TIP3    H150946   5.178   8.981  11.692
 8917TIP3    H250947   5.027   8.936  11.761
 8918TIP3   OH250948   6.134   8.956  11.797
 8918TIP3    H150949   6.138   8.915  11.889
 8918TIP3    H250950   6.248   8.966  11.774
 8919TIP3   OH250951   7.772   9.019  11.011
 8919TIP3    H150952   7.775   8.935  10.943
 8919TIP3    H250953   7.656   9.031  11.025
 8920TIP3   OH250954   8.773   9.005  10.239
 8920TIP3    H150955   8.674   9.011  10.292
 8920TIP3    H250956   8.783   9.120  10.218
 8921TIP3   OH250957   7.469   9.132  11.040
 8921TIP3    H150958   7.357   9.120  11.010
 8921TIP3    H250959   7.480   9.250  11.040
 8922TIP3   OH250960   8.074   9.094  11.377
 8922TIP3    H150961   8.158   9.060  11.441
 8922TIP3    H250962   7.994   9.011  11.395
 8923TIP3   OH250963   7.132   9.084  10.939
 8923TIP3    H150964   7.121   9.070  10.842
 8923TIP3    H250965   7.103   8.976  10.972
 8924TIP3   OH250966   7.748   9.004  11.373
 8924TIP3    H150967   7.756   9.118  11.348
 8924TIP3    H250968   7.650   8.972  11.327
 8925TIP3   OH250969   7.696   8.989  11.649
 8925TIP3    H150970   7.782   8.926  11.686
 8925TIP3    H250971   7.714   8.972  11.553
 8926TIP3   OH250972   9.011   8.974  11.797
 8926TIP3    H150973   9.121   8.950  11.776
 8926TIP3    H250974   9.028   9.067  11.853
 8927TIP3   OH250975   6.812   9.091  11.253
 8927TIP3    H150976   6.736   9.097  11.325
 8927TIP3    H250977   6.836   9.204  11.237
 8928TIP3   OH250978   8.800   9.059  11.450
 8928TIP3    H150979   8.729   9.055  11.373
 8928TIP3    H250980   8.851   8.952  11.441
 8929TIP3   OH250981   8.690   8.993  10.864
 8929TIP3    H150982   8.735   9.101  10.865
 8929TIP3    H250983   8.579   9.020  10.841
 8930TIP3   OH250984   7.115   9.042  10.661
 8930TIP3    H150985   7.013   9.028  10.614
 8930TIP3    H250986   7.171   8.942  10.637
 8931TIP3   OH250987   7.010   9.041  10.264
 8931TIP3    H150988   7.063   9.149  10.264
 8931TIP3    H250989   6.926   9.064  10.329
 8932TIP3   OH250990   7.692   9.019  10.692
 8932TIP3    H150991   7.733   9.116  10.650
 8932TIP3    H250992   7.600   9.070  10.734
 8933TIP3   OH250993   8.389   9.074  10.789
 8933TIP3    H150994   8.368   9.041  10.698
 8933TIP3    H250995   8.317   9.001  10.837
 8934TIP3   OH250996   8.520   9.086  10.379
 8934TIP3    H150997   8.434   9.066  10.315
 8934TIP3    H250998   8.484   9.011  10.449
 8935TIP3   OH250999   7.354   9.031  11.696
 8935TIP3    H151000   7.462   8.988  11.686
 8935TIP3    H251001   7.313   8.969  11.773
 8936TIP3   OH251002   8.407   8.962  11.814
 8936TIP3    H151003   8.420   8.933  11.907
 8936TIP3    H251004   8.519   8.951  11.782
 8937TIP3   OH251005   8.966   9.108  11.209
 8937TIP3    H151006   8.964   9.114  11.306
 8937TIP3    H251007   8.980   9.221  11.186
 8938TIP3   OH251008   1.446   1.174  12.579
 8938TIP3    H151009   1.433   1.289  12.563
 8938TIP3    H251010   1.366   1.133  12.517
 8939TIP3   OH251011   1.740   1.501  12.717
 8939TIP3    H151012   1.674   1.409  12.737
 8939TIP3    H251013   1.786   1.528  12.802
 8940TIP3   OH251014   0.560   1.589  12.861
 8940TIP3    H151015   0.487   1.504  12.828
 8940TIP3    H251016   0.652   1.522  12.877
 8941TIP3   OH251017   0.173   0.850  12.392
 8941TIP3    H151018   0.155   0.931  12.460
 8941TIP3    H251019   0.067   0.800  12.394
 8942TIP3   OH251020   0.196   1.062  12.608
 8942TIP3    H151021   0.217   0.965  12.660
 8942TIP3    H251022   0.300   1.093  12.575
 8943TIP3   OH251023   1.654   0.484  12.562
 8943TIP3    H151024   1.700   0.428  12.487
 8943TIP3    H251025   1.597   0.571  12.519
 8944TIP3   OH251026   0.264   0.760  12.742
 8944TIP3    H151027   0.352   0.770  12.805
 8944TIP3    H251028   0.274   0.650  12.707
 8945TIP3   OH251029   0.875   0.976  12.706
 8945TIP3    H151030   0.965   0.926  12.753
 8945TIP3    H251031   0.829   0.877  12.669
 8946TIP3   OH251032   1.374   1.477  12.452
 8946TIP3    H151033   1.366   1.450  12.356
 8946TIP3    H251034   1.394   1.590  12.444
 8947TIP3   OH251035   0.144   1.434  12.264
 8947TIP3    H151036   0.136   1.499  12.182
 8947TIP3    H251037   0.181   1.513  12.328
 8948TIP3   OH251038   1.801   1.610  12.436
 8948TIP3    H151039   1.708   1.561  12.395
 8948TIP3    H251040   1.778   1.598  12.531
 8949TIP3   OH251041   1.289   1.085  12.324
 8949TIP3    H151042   1.182   1.128  12.307
 8949TIP3    H251043   1.344   1.108  12.241
 8950TIP3   OH251044   1.292   0.967  12.019
 8950TIP3    H151045   1.399   0.968  12.062
 8950TIP3    H251046   1.304   0.876  11.959
 8951TIP3   OH251047   1.720   1.138  12.387
 8951TIP3    H151048   1.631   1.138  12.453
 8951TIP3    H251049   1.799   1.069  12.431
 8952TIP3   OH251050   0.701   1.243  12.623
 8952TIP3    H151051   0.649   1.192  12.547
 8952TIP3    H251052   0.764   1.152  12.659
 8953TIP3   OH251053   1.577   1.014  12.157
 8953TIP3    H151054   1.631   1.060  12.234
 8953TIP3    H251055   1.628   1.079  12.087
 8954TIP3   OH251056   2.035   0.092  12.167
 8954TIP3    H151057   1.930   0.137  12.185
 8954TIP3    H251058   2.086   0.182  12.118
 8955TIP3   OH251059   0.524   1.085  12.408
 8955TIP3    H151060   0.499   1.175  12.347
 8955TIP3    H251061   0.479   0.995  12.362
 8956TIP3   OH251062   2.150   1.732  12.040
 8956TIP3    H151063   2.185   1.844  12.041
 8956TIP3    H251064   2.256   1.680  12.034
 8957TIP3   OH251065   0.077   1.721  12.884
 8957TIP3    H151066   0.112   1.634  12.941
 8957TIP3    H251067   0.152   1.806  12.901
 8958TIP3   OH251068   0.478   1.988  12.526
 8958TIP3    H151069   0.496   1.962  12.620
 8958TIP3    H251070   0.361   1.986  12.520
 8959TIP3   OH251071   1.752   1.160  11.971
 8959TIP3    H151072   1.700   1.146  11.884
 8959TIP3    H251073   1.855   1.114  11.947
 8960TIP3   OH251074   1.200   0.385  12.011
 8960TIP3    H151075   1.128   0.344  12.080
 8960TIP3    H251076   1.134   0.373  11.932
 8961TIP3   OH251077   0.744   0.721  12.571
 8961TIP3    H151078   0.635   0.742  12.546
 8961TIP3    H251079   0.796   0.707  12.485
 8962TIP3   OH251080   1.406   0.779  12.392
 8962TIP3    H151081   1.370   0.887  12.366
 8962TIP3    H251082   1.499   0.762  12.333
 8963TIP3   OH251083   0.788   0.473  11.914
 8963TIP3    H151084   0.752   0.388  11.973
 8963TIP3    H251085   0.696   0.496  11.859
 8964TIP3   OH251086   1.067   0.472  12.670
 8964TIP3    H151087   0.966   0.428  12.640
 8964TIP3    H251088   1.061   0.443  12.764
 8965TIP3   OH251089   0.838   0.702  12.281
 8965TIP3    H151090   0.886   0.601  12.253
 8965TIP3    H251091   0.778   0.733  12.202
 8966TIP3   OH251092   0.671   0.841  12.020
 8966TIP3    H151093   0.642   0.796  11.933
 8966TIP3    H251094   0.785   0.864  12.000
 8967TIP3   OH251095   1.127   0.803  12.814
 8967TIP3    H151096   1.085   0.713  12.765
 8967TIP3    H251097   1.138   0.757  12.902
 8968TIP3   OH251098   1.063   1.392  12.230
 8968TIP3    H151099   0.994   1.307  12.195
 8968TIP3    H251100   1.016   1.405  12.320
 8969TIP3   OH251101   1.499   0.491  12.048
 8969TIP3    H151102   1.381   0.505  12.045
 8969TIP3    H251103   1.540   0.566  12.115
 8970TIP3   OH251104   1.643   0.692  12.219
 8970TIP3    H151105   1.747   0.691  12.263
 8970TIP3    H251106   1.645   0.791  12.165
 8971TIP3   OH251107   0.456   1.306  12.786
 8971TIP3    H151108   0.529   1.286  12.711
 8971TIP3    H251109   0.443   1.199  12.824
 8972TIP3   OH251110   1.378   1.446  12.185
 8972TIP3    H151111   1.345   1.553  12.160
 8972TIP3    H251112   1.270   1.397  12.186
 8973TIP3   OH251113   2.153   0.745  12.195
 8973TIP3    H151114   2.102   0.719  12.109
 8973TIP3    H251115   2.186   0.858  12.182
 8974TIP3   OH251116   1.908   1.805  12.206
 8974TIP3    H151117   1.890   1.733  12.282
 8974TIP3    H251118   2.002   1.759  12.160
 8975TIP3   OH251119   0.778   1.714  12.528
 8975TIP3    H151120   0.794   1.826  12.504
 8975TIP3    H251121   0.661   1.710  12.529
 8976TIP3   OH251122   0.269   1.103  12.014
 8976TIP3    H151123   0.325   1.182  12.069
 8976TIP3    H251124   0.172   1.086  12.066
 8977TIP3   OH251125   0.931   1.404  12.476
 8977TIP3    H151126   0.877   1.505  12.500
 8977TIP3    H251127   0.872   1.326  12.529
 8978TIP3   OH251128   0.786   2.033  12.453
 8978TIP3    H151129   0.670   2.026  12.469
 8978TIP3    H251130   0.805   2.146  12.476
 8979TIP3   OH251131   1.704   1.549  12.017
 8979TIP3    H151132   1.694   1.506  12.108
 8979TIP3    H251133   1.602   1.514  11.979
 8980TIP3   OH251134   2.226   2.045  12.062
 8980TIP3    H151135   2.275   2.122  12.003
 8980TIP3    H251136   2.144   2.110  12.109
 8981TIP3   OH251137   1.780   1.396  12.235
 8981TIP3    H151138   1.758   1.289  12.274
 8981TIP3    H251139   1.837   1.448  12.307
 8982TIP3   OH251140   0.995   1.711  11.860
 8982TIP3    H151141   0.968   1.632  11.791
 8982TIP3    H251142   0.912   1.688  11.926
 8983TIP3   OH251143   0.826   1.602  12.117
 8983TIP3    H151144   0.917   1.553  12.163
 8983TIP3    H251145   0.840   1.715  12.143
 8984TIP3   OH251146   0.433   1.302  12.186
 8984TIP3    H151147   0.338   1.364  12.214
 8984TIP3    H251148   0.481   1.374  12.121
 8985TIP3   OH251149   1.434   0.348  12.298
 8985TIP3    H151150   1.391   0.356  12.208
 8985TIP3    H251151   1.420   0.457  12.326
 8986TIP3   OH251152   1.147   0.559  12.413
 8986TIP3    H151153   1.223   0.648  12.408
 8986TIP3    H251154   1.118   0.560  12.508
 8987TIP3   OH251155   1.225   0.206  12.483
 8987TIP3    H151156   1.201   0.313  12.516
 8987TIP3    H251157   1.313   0.224  12.421
 8988TIP3   OH251158   0.892   1.906  12.164
 8988TIP3    H151159   0.852   1.972  12.091
 8988TIP3    H251160   0.860   1.970  12.242
 8989TIP3   OH251161   0.518   1.612  12.016
 8989TIP3    H151162   0.613   1.625  12.073
 8989TIP3    H251163   0.564   1.536  11.952
 8990TIP3   OH251164   0.245   1.726  12.380
 8990TIP3    H151165   0.152   1.789  12.399
 8990TIP3    H251166   0.311   1.808  12.339
 8991TIP3   OH251167   1.249   1.931  11.864
 8991TIP3    H151168   1.165   1.848  11.869
 8991TIP3    H251169   1.328   1.878  11.806
 8992TIP3   OH251170   1.752   1.872  11.881
 8992TIP3    H151171   1.788   1.820  11.963
 8992TIP3    H251172   1.850   1.880  11.828
 8993TIP3   OH251173   0.686   1.385  11.875
 8993TIP3    H151174   0.722   1.331  11.955
 8993TIP3    H251175   0.791   1.400  11.830
 8994TIP3   OH251176   1.387   1.517  11.875
 8994TIP3    H151177   1.278   1.525  11.906
 8994TIP3    H251178   1.379   1.410  11.831
 8995TIP3   OH251179   0.868   1.138  12.136
 8995TIP3    H151180   0.776   1.078  12.168
 8995TIP3    H251181   0.902   1.073  12.058
 8996TIP3   OH251182   0.965   0.940  11.941
 8996TIP3    H151183   0.989   0.968  11.849
 8996TIP3    H251184   1.074   0.948  11.981
 8997TIP3   OH251185   2.068   1.234  11.861
 8997TIP3    H151186   2.045   1.176  11.777
 8997TIP3    H251187   2.129   1.322  11.824
 8998TIP3   OH251188   0.194   1.576  12.027
 8998TIP3    H151189   0.307   1.604  12.017
 8998TIP3    H251190   0.175   1.516  11.944
 8999TIP3   OH251191   0.084   2.191  12.447
 8999TIP3    H151192  -0.023   2.239  12.454
 8999TIP3    H251193   0.092   2.135  12.531
 9000TIP3   OH251194   0.192   1.969  12.663
 9000TIP3    H151195   0.248   1.867  12.674
 9000TIP3    H251196   0.235   2.029  12.740
 9001TIP3   OH251197   2.130   1.337  12.215
 9001TIP3    H151198   2.231   1.387  12.244
 9001TIP3    H251199   2.101   1.282  12.298
 9002TIP3   OH251200   2.149   1.120  12.452
 9002TIP3    H151201   2.075   1.093  12.523
 9002TIP3    H251202   2.248   1.146  12.502
 9003TIP3   OH251203   2.186   1.447  12.927
 9003TIP3    H151204   2.287   1.409  12.889
 9003TIP3    H251205   2.220   1.474  13.017
 9004TIP3   OH251206   2.231   1.055  12.097
 9004TIP3    H151207   2.137   1.052  12.038
 9004TIP3    H251208   2.202   1.141  12.158
 9005TIP3   OH251209   1.982   0.767  11.947
 9005TIP3    H151210   2.051   0.812  11.877
 9005TIP3    H251211   1.969   0.655  11.916
 9006TIP3   OH251212   1.900   0.906  12.528
 9006TIP3    H151213   1.920   0.811  12.471
 9006TIP3    H251214   1.961   0.883  12.606
 9007TIP3   OH251215   0.280   1.052  12.950
 9007TIP3    H151216   0.227   1.121  12.887
 9007TIP3    H251217   0.256   1.104  13.035
 9008TIP3   OH251218   1.934   0.470  11.874
 9008TIP3    H151219   1.990   0.384  11.922
 9008TIP3    H251220   1.824   0.430  11.866
 9009TIP3   OH251221   1.919   0.649  12.360
 9009TIP3    H151222   1.943   0.539  12.384
 9009TIP3    H251223   2.005   0.673  12.296
 9010TIP3   OH251224   1.960   0.323  12.419
 9010TIP3    H151225   2.042   0.241  12.415
 9010TIP3    H251226   1.877   0.277  12.361
 9011TIP3   OH251227   0.116   0.752  13.035
 9011TIP3    H151228   0.169   0.755  12.950
 9011TIP3    H251229   0.151   0.852  13.076
 9012TIP3   OH251230   2.194   0.318  12.034
 9012TIP3    H151231   2.237   0.245  11.966
 9012TIP3    H251232   2.275   0.401  12.039
 9013TIP3   OH251233   0.322   2.063  12.890
 9013TIP3    H151234   0.358   2.063  12.984
 9013TIP3    H251235   0.413   1.999  12.853
 9014TIP3   OH251236   0.559   1.900  12.782
 9014TIP3    H151237   0.560   1.787  12.813
 9014TIP3    H251238   0.672   1.925  12.806
 9015TIP3   OH251239   0.865   1.944  12.871
 9015TIP3    H151240   0.971   1.926  12.835
 9015TIP3    H251241   0.886   1.973  12.963
 9016TIP3   OH251242   1.855   0.103  12.729
 9016TIP3    H151243   1.966   0.127  12.706
 9016TIP3    H251244   1.806   0.108  12.642
 9017TIP3   OH251245   0.182   0.166  12.089
 9017TIP3    H151246   0.130   0.067  12.059
 9017TIP3    H251247   0.187   0.146  12.185
 9018TIP3   OH251248   0.882   0.157  12.558
 9018TIP3    H151249   0.985   0.144  12.515
 9018TIP3    H251250   0.829   0.055  12.542
 9019TIP3   OH251251   1.738   0.196  12.254
 9019TIP3    H151252   1.627   0.235  12.254
 9019TIP3    H251253   1.717   0.079  12.258
 9020TIP3   OH251254   0.229   2.004  12.232
 9020TIP3    H151255   0.114   2.008  12.227
 9020TIP3    H251256   0.253   2.113  12.200
 9021TIP3   OH251257   1.033   0.347  12.234
 9021TIP3    H151258   1.050   0.250  12.286
 9021TIP3    H251259   1.087   0.430  12.289
 9022TIP3   OH251260   2.084   2.028  12.365
 9022TIP3    H151261   2.004   1.950  12.334
 9022TIP3    H251262   2.042   2.128  12.328
 9023TIP3   OH251263   0.385   2.086  11.930
 9023TIP3    H151264   0.335   2.114  12.014
 9023TIP3    H251265   0.456   2.000  11.958
 9024TIP3   OH251266   3.727   1.190  12.541
 9024TIP3    H151267   3.688   1.298  12.557
 9024TIP3    H251268   3.641   1.147  12.488
 9025TIP3   OH251269   3.984   1.440  12.765
 9025TIP3    H151270   3.972   1.325  12.765
 9025TIP3    H251271   4.040   1.460  12.682
 9026TIP3   OH251272   2.341   0.766  12.444
 9026TIP3    H151273   2.342   0.856  12.505
 9026TIP3    H251274   2.303   0.815  12.362
 9027TIP3   OH251275   2.399   1.087  12.679
 9027TIP3    H151276   2.449   1.001  12.732
 9027TIP3    H251277   2.472   1.174  12.702
 9028TIP3   OH251278   3.377   1.315  13.000
 9028TIP3    H151279   3.362   1.296  12.905
 9028TIP3    H251280   3.358   1.432  13.005
 9029TIP3   OH251281   2.888   0.514  12.700
 9029TIP3    H151282   2.914   0.595  12.634
 9029TIP3    H251283   2.855   0.422  12.646
 9030TIP3   OH251284   3.899   0.518  12.505
 9030TIP3    H151285   3.887   0.460  12.588
 9030TIP3    H251286   3.914   0.628  12.534
 9031TIP3   OH251287   2.488   0.756  12.753
 9031TIP3    H151288   2.551   0.740  12.833
 9031TIP3    H251289   2.540   0.682  12.691
 9032TIP3   OH251290   3.145   0.904  12.695
 9032TIP3    H151291   3.236   0.889  12.755
 9032TIP3    H251292   3.163   0.818  12.632
 9033TIP3   OH251293   3.617   1.475  12.435
 9033TIP3    H151294   3.617   1.438  12.343
 9033TIP3    H251295   3.599   1.591  12.420
 9034TIP3   OH251296   2.735   0.616  12.917
 9034TIP3    H151297   2.816   0.686  12.949
 9034TIP3    H251298   2.786   0.569  12.837
 9035TIP3   OH251299   2.436   1.429  12.262
 9035TIP3    H151300   2.425   1.495  12.181
 9035TIP3    H251301   2.453   1.513  12.330
 9036TIP3   OH251302   3.564   1.102  12.301
 9036TIP3    H151303   3.502   1.199  12.281
 9036TIP3    H251304   3.656   1.110  12.242
 9037TIP3   OH251305   3.554   0.968  11.976
 9037TIP3    H151306   3.635   1.019  12.034
 9037TIP3    H251307   3.608   0.870  11.952
 9038TIP3   OH251308   3.995   1.105  12.397
 9038TIP3    H151309   3.902   1.133  12.454
 9038TIP3    H251310   4.063   1.046  12.460
 9039TIP3   OH251311   3.824   1.064  12.141
 9039TIP3    H151312   3.889   1.069  12.222
 9039TIP3    H251313   3.901   1.110  12.076
 9040TIP3   OH251314   3.577   1.795  12.437
 9040TIP3    H151315   3.616   1.820  12.526
 9040TIP3    H251316   3.510   1.883  12.410
 9041TIP3   OH251317   4.260   0.094  12.141
 9041TIP3    H151318   4.153   0.130  12.168
 9041TIP3    H251319   4.308   0.197  12.119
 9042TIP3   OH251320   2.844   1.049  12.300
 9042TIP3    H151321   2.806   1.160  12.295
 9042TIP3    H251322   2.748   0.991  12.322
 9043TIP3   OH251323   3.481   2.170  12.331
 9043TIP3    H151324   3.470   2.182  12.234
 9043TIP3    H251325   3.490   2.282  12.358
 9044TIP3   OH251326   2.743   1.999  12.527
 9044TIP3    H151327   2.747   2.010  12.624
 9044TIP3    H251328   2.635   1.956  12.512
 9045TIP3   OH251329   3.832   2.059  12.048
 9045TIP3    H151330   3.914   1.992  12.004
 9045TIP3    H251331   3.869   2.062  12.140
 9046TIP3   OH251332   3.817   2.078  12.345
 9046TIP3    H151333   3.702   2.056  12.343
 9046TIP3    H251334   3.865   1.980  12.377
 9047TIP3   OH251335   2.972   0.106  12.874
 9047TIP3    H151336   2.881   0.060  12.828
 9047TIP3    H251337   2.932   0.211  12.889
 9048TIP3   OH251338   4.025   1.184  11.967
 9048TIP3    H151339   4.002   1.206  11.873
 9048TIP3    H251340   4.142   1.199  11.966
 9049TIP3   OH251341   2.972   0.750  12.481
 9049TIP3    H151342   2.873   0.764  12.526
 9049TIP3    H251343   3.004   0.862  12.471
 9050TIP3   OH251344   3.682   0.812  12.377
 9050TIP3    H151345   3.634   0.907  12.336
 9050TIP3    H251346   3.728   0.754  12.302
 9051TIP3   OH251347   3.701   0.762  12.661
 9051TIP3    H151348   3.676   0.817  12.579
 9051TIP3    H251349   3.694   0.652  12.635
 9052TIP3   OH251350   3.042   0.466  11.886
 9052TIP3    H151351   2.970   0.377  11.899
 9052TIP3    H251352   2.968   0.547  11.853
 9053TIP3   OH251353   2.408   0.530  12.166
 9053TIP3    H151354   2.474   0.588  12.101
 9053TIP3    H251355   2.326   0.612  12.182
 9054TIP3   OH251356   2.615   0.581  12.522
 9054TIP3    H151357   2.526   0.656  12.510
 9054TIP3    H251358   2.629   0.540  12.432
 9055TIP3   OH251359   2.912   0.803  12.005
 9055TIP3    H151360   2.897   0.778  11.911
 9055TIP3    H251361   3.004   0.874  11.999
 9056TIP3   OH251362   3.415   0.803  12.836
 9056TIP3    H151363   3.511   0.779  12.785
 9056TIP3    H251364   3.442   0.745  12.916
 9057TIP3   OH251365   3.337   1.322  12.235
 9057TIP3    H151366   3.252   1.256  12.196
 9057TIP3    H251367   3.283   1.354  12.319
 9058TIP3   OH251368   3.764   0.510  12.010
 9058TIP3    H151369   3.658   0.540  12.037
 9058TIP3    H251370   3.830   0.569  12.075
 9059TIP3   OH251371   3.888   0.709  12.187
 9059TIP3    H151372   3.982   0.688  12.244
 9059TIP3    H251373   3.917   0.814  12.153
 9060TIP3   OH251374   3.565   1.505  12.132
 9060TIP3    H151375   3.509   1.607  12.149
 9060TIP3    H251376   3.485   1.424  12.158
 9061TIP3   OH251377   4.452   0.738  12.200
 9061TIP3    H151378   4.385   0.704  12.125
 9061TIP3    H251379   4.465   0.854  12.180
 9062TIP3   OH251380   3.038   1.688  12.512
 9062TIP3    H151381   3.037   1.805  12.496
 9062TIP3    H251382   2.926   1.663  12.520
 9063TIP3   OH251383   2.527   1.134  11.982
 9063TIP3    H151384   2.593   1.174  12.056
 9063TIP3    H251385   2.425   1.106  12.024
 9064TIP3   OH251386   3.180   1.385  12.466
 9064TIP3    H151387   3.142   1.493  12.488
 9064TIP3    H251388   3.187   1.337  12.553
 9065TIP3   OH251389   3.044   2.004  12.443
 9065TIP3    H151390   2.928   1.997  12.460
 9065TIP3    H251391   3.067   2.111  12.477
 9066TIP3   OH251392   3.979   1.578  12.012
 9066TIP3    H151393   4.010   1.532  12.101
 9066TIP3    H251394   3.872   1.531  12.008
 9067TIP3   OH251395   4.052   1.409  12.234
 9067TIP3    H151396   4.004   1.331  12.294
 9067TIP3    H251397   4.166   1.385  12.245
 9068TIP3   OH251398   3.245   1.715  11.866
 9068TIP3    H151399   3.244   1.658  11.781
 9068TIP3    H251400   3.176   1.644  11.919
 9069TIP3   OH251401   3.098   1.619  12.107
 9069TIP3    H151402   3.186   1.565  12.153
 9069TIP3    H251403   3.110   1.728  12.143
 9070TIP3   OH251404   2.699   1.291  12.165
 9070TIP3    H151405   2.603   1.334  12.207
 9070TIP3    H251406   2.743   1.385  12.121
 9071TIP3   OH251407   3.722   0.380  12.291
 9071TIP3    H151408   3.766   0.481  12.266
 9071TIP3    H251409   3.743   0.378  12.387
 9072TIP3   OH251410   3.443   1.836  12.172
 9072TIP3    H151411   3.334   1.877  12.191
 9072TIP3    H251412   3.497   1.938  12.158
 9073TIP3   OH251413   3.139   1.932  12.184
 9073TIP3    H151414   3.145   2.026  12.124
 9073TIP3    H251415   3.096   1.982  12.265
 9074TIP3   OH251416   2.758   1.602  12.024
 9074TIP3    H151417   2.846   1.636  12.081
 9074TIP3    H251418   2.818   1.552  11.952
 9075TIP3   OH251419   2.501   0.776  11.988
 9075TIP3    H151420   2.560   0.878  11.992
 9075TIP3    H251421   2.456   0.780  11.899
 9076TIP3   OH251422   2.660   0.132  12.822
 9076TIP3    H151423   2.642   0.116  12.725
 9076TIP3    H251424   2.632   0.026  12.854
 9077TIP3   OH251425   2.508   1.727  12.418
 9077TIP3    H151426   2.429   1.806  12.445
 9077TIP3    H251427   2.551   1.787  12.343
 9078TIP3   OH251428   3.486   1.948  11.856
 9078TIP3    H151429   3.431   1.848  11.882
 9078TIP3    H251430   3.583   1.906  11.814
 9079TIP3   OH251431   4.033   1.880  11.901
 9079TIP3    H151432   4.043   1.774  11.942
 9079TIP3    H251433   4.109   1.880  11.826
 9080TIP3   OH251434   2.940   1.362  11.860
 9080TIP3    H151435   2.956   1.297  11.940
 9080TIP3    H251436   3.042   1.343  11.812
 9081TIP3   OH251437   3.605   1.536  11.852
 9081TIP3    H151438   3.574   1.524  11.946
 9081TIP3    H251439   3.606   1.421  11.826
 9082TIP3   OH251440   3.098   1.136  12.128
 9082TIP3    H151441   3.017   1.074  12.176
 9082TIP3    H251442   3.142   1.057  12.065
 9083TIP3   OH251443   3.203   0.937  11.933
 9083TIP3    H151444   3.182   0.956  11.839
 9083TIP3    H251445   3.319   0.947  11.938
 9084TIP3   OH251446   4.321   1.223  11.864
 9084TIP3    H151447   4.319   1.189  11.769
 9084TIP3    H251448   4.332   1.339  11.856
 9085TIP3   OH251449   3.196   2.203  12.062
 9085TIP3    H151450   3.312   2.210  12.070
 9085TIP3    H251451   3.184   2.257  11.976
 9086TIP3   OH251452   2.423   1.556  12.010
 9086TIP3    H151453   2.539   1.573  12.006
 9086TIP3    H251454   2.406   1.493  11.929
 9087TIP3   OH251455   2.305   2.214  12.486
 9087TIP3    H151456   2.224   2.149  12.440
 9087TIP3    H251457   2.318   2.144  12.565
 9088TIP3   OH251458   2.372   1.968  12.656
 9088TIP3    H151459   2.273   1.909  12.671
 9088TIP3    H251460   2.410   1.982  12.748
 9089TIP3   OH251461   4.412   1.319  12.268
 9089TIP3    H151462   4.516   1.368  12.285
 9089TIP3    H251463   4.415   1.229  12.331
 9090TIP3   OH251464   4.428   1.067  12.442
 9090TIP3    H151465   4.339   0.989  12.455
 9090TIP3    H251466   4.481   1.073  12.530
 9091TIP3   OH251467   4.452   1.050  12.090
 9091TIP3    H151468   4.381   1.064  12.013
 9091TIP3    H251469   4.418   1.140  12.146
 9092TIP3   OH251470   4.253   0.746  11.924
 9092TIP3    H151471   4.316   0.794  11.853
 9092TIP3    H251472   4.224   0.642  11.884
 9093TIP3   OH251473   4.189   0.868  12.504
 9093TIP3    H151474   4.158   0.799  12.428
 9093TIP3    H251475   4.163   0.800  12.580
 9094TIP3   OH251476   4.206   0.448  11.851
 9094TIP3    H151477   4.283   0.376  11.892
 9094TIP3    H251478   4.104   0.389  11.851
 9095TIP3   OH251479   4.166   0.647  12.328
 9095TIP3    H151480   4.162   0.530  12.350
 9095TIP3    H251481   4.279   0.660  12.302
 9096TIP3   OH251482   4.238   0.336  12.367
 9096TIP3    H151483   4.241   0.277  12.452
 9096TIP3    H251484   4.142   0.286  12.328
 9097TIP3   OH251485   2.490   0.415  12.824
 9097TIP3    H151486   2.572   0.330  12.816
 9097TIP3    H251487   2.554   0.505  12.858
 9098TIP3   OH251488   4.457   0.311  12.033
 9098TIP3    H151489   4.510   0.228  11.980
 9098TIP3    H251490   4.546   0.374  12.068
 9099TIP3   OH251491   2.286   0.299  12.328
 9099TIP3    H151492   2.183   0.346  12.311
 9099TIP3    H251493   2.354   0.378  12.283
 9100TIP3   OH251494   4.158   0.058  12.783
 9100TIP3    H151495   4.176   0.119  12.701
 9100TIP3    H251496   4.042   0.047  12.787
 9101TIP3   OH251497   4.316   0.206  12.597
 9101TIP3    H151498   4.392   0.130  12.563
 9101TIP3    H251499   4.388   0.295  12.623
 9102TIP3   OH251500   2.624   0.108  12.561
 9102TIP3    H151501   2.543   0.142  12.498
 9102TIP3    H251502   2.646  -0.002  12.530
 9103TIP3   OH251503   2.501   0.134  12.167
 9103TIP3    H151504   2.498   0.188  12.082
 9103TIP3    H251505   2.398   0.168  12.204
 9104TIP3   OH251506   3.827   0.182  12.666
 9104TIP3    H151507   3.758   0.156  12.590
 9104TIP3    H251508   3.788   0.107  12.731
 9105TIP3   OH251509   3.985   0.185  12.270
 9105TIP3    H151510   3.878   0.230  12.288
 9105TIP3    H251511   3.958   0.071  12.270
 9106TIP3   OH251512   2.479   1.974  12.241
 9106TIP3    H151513   2.364   1.968  12.223
 9106TIP3    H251514   2.500   2.080  12.202
 9107TIP3   OH251515   2.692   0.272  11.977
 9107TIP3    H151516   2.728   0.203  11.904
 9107TIP3    H251517   2.742   0.223  12.055
 9108TIP3   OH251518   3.520   2.149  12.060
 9108TIP3    H151519   3.636   2.144  12.049
 9108TIP3    H251520   3.491   2.081  11.984
 9109TIP3   OH251521   2.641   2.084  11.935
 9109TIP3    H151522   2.606   2.098  12.027
 9109TIP3    H251523   2.724   2.004  11.945
 9110TIP3   OH251524   4.589   0.775  12.455
 9110TIP3    H151525   4.607   0.884  12.486
 9110TIP3    H251526   4.514   0.790  12.381
 9111TIP3   OH251527   4.654   1.090  12.643
 9111TIP3    H151528   4.686   1.061  12.733
 9111TIP3    H251529   4.729   1.176  12.623
 9112TIP3   OH251530   6.162   0.524  12.529
 9112TIP3    H151531   6.196   0.455  12.604
 9112TIP3    H251532   6.264   0.562  12.497
 9113TIP3   OH251533   4.826   0.734  12.752
 9113TIP3    H151534   4.820   0.619  12.770
 9113TIP3    H251535   4.847   0.731  12.656
 9114TIP3   OH251536   5.356   0.930  12.752
 9114TIP3    H151537   5.453   0.907  12.702
 9114TIP3    H251538   5.280   0.881  12.688
 9115TIP3   OH251539   6.323   0.373  12.709
 9115TIP3    H151540   6.271   0.386  12.796
 9115TIP3    H251541   6.431   0.408  12.728
 9116TIP3   OH251542   4.724   1.490  12.286
 9116TIP3    H151543   4.686   1.537  12.203
 9116TIP3    H251544   4.678   1.555  12.356
 9117TIP3   OH251545   5.508   0.155  12.854
 9117TIP3    H151546   5.549   0.047  12.840
 9117TIP3    H251547   5.413   0.152  12.797
 9118TIP3   OH251548   5.802   1.075  12.267
 9118TIP3    H151549   5.717   1.142  12.306
 9118TIP3    H251550   5.892   1.150  12.267
 9119TIP3   OH251551   5.824   0.958  11.979
 9119TIP3    H151552   5.838   0.934  12.074
 9119TIP3    H251553   5.878   0.868  11.939
 9120TIP3   OH251554   5.183   1.154  12.565
 9120TIP3    H151555   5.174   1.134  12.469
 9120TIP3    H251556   5.290   1.120  12.584
 9121TIP3   OH251557   6.571   0.061  12.191
 9121TIP3    H151558   6.467   0.042  12.233
 9121TIP3    H251559   6.570   0.175  12.170
 9122TIP3   OH251560   5.087   1.063  12.287
 9122TIP3    H151561   5.020   1.153  12.257
 9122TIP3    H251562   5.017   0.972  12.272
 9123TIP3   OH251563   6.668   1.700  11.997
 9123TIP3    H151564   6.695   1.801  11.956
 9123TIP3    H251565   6.770   1.642  11.993
 9124TIP3   OH251566   5.015   2.028  12.485
 9124TIP3    H151567   5.095   1.968  12.538
 9124TIP3    H251568   4.919   1.973  12.510
 9125TIP3   OH251569   6.101   2.111  12.058
 9125TIP3    H151570   6.188   2.039  12.031
 9125TIP3    H251571   6.126   2.117  12.153
 9126TIP3   OH251572   6.079   2.045  12.339
 9126TIP3    H151573   5.968   2.072  12.327
 9126TIP3    H251574   6.076   1.950  12.395
 9127TIP3   OH251575   5.723   0.433  11.996
 9127TIP3    H151576   5.680   0.410  12.085
 9127TIP3    H251577   5.674   0.342  11.953
 9128TIP3   OH251578   5.240   0.767  12.543
 9128TIP3    H151579   5.140   0.710  12.530
 9128TIP3    H251580   5.296   0.728  12.462
 9129TIP3   OH251581   5.898   0.823  12.404
 9129TIP3    H151582   5.860   0.908  12.344
 9129TIP3    H251583   5.990   0.782  12.357
 9130TIP3   OH251584   5.314   0.451  11.896
 9130TIP3    H151585   5.256   0.408  11.974
 9130TIP3    H251586   5.231   0.518  11.854
 9131TIP3   OH251587   4.571   0.395  12.621
 9131TIP3    H151588   4.638   0.488  12.629
 9131TIP3    H251589   4.591   0.359  12.530
 9132TIP3   OH251590   4.672   0.494  12.164
 9132TIP3    H151591   4.741   0.542  12.096
 9132TIP3    H251592   4.602   0.587  12.183
 9133TIP3   OH251593   5.575   0.540  12.656
 9133TIP3    H151594   5.503   0.450  12.643
 9133TIP3    H251595   5.670   0.485  12.694
 9134TIP3   OH251596   4.885   0.620  12.502
 9134TIP3    H151597   4.799   0.632  12.437
 9134TIP3    H251598   4.952   0.533  12.468
 9135TIP3   OH251599   5.342   0.678  12.289
 9135TIP3    H151600   5.459   0.688  12.278
 9135TIP3    H251601   5.300   0.761  12.231
 9136TIP3   OH251602   6.184   0.376  12.948
 9136TIP3    H151603   6.127   0.473  12.978
 9136TIP3    H251604   6.098   0.311  12.908
 9137TIP3   OH251605   5.191   0.822  12.017
 9137TIP3    H151606   5.152   0.769  11.936
 9137TIP3    H251607   5.287   0.872  11.980
 9138TIP3   OH251608   5.596   1.318  12.290
 9138TIP3    H151609   5.519   1.271  12.229
 9138TIP3    H251610   5.533   1.396  12.342
 9139TIP3   OH251611   6.025   0.503  12.078
 9139TIP3    H151612   5.916   0.505  12.041
 9139TIP3    H251613   6.047   0.614  12.097
 9140TIP3   OH251614   6.118   0.768  12.206
 9140TIP3    H151615   6.176   0.695  12.265
 9140TIP3    H251616   6.205   0.814  12.156
 9141TIP3   OH251617   4.937   1.285  12.720
 9141TIP3    H151618   5.033   1.253  12.671
 9141TIP3    H251619   4.938   1.222  12.799
 9142TIP3   OH251620   5.852   1.441  12.100
 9142TIP3    H151621   5.838   1.554  12.117
 9142TIP3    H251622   5.777   1.393  12.164
 9143TIP3   OH251623   6.712   0.756  12.186
 9143TIP3    H151624   6.652   0.714  12.108
 9143TIP3    H251625   6.745   0.862  12.155
 9144TIP3   OH251626   6.616   1.722  12.268
 9144TIP3    H151627   6.512   1.673  12.280
 9144TIP3    H251628   6.626   1.729  12.170
 9145TIP3   OH251629   6.210   1.076  12.883
 9145TIP3    H151630   6.119   1.145  12.865
 9145TIP3    H251631   6.157   0.971  12.888
 9146TIP3   OH251632   4.795   1.060  12.065
 9146TIP3    H151633   4.837   1.164  12.095
 9146TIP3    H251634   4.699   1.085  12.013
 9147TIP3   OH251635   5.525   1.661  11.867
 9147TIP3    H151636   5.491   1.636  11.777
 9147TIP3    H251637   5.508   1.558  11.910
 9148TIP3   OH251638   4.944   1.316  12.159
 9148TIP3    H151639   4.867   1.374  12.216
 9148TIP3    H251640   5.004   1.403  12.117
 9149TIP3   OH251641   5.993   0.390  12.345
 9149TIP3    H151642   5.969   0.463  12.273
 9149TIP3    H251643   6.050   0.457  12.411
 9150TIP3   OH251644   5.648   0.613  12.406
 9150TIP3    H151645   5.753   0.660  12.432
 9150TIP3    H251646   5.616   0.581  12.497
 9151TIP3   OH251647   5.744   0.218  12.448
 9151TIP3    H151648   5.738   0.250  12.541
 9151TIP3    H251649   5.838   0.281  12.419
 9152TIP3   OH251650   5.191   0.371  12.150
 9152TIP3    H151651   5.173   0.456  12.214
 9152TIP3    H251652   5.302   0.348  12.178
 9153TIP3   OH251653   5.022   1.592  12.018
 9153TIP3    H151654   5.114   1.619  12.073
 9153TIP3    H251655   5.078   1.532  11.947
 9154TIP3   OH251656   4.790   0.742  11.980
 9154TIP3    H151657   4.835   0.842  12.013
 9154TIP3    H251658   4.721   0.781  11.910
 9155TIP3   OH251659   5.742   1.925  11.881
 9155TIP3    H151660   5.684   1.823  11.870
 9155TIP3    H251661   5.842   1.895  11.835
 9156TIP3   OH251662   6.352   1.931  11.964
 9156TIP3    H151663   6.331   1.820  11.940
 9156TIP3    H251664   6.397   1.963  11.880
 9157TIP3   OH251665   5.219   1.391  11.878
 9157TIP3    H151666   5.197   1.285  11.913
 9157TIP3    H251667   5.310   1.364  11.819
 9158TIP3   OH251668   5.852   1.532  11.823
 9158TIP3    H151669   5.845   1.511  11.918
 9158TIP3    H251670   5.868   1.420  11.796
 9159TIP3   OH251671   5.345   1.177  12.122
 9159TIP3    H151672   5.266   1.122  12.178
 9159TIP3    H251673   5.381   1.091  12.064
 9160TIP3   OH251674   5.477   0.960  11.918
 9160TIP3    H151675   5.488   1.016  11.832
 9160TIP3    H251676   5.590   0.943  11.940
 9161TIP3   OH251677   4.686   1.573  12.003
 9161TIP3    H151678   4.802   1.559  11.995
 9161TIP3    H251679   4.646   1.496  11.935
 9162TIP3   OH251680   6.721   1.070  12.452
 9162TIP3    H151681   6.632   1.001  12.482
 9162TIP3    H251682   6.763   1.116  12.535
 9163TIP3   OH251683   6.769   1.052  12.091
 9163TIP3    H151684   6.661   1.055  12.054
 9163TIP3    H251685   6.763   1.109  12.176
 9164TIP3   OH251686   6.511   0.742  11.948
 9164TIP3    H151687   6.563   0.784  11.867
 9164TIP3    H251688   6.476   0.635  11.917
 9165TIP3   OH251689   6.458   0.889  12.501
 9165TIP3    H151690   6.365   0.824  12.481
 9165TIP3    H251691   6.427   0.936  12.586
 9166TIP3   OH251692   6.464   0.434  11.891
 9166TIP3    H151693   6.524   0.373  11.958
 9166TIP3    H251694   6.358   0.385  11.887
 9167TIP3   OH251695   6.365   0.640  12.354
 9167TIP3    H151696   6.424   0.535  12.352
 9167TIP3    H251697   6.456   0.713  12.351
 9168TIP3   OH251698   6.520   0.356  12.350
 9168TIP3    H151699   6.541   0.283  12.425
 9168TIP3    H251700   6.425   0.306  12.311
 9169TIP3   OH251701   4.552   0.744  12.938
 9169TIP3    H151702   4.622   0.768  12.863
 9169TIP3    H251703   4.532   0.848  12.975
 9170TIP3   OH251704   6.721   0.295  12.042
 9170TIP3    H151705   6.769   0.229  11.972
 9170TIP3    H251706   6.811   0.360  12.075
 9171TIP3   OH251707   4.565   0.270  12.350
 9171TIP3    H151708   4.451   0.292  12.333
 9171TIP3    H251709   4.612   0.326  12.273
 9172TIP3   OH251710   5.789   0.300  12.723
 9172TIP3    H151711   5.714   0.229  12.768
 9172TIP3    H251712   5.876   0.229  12.695
 9173TIP3   OH251713   6.408   0.037  12.711
 9173TIP3    H151714   6.460   0.131  12.671
 9173TIP3    H251715   6.338   0.084  12.778
 9174TIP3   OH251716   6.658   0.191  12.551
 9174TIP3    H151717   6.726   0.100  12.567
 9174TIP3    H251718   6.719   0.283  12.585
 9175TIP3   OH251719   6.034   0.092  12.668
 9175TIP3    H151720   6.106   0.019  12.623
 9175TIP3    H251721   6.061   0.066  12.761
 9176TIP3   OH251722   6.248   0.216  12.272
 9176TIP3    H151723   6.142   0.268  12.281
 9176TIP3    H251724   6.233   0.119  12.323
 9177TIP3   OH251725   4.906   0.220  12.002
 9177TIP3    H151726   4.992   0.186  11.942
 9177TIP3    H251727   4.962   0.283  12.069
 9178TIP3   OH251728   5.560   0.362  12.230
 9178TIP3    H151729   5.592   0.280  12.295
 9178TIP3    H251730   5.587   0.457  12.285
 9179TIP3   OH251731   5.779   2.135  12.084
 9179TIP3    H151732   5.894   2.134  12.068
 9179TIP3    H251733   5.746   2.074  12.006
 9180TIP3   OH251734   4.951   2.086  11.916
 9180TIP3    H151735   4.928   2.154  11.991
 9180TIP3    H251736   4.961   1.978  11.952
 9181TIP3   OH251737   8.243   1.189  12.531
 9181TIP3    H151738   8.204   1.300  12.536
 9181TIP3    H251739   8.183   1.150  12.453
 9182TIP3   OH251740   8.078   1.055  12.915
 9182TIP3    H151741   8.160   0.973  12.913
 9182TIP3    H251742   8.023   1.043  12.831
 9183TIP3   OH251743   6.916   0.786  12.444
 9183TIP3    H151744   6.862   0.889  12.443
 9183TIP3    H251745   6.840   0.725  12.392
 9184TIP3   OH251746   6.931   1.091  12.670
 9184TIP3    H151747   7.006   1.007  12.702
 9184TIP3    H251748   6.989   1.128  12.592
 9185TIP3   OH251749   8.178   2.095  12.774
 9185TIP3    H151750   8.251   2.036  12.716
 9185TIP3    H251751   8.155   2.006  12.834
 9186TIP3   OH251752   7.868   1.423  12.980
 9186TIP3    H151753   7.896   1.358  12.904
 9186TIP3    H251754   7.961   1.406  13.038
 9187TIP3   OH251755   7.470   0.472  12.686
 9187TIP3    H151756   7.472   0.581  12.652
 9187TIP3    H251757   7.414   0.414  12.616
 9188TIP3   OH251758   8.392   0.508  12.550
 9188TIP3    H151759   8.456   0.455  12.617
 9188TIP3    H251760   8.473   0.574  12.506
 9189TIP3   OH251761   7.082   0.805  12.753
 9189TIP3    H151762   7.098   0.722  12.819
 9189TIP3    H251763   7.110   0.750  12.669
 9190TIP3   OH251764   7.636   0.968  12.700
 9190TIP3    H151765   7.714   0.904  12.748
 9190TIP3    H251766   7.579   0.882  12.652
 9191TIP3   OH251767   8.153   1.496  12.433
 9191TIP3    H151768   8.132   1.489  12.337
 9191TIP3    H251769   8.105   1.598  12.457
 9192TIP3   OH251770   6.944   1.456  12.230
 9192TIP3    H151771   6.935   1.510  12.143
 9192TIP3    H251772   6.946   1.547  12.292
 9193TIP3   OH251773   8.348   1.889  12.610
 9193TIP3    H151774   8.377   1.784  12.570
 9193TIP3    H251775   8.449   1.944  12.591
 9194TIP3   OH251776   8.525   1.631  12.464
 9194TIP3    H151777   8.510   1.560  12.387
 9194TIP3    H251778   8.563   1.556  12.531
 9195TIP3   OH251779   8.086   1.092  12.309
 9195TIP3    H151780   7.998   1.166  12.291
 9195TIP3    H251781   8.164   1.110  12.238
 9196TIP3   OH251782   8.077   0.997  11.965
 9196TIP3    H151783   8.150   1.044  12.031
 9196TIP3    H251784   8.100   0.884  11.976
 9197TIP3   OH251785   8.482   1.050  12.386
 9197TIP3    H151786   8.407   1.109  12.444
 9197TIP3    H251787   8.572   1.034  12.448
 9198TIP3   OH251788   7.440   1.178  12.572
 9198TIP3    H151789   7.432   1.105  12.497
 9198TIP3    H251790   7.516   1.121  12.631
 9199TIP3   OH251791   7.643   1.616  12.844
 9199TIP3    H151792   7.627   1.554  12.764
 9199TIP3    H251793   7.729   1.560  12.891
 9200TIP3   OH251794   8.330   1.038  12.147
 9200TIP3    H151795   8.395   1.026  12.231
 9200TIP3    H251796   8.410   1.086  12.085
 9201TIP3   OH251797   8.022   1.874  12.524
 9201TIP3    H151798   8.137   1.878  12.542
 9201TIP3    H251799   8.016   1.910  12.432
 9202TIP3   OH251800   8.772   0.109  12.154
 9202TIP3    H151801   8.663   0.115  12.116
 9202TIP3    H251802   8.831   0.181  12.095
 9203TIP3   OH251803   7.379   1.040  12.302
 9203TIP3    H151804   7.332   1.148  12.299
 9203TIP3    H251805   7.297   0.974  12.261
 9204TIP3   OH251806   8.930   1.780  11.984
 9204TIP3    H151807   8.974   1.884  12.012
 9204TIP3    H251808   9.029   1.717  11.986
 9205TIP3   OH251809   8.039   2.146  12.348
 9205TIP3    H151810   8.038   2.154  12.251
 9205TIP3    H251811   8.020   2.256  12.375
 9206TIP3   OH251812   7.260   2.021  12.512
 9206TIP3    H151813   7.304   2.074  12.590
 9206TIP3    H251814   7.160   2.081  12.506
 9207TIP3   OH251815   8.382   2.076  12.032
 9207TIP3    H151816   8.444   1.986  11.995
 9207TIP3    H251817   8.386   2.056  12.129
 9208TIP3   OH251818   8.347   2.074  12.294
 9208TIP3    H151819   8.237   2.093  12.327
 9208TIP3    H251820   8.377   1.978  12.342
 9209TIP3   OH251821   8.534   1.180  11.992
 9209TIP3    H151822   8.520   1.164  11.895
 9209TIP3    H251823   8.651   1.189  11.997
 9210TIP3   OH251824   7.956   0.394  12.022
 9210TIP3    H151825   7.938   0.329  12.100
 9210TIP3    H251826   7.910   0.323  11.953
 9211TIP3   OH251827   7.514   0.751  12.525
 9211TIP3    H151828   7.400   0.721  12.517
 9211TIP3    H251829   7.556   0.732  12.434
 9212TIP3   OH251830   8.167   0.794  12.393
 9212TIP3    H151831   8.153   0.904  12.358
 9212TIP3    H251832   8.248   0.751  12.330
 9213TIP3   OH251833   8.225   0.806  12.699
 9213TIP3    H151834   8.238   0.857  12.612
 9213TIP3    H251835   8.278   0.703  12.684
 9214TIP3   OH251836   7.582   0.448  11.899
 9214TIP3    H151837   7.530   0.406  11.980
 9214TIP3    H251838   7.489   0.485  11.849
 9215TIP3   OH251839   6.851   0.458  12.618
 9215TIP3    H151840   6.956   0.442  12.651
 9215TIP3    H251841   6.869   0.446  12.522
 9216TIP3   OH251842   6.932   0.514  12.148
 9216TIP3    H151843   6.998   0.569  12.080
 9216TIP3    H251844   6.868   0.605  12.176
 9217TIP3   OH251845   7.204   0.655  12.511
 9217TIP3    H151846   7.104   0.708  12.481
 9217TIP3    H251847   7.207   0.558  12.456
 9218TIP3   OH251848   7.608   0.697  12.264
 9218TIP3    H151849   7.711   0.690  12.221
 9218TIP3    H251850   7.543   0.757  12.200
 9219TIP3   OH251851   7.454   0.829  12.018
 9219TIP3    H151852   7.408   0.764  11.948
 9219TIP3    H251853   7.554   0.862  11.973
 9220TIP3   OH251854   7.919   0.719  12.805
 9220TIP3    H151855   8.029   0.724  12.770
 9220TIP3    H251856   7.924   0.776  12.889
 9221TIP3   OH251857   7.315   0.338  12.440
 9221TIP3    H151858   7.222   0.283  12.479
 9221TIP3    H251859   7.379   0.246  12.412
 9222TIP3   OH251860   7.856   1.363  12.242
 9222TIP3    H151861   7.774   1.288  12.210
 9222TIP3    H251862   7.814   1.390  12.332
 9223TIP3   OH251863   8.257   0.451  12.073
 9223TIP3    H151864   8.141   0.444  12.051
 9223TIP3    H251865   8.278   0.566  12.075
 9224TIP3   OH251866   8.390   0.718  12.180
 9224TIP3    H151867   8.504   0.730  12.200
 9224TIP3    H251868   8.380   0.810  12.121
 9225TIP3   OH251869   8.110   1.505  12.143
 9225TIP3    H151870   8.062   1.613  12.158
 9225TIP3    H251871   8.017   1.436  12.162
 9226TIP3   OH251872   9.112   0.720  12.143
 9226TIP3    H151873   9.005   0.694  12.112
 9226TIP3    H251874   9.091   0.834  12.145
 9227TIP3   OH251875   8.768   1.780  12.225
 9227TIP3    H151876   8.704   1.686  12.239
 9227TIP3    H251877   8.824   1.760  12.140
 9228TIP3   OH251878   7.519   1.681  12.550
 9228TIP3    H151879   7.574   1.774  12.511
 9228TIP3    H251880   7.446   1.651  12.480
 9229TIP3   OH251881   7.108   1.109  12.006
 9229TIP3    H151882   7.158   1.165  12.081
 9229TIP3    H251883   6.992   1.110  12.023
 9230TIP3   OH251884   7.710   1.396  12.485
 9230TIP3    H151885   7.639   1.486  12.504
 9230TIP3    H251886   7.681   1.322  12.557
 9231TIP3   OH251887   7.597   1.979  12.432
 9231TIP3    H151888   7.480   1.986  12.439
 9231TIP3    H251889   7.632   2.076  12.480
 9232TIP3   OH251890   8.513   1.566  12.030
 9232TIP3    H151891   8.516   1.505  12.114
 9232TIP3    H251892   8.411   1.529  11.994
 9233TIP3   OH251893   9.013   2.082  12.042
 9233TIP3    H151894   9.073   2.153  11.984
 9233TIP3    H251895   8.909   2.135  12.039
 9234TIP3   OH251896   8.574   1.406  12.262
 9234TIP3    H151897   8.544   1.296  12.243
 9234TIP3    H251898   8.692   1.396  12.269
 9235TIP3   OH251899   7.778   1.704  11.868
 9235TIP3    H151900   7.750   1.645  11.788
 9235TIP3    H251901   7.703   1.661  11.933
 9236TIP3   OH251902   7.626   1.592  12.108
 9236TIP3    H151903   7.716   1.536  12.150
 9236TIP3    H251904   7.640   1.702  12.143
 9237TIP3   OH251905   7.232   1.314  12.185
 9237TIP3    H151906   7.126   1.351  12.215
 9237TIP3    H251907   7.260   1.398  12.121
 9238TIP3   OH251908   8.245   0.379  12.330
 9238TIP3    H151909   8.255   0.442  12.247
 9238TIP3    H251910   8.297   0.451  12.396
 9239TIP3   OH251911   7.993   1.807  12.172
 9239TIP3    H151912   7.885   1.846  12.192
 9239TIP3    H251913   8.047   1.908  12.152
 9240TIP3   OH251914   7.912   0.570  12.426
 9240TIP3    H151915   8.003   0.643  12.414
 9240TIP3    H251916   7.831   0.642  12.460
 9241TIP3   OH251917   8.006   0.235  12.473
 9241TIP3    H151918   7.973   0.347  12.464
 9241TIP3    H251919   8.118   0.250  12.446
 9242TIP3   OH251920   7.669   1.895  12.179
 9242TIP3    H151921   7.666   1.993  12.123
 9242TIP3    H251922   7.656   1.942  12.269
 9243TIP3   OH251923   7.458   0.368  12.136
 9243TIP3    H151924   7.433   0.455  12.198
 9243TIP3    H251925   7.567   0.346  12.168
 9244TIP3   OH251926   8.539   0.930  12.753
 9244TIP3    H151927   8.428   0.912  12.777
 9244TIP3    H251928   8.591   0.836  12.795
 9245TIP3   OH251929   7.280   1.601  12.025
 9245TIP3    H151930   7.367   1.630  12.086
 9245TIP3    H251931   7.343   1.553  11.954
 9246TIP3   OH251932   7.045   0.760  11.984
 9246TIP3    H151933   7.088   0.865  12.009
 9246TIP3    H251934   6.986   0.786  11.903
 9247TIP3   OH251935   7.207   0.007  12.824
 9247TIP3    H151936   7.184   0.113  12.787
 9247TIP3    H251937   7.164  -0.064  12.755
 9248TIP3   OH251938   7.000   1.728  12.374
 9248TIP3    H151939   6.937   1.811  12.418
 9248TIP3    H251940   7.105   1.774  12.376
 9249TIP3   OH251941   8.015   1.949  11.865
 9249TIP3    H151942   7.958   1.846  11.872
 9249TIP3    H251943   8.113   1.913  11.819
 9250TIP3   OH251944   8.557   1.853  11.880
 9250TIP3    H151945   8.593   1.778  11.949
 9250TIP3    H251946   8.653   1.865  11.825
 9251TIP3   OH251947   7.463   1.364  11.859
 9251TIP3    H151948   7.498   1.332  11.948
 9251TIP3    H251949   7.565   1.354  11.810
 9252TIP3   OH251950   8.132   1.547  11.834
 9252TIP3    H151951   8.095   1.526  11.925
 9252TIP3    H251952   8.130   1.435  11.800
 9253TIP3   OH251953   7.621   1.160  12.126
 9253TIP3    H151954   7.536   1.104  12.174
 9253TIP3    H251955   7.666   1.074  12.073
 9254TIP3   OH251956   7.766   0.930  11.923
 9254TIP3    H151957   7.738   0.958  11.831
 9254TIP3    H251958   7.878   0.971  11.925
 9255TIP3   OH251959   8.852   1.198  11.887
 9255TIP3    H151960   8.812   1.164  11.799
 9255TIP3    H251961   8.833   1.315  11.885
 9256TIP3   OH251962   7.706   2.179  12.061
 9256TIP3    H151963   7.817   2.174  12.089
 9256TIP3    H251964   7.716   2.260  11.990
 9257TIP3   OH251965   6.946   1.555  11.977
 9257TIP3    H151966   7.063   1.561  11.984
 9257TIP3    H251967   6.929   1.480  11.902
 9258TIP3   OH251968   8.882   1.325  12.271
 9258TIP3    H151969   8.998   1.331  12.260
 9258TIP3    H251970   8.876   1.266  12.356
 9259TIP3   OH251971   8.954   1.144  12.487
 9259TIP3    H151972   8.857   1.075  12.487
 9259TIP3    H251973   9.028   1.064  12.522
 9260TIP3   OH251974   9.048   1.076  12.085
 9260TIP3    H151975   8.974   1.098  12.011
 9260TIP3    H251976   8.990   1.121  12.161
 9261TIP3   OH251977   8.881   0.739  11.889
 9261TIP3    H151978   8.810   0.804  11.944
 9261TIP3    H251979   8.807   0.668  11.845
 9262TIP3   OH251980   8.716   0.941  12.544
 9262TIP3    H151981   8.678   0.842  12.499
 9262TIP3    H251982   8.652   0.934  12.626
 9263TIP3   OH251983   6.914   0.990  12.970
 9263TIP3    H151984   6.892   0.977  12.876
 9263TIP3    H251985   7.031   0.968  12.978
 9264TIP3   OH251986   8.712   0.438  11.838
 9264TIP3    H151987   8.732   0.428  11.932
 9264TIP3    H251988   8.596   0.420  11.836
 9265TIP3   OH251989   8.644   0.637  12.421
 9265TIP3    H151990   8.666   0.526  12.395
 9265TIP3    H251991   8.692   0.694  12.344
 9266TIP3   OH251992   8.705   0.691  12.869
 9266TIP3    H151993   8.813   0.728  12.891
 9266TIP3    H251994   8.683   0.620  12.943
 9267TIP3   OH251995   8.706   0.320  12.355
 9267TIP3    H151996   8.766   0.281  12.433
 9267TIP3    H251997   8.719   0.233  12.289
 9268TIP3   OH251998   8.970   0.325  12.031
 9268TIP3    H151999   9.035   0.263  11.970
 9268TIP3    H252000   8.983   0.432  11.994
 9269TIP3   OH252001   6.880   0.316  12.358
 9269TIP3    H152002   6.764   0.301  12.345
 9269TIP3    H252003   6.907   0.374  12.277
 9270TIP3   OH252004   8.604   2.064  12.537
 9270TIP3    H152005   8.687   2.056  12.467
 9270TIP3    H252006   8.621   2.172  12.569
 9271TIP3   OH252007   8.640   0.174  12.748
 9271TIP3    H152008   8.728   0.157  12.684
 9271TIP3    H252009   8.549   0.124  12.703
 9272TIP3   OH252010   8.874   0.188  12.571
 9272TIP3    H152011   8.940   0.094  12.552
 9272TIP3    H252012   8.957   0.272  12.579
 9273TIP3   OH252013   7.118   0.130  12.549
 9273TIP3    H152014   7.024   0.115  12.493
 9273TIP3    H252015   7.146   0.018  12.572
 9274TIP3   OH252016   7.028   0.114  12.167
 9274TIP3    H152017   7.058   0.167  12.083
 9274TIP3    H252018   6.925   0.160  12.188
 9275TIP3   OH252019   7.696   0.116  12.553
 9275TIP3    H152020   7.801   0.161  12.570
 9275TIP3    H252021   7.679   0.053  12.634
 9276TIP3   OH252022   8.347   0.054  12.675
 9276TIP3    H152023   8.284   0.038  12.596
 9276TIP3    H252024   8.357  -0.056  12.705
 9277TIP3   OH252025   8.456   0.162  12.193
 9277TIP3    H152026   8.406   0.265  12.212
 9277TIP3    H252027   8.494   0.131  12.282
 9278TIP3   OH252028   7.156   0.276  11.965
 9278TIP3    H152029   7.225   0.209  11.909
 9278TIP3    H252030   7.229   0.306  12.037
 9279TIP3   OH252031   7.783   0.317  12.265
 9279TIP3    H152032   7.824   0.264  12.345
 9279TIP3    H252033   7.841   0.418  12.272
 9280TIP3   OH252034   8.066   2.128  12.078
 9280TIP3    H152035   8.179   2.136  12.048
 9280TIP3    H252036   8.027   2.069  11.999
 9281TIP3   OH252037   8.825   2.064  12.332
 9281TIP3    H152038   8.812   1.958  12.289
 9281TIP3    H252039   8.844   2.130  12.253
 9282TIP3   OH252040   9.084   0.814  12.462
 9282TIP3    H152041   9.068   0.877  12.382
 9282TIP3    H252042   8.990   0.745  12.454
 9283TIP3   OH252043   9.072   0.448  12.618
 9283TIP3    H152044   9.186   0.449  12.641
 9283TIP3    H252045   9.083   0.430  12.521
 9284TIP3   OH252046   8.982   2.210  12.530
 9284TIP3    H152047   8.935   2.162  12.449
 9284TIP3    H252048   8.986   2.114  12.588
 9285TIP3   OH252049   9.070   1.954  12.673
 9285TIP3    H152050   9.083   1.841  12.656
 9285TIP3    H252051   9.181   1.986  12.666
 9286TIP3   OH252052   9.017   0.821  12.903
 9286TIP3    H152053   9.074   0.739  12.853
 9286TIP3    H252054   9.072   0.821  12.989
 9287TIP3   OH252055   9.043   0.335  12.365
 9287TIP3    H152056   8.936   0.328  12.329
 9287TIP3    H252057   9.104   0.346  12.284
 9288TIP3   OH252058   1.396   3.451  12.561
 9288TIP3    H152059   1.439   3.557  12.577
 9288TIP3    H252060   1.369   3.461  12.465
 9289TIP3   OH252061   1.318   3.299  12.881
 9289TIP3    H152062   1.316   3.300  12.978
 9289TIP3    H252063   1.434   3.295  12.868
 9290TIP3   OH252064   1.741   3.612  12.727
 9290TIP3    H152065   1.705   3.557  12.808
 9290TIP3    H252066   1.722   3.720  12.755
 9291TIP3   OH252067   0.158   2.976  12.337
 9291TIP3    H152068   0.220   3.071  12.360
 9291TIP3    H252069   0.058   2.989  12.386
 9292TIP3   OH252070   0.186   3.370  12.698
 9292TIP3    H152071   0.217   3.263  12.731
 9292TIP3    H252072   0.251   3.377  12.618
 9293TIP3   OH252073   1.376   4.273  12.740
 9293TIP3    H152074   1.483   4.236  12.711
 9293TIP3    H252075   1.396   4.330  12.823
 9294TIP3   OH252076   1.084   3.638  12.925
 9294TIP3    H152077   1.093   3.539  12.876
 9294TIP3    H252078   1.178   3.626  12.982
 9295TIP3   OH252079   1.548   2.748  12.526
 9295TIP3    H152080   1.628   2.675  12.558
 9295TIP3    H252081   1.594   2.851  12.553
 9296TIP3   OH252082   0.336   3.076  12.722
 9296TIP3    H152083   0.257   3.030  12.785
 9296TIP3    H252084   0.365   2.989  12.660
 9297TIP3   OH252085   0.913   3.223  12.696
 9297TIP3    H152086   0.904   3.137  12.763
 9297TIP3    H252087   0.850   3.172  12.625
 9298TIP3   OH252088   1.372   3.754  12.416
 9298TIP3    H152089   1.348   3.752  12.321
 9298TIP3    H252090   1.334   3.863  12.438
 9299TIP3   OH252091   0.119   3.728  12.258
 9299TIP3    H152092   0.125   3.791  12.174
 9299TIP3    H252093   0.156   3.804  12.325
 9300TIP3   OH252094   0.976   2.318  12.816
 9300TIP3    H152095   0.935   2.209  12.809
 9300TIP3    H252096   0.877   2.375  12.844
 9301TIP3   OH252097   1.614   4.134  12.598
 9301TIP3    H152098   1.638   4.032  12.553
 9301TIP3    H252099   1.712   4.194  12.580
 9302TIP3   OH252100   1.753   3.888  12.476
 9302TIP3    H152101   1.688   3.842  12.404
 9302TIP3    H252102   1.752   3.799  12.539
 9303TIP3   OH252103   1.294   3.397  12.299
 9303TIP3    H152104   1.230   3.496  12.291
 9303TIP3    H252105   1.372   3.409  12.227
 9304TIP3   OH252106   1.291   3.233  11.969
 9304TIP3    H152107   1.354   3.286  12.038
 9304TIP3    H252108   1.331   3.124  11.975
 9305TIP3   OH252109   1.715   3.374  12.390
 9305TIP3    H152110   1.648   3.370  12.470
 9305TIP3    H252111   1.814   3.328  12.429
 9306TIP3   OH252112   0.859   3.878  12.824
 9306TIP3    H152113   0.890   3.878  12.731
 9306TIP3    H252114   0.942   3.810  12.863
 9307TIP3   OH252115   1.549   3.326  12.156
 9307TIP3    H152116   1.616   3.344  12.236
 9307TIP3    H252117   1.613   3.379  12.085
 9308TIP3   OH252118   1.274   4.082  12.484
 9308TIP3    H152119   1.289   4.136  12.570
 9308TIP3    H252120   1.249   4.169  12.423
 9309TIP3   OH252121   1.999   2.245  12.183
 9309TIP3    H152122   1.897   2.249  12.234
 9309TIP3    H252123   1.960   2.287  12.100
 9310TIP3   OH252124   0.421   3.344  12.376
 9310TIP3    H152125   0.463   3.437  12.327
 9310TIP3    H252126   0.508   3.266  12.365
 9311TIP3   OH252127   2.155   3.998  12.004
 9311TIP3    H152128   2.185   4.111  12.014
 9311TIP3    H252129   2.261   3.948  12.017
 9312TIP3   OH252130   0.160   4.034  12.944
 9312TIP3    H152131   0.205   3.930  12.923
 9312TIP3    H252132   0.163   4.021  13.043
 9313TIP3   OH252133   1.232   4.405  12.335
 9313TIP3    H152134   1.226   4.426  12.239
 9313TIP3    H252135   1.229   4.516  12.369
 9314TIP3   OH252136   0.498   4.271  12.517
 9314TIP3    H152137   0.476   4.268  12.611
 9314TIP3    H252138   0.396   4.238  12.478
 9315TIP3   OH252139   1.612   4.336  12.023
 9315TIP3    H152140   1.676   4.250  11.979
 9315TIP3    H252141   1.616   4.308  12.118
 9316TIP3   OH252142   1.554   4.340  12.298
 9316TIP3    H152143   1.440   4.366  12.317
 9316TIP3    H252144   1.572   4.255  12.360
 9317TIP3   OH252145   0.685   2.447  12.936
 9317TIP3    H152146   0.577   2.418  12.907
 9317TIP3    H252147   0.656   2.533  12.997
 9318TIP3   OH252148   1.726   3.454  11.969
 9318TIP3    H152149   1.722   3.472  11.873
 9318TIP3    H252150   1.841   3.450  11.984
 9319TIP3   OH252151   1.211   2.646  11.985
 9319TIP3    H152152   1.178   2.612  12.075
 9319TIP3    H252153   1.127   2.591  11.933
 9320TIP3   OH252154   0.722   3.043  12.525
 9320TIP3    H152155   0.611   3.005  12.523
 9320TIP3    H252156   0.772   2.956  12.474
 9321TIP3   OH252157   1.372   3.133  12.433
 9321TIP3    H152158   1.344   3.230  12.381
 9321TIP3    H252159   1.441   3.083  12.368
 9322TIP3   OH252160   0.762   2.731  11.868
 9322TIP3    H152161   0.724   2.669  11.946
 9322TIP3    H252162   0.678   2.809  11.856
 9323TIP3   OH252163   0.133   2.683  12.614
 9323TIP3    H152164   0.246   2.666  12.633
 9323TIP3    H252165   0.131   2.678  12.517
 9324TIP3   OH252166   0.124   2.776  12.140
 9324TIP3    H152167   0.198   2.824  12.077
 9324TIP3    H252168   0.130   2.856  12.214
 9325TIP3   OH252169   1.050   2.724  12.599
 9325TIP3    H152170   0.937   2.695  12.594
 9325TIP3    H252171   1.097   2.654  12.668
 9326TIP3   OH252172   0.418   2.916  12.484
 9326TIP3    H152173   0.314   2.923  12.438
 9326TIP3    H252174   0.431   2.798  12.484
 9327TIP3   OH252175   0.905   3.052  12.227
 9327TIP3    H152176   0.932   2.950  12.270
 9327TIP3    H252177   0.790   3.042  12.226
 9328TIP3   OH252178   1.574   2.626  12.933
 9328TIP3    H152179   1.474   2.596  12.970
 9328TIP3    H252180   1.586   2.549  12.860
 9329TIP3   OH252181   0.652   3.108  12.013
 9329TIP3    H152182   0.618   3.006  11.979
 9329TIP3    H252183   0.767   3.107  11.997
 9330TIP3   OH252184   0.476   2.603  12.511
 9330TIP3    H152185   0.498   2.491  12.529
 9330TIP3    H252186   0.580   2.633  12.467
 9331TIP3   OH252187   1.061   3.618  12.261
 9331TIP3    H152188   0.976   3.563  12.212
 9331TIP3    H252189   1.004   3.646  12.345
 9332TIP3   OH252190   1.499   2.734  12.053
 9332TIP3    H152191   1.393   2.714  12.010
 9332TIP3    H252192   1.482   2.839  12.093
 9333TIP3   OH252193   1.565   3.011  12.200
 9333TIP3    H152194   1.672   3.008  12.238
 9333TIP3    H252195   1.576   3.095  12.132
 9334TIP3   OH252196   1.274   3.779  12.110
 9334TIP3    H152197   1.253   3.887  12.143
 9334TIP3    H252198   1.202   3.713  12.165
 9335TIP3   OH252199   1.924   4.063  12.207
 9335TIP3    H152200   1.890   3.986  12.274
 9335TIP3    H252201   1.999   4.000  12.154
 9336TIP3   OH252202   0.734   3.956  12.554
 9336TIP3    H152203   0.779   4.058  12.524
 9336TIP3    H252204   0.655   3.941  12.485
 9337TIP3   OH252205   0.300   3.326  12.022
 9337TIP3    H152206   0.388   3.386  12.066
 9337TIP3    H252207   0.210   3.346  12.081
 9338TIP3   OH252208   0.926   3.695  12.496
 9338TIP3    H152209   0.852   3.780  12.521
 9338TIP3    H252210   0.910   3.611  12.561
 9339TIP3   OH252211   0.792   4.248  12.409
 9339TIP3    H152212   0.677   4.265  12.428
 9339TIP3    H252213   0.834   4.332  12.465
 9340TIP3   OH252214   1.706   3.845  11.996
 9340TIP3    H152215   1.747   3.792  12.077
 9340TIP3    H252216   1.603   3.792  11.988
 9341TIP3   OH252217   2.219   4.322  12.051
 9341TIP3    H152218   2.291   4.404  12.018
 9341TIP3    H252219   2.126   4.388  12.076
 9342TIP3   OH252220   1.780   3.668  12.236
 9342TIP3    H152221   1.751   3.577  12.292
 9342TIP3    H252222   1.897   3.665  12.236
 9343TIP3   OH252223   0.985   3.972  11.871
 9343TIP3    H152224   0.972   3.910  11.790
 9343TIP3    H252225   0.914   3.914  11.931
 9344TIP3   OH252226   0.811   3.871  12.120
 9344TIP3    H152227   0.913   3.850  12.165
 9344TIP3    H252228   0.816   3.989  12.131
 9345TIP3   OH252229   0.438   3.595  12.169
 9345TIP3    H152230   0.329   3.620  12.200
 9345TIP3    H252231   0.463   3.688  12.112
 9346TIP3   OH252232   1.435   2.556  12.315
 9346TIP3    H152233   1.447   2.639  12.247
 9346TIP3    H252234   1.471   2.612  12.394
 9347TIP3   OH252235   1.194   4.096  12.179
 9347TIP3    H152236   1.084   4.135  12.179
 9347TIP3    H252237   1.252   4.190  12.149
 9348TIP3   OH252238   1.166   2.825  12.364
 9348TIP3    H152239   1.225   2.915  12.402
 9348TIP3    H252240   1.097   2.796  12.440
 9349TIP3   OH252241   1.154   2.474  12.456
 9349TIP3    H152242   1.115   2.579  12.485
 9349TIP3    H252243   1.249   2.506  12.405
 9350TIP3   OH252244   0.875   4.180  12.149
 9350TIP3    H152245   0.871   4.282  12.100
 9350TIP3    H252246   0.854   4.225  12.239
 9351TIP3   OH252247   0.678   2.588  12.102
 9351TIP3    H152248   0.682   2.665  12.176
 9351TIP3    H252249   0.785   2.542  12.118
 9352TIP3   OH252250   0.510   3.862  12.017
 9352TIP3    H152251   0.617   3.872  12.059
 9352TIP3    H252252   0.535   3.778  11.951
 9353TIP3   OH252253   0.292   2.981  11.969
 9353TIP3    H152254   0.334   3.083  11.999
 9353TIP3    H252255   0.210   3.010  11.904
 9354TIP3   OH252256   1.944   4.225  12.981
 9354TIP3    H152257   1.945   4.266  12.890
 9354TIP3    H252258   1.962   4.327  13.029
 9355TIP3   OH252259   0.370   2.380  12.873
 9355TIP3    H152260   0.354   2.388  12.776
 9355TIP3    H252261   0.366   2.262  12.879
 9356TIP3   OH252262   0.270   4.038  12.453
 9356TIP3    H152263   0.157   4.055  12.436
 9356TIP3    H252264   0.312   4.086  12.371
 9357TIP3   OH252265   1.234   4.207  11.867
 9357TIP3    H152266   1.166   4.111  11.879
 9357TIP3    H252267   1.328   4.160  11.822
 9358TIP3   OH252268   1.775   4.126  11.866
 9358TIP3    H152269   1.777   4.043  11.935
 9358TIP3    H252270   1.877   4.109  11.820
 9359TIP3   OH252271   0.667   3.626  11.879
 9359TIP3    H152272   0.689   3.574  11.964
 9359TIP3    H252273   0.774   3.624  11.838
 9360TIP3   OH252274   1.362   3.803  11.840
 9360TIP3    H152275   1.308   3.790  11.927
 9360TIP3    H252276   1.352   3.690  11.810
 9361TIP3   OH252277   0.834   3.419  12.123
 9361TIP3    H152278   0.812   3.342  12.193
 9361TIP3    H252279   0.880   3.343  12.057
 9362TIP3   OH252280   0.966   3.220  11.940
 9362TIP3    H152281   0.978   3.274  11.856
 9362TIP3    H252282   1.076   3.214  11.971
 9363TIP3   OH252283   2.074   3.470  11.876
 9363TIP3    H152284   2.050   3.440  11.783
 9363TIP3    H252285   2.071   3.589  11.868
 9364TIP3   OH252286   0.936   4.483  12.080
 9364TIP3    H152287   1.050   4.498  12.096
 9364TIP3    H252288   0.932   4.526  11.989
 9365TIP3   OH252289   0.190   3.880  12.025
 9365TIP3    H152290   0.307   3.889  12.022
 9365TIP3    H252291   0.173   3.812  11.946
 9366TIP3   OH252292   0.112   4.476  12.471
 9366TIP3    H152293  -0.004   4.496  12.467
 9366TIP3    H252294   0.122   4.421  12.556
 9367TIP3   OH252295   0.180   4.265  12.690
 9367TIP3    H152296   0.188   4.151  12.676
 9367TIP3    H252297   0.067   4.271  12.721
 9368TIP3   OH252298   2.118   3.612  12.228
 9368TIP3    H152299   2.215   3.671  12.251
 9368TIP3    H252300   2.118   3.527  12.294
 9369TIP3   OH252301   2.222   3.343  12.086
 9369TIP3    H152302   2.158   3.366  12.005
 9369TIP3    H252303   2.209   3.445  12.131
 9370TIP3   OH252304   0.108   2.560  12.329
 9370TIP3    H152305  -0.010   2.556  12.323
 9370TIP3    H252306   0.128   2.615  12.244
 9371TIP3   OH252307   1.861   4.343  12.568
 9371TIP3    H152308   1.914   4.331  12.481
 9371TIP3    H252309   1.903   4.445  12.600
 9372TIP3   OH252310   0.623   4.184  12.816
 9372TIP3    H152311   0.557   4.115  12.763
 9372TIP3    H252312   0.724   4.124  12.813
 9373TIP3   OH252313   1.241   2.552  12.771
 9373TIP3    H152314   1.174   2.480  12.823
 9373TIP3    H252315   1.278   2.480  12.701
 9374TIP3   OH252316   2.088   2.459  12.538
 9374TIP3    H152317   2.167   2.376  12.517
 9374TIP3    H252318   2.162   2.543  12.569
 9375TIP3   OH252319   0.324   2.309  12.612
 9375TIP3    H152320   0.270   2.339  12.529
 9375TIP3    H252321   0.394   2.224  12.584
 9376TIP3   OH252322   0.269   2.303  12.147
 9376TIP3    H152323   0.301   2.377  12.076
 9376TIP3    H252324   0.222   2.378  12.212
 9377TIP3   OH252325   0.874   2.364  12.551
 9377TIP3    H152326   0.952   2.417  12.491
 9377TIP3    H252327   0.943   2.346  12.627
 9378TIP3   OH252328   1.716   2.316  12.283
 9378TIP3    H152329   1.636   2.392  12.313
 9378TIP3    H252330   1.727   2.244  12.363
 9379TIP3   OH252331   0.230   4.284  12.239
 9379TIP3    H152332   0.116   4.278  12.222
 9379TIP3    H252333   0.240   4.400  12.232
 9380TIP3   OH252334   0.388   2.528  11.981
 9380TIP3    H152335   0.481   2.483  11.936
 9380TIP3    H252336   0.442   2.579  12.056
 9381TIP3   OH252337   1.045   2.561  12.194
 9381TIP3    H152338   1.062   2.502  12.277
 9381TIP3    H252339   1.010   2.665  12.231
 9382TIP3   OH252340   1.283   4.412  12.073
 9382TIP3    H152341   1.397   4.410  12.052
 9382TIP3    H252342   1.247   4.349  11.996
 9383TIP3   OH252343   2.058   4.298  12.345
 9383TIP3    H152344   2.011   4.213  12.290
 9383TIP3    H252345   2.059   4.388  12.281
 9384TIP3   OH252346   0.379   4.336  11.928
 9384TIP3    H152347   0.362   4.391  12.013
 9384TIP3    H252348   0.458   4.256  11.955
 9385TIP3   OH252349   3.716   3.455  12.512
 9385TIP3    H152350   3.690   3.566  12.487
 9385TIP3    H252351   3.612   3.406  12.515
 9386TIP3   OH252352   2.375   3.064  12.452
 9386TIP3    H152353   2.354   3.176  12.454
 9386TIP3    H252354   2.298   3.030  12.523
 9387TIP3   OH252355   3.660   4.396  12.756
 9387TIP3    H152356   3.721   4.324  12.698
 9387TIP3    H252357   3.659   4.338  12.838
 9388TIP3   OH252358   3.835   2.760  12.542
 9388TIP3    H152359   3.922   2.710  12.589
 9388TIP3    H252360   3.895   2.845  12.496
 9389TIP3   OH252361   2.512   3.034  12.752
 9389TIP3    H152362   2.575   2.971  12.814
 9389TIP3    H252363   2.562   3.002  12.668
 9390TIP3   OH252364   3.074   3.199  12.704
 9390TIP3    H152365   3.180   3.151  12.703
 9390TIP3    H252366   3.017   3.126  12.642
 9391TIP3   OH252367   3.634   3.742  12.414
 9391TIP3    H152368   3.595   3.731  12.322
 9391TIP3    H252369   3.600   3.853  12.434
 9392TIP3   OH252370   2.426   3.716  12.275
 9392TIP3    H152371   2.428   3.780  12.191
 9392TIP3    H252372   2.455   3.800  12.340
 9393TIP3   OH252373   3.815   4.158  12.609
 9393TIP3    H152374   3.857   4.063  12.564
 9393TIP3    H252375   3.887   4.240  12.575
 9394TIP3   OH252376   3.983   3.858  12.464
 9394TIP3    H152377   3.953   3.814  12.377
 9394TIP3    H252378   4.040   3.766  12.498
 9395TIP3   OH252379   3.544   3.343  12.267
 9395TIP3    H152380   3.485   3.444  12.266
 9395TIP3    H252381   3.653   3.376  12.240
 9396TIP3   OH252382   3.534   3.217  11.969
 9396TIP3    H152383   3.572   3.262  12.053
 9396TIP3    H252384   3.596   3.118  11.967
 9397TIP3   OH252385   4.008   3.372  12.403
 9397TIP3    H152386   3.908   3.382  12.456
 9397TIP3    H252387   4.081   3.314  12.463
 9398TIP3   OH252388   2.938   3.462  12.575
 9398TIP3    H152389   2.882   3.390  12.514
 9398TIP3    H252390   2.968   3.390  12.648
 9399TIP3   OH252391   3.152   3.892  12.853
 9399TIP3    H152392   3.139   3.816  12.781
 9399TIP3    H252393   3.187   3.820  12.924
 9400TIP3   OH252394   2.957   3.362  12.914
 9400TIP3    H152395   2.990   3.284  12.847
 9400TIP3    H252396   3.058   3.391  12.955
 9401TIP3   OH252397   3.844   3.318  12.161
 9401TIP3    H152398   3.918   3.306  12.235
 9401TIP3    H252399   3.917   3.364  12.093
 9402TIP3   OH252400   3.538   4.048  12.466
 9402TIP3    H152401   3.596   4.121  12.524
 9402TIP3    H252402   3.456   4.116  12.429
 9403TIP3   OH252403   2.747   3.307  12.343
 9403TIP3    H152404   2.744   3.406  12.292
 9403TIP3    H252405   2.776   3.228  12.276
 9404TIP3   OH252406   4.416   3.983  11.996
 9404TIP3    H152407   4.464   4.088  12.003
 9404TIP3    H252408   4.512   3.914  12.000
 9405TIP3   OH252409   3.466   4.426  12.344
 9405TIP3    H152410   3.490   4.434  12.249
 9405TIP3    H252411   3.479   4.538  12.374
 9406TIP3   OH252412   2.737   4.296  12.507
 9406TIP3    H152413   2.759   4.264  12.599
 9406TIP3    H252414   2.627   4.262  12.494
 9407TIP3   OH252415   4.033   3.454  11.976
 9407TIP3    H152416   4.007   3.455  11.881
 9407TIP3    H252417   4.150   3.455  11.972
 9408TIP3   OH252418   3.470   2.672  11.954
 9408TIP3    H152419   3.466   2.646  12.048
 9408TIP3    H252420   3.388   2.594  11.924
 9409TIP3   OH252421   2.947   2.983  12.540
 9409TIP3    H152422   2.849   2.920  12.538
 9409TIP3    H252423   3.001   2.952  12.458
 9410TIP3   OH252424   3.631   3.095  12.420
 9410TIP3    H152425   3.596   3.196  12.377
 9410TIP3    H252426   3.700   3.059  12.345
 9411TIP3   OH252427   3.710   3.043  12.694
 9411TIP3    H152428   3.672   3.106  12.618
 9411TIP3    H252429   3.739   2.944  12.650
 9412TIP3   OH252430   3.044   2.700  11.882
 9412TIP3    H152431   2.990   2.658  11.962
 9412TIP3    H252432   2.986   2.797  11.863
 9413TIP3   OH252433   2.315   2.681  12.603
 9413TIP3    H152434   2.280   2.786  12.633
 9413TIP3    H252435   2.420   2.676  12.644
 9414TIP3   OH252436   3.302   2.756  12.645
 9414TIP3    H152437   3.220   2.690  12.606
 9414TIP3    H252438   3.374   2.680  12.688
 9415TIP3   OH252439   2.610   2.870  12.531
 9415TIP3    H152440   2.542   2.936  12.472
 9415TIP3    H252441   2.640   2.777  12.476
 9416TIP3   OH252442   3.047   2.927  12.277
 9416TIP3    H152443   3.158   2.924  12.252
 9416TIP3    H252444   3.002   3.010  12.219
 9417TIP3   OH252445   2.935   3.084  12.029
 9417TIP3    H152446   2.891   3.036  11.948
 9417TIP3    H252447   3.038   3.119  11.990
 9418TIP3   OH252448   2.765   2.597  12.447
 9418TIP3    H152449   2.705   2.515  12.497
 9418TIP3    H252450   2.844   2.532  12.403
 9419TIP3   OH252451   3.348   3.605  12.261
 9419TIP3    H152452   3.259   3.553  12.215
 9419TIP3    H252453   3.294   3.638  12.344
 9420TIP3   OH252454   3.782   2.730  12.034
 9420TIP3    H152455   3.676   2.778  12.033
 9420TIP3    H252456   3.846   2.822  12.063
 9421TIP3   OH252457   3.780   2.995  12.201
 9421TIP3    H152458   3.886   2.956  12.227
 9421TIP3    H252459   3.817   3.077  12.138
 9422TIP3   OH252460   3.565   3.782  12.110
 9422TIP3    H152461   3.520   3.884  12.141
 9422TIP3    H252462   3.491   3.708  12.153
 9423TIP3   OH252463   4.464   2.957  12.199
 9423TIP3    H152464   4.372   2.957  12.140
 9423TIP3    H252465   4.482   3.071  12.211
 9424TIP3   OH252466   4.229   4.070  12.206
 9424TIP3    H152467   4.178   3.985  12.257
 9424TIP3    H252468   4.296   4.012  12.142
 9425TIP3   OH252469   3.923   3.376  12.913
 9425TIP3    H152470   3.857   3.319  12.979
 9425TIP3    H252471   3.941   3.289  12.850
 9426TIP3   OH252472   3.011   3.944  12.569
 9426TIP3    H152473   3.079   4.039  12.566
 9426TIP3    H252474   2.941   3.961  12.493
 9427TIP3   OH252475   2.540   3.352  12.025
 9427TIP3    H152476   2.591   3.434  12.080
 9427TIP3    H252477   2.426   3.358  12.048
 9428TIP3   OH252478   3.180   3.673  12.481
 9428TIP3    H152479   3.125   3.767  12.517
 9428TIP3    H252480   3.126   3.588  12.530
 9429TIP3   OH252481   3.053   4.248  12.433
 9429TIP3    H152482   2.939   4.267  12.445
 9429TIP3    H252483   3.094   4.343  12.481
 9430TIP3   OH252484   3.972   3.820  12.030
 9430TIP3    H152485   3.989   3.760  12.114
 9430TIP3    H252486   3.863   3.786  12.012
 9431TIP3   OH252487   4.484   4.324  12.032
 9431TIP3    H152488   4.576   4.396  12.028
 9431TIP3    H252489   4.400   4.394  12.000
 9432TIP3   OH252490   4.058   3.638  12.252
 9432TIP3    H152491   4.037   3.534  12.293
 9432TIP3    H252492   4.176   3.635  12.247
 9433TIP3   OH252493   3.238   3.990  11.873
 9433TIP3    H152494   3.230   3.926  11.792
 9433TIP3    H252495   3.174   3.923  11.933
 9434TIP3   OH252496   3.092   3.874  12.115
 9434TIP3    H152497   3.174   3.833  12.175
 9434TIP3    H252498   3.108   3.990  12.133
 9435TIP3   OH252499   2.696   3.572  12.174
 9435TIP3    H152500   2.600   3.610  12.222
 9435TIP3    H252501   2.737   3.671  12.134
 9436TIP3   OH252502   3.703   2.630  12.294
 9436TIP3    H152503   3.761   2.657  12.211
 9436TIP3    H252504   3.756   2.695  12.361
 9437TIP3   OH252505   3.433   4.070  12.178
 9437TIP3    H152506   3.334   4.130  12.193
 9437TIP3    H252507   3.508   4.154  12.158
 9438TIP3   OH252508   3.398   2.826  12.387
 9438TIP3    H152509   3.474   2.916  12.385
 9438TIP3    H252510   3.364   2.825  12.480
 9439TIP3   OH252511   3.504   2.470  12.451
 9439TIP3    H152512   3.449   2.570  12.442
 9439TIP3    H252513   3.601   2.501  12.402
 9440TIP3   OH252514   3.125   4.183  12.176
 9440TIP3    H152515   3.128   4.284  12.125
 9440TIP3    H252516   3.103   4.225  12.267
 9441TIP3   OH252517   2.966   2.621  12.143
 9441TIP3    H152518   2.965   2.720  12.195
 9441TIP3    H252519   3.077   2.585  12.156
 9442TIP3   OH252520   4.015   3.112  12.759
 9442TIP3    H152521   3.896   3.113  12.758
 9442TIP3    H252522   4.030   3.055  12.843
 9443TIP3   OH252523   2.747   3.864  12.027
 9443TIP3    H152524   2.844   3.905  12.071
 9443TIP3    H252525   2.794   3.814  11.948
 9444TIP3   OH252526   2.513   2.998  11.945
 9444TIP3    H152527   2.578   3.067  12.000
 9444TIP3    H252528   2.455   3.077  11.893
 9445TIP3   OH252529   2.488   3.995  12.412
 9445TIP3    H152530   2.398   4.060  12.439
 9445TIP3    H252531   2.542   4.074  12.356
 9446TIP3   OH252532   3.509   4.204  11.874
 9446TIP3    H152533   3.431   4.117  11.894
 9446TIP3    H252534   3.581   4.147  11.813
 9447TIP3   OH252535   4.051   4.129  11.875
 9447TIP3    H152536   4.058   4.052  11.948
 9447TIP3    H252537   4.144   4.099  11.820
 9448TIP3   OH252538   2.932   3.644  11.858
 9448TIP3    H152539   2.972   3.630  11.949
 9448TIP3    H252540   3.025   3.611  11.806
 9449TIP3   OH252541   3.599   3.797  11.816
 9449TIP3    H152542   3.570   3.779  11.909
 9449TIP3    H252543   3.614   3.684  11.791
 9450TIP3   OH252544   3.103   3.426  12.125
 9450TIP3    H152545   3.013   3.374  12.168
 9450TIP3    H252546   3.136   3.346  12.060
 9451TIP3   OH252547   3.208   3.210  11.904
 9451TIP3    H152548   3.214   3.260  11.816
 9451TIP3    H252549   3.323   3.208  11.926
 9452TIP3   OH252550   4.343   3.479  11.877
 9452TIP3    H152551   4.318   3.430  11.789
 9452TIP3    H252552   4.313   3.592  11.861
 9453TIP3   OH252553   3.211   4.472  12.081
 9453TIP3    H152554   3.325   4.487  12.095
 9453TIP3    H252555   3.192   4.544  12.005
 9454TIP3   OH252556   2.425   3.828  12.010
 9454TIP3    H152557   2.542   3.836  12.008
 9454TIP3    H252558   2.402   3.766  11.929
 9455TIP3   OH252559   2.208   4.488  12.509
 9455TIP3    H152560   2.161   4.400  12.457
 9455TIP3    H252561   2.275   4.434  12.574
 9456TIP3   OH252562   2.394   4.250  12.677
 9456TIP3    H152563   2.309   4.172  12.684
 9456TIP3    H252564   2.419   4.278  12.769
 9457TIP3   OH252565   4.380   3.600  12.275
 9457TIP3    H152566   4.492   3.640  12.277
 9457TIP3    H252567   4.376   3.532  12.355
 9458TIP3   OH252568   4.432   3.374  12.489
 9458TIP3    H152569   4.345   3.302  12.519
 9458TIP3    H252570   4.525   3.337  12.540
 9459TIP3   OH252571   4.514   3.350  12.096
 9459TIP3    H152572   4.451   3.391  12.021
 9459TIP3    H252573   4.459   3.400  12.171
 9460TIP3   OH252574   4.393   3.007  11.877
 9460TIP3    H152575   4.367   3.110  11.914
 9460TIP3    H252576   4.296   2.954  11.909
 9461TIP3   OH252577   4.198   3.169  12.547
 9461TIP3    H152578   4.174   3.070  12.500
 9461TIP3    H252579   4.142   3.148  12.632
 9462TIP3   OH252580   4.206   2.639  11.865
 9462TIP3    H152581   4.187   2.707  11.944
 9462TIP3    H252582   4.100   2.640  11.826
 9463TIP3   OH252583   4.117   2.878  12.414
 9463TIP3    H152584   4.163   2.770  12.418
 9463TIP3    H252585   4.164   2.910  12.328
 9464TIP3   OH252586   4.246   2.543  12.411
 9464TIP3    H152587   4.268   2.459  12.475
 9464TIP3    H252588   4.169   2.488  12.353
 9465TIP3   OH252589   4.488   2.573  12.020
 9465TIP3    H152590   4.476   2.477  11.966
 9465TIP3    H252591   4.417   2.644  11.973
 9466TIP3   OH252592   2.579   4.321  12.913
 9466TIP3    H152593   2.614   4.243  12.980
 9466TIP3    H252594   2.652   4.292  12.839
 9467TIP3   OH252595   2.806   4.192  12.761
 9467TIP3    H152596   2.852   4.087  12.741
 9467TIP3    H252597   2.904   4.246  12.794
 9468TIP3   OH252598   3.102   4.241  12.848
 9468TIP3    H152599   3.120   4.124  12.860
 9468TIP3    H252600   3.108   4.277  12.940
 9469TIP3   OH252601   3.480   2.537  12.785
 9469TIP3    H152602   3.502   2.437  12.832
 9469TIP3    H252603   3.574   2.545  12.728
 9470TIP3   OH252604   2.623   2.338  12.544
 9470TIP3    H152605   2.519   2.308  12.509
 9470TIP3    H252606   2.669   2.232  12.557
 9471TIP3   OH252607   2.482   2.279  12.125
 9471TIP3    H152608   2.516   2.351  12.054
 9471TIP3    H252609   2.406   2.342  12.174
 9472TIP3   OH252610   3.142   2.296  12.554
 9472TIP3    H152611   3.242   2.250  12.524
 9472TIP3    H252612   3.151   2.288  12.649
 9473TIP3   OH252613   3.809   2.330  12.711
 9473TIP3    H152614   3.828   2.398  12.634
 9473TIP3    H252615   3.815   2.222  12.675
 9474TIP3   OH252616   4.015   2.332  12.307
 9474TIP3    H152617   3.970   2.366  12.224
 9474TIP3    H252618   3.953   2.237  12.331
 9475TIP3   OH252619   2.474   4.252  12.239
 9475TIP3    H152620   2.360   4.258  12.220
 9475TIP3    H252621   2.509   4.345  12.189
 9476TIP3   OH252622   2.699   2.593  11.995
 9476TIP3    H152623   2.731   2.498  11.946
 9476TIP3    H252624   2.784   2.600  12.062
 9477TIP3   OH252625   3.310   2.594  12.202
 9477TIP3    H152626   3.358   2.515  12.259
 9477TIP3    H252627   3.323   2.690  12.258
 9478TIP3   OH252628   3.548   4.402  12.084
 9478TIP3    H152629   3.622   4.456  12.025
 9478TIP3    H252630   3.504   4.330  12.015
 9479TIP3   OH252631   2.591   4.334  11.918
 9479TIP3    H152632   2.573   4.391  12.003
 9479TIP3    H252633   2.692   4.280  11.936
 9480TIP3   OH252634   6.005   3.445  12.548
 9480TIP3    H152635   5.974   3.557  12.561
 9480TIP3    H252636   5.934   3.420  12.472
 9481TIP3   OH252637   6.250   3.779  12.740
 9481TIP3    H152638   6.217   3.689  12.794
 9481TIP3    H252639   6.335   3.818  12.801
 9482TIP3   OH252640   5.113   3.845  12.903
 9482TIP3    H152641   5.011   3.804  12.874
 9482TIP3    H252642   5.189   3.799  12.839
 9483TIP3   OH252643   4.714   3.311  12.678
 9483TIP3    H152644   4.817   3.260  12.692
 9483TIP3    H252645   4.746   3.420  12.657
 9484TIP3   OH252646   5.920   4.300  12.754
 9484TIP3    H152647   6.006   4.258  12.698
 9484TIP3    H252648   5.944   4.241  12.837
 9485TIP3   OH252649   6.116   2.798  12.512
 9485TIP3    H152650   6.173   2.742  12.585
 9485TIP3    H252651   6.205   2.842  12.461
 9486TIP3   OH252652   5.317   3.240  12.693
 9486TIP3    H152653   5.411   3.174  12.688
 9486TIP3    H252654   5.237   3.168  12.651
 9487TIP3   OH252655   5.899   3.745  12.451
 9487TIP3    H152656   5.828   3.743  12.375
 9487TIP3    H252657   5.887   3.859  12.474
 9488TIP3   OH252658   6.290   2.705  12.726
 9488TIP3    H152659   6.260   2.602  12.765
 9488TIP3    H252660   6.352   2.752  12.799
 9489TIP3   OH252661   4.698   3.703  12.257
 9489TIP3    H152662   4.688   3.768  12.176
 9489TIP3    H252663   4.720   3.786  12.324
 9490TIP3   OH252664   6.118   4.195  12.568
 9490TIP3    H152665   6.162   4.087  12.552
 9490TIP3    H252666   6.209   4.262  12.542
 9491TIP3   OH252667   6.234   3.899  12.476
 9491TIP3    H152668   6.235   3.802  12.425
 9491TIP3    H252669   6.227   3.851  12.566
 9492TIP3   OH252670   5.831   3.404  12.330
 9492TIP3    H152671   5.767   3.500  12.312
 9492TIP3    H252672   5.904   3.397  12.254
 9493TIP3   OH252673   5.813   3.209  11.976
 9493TIP3    H152674   5.872   3.270  12.043
 9493TIP3    H252675   5.884   3.115  11.966
 9494TIP3   OH252676   6.247   3.334  12.390
 9494TIP3    H152677   6.167   3.376  12.453
 9494TIP3    H252678   6.325   3.284  12.452
 9495TIP3   OH252679   5.116   3.445  12.559
 9495TIP3    H152680   5.183   3.422  12.482
 9495TIP3    H252681   5.176   3.389  12.629
 9496TIP3   OH252682   6.062   3.316  12.157
 9496TIP3    H152683   6.133   3.328  12.235
 9496TIP3    H252684   6.131   3.361  12.085
 9497TIP3   OH252685   5.821   4.057  12.469
 9497TIP3    H152686   5.886   4.103  12.540
 9497TIP3    H252687   5.743   4.140  12.457
 9498TIP3   OH252688   5.114   3.332  12.285
 9498TIP3    H152689   5.053   3.427  12.255
 9498TIP3    H252690   5.045   3.284  12.352
 9499TIP3   OH252691   6.662   4.030  11.955
 9499TIP3    H152692   6.704   4.134  11.982
 9499TIP3    H252693   6.755   3.964  11.982
 9500TIP3   OH252694   5.808   4.451  12.336
 9500TIP3    H152695   5.779   4.450  12.242
 9500TIP3    H252696   5.776   4.560  12.361
 9501TIP3   OH252697   4.994   4.288  12.528
 9501TIP3    H152698   5.024   4.309  12.620
 9501TIP3    H252699   4.884   4.255  12.543
 9502TIP3   OH252700   6.134   4.355  12.018
 9502TIP3    H152701   6.180   4.252  11.992
 9502TIP3    H252702   6.132   4.343  12.116
 9503TIP3   OH252703   6.084   4.303  12.289
 9503TIP3    H152704   5.978   4.345  12.315
 9503TIP3    H252705   6.098   4.222  12.359
 9504TIP3   OH252706   5.236   2.387  12.972
 9504TIP3    H152707   5.191   2.366  12.885
 9504TIP3    H252708   5.250   2.501  12.971
 9505TIP3   OH252709   6.263   3.431  11.981
 9505TIP3    H152710   6.266   3.395  11.888
 9505TIP3    H252711   6.356   3.500  11.984
 9506TIP3   OH252712   5.710   2.684  11.958
 9506TIP3    H152713   5.689   2.678  12.054
 9506TIP3    H252714   5.692   2.573  11.936
 9507TIP3   OH252715   5.886   3.110  12.421
 9507TIP3    H152716   5.857   3.211  12.374
 9507TIP3    H252717   5.963   3.066  12.358
 9508TIP3   OH252718   5.996   3.037  12.690
 9508TIP3    H152719   5.954   3.119  12.630
 9508TIP3    H252720   6.008   2.950  12.626
 9509TIP3   OH252721   4.543   2.653  12.609
 9509TIP3    H152722   4.650   2.671  12.644
 9509TIP3    H252723   4.573   2.623  12.518
 9510TIP3   OH252724   5.615   3.635  12.257
 9510TIP3    H152725   5.538   3.574  12.201
 9510TIP3    H252726   5.546   3.649  12.337
 9511TIP3   OH252727   6.065   2.744  12.050
 9511TIP3    H152728   5.954   2.764  12.021
 9511TIP3    H252729   6.090   2.844  12.098
 9512TIP3   OH252730   6.131   3.000  12.196
 9512TIP3    H152731   6.226   2.980  12.251
 9512TIP3    H252732   6.151   3.106  12.158
 9513TIP3   OH252733   5.828   3.815  12.126
 9513TIP3    H152734   5.794   3.919  12.159
 9513TIP3    H252735   5.752   3.740  12.169
 9514TIP3   OH252736   6.715   3.037  12.176
 9514TIP3    H152737   6.688   3.002  12.086
 9514TIP3    H252738   6.726   3.154  12.159
 9515TIP3   OH252739   6.542   4.000  12.227
 9515TIP3    H152740   6.449   3.942  12.259
 9515TIP3    H252741   6.546   3.970  12.135
 9516TIP3   OH252742   6.156   3.397  12.922
 9516TIP3    H152743   6.106   3.461  12.852
 9516TIP3    H252744   6.202   3.307  12.873
 9517TIP3   OH252745   5.321   3.948  12.548
 9517TIP3    H152746   5.357   4.052  12.517
 9517TIP3    H252747   5.208   3.953  12.530
 9518TIP3   OH252748   4.816   3.376  12.001
 9518TIP3    H152749   4.861   3.454  12.065
 9518TIP3    H252750   4.702   3.376  12.025
 9519TIP3   OH252751   5.431   3.655  12.480
 9519TIP3    H152752   5.395   3.761  12.512
 9519TIP3    H252753   5.446   3.599  12.565
 9520TIP3   OH252754   5.326   4.248  12.436
 9520TIP3    H152755   5.210   4.259  12.449
 9520TIP3    H252756   5.366   4.344  12.482
 9521TIP3   OH252757   6.242   3.830  12.030
 9521TIP3    H152758   6.242   3.794  12.123
 9521TIP3    H252759   6.133   3.800  12.007
 9522TIP3   OH252760   6.743   4.339  12.024
 9522TIP3    H152761   6.768   4.430  11.966
 9522TIP3    H252762   6.656   4.386  12.078
 9523TIP3   OH252763   6.335   3.630  12.257
 9523TIP3    H152764   6.308   3.524  12.292
 9523TIP3    H252765   6.451   3.617  12.246
 9524TIP3   OH252766   5.513   3.968  11.867
 9524TIP3    H152767   5.491   3.899  11.792
 9524TIP3    H252768   5.449   3.914  11.936
 9525TIP3   OH252769   5.353   3.875  12.120
 9525TIP3    H152770   5.434   3.823  12.176
 9525TIP3    H252771   5.372   3.989  12.146
 9526TIP3   OH252772   4.972   3.576  12.164
 9526TIP3    H152773   4.876   3.626  12.204
 9526TIP3    H252774   5.020   3.666  12.117
 9527TIP3   OH252775   5.960   2.604  12.295
 9527TIP3    H152776   5.994   2.647  12.209
 9527TIP3    H252777   6.042   2.648  12.354
 9528TIP3   OH252778   5.714   4.116  12.177
 9528TIP3    H152779   5.609   4.154  12.203
 9528TIP3    H252780   5.767   4.216  12.153
 9529TIP3   OH252781   5.646   2.848  12.374
 9529TIP3    H152782   5.728   2.923  12.406
 9529TIP3    H252783   5.586   2.820  12.454
 9530TIP3   OH252784   5.714   2.468  12.441
 9530TIP3    H152785   5.744   2.513  12.527
 9530TIP3    H252786   5.797   2.513  12.382
 9531TIP3   OH252787   5.389   4.177  12.173
 9531TIP3    H152788   5.407   4.271  12.116
 9531TIP3    H252789   5.350   4.232  12.252
 9532TIP3   OH252790   6.272   3.154  12.770
 9532TIP3    H152791   6.170   3.100  12.751
 9532TIP3    H252792   6.334   3.073  12.821
 9533TIP3   OH252793   5.026   3.854  12.013
 9533TIP3    H152794   5.116   3.900  12.064
 9533TIP3    H252795   5.088   3.788  11.950
 9534TIP3   OH252796   4.822   3.013  11.969
 9534TIP3    H152797   4.847   3.125  11.985
 9534TIP3    H252798   4.709   3.019  11.947
 9535TIP3   OH252799   6.364   4.288  12.968
 9535TIP3    H152800   6.400   4.358  12.897
 9535TIP3    H252801   6.353   4.184  12.924
 9536TIP3   OH252802   4.747   3.980  12.402
 9536TIP3    H152803   4.738   4.055  12.476
 9536TIP3    H252804   4.758   4.060  12.330
 9537TIP3   OH252805   5.762   4.210  11.858
 9537TIP3    H152806   5.701   4.110  11.874
 9537TIP3    H252807   5.857   4.165  11.812
 9538TIP3   OH252808   6.288   4.108  11.877
 9538TIP3    H152809   6.304   4.021  11.943
 9538TIP3    H252810   6.396   4.129  11.845
 9539TIP3   OH252811   5.207   3.634  11.864
 9539TIP3    H152812   5.233   3.577  11.946
 9539TIP3    H252813   5.302   3.605  11.810
 9540TIP3   OH252814   5.894   3.798  11.854
 9540TIP3    H152815   5.849   3.794  11.944
 9540TIP3    H252816   5.886   3.683  11.829
 9541TIP3   OH252817   5.363   3.448  12.120
 9541TIP3    H152818   5.288   3.383  12.174
 9541TIP3    H252819   5.413   3.366  12.063
 9542TIP3   OH252820   5.492   3.233  11.932
 9542TIP3    H152821   5.488   3.242  11.835
 9542TIP3    H252822   5.605   3.205  11.947
 9543TIP3   OH252823   6.593   3.446  11.869
 9543TIP3    H152824   6.574   3.431  11.773
 9543TIP3    H252825   6.590   3.564  11.873
 9544TIP3   OH252826   5.471   4.462  12.083
 9544TIP3    H152827   5.588   4.457  12.078
 9544TIP3    H252828   5.448   4.532  12.008
 9545TIP3   OH252829   4.687   3.817  12.003
 9545TIP3    H152830   4.805   3.829  12.001
 9545TIP3    H252831   4.668   3.754  11.921
 9546TIP3   OH252832   4.660   4.224  12.666
 9546TIP3    H152833   4.574   4.148  12.684
 9546TIP3    H252834   4.676   4.265  12.756
 9547TIP3   OH252835   6.653   3.559  12.259
 9547TIP3    H152836   6.756   3.614  12.266
 9547TIP3    H252837   6.658   3.482  12.334
 9548TIP3   OH252838   6.684   3.337  12.460
 9548TIP3    H152839   6.601   3.263  12.492
 9548TIP3    H252840   6.754   3.341  12.539
 9549TIP3   OH252841   6.770   3.337  12.077
 9549TIP3    H152842   6.694   3.360  12.005
 9549TIP3    H252843   6.750   3.427  12.138
 9550TIP3   OH252844   6.623   2.975  11.911
 9550TIP3    H152845   6.581   3.071  11.868
 9550TIP3    H252846   6.539   2.898  11.882
 9551TIP3   OH252847   6.440   3.136  12.538
 9551TIP3    H152848   6.482   3.029  12.534
 9551TIP3    H252849   6.386   3.139  12.625
 9552TIP3   OH252850   6.415   2.742  11.856
 9552TIP3    H152851   6.482   2.670  11.906
 9552TIP3    H252852   6.316   2.680  11.851
 9553TIP3   OH252853   6.389   2.861  12.354
 9553TIP3    H152854   6.433   2.762  12.390
 9553TIP3    H252855   6.484   2.922  12.328
 9554TIP3   OH252856   6.440   2.922  12.896
 9554TIP3    H152857   6.550   2.891  12.913
 9554TIP3    H252858   6.385   2.875  12.976
 9555TIP3   OH252859   4.579   2.618  12.329
 9555TIP3    H152860   4.478   2.585  12.370
 9555TIP3    H252861   4.537   2.651  12.242
 9556TIP3   OH252862   6.360   4.379  12.511
 9556TIP3    H152863   6.467   4.332  12.497
 9556TIP3    H252864   6.366   4.417  12.604
 9557TIP3   OH252865   5.300   4.229  12.859
 9557TIP3    H152866   5.260   4.123  12.834
 9557TIP3    H252867   5.358   4.201  12.940
 9558TIP3   OH252868   5.801   2.503  12.728
 9558TIP3    H152869   5.746   2.428  12.786
 9558TIP3    H252870   5.894   2.440  12.697
 9559TIP3   OH252871   5.386   2.363  12.511
 9559TIP3    H152872   5.495   2.378  12.482
 9559TIP3    H252873   5.398   2.294  12.587
 9560TIP3   OH252874   6.062   2.347  12.638
 9560TIP3    H152875   6.174   2.346  12.610
 9560TIP3    H252876   6.048   2.237  12.664
 9561TIP3   OH252877   6.218   2.329  12.262
 9561TIP3    H152878   6.119   2.380  12.285
 9561TIP3    H252879   6.239   2.255  12.336
 9562TIP3   OH252880   4.735   4.229  12.231
 9562TIP3    H152881   4.624   4.222  12.203
 9562TIP3    H252882   4.757   4.343  12.210
 9563TIP3   OH252883   5.552   2.598  12.212
 9563TIP3    H152884   5.597   2.526  12.280
 9563TIP3    H252885   5.569   2.701  12.257
 9564TIP3   OH252886   5.792   4.409  12.064
 9564TIP3    H152887   5.903   4.422  12.033
 9564TIP3    H252888   5.756   4.338  11.990
 9565TIP3   OH252889   6.622   4.280  12.376
 9565TIP3    H152890   6.586   4.190  12.321
 9565TIP3    H252891   6.583   4.373  12.325
 9566TIP3   OH252892   4.934   4.337  11.923
 9566TIP3    H152893   4.906   4.361  12.014
 9566TIP3    H252894   5.021   4.259  11.935
 9567TIP3   OH252895   8.266   3.445  12.544
 9567TIP3    H152896   8.225   3.554  12.549
 9567TIP3    H252897   8.179   3.391  12.497
 9568TIP3   OH252898   8.537   3.766  12.740
 9568TIP3    H152899   8.569   3.656  12.757
 9568TIP3    H252900   8.560   3.817  12.824
 9569TIP3   OH252901   7.288   3.854  12.907
 9569TIP3    H152902   7.210   3.786  12.867
 9569TIP3    H252903   7.304   3.802  12.993
 9570TIP3   OH252904   6.943   3.289  12.658
 9570TIP3    H152905   6.982   3.180  12.643
 9570TIP3    H252906   7.004   3.350  12.596
 9571TIP3   OH252907   8.425   2.743  12.505
 9571TIP3    H152908   8.464   2.725  12.597
 9571TIP3    H252909   8.426   2.860  12.504
 9572TIP3   OH252910   8.160   3.749  12.424
 9572TIP3    H152911   8.179   3.748  12.327
 9572TIP3    H252912   8.155   3.864  12.444
 9573TIP3   OH252913   8.552   2.711  12.757
 9573TIP3    H152914   8.522   2.612  12.802
 9573TIP3    H252915   8.668   2.702  12.761
 9574TIP3   OH252916   6.964   3.708  12.248
 9574TIP3    H152917   6.966   3.773  12.166
 9574TIP3    H252918   6.935   3.786  12.314
 9575TIP3   OH252919   8.570   3.874  12.441
 9575TIP3    H152920   8.492   3.792  12.417
 9575TIP3    H252921   8.579   3.858  12.537
 9576TIP3   OH252922   8.088   3.365  12.296
 9576TIP3    H152923   8.018   3.454  12.271
 9576TIP3    H252924   8.180   3.379  12.237
 9577TIP3   OH252925   8.093   3.221  11.993
 9577TIP3    H152926   8.178   3.264  12.050
 9577TIP3    H252927   8.118   3.108  12.000
 9578TIP3   OH252928   8.526   3.370  12.394
 9578TIP3    H152929   8.441   3.403  12.457
 9578TIP3    H252930   8.599   3.311  12.455
 9579TIP3   OH252931   7.511   3.480  12.613
 9579TIP3    H152932   7.486   3.466  12.520
 9579TIP3    H252933   7.517   3.372  12.648
 9580TIP3   OH252934   8.358   3.306  12.150
 9580TIP3    H152935   8.429   3.341  12.223
 9580TIP3    H252936   8.413   3.361  12.075
 9581TIP3   OH252937   8.105   4.061  12.503
 9581TIP3    H152938   8.159   4.134  12.563
 9581TIP3    H252939   8.016   4.122  12.467
 9582TIP3   OH252940   8.766   2.292  12.130
 9582TIP3    H152941   8.653   2.294  12.155
 9582TIP3    H252942   8.803   2.399  12.154
 9583TIP3   OH252943   8.941   4.040  11.949
 9583TIP3    H152944   8.968   4.151  11.975
 9583TIP3    H252945   9.046   3.994  11.964
 9584TIP3   OH252946   7.510   2.429  12.866
 9584TIP3    H152947   7.397   2.404  12.848
 9584TIP3    H252948   7.508   2.479  12.953
 9585TIP3   OH252949   8.514   3.462  11.966
 9585TIP3    H152950   8.496   3.462  11.869
 9585TIP3    H252951   8.624   3.498  11.972
 9586TIP3   OH252952   8.018   2.701  11.975
 9586TIP3    H152953   7.975   2.700  12.065
 9586TIP3    H252954   7.982   2.594  11.948
 9587TIP3   OH252955   8.159   3.080  12.380
 9587TIP3    H152956   8.132   3.184  12.338
 9587TIP3    H252957   8.261   3.056  12.335
 9588TIP3   OH252958   7.592   2.712  11.884
 9588TIP3    H152959   7.547   2.671  11.969
 9588TIP3    H252960   7.502   2.777  11.852
 9589TIP3   OH252961   6.930   2.741  12.124
 9589TIP3    H152962   6.882   2.827  12.074
 9589TIP3    H252963   6.895   2.764  12.214
 9590TIP3   OH252964   7.818   2.740  12.632
 9590TIP3    H152965   7.715   2.782  12.658
 9590TIP3    H252966   7.860   2.707  12.718
 9591TIP3   OH252967   7.939   2.962  12.833
 9591TIP3    H152968   7.958   3.019  12.751
 9591TIP3    H252969   8.012   3.008  12.897
 9592TIP3   OH252970   7.868   3.584  12.215
 9592TIP3    H152971   7.786   3.547  12.155
 9592TIP3    H252972   7.805   3.605  12.297
 9593TIP3   OH252973   8.318   2.743  12.074
 9593TIP3    H152974   8.215   2.771  12.033
 9593TIP3    H252975   8.354   2.848  12.109
 9594TIP3   OH252976   8.420   2.993  12.204
 9594TIP3    H152977   8.514   2.982  12.262
 9594TIP3    H252978   8.434   3.098  12.164
 9595TIP3   OH252979   7.260   3.498  12.827
 9595TIP3    H152980   7.315   3.532  12.746
 9595TIP3    H252981   7.339   3.428  12.867
 9596TIP3   OH252982   8.123   3.762  12.124
 9596TIP3    H152983   8.078   3.869  12.140
 9596TIP3    H252984   8.035   3.692  12.155
 9597TIP3   OH252985   8.939   3.008  12.186
 9597TIP3    H152986   8.876   2.966  12.110
 9597TIP3    H252987   8.945   3.121  12.157
 9598TIP3   OH252988   8.754   4.056  12.222
 9598TIP3    H152989   8.700   3.972  12.272
 9598TIP3    H252990   8.827   3.998  12.164
 9599TIP3   OH252991   7.699   3.635  12.441
 9599TIP3    H152992   7.709   3.745  12.469
 9599TIP3    H252993   7.661   3.584  12.523
 9600TIP3   OH252994   7.537   4.327  12.416
 9600TIP3    H152995   7.529   4.295  12.509
 9600TIP3    H252996   7.592   4.430  12.423
 9601TIP3   OH252997   8.508   3.824  12.026
 9601TIP3    H152998   8.510   3.794  12.120
 9601TIP3    H252999   8.422   3.754  11.998
 9602TIP3   OH253000   9.055   4.332  12.039
 9602TIP3    H153001   9.082   4.438  12.004
 9602TIP3    H253002   8.948   4.355  12.069
 9603TIP3   OH253003   8.599   3.626  12.250
 9603TIP3    H153004   8.586   3.526  12.299
 9603TIP3    H253005   8.707   3.660  12.276
 9604TIP3   OH253006   7.788   3.962  11.857
 9604TIP3    H153007   7.769   3.898  11.778
 9604TIP3    H253008   7.715   3.910  11.919
 9605TIP3   OH253009   7.638   3.888  12.121
 9605TIP3    H153010   7.738   3.840  12.152
 9605TIP3    H253011   7.656   4.000  12.144
 9606TIP3   OH253012   8.227   2.618  12.308
 9606TIP3    H153013   8.258   2.674  12.226
 9606TIP3    H253014   8.300   2.665  12.373
 9607TIP3   OH253015   7.966   4.066  12.152
 9607TIP3    H153016   7.861   4.114  12.170
 9607TIP3    H253017   7.997   4.124  12.071
 9608TIP3   OH253018   7.932   2.832  12.394
 9608TIP3    H153019   8.002   2.926  12.408
 9608TIP3    H253020   7.901   2.800  12.486
 9609TIP3   OH253021   7.997   2.448  12.433
 9609TIP3    H153022   7.996   2.482  12.526
 9609TIP3    H253023   8.057   2.537  12.390
 9610TIP3   OH253024   7.675   4.199  12.197
 9610TIP3    H153025   7.686   4.290  12.135
 9610TIP3    H253026   7.610   4.246  12.268
 9611TIP3   OH253027   7.505   2.588  12.124
 9611TIP3    H153028   7.506   2.658  12.201
 9611TIP3    H253029   7.613   2.544  12.128
 9612TIP3   OH253030   7.279   3.859  12.002
 9612TIP3    H153031   7.370   3.896  12.053
 9612TIP3    H253032   7.338   3.796  11.936
 9613TIP3   OH253033   8.684   4.273  12.929
 9613TIP3    H153034   8.614   4.301  12.855
 9613TIP3    H253035   8.772   4.348  12.923
 9614TIP3   OH253036   7.222   2.365  12.757
 9614TIP3    H153037   7.160   2.461  12.740
 9614TIP3    H253038   7.138   2.282  12.757
 9615TIP3   OH253039   8.045   4.182  11.901
 9615TIP3    H153040   7.966   4.098  11.880
 9615TIP3    H253041   8.130   4.153  11.838
 9616TIP3   OH253042   8.576   4.145  11.884
 9616TIP3    H153043   8.602   4.058  11.948
 9616TIP3    H253044   8.665   4.133  11.820
 9617TIP3   OH253045   7.487   3.648  11.858
 9617TIP3    H153046   7.500   3.565  11.925
 9617TIP3    H253047   7.576   3.622  11.797
 9618TIP3   OH253048   8.141   3.793  11.824
 9618TIP3    H153049   8.113   3.776  11.918
 9618TIP3    H253050   8.138   3.680  11.796
 9619TIP3   OH253051   7.698   3.238  11.917
 9619TIP3    H153052   7.700   3.246  11.820
 9619TIP3    H253053   7.806   3.206  11.940
 9620TIP3   OH253054   8.844   3.476  11.870
 9620TIP3    H153055   8.798   3.446  11.783
 9620TIP3    H253056   8.854   3.595  11.863
 9621TIP3   OH253057   7.774   4.463  12.087
 9621TIP3    H153058   7.874   4.516  12.097
 9621TIP3    H253059   7.729   4.519  12.010
 9622TIP3   OH253060   6.941   3.832  11.988
 9622TIP3    H153061   7.058   3.833  11.988
 9622TIP3    H253062   6.918   3.763  11.910
 9623TIP3   OH253063   8.950   3.613  12.278
 9623TIP3    H153064   9.060   3.632  12.253
 9623TIP3    H253065   8.965   3.530  12.347
 9624TIP3   OH253066   8.975   3.365  12.454
 9624TIP3    H153067   8.879   3.306  12.483
 9624TIP3    H253068   9.028   3.383  12.539
 9625TIP3   OH253069   8.893   3.643  12.942
 9625TIP3    H153070   8.994   3.595  12.913
 9625TIP3    H253071   8.904   3.750  12.909
 9626TIP3   OH253072   8.959   3.349  12.115
 9626TIP3    H153073   8.918   3.374  12.026
 9626TIP3    H253074   8.928   3.446  12.164
 9627TIP3   OH253075   8.772   2.965  11.926
 9627TIP3    H153076   8.782   3.030  11.846
 9627TIP3    H253077   8.743   2.863  11.883
 9628TIP3   OH253078   8.719   3.167  12.524
 9628TIP3    H153079   8.713   3.070  12.468
 9628TIP3    H253080   8.681   3.132  12.611
 9629TIP3   OH253081   8.712   2.666  11.837
 9629TIP3    H153082   8.702   2.647  11.932
 9629TIP3    H253083   8.599   2.651  11.809
 9630TIP3   OH253084   8.682   2.920  12.351
 9630TIP3    H153085   8.668   2.804  12.365
 9630TIP3    H253086   8.794   2.921  12.319
 9631TIP3   OH253087   8.705   2.591  12.384
 9631TIP3    H153088   8.713   2.554  12.476
 9631TIP3    H253089   8.630   2.514  12.345
 9632TIP3   OH253090   8.960   2.556  12.051
 9632TIP3    H153091   9.010   2.479  11.990
 9632TIP3    H253092   8.984   2.659  12.010
 9633TIP3   OH253093   7.394   4.146  12.767
 9633TIP3    H153094   7.334   4.056  12.805
 9633TIP3    H253095   7.393   4.223  12.839
 9634TIP3   OH253096   8.054   2.456  12.737
 9634TIP3    H153097   8.044   2.374  12.804
 9634TIP3    H253098   8.171   2.456  12.724
 9635TIP3   OH253099   8.802   2.446  12.633
 9635TIP3    H153100   8.872   2.362  12.597
 9635TIP3    H253101   8.876   2.537  12.629
 9636TIP3   OH253102   7.675   2.262  12.555
 9636TIP3    H153103   7.766   2.291  12.501
 9636TIP3    H253104   7.606   2.353  12.540
 9637TIP3   OH253105   8.366   2.389  12.709
 9637TIP3    H153106   8.392   2.408  12.617
 9637TIP3    H253107   8.311   2.286  12.709
 9638TIP3   OH253108   8.489   2.364  12.295
 9638TIP3    H153109   8.392   2.429  12.295
 9638TIP3    H253110   8.450   2.255  12.312
 9639TIP3   OH253111   7.183   2.551  11.970
 9639TIP3    H153112   7.250   2.484  11.913
 9639TIP3    H253113   7.250   2.562  12.048
 9640TIP3   OH253114   7.825   2.610  12.193
 9640TIP3    H153115   7.878   2.533  12.250
 9640TIP3    H253116   7.846   2.707  12.247
 9641TIP3   OH253117   8.832   4.319  12.358
 9641TIP3    H153118   8.792   4.230  12.301
 9641TIP3    H253119   8.825   4.411  12.299
 9642TIP3   OH253120   7.156   4.288  11.864
 9642TIP3    H153121   7.118   4.360  11.931
 9642TIP3    H253122   7.256   4.244  11.897
 9643TIP3   OH253123   9.079   3.038  12.440
 9643TIP3    H153124   9.080   3.155  12.442
 9643TIP3    H253125   9.036   3.017  12.351
 9644TIP3   OH253126   9.029   3.970  12.901
 9644TIP3    H153127   9.138   4.008  12.902
 9644TIP3    H253128   8.983   4.022  12.978
 9645TIP3   OH253129   9.019   2.670  12.595
 9645TIP3    H153130   9.122   2.724  12.610
 9645TIP3    H253131   9.035   2.638  12.501
 9646TIP3   OH253132   9.018   4.446  12.549
 9646TIP3    H153133   8.936   4.398  12.490
 9646TIP3    H253134   9.042   4.354  12.604
 9647TIP3   OH253135   9.078   4.231  12.746
 9647TIP3    H153136   9.013   4.139  12.775
 9647TIP3    H253137   9.038   4.315  12.806
 9648TIP3   OH253138   9.176   3.472  12.866
 9648TIP3    H153139   9.245   3.440  12.790
 9648TIP3    H253140   9.216   3.396  12.931
 9649TIP3   OH253141   8.992   3.112  12.778
 9649TIP3    H153142   9.098   3.070  12.770
 9649TIP3    H253143   8.992   3.150  12.868
 9650TIP3   OH253144   9.011   2.582  12.312
 9650TIP3    H153145   8.896   2.598  12.328
 9650TIP3    H253146   9.007   2.569  12.214
 9651TIP3   OH253147   1.439   5.695  12.543
 9651TIP3    H153148   1.420   5.812  12.539
 9651TIP3    H253149   1.370   5.657  12.471
 9652TIP3   OH253150   1.714   5.974  12.735
 9652TIP3    H153151   1.652   5.903  12.792
 9652TIP3    H253152   1.760   6.049  12.799
 9653TIP3   OH253153   0.156   5.281  12.335
 9653TIP3    H153154   0.179   5.377  12.385
 9653TIP3    H253155   0.047   5.258  12.363
 9654TIP3   OH253156   0.152   5.612  12.633
 9654TIP3    H153157   0.181   5.507  12.662
 9654TIP3    H253158   0.256   5.668  12.631
 9655TIP3   OH253159   1.418   6.586  12.737
 9655TIP3    H153160   1.495   6.522  12.685
 9655TIP3    H253161   1.408   6.523  12.818
 9656TIP3   OH253162   0.676   5.009  12.719
 9656TIP3    H153163   0.714   5.102  12.668
 9656TIP3    H253164   0.606   4.960  12.652
 9657TIP3   OH253165   1.594   5.014  12.523
 9657TIP3    H153166   1.637   4.984  12.611
 9657TIP3    H253167   1.630   5.124  12.517
 9658TIP3   OH253168   0.853   5.479  12.710
 9658TIP3    H153169   0.922   5.416  12.768
 9658TIP3    H253170   0.834   5.405  12.637
 9659TIP3   OH253171   1.391   5.986  12.439
 9659TIP3    H153172   1.374   5.993  12.344
 9659TIP3    H253173   1.338   6.086  12.467
 9660TIP3   OH253174   1.787   4.974  12.736
 9660TIP3    H153175   1.747   4.930  12.821
 9660TIP3    H253176   1.892   4.925  12.731
 9661TIP3   OH253177   0.138   5.980  12.270
 9661TIP3    H153178   0.145   6.055  12.194
 9661TIP3    H253179   0.194   6.036  12.340
 9662TIP3   OH253180   1.604   6.396  12.573
 9662TIP3    H153181   1.663   6.296  12.554
 9662TIP3    H253182   1.692   6.473  12.582
 9663TIP3   OH253183   1.793   6.137  12.498
 9663TIP3    H153184   1.726   6.074  12.439
 9663TIP3    H253185   1.782   6.071  12.579
 9664TIP3   OH253186   1.282   5.611  12.302
 9664TIP3    H153187   1.225   5.711  12.282
 9664TIP3    H253188   1.378   5.621  12.246
 9665TIP3   OH253189   1.308   5.490  11.965
 9665TIP3    H153190   1.360   5.528  12.046
 9665TIP3    H253191   1.342   5.378  11.963
 9666TIP3   OH253192   1.750   5.645  12.412
 9666TIP3    H153193   1.649   5.658  12.460
 9666TIP3    H253194   1.819   5.599  12.481
 9667TIP3   OH253195   0.682   5.738  12.610
 9667TIP3    H153196   0.644   5.676  12.533
 9667TIP3    H253197   0.751   5.659  12.656
 9668TIP3   OH253198   1.561   5.591  12.162
 9668TIP3    H153199   1.642   5.629  12.226
 9668TIP3    H253200   1.614   5.626  12.078
 9669TIP3   OH253201   1.265   6.284  12.463
 9669TIP3    H153202   1.301   6.329  12.547
 9669TIP3    H253203   1.223   6.378  12.419
 9670TIP3   OH253204   2.012   4.532  12.166
 9670TIP3    H153205   1.913   4.550  12.217
 9670TIP3    H253206   2.050   4.642  12.153
 9671TIP3   OH253207   0.510   5.586  12.399
 9671TIP3    H153208   0.491   5.678  12.340
 9671TIP3    H253209   0.528   5.497  12.338
 9672TIP3   OH253210   2.137   6.280  11.974
 9672TIP3    H153211   2.172   6.386  12.003
 9672TIP3    H253212   2.237   6.221  11.994
 9673TIP3   OH253213   1.252   6.677  12.335
 9673TIP3    H153214   1.235   6.683  12.238
 9673TIP3    H253215   1.236   6.790  12.361
 9674TIP3   OH253216   0.487   6.518  12.536
 9674TIP3    H153217   0.502   6.480  12.629
 9674TIP3    H253218   0.377   6.487  12.517
 9675TIP3   OH253219   1.626   6.610  12.018
 9675TIP3    H153220   1.675   6.514  11.976
 9675TIP3    H253221   1.619   6.584  12.113
 9676TIP3   OH253222   1.556   6.592  12.298
 9676TIP3    H153223   1.442   6.613  12.317
 9676TIP3    H253224   1.574   6.504  12.360
 9677TIP3   OH253225   1.745   5.707  11.973
 9677TIP3    H153226   1.718   5.719  11.878
 9677TIP3    H253227   1.860   5.725  11.971
 9678TIP3   OH253228   1.240   4.949  11.978
 9678TIP3    H153229   1.180   4.951  12.062
 9678TIP3    H253230   1.180   4.861  11.936
 9679TIP3   OH253231   0.752   5.224  12.535
 9679TIP3    H153232   0.637   5.220  12.515
 9679TIP3    H253233   0.798   5.208  12.445
 9680TIP3   OH253234   1.402   5.354  12.416
 9680TIP3    H153235   1.356   5.449  12.371
 9680TIP3    H253236   1.476   5.318  12.347
 9681TIP3   OH253237   1.603   5.332  12.648
 9681TIP3    H153238   1.536   5.422  12.622
 9681TIP3    H253239   1.530   5.243  12.640
 9682TIP3   OH253240   0.814   4.973  11.913
 9682TIP3    H153241   0.736   4.920  11.971
 9682TIP3    H253242   0.742   5.045  11.863
 9683TIP3   OH253243   0.143   4.900  12.671
 9683TIP3    H153244   0.054   4.826  12.692
 9683TIP3    H253245   0.143   4.906  12.575
 9684TIP3   OH253246   0.148   5.046  12.128
 9684TIP3    H153247   0.212   5.116  12.068
 9684TIP3    H253248   0.095   5.126  12.182
 9685TIP3   OH253249   1.010   4.961  12.632
 9685TIP3    H153250   0.898   4.982  12.636
 9685TIP3    H253251   1.045   5.016  12.713
 9686TIP3   OH253252   0.437   5.192  12.468
 9686TIP3    H153253   0.335   5.224  12.427
 9686TIP3    H253254   0.418   5.078  12.488
 9687TIP3   OH253255   0.847   5.178  12.263
 9687TIP3    H153256   0.935   5.138  12.209
 9687TIP3    H253257   0.785   5.236  12.193
 9688TIP3   OH253258   1.549   4.954  12.932
 9688TIP3    H153259   1.493   5.020  12.999
 9688TIP3    H253260   1.492   4.853  12.940
 9689TIP3   OH253261   0.707   5.298  12.047
 9689TIP3    H153262   0.618   5.308  11.985
 9689TIP3    H253263   0.780   5.372  12.001
 9690TIP3   OH253264   1.129   5.216  12.813
 9690TIP3    H153265   1.212   5.212  12.745
 9690TIP3    H253266   1.195   5.214  12.893
 9691TIP3   OH253267   0.491   4.879  12.514
 9691TIP3    H153268   0.422   4.789  12.542
 9691TIP3    H253269   0.544   4.832  12.436
 9692TIP3   OH253270   1.080   5.861  12.257
 9692TIP3    H153271   0.994   5.802  12.210
 9692TIP3    H253272   1.024   5.888  12.341
 9693TIP3   OH253273   1.531   4.994  12.073
 9693TIP3    H153274   1.424   4.988  12.033
 9693TIP3    H253275   1.537   5.108  12.096
 9694TIP3   OH253276   1.588   5.269  12.199
 9694TIP3    H153277   1.674   5.232  12.257
 9694TIP3    H253278   1.639   5.362  12.157
 9695TIP3   OH253279   0.460   5.796  12.800
 9695TIP3    H153280   0.528   5.797  12.721
 9695TIP3    H253281   0.528   5.740  12.861
 9696TIP3   OH253282   1.307   6.028  12.129
 9696TIP3    H153283   1.261   6.133  12.152
 9696TIP3    H253284   1.228   5.956  12.170
 9697TIP3   OH253285   2.176   5.236  12.180
 9697TIP3    H153286   2.113   5.225  12.096
 9697TIP3    H253287   2.197   5.351  12.180
 9698TIP3   OH253288   1.973   6.295  12.234
 9698TIP3    H153289   1.909   6.215  12.279
 9698TIP3    H253290   2.014   6.241  12.155
 9699TIP3   OH253291   0.767   6.222  12.552
 9699TIP3    H153292   0.810   6.324  12.517
 9699TIP3    H253293   0.660   6.226  12.515
 9700TIP3   OH253294   0.179   5.642  11.986
 9700TIP3    H153295   0.293   5.662  11.994
 9700TIP3    H253296   0.154   5.599  12.073
 9701TIP3   OH253297   0.919   5.923  12.490
 9701TIP3    H153298   0.884   6.031  12.513
 9701TIP3    H253299   0.858   5.862  12.557
 9702TIP3   OH253300   0.787   6.511  12.428
 9702TIP3    H153301   0.674   6.508  12.456
 9702TIP3    H253302   0.823   6.606  12.476
 9703TIP3   OH253303   1.709   6.083  12.024
 9703TIP3    H153304   1.705   6.036  12.114
 9703TIP3    H253305   1.604   6.048  11.993
 9704TIP3   OH253306   2.219   6.589  12.060
 9704TIP3    H153307   2.291   6.664  12.017
 9704TIP3    H253308   2.140   6.665  12.098
 9705TIP3   OH253309   1.790   5.912  12.259
 9705TIP3    H153310   1.769   5.812  12.307
 9705TIP3    H253311   1.908   5.912  12.256
 9706TIP3   OH253312   0.967   6.239  11.860
 9706TIP3    H153313   0.950   6.187  11.774
 9706TIP3    H253314   0.900   6.172  11.917
 9707TIP3   OH253315   0.820   6.130  12.119
 9707TIP3    H153316   0.901   6.078  12.173
 9707TIP3    H253317   0.836   6.244  12.141
 9708TIP3   OH253318   0.427   5.826  12.204
 9708TIP3    H153319   0.323   5.878  12.214
 9708TIP3    H253320   0.478   5.885  12.132
 9709TIP3   OH253321   1.458   4.883  12.320
 9709TIP3    H153322   1.492   4.945  12.243
 9709TIP3    H253323   1.496   4.948  12.395
 9710TIP3   OH253324   1.200   6.361  12.175
 9710TIP3    H153325   1.097   6.398  12.209
 9710TIP3    H253326   1.242   6.461  12.137
 9711TIP3   OH253327   1.140   5.077  12.376
 9711TIP3    H153328   1.190   5.182  12.383
 9711TIP3    H253329   1.088   5.065  12.462
 9712TIP3   OH253330   1.226   4.710  12.425
 9712TIP3    H153331   1.187   4.783  12.492
 9712TIP3    H253332   1.324   4.770  12.394
 9713TIP3   OH253333   0.869   6.437  12.172
 9713TIP3    H153334   0.883   6.538  12.120
 9713TIP3    H253335   0.829   6.485  12.255
 9714TIP3   OH253336   0.679   4.862  12.154
 9714TIP3    H153337   0.679   4.966  12.198
 9714TIP3    H253338   0.793   4.836  12.159
 9715TIP3   OH253339   0.505   6.134  12.031
 9715TIP3    H153340   0.612   6.138  12.073
 9715TIP3    H253341   0.533   6.059  11.959
 9716TIP3   OH253342   0.282   5.274  11.966
 9716TIP3    H153343   0.355   5.363  11.978
 9716TIP3    H253344   0.229   5.299  11.881
 9717TIP3   OH253345   0.415   4.604  12.824
 9717TIP3    H153346   0.415   4.588  12.727
 9717TIP3    H253347   0.313   4.660  12.833
 9718TIP3   OH253348   0.246   6.289  12.446
 9718TIP3    H153349   0.138   6.316  12.417
 9718TIP3    H253350   0.302   6.337  12.371
 9719TIP3   OH253351   1.228   6.469  11.860
 9719TIP3    H153352   1.169   6.372  11.884
 9719TIP3    H253353   1.324   6.424  11.819
 9720TIP3   OH253354   1.763   6.374  11.865
 9720TIP3    H153355   1.778   6.287  11.930
 9720TIP3    H253356   1.870   6.385  11.825
 9721TIP3   OH253357   0.666   5.927  11.868
 9721TIP3    H153358   0.630   5.816  11.887
 9721TIP3    H253359   0.779   5.912  11.843
 9722TIP3   OH253360   1.358   6.065  11.847
 9722TIP3    H153361   1.320   6.048  11.939
 9722TIP3    H253362   1.354   5.953  11.814
 9723TIP3   OH253363   0.848   5.680  12.139
 9723TIP3    H153364   0.750   5.628  12.167
 9723TIP3    H253365   0.874   5.618  12.058
 9724TIP3   OH253366   0.962   5.472  11.932
 9724TIP3    H153367   0.943   5.485  11.836
 9724TIP3    H253368   1.079   5.474  11.940
 9725TIP3   OH253369   2.081   5.728  11.875
 9725TIP3    H153370   2.048   5.694  11.784
 9725TIP3    H253371   2.065   5.846  11.865
 9726TIP3   OH253372   0.953   6.718  12.085
 9726TIP3    H153373   1.069   6.726  12.076
 9726TIP3    H253374   0.918   6.790  12.013
 9727TIP3   OH253375   0.175   6.144  12.037
 9727TIP3    H153376   0.283   6.190  12.028
 9727TIP3    H253377   0.172   6.082  11.956
 9728TIP3   OH253378   0.065   6.725  12.431
 9728TIP3    H153379  -0.028   6.791  12.452
 9728TIP3    H253380   0.079   6.665  12.513
 9729TIP3   OH253381   0.164   6.536  12.645
 9729TIP3    H153382   0.184   6.427  12.613
 9729TIP3    H253383   0.211   6.536  12.735
 9730TIP3   OH253384   2.134   5.858  12.236
 9730TIP3    H153385   2.240   5.902  12.249
 9730TIP3    H253386   2.129   5.784  12.312
 9731TIP3   OH253387   2.148   5.632  12.465
 9731TIP3    H153388   2.083   5.578  12.532
 9731TIP3    H253389   2.246   5.646  12.518
 9732TIP3   OH253390   2.242   5.594  12.081
 9732TIP3    H153391   2.172   5.610  12.003
 9732TIP3    H253392   2.208   5.687  12.135
 9733TIP3   OH253393   1.992   5.252  11.939
 9733TIP3    H153394   2.017   5.323  11.865
 9733TIP3    H253395   1.963   5.155  11.891
 9734TIP3   OH253396   1.892   5.418  12.570
 9734TIP3    H153397   1.892   5.374  12.479
 9734TIP3    H253398   1.786   5.376  12.596
 9735TIP3   OH253399   0.178   5.695  12.924
 9735TIP3    H153400   0.220   5.687  12.834
 9735TIP3    H253401   0.277   5.683  12.972
 9736TIP3   OH253402   1.942   4.939  11.845
 9736TIP3    H153403   1.987   4.896  11.928
 9736TIP3    H253404   1.829   4.918  11.852
 9737TIP3   OH253405   1.849   5.176  12.363
 9737TIP3    H153406   1.859   5.062  12.384
 9737TIP3    H253407   1.956   5.192  12.328
 9738TIP3   OH253408   1.958   4.835  12.345
 9738TIP3    H153409   1.991   4.819  12.437
 9738TIP3    H253410   1.879   4.750  12.335
 9739TIP3   OH253411   0.035   5.266  12.905
 9739TIP3    H153412  -0.036   5.292  12.831
 9739TIP3    H253413  -0.038   5.303  12.978
 9740TIP3   OH253414   2.170   4.802  12.033
 9740TIP3    H153415   2.214   4.738  11.960
 9740TIP3    H253416   2.267   4.834  12.080
 9741TIP3   OH253417   0.132   4.832  12.322
 9741TIP3    H153418   0.014   4.828  12.326
 9741TIP3    H253419   0.144   4.903  12.245
 9742TIP3   OH253420   1.854   6.618  12.588
 9742TIP3    H153421   1.904   6.565  12.511
 9742TIP3    H253422   1.896   6.726  12.578
 9743TIP3   OH253423   0.284   6.558  12.898
 9743TIP3    H153424   0.280   6.539  12.994
 9743TIP3    H253425   0.391   6.516  12.877
 9744TIP3   OH253426   0.548   6.421  12.785
 9744TIP3    H153427   0.574   6.307  12.796
 9744TIP3    H253428   0.648   6.458  12.826
 9745TIP3   OH253429   0.404   4.580  12.546
 9745TIP3    H153430   0.316   4.576  12.481
 9745TIP3    H253431   0.433   4.468  12.549
 9746TIP3   OH253432   0.229   4.590  12.141
 9746TIP3    H153433   0.257   4.636  12.054
 9746TIP3    H253434   0.190   4.686  12.187
 9747TIP3   OH253435   0.864   4.590  12.559
 9747TIP3    H153436   0.925   4.562  12.481
 9747TIP3    H253437   0.889   4.703  12.572
 9748TIP3   OH253438   1.490   4.619  12.710
 9748TIP3    H153439   1.574   4.628  12.644
 9748TIP3    H253440   1.440   4.517  12.692
 9749TIP3   OH253441   1.750   4.591  12.305
 9749TIP3    H153442   1.672   4.651  12.254
 9749TIP3    H253443   1.691   4.489  12.320
 9750TIP3   OH253444   0.222   6.516  12.244
 9750TIP3    H153445   0.116   6.506  12.204
 9750TIP3    H253446   0.242   6.629  12.219
 9751TIP3   OH253447   0.384   4.781  11.970
 9751TIP3    H153448   0.478   4.723  11.936
 9751TIP3    H253449   0.416   4.805  12.061
 9752TIP3   OH253450   1.046   4.871  12.188
 9752TIP3    H153451   1.111   4.795  12.238
 9752TIP3    H253452   1.061   4.963  12.249
 9753TIP3   OH253453   1.282   6.664  12.064
 9753TIP3    H153454   1.391   6.680  12.036
 9753TIP3    H253455   1.249   6.590  11.991
 9754TIP3   OH253456   2.058   6.557  12.371
 9754TIP3    H153457   2.040   6.463  12.312
 9754TIP3    H253458   2.044   6.644  12.307
 9755TIP3   OH253459   0.364   6.596  11.933
 9755TIP3    H153460   0.353   6.641  12.022
 9755TIP3    H253461   0.449   6.518  11.948
 9756TIP3   OH253462   3.691   5.728  12.547
 9756TIP3    H153463   3.673   5.836  12.509
 9756TIP3    H253464   3.611   5.665  12.501
 9757TIP3   OH253465   3.994   5.935  12.698
 9757TIP3    H153466   3.888   5.892  12.713
 9757TIP3    H253467   3.988   6.035  12.746
 9758TIP3   OH253468   2.386   5.273  12.440
 9758TIP3    H153469   2.363   5.374  12.484
 9758TIP3    H253470   2.311   5.270  12.366
 9759TIP3   OH253471   2.382   5.599  12.658
 9759TIP3    H153472   2.425   5.557  12.742
 9759TIP3    H253473   2.461   5.680  12.636
 9760TIP3   OH253474   3.672   6.556  12.759
 9760TIP3    H153475   3.750   6.505  12.700
 9760TIP3    H253476   3.577   6.494  12.740
 9761TIP3   OH253477   3.416   5.920  13.015
 9761TIP3    H153478   3.425   5.855  12.936
 9761TIP3    H253479   3.409   5.834  13.082
 9762TIP3   OH253480   2.964   4.979  12.702
 9762TIP3    H153481   2.989   5.076  12.649
 9762TIP3    H253482   2.898   4.927  12.633
 9763TIP3   OH253483   3.859   5.036  12.536
 9763TIP3    H153484   3.941   4.952  12.554
 9763TIP3    H253485   3.922   5.124  12.500
 9764TIP3   OH253486   3.080   5.466  12.683
 9764TIP3    H153487   3.174   5.408  12.718
 9764TIP3    H253488   3.032   5.381  12.627
 9765TIP3   OH253489   3.620   5.990  12.422
 9765TIP3    H153490   3.605   5.993  12.326
 9765TIP3    H253491   3.586   6.100  12.447
 9766TIP3   OH253492   2.438   5.964  12.281
 9766TIP3    H153493   2.426   6.025  12.198
 9766TIP3    H253494   2.447   6.050  12.348
 9767TIP3   OH253495   3.265   4.585  12.792
 9767TIP3    H153496   3.294   4.474  12.800
 9767TIP3    H253497   3.175   4.594  12.855
 9768TIP3   OH253498   3.858   6.403  12.553
 9768TIP3    H153499   3.913   6.302  12.527
 9768TIP3    H253500   3.948   6.476  12.569
 9769TIP3   OH253501   4.004   6.139  12.451
 9769TIP3    H153502   3.982   6.074  12.371
 9769TIP3    H253503   4.020   6.052  12.515
 9770TIP3   OH253504   3.526   5.611  12.279
 9770TIP3    H153505   3.460   5.707  12.266
 9770TIP3    H253506   3.622   5.639  12.227
 9771TIP3   OH253507   3.563   5.490  11.977
 9771TIP3    H153508   3.640   5.527  12.045
 9771TIP3    H253509   3.581   5.376  11.979
 9772TIP3   OH253510   3.946   5.651  12.382
 9772TIP3    H153511   3.865   5.664  12.453
 9772TIP3    H253512   4.025   5.585  12.430
 9773TIP3   OH253513   2.932   5.701  12.565
 9773TIP3    H153514   2.893   5.639  12.488
 9773TIP3    H253515   2.993   5.620  12.614
 9774TIP3   OH253516   3.024   5.622  12.906
 9774TIP3    H153517   3.024   5.556  12.824
 9774TIP3    H253518   3.106   5.570  12.960
 9775TIP3   OH253519   3.806   5.580  12.146
 9775TIP3    H153520   3.859   5.612  12.230
 9775TIP3    H253521   3.878   5.630  12.079
 9776TIP3   OH253522   3.524   6.307  12.499
 9776TIP3    H153523   3.634   6.342  12.514
 9776TIP3    H253524   3.486   6.383  12.432
 9777TIP3   OH253525   2.784   5.572  12.335
 9777TIP3    H153526   2.750   5.671  12.293
 9777TIP3    H253527   2.748   5.492  12.271
 9778TIP3   OH253528   4.415   6.289  11.975
 9778TIP3    H153529   4.454   6.395  12.004
 9778TIP3    H253530   4.508   6.222  11.999
 9779TIP3   OH253531   3.508   6.671  12.319
 9779TIP3    H153532   3.487   6.685  12.223
 9779TIP3    H253533   3.494   6.781  12.350
 9780TIP3   OH253534   2.748   6.548  12.519
 9780TIP3    H153535   2.754   6.497  12.606
 9780TIP3    H253536   2.635   6.539  12.497
 9781TIP3   OH253537   3.862   6.611  12.029
 9781TIP3    H153538   3.925   6.523  11.988
 9781TIP3    H253539   3.878   6.590  12.124
 9782TIP3   OH253540   3.830   6.590  12.312
 9782TIP3    H153541   3.716   6.620  12.322
 9782TIP3    H253542   3.835   6.503  12.377
 9783TIP3   OH253543   2.986   4.667  12.925
 9783TIP3    H153544   2.886   4.630  12.884
 9783TIP3    H253545   2.965   4.781  12.926
 9784TIP3   OH253546   4.002   5.711  11.970
 9784TIP3    H153547   4.004   5.683  11.875
 9784TIP3    H253548   4.094   5.783  11.970
 9785TIP3   OH253549   3.486   4.900  11.988
 9785TIP3    H153550   3.434   4.895  12.075
 9785TIP3    H253551   3.401   4.849  11.936
 9786TIP3   OH253552   2.987   5.225  12.542
 9786TIP3    H153553   2.870   5.238  12.521
 9786TIP3    H253554   3.030   5.221  12.450
 9787TIP3   OH253555   3.655   5.347  12.371
 9787TIP3    H153556   3.605   5.442  12.330
 9787TIP3    H253557   3.728   5.317  12.299
 9788TIP3   OH253558   3.056   4.982  11.911
 9788TIP3    H153559   2.989   4.927  11.978
 9788TIP3    H253560   2.980   5.051  11.864
 9789TIP3   OH253561   2.192   4.930  12.607
 9789TIP3    H153562   2.294   4.956  12.650
 9789TIP3    H253563   2.230   4.862  12.534
 9790TIP3   OH253564   2.402   5.010  12.134
 9790TIP3    H153565   2.473   5.052  12.066
 9790TIP3    H253566   2.326   5.100  12.140
 9791TIP3   OH253567   3.310   5.000  12.616
 9791TIP3    H153568   3.209   4.950  12.644
 9791TIP3    H253569   3.388   4.934  12.665
 9792TIP3   OH253570   2.688   5.212  12.482
 9792TIP3    H153571   2.574   5.245  12.480
 9792TIP3    H253572   2.672   5.096  12.472
 9793TIP3   OH253573   3.077   5.201  12.281
 9793TIP3    H153574   3.188   5.198  12.255
 9793TIP3    H253575   3.025   5.264  12.212
 9794TIP3   OH253576   2.930   5.334  12.033
 9794TIP3    H153577   2.878   5.266  11.968
 9794TIP3    H253578   3.028   5.362  11.984
 9795TIP3   OH253579   3.294   5.294  12.812
 9795TIP3    H153580   3.350   5.234  12.743
 9795TIP3    H253581   3.379   5.345  12.862
 9796TIP3   OH253582   2.760   4.876  12.488
 9796TIP3    H153583   2.704   4.780  12.522
 9796TIP3    H253584   2.830   4.829  12.423
 9797TIP3   OH253585   3.317   5.887  12.238
 9797TIP3    H153586   3.227   5.825  12.203
 9797TIP3    H253587   3.283   5.899  12.332
 9798TIP3   OH253588   3.776   4.984  12.065
 9798TIP3    H153589   3.661   4.979  12.040
 9798TIP3    H253590   3.792   5.098  12.087
 9799TIP3   OH253591   3.857   5.254  12.181
 9799TIP3    H153592   3.943   5.238  12.247
 9799TIP3    H253593   3.881   5.358  12.142
 9800TIP3   OH253594   2.771   5.800  12.802
 9800TIP3    H153595   2.801   5.795  12.709
 9800TIP3    H253596   2.852   5.734  12.844
 9801TIP3   OH253597   3.571   6.014  12.120
 9801TIP3    H153598   3.547   6.124  12.152
 9801TIP3    H253599   3.479   5.953  12.153
 9802TIP3   OH253600   4.172   6.346  12.198
 9802TIP3    H153601   4.156   6.277  12.275
 9802TIP3    H253602   4.249   6.286  12.144
 9803TIP3   OH253603   3.036   6.205  12.555
 9803TIP3    H153604   3.077   6.314  12.547
 9803TIP3    H253605   2.948   6.208  12.492
 9804TIP3   OH253606   2.573   5.638  12.005
 9804TIP3    H153607   2.617   5.710  12.073
 9804TIP3    H253608   2.458   5.633  12.024
 9805TIP3   OH253609   3.169   5.911  12.471
 9805TIP3    H153610   3.133   6.018  12.498
 9805TIP3    H253611   3.098   5.845  12.526
 9806TIP3   OH253612   3.056   6.530  12.449
 9806TIP3    H153613   2.939   6.546  12.454
 9806TIP3    H253614   3.092   6.637  12.475
 9807TIP3   OH253615   3.948   6.097  12.007
 9807TIP3    H153616   3.948   6.064  12.101
 9807TIP3    H253617   3.858   6.035  11.975
 9808TIP3   OH253618   4.487   6.590  12.062
 9808TIP3    H153619   4.562   6.668  12.026
 9808TIP3    H253620   4.403   6.664  12.096
 9809TIP3   OH253621   4.026   5.930  12.244
 9809TIP3    H153622   3.998   5.830  12.290
 9809TIP3    H253623   4.142   5.930  12.247
 9810TIP3   OH253624   3.244   6.244  11.867
 9810TIP3    H153625   3.229   6.187  11.783
 9810TIP3    H253626   3.179   6.174  11.926
 9811TIP3   OH253627   3.089   6.142  12.109
 9811TIP3    H153628   3.179   6.090  12.155
 9811TIP3    H253629   3.106   6.253  12.139
 9812TIP3   OH253630   2.714   5.831  12.178
 9812TIP3    H153631   2.618   5.881  12.217
 9812TIP3    H253632   2.760   5.920  12.127
 9813TIP3   OH253633   3.706   4.900  12.329
 9813TIP3    H153634   3.728   4.952  12.244
 9813TIP3    H253635   3.763   4.964  12.395
 9814TIP3   OH253636   3.468   6.334  12.191
 9814TIP3    H153637   3.366   6.391  12.201
 9814TIP3    H253638   3.535   6.410  12.146
 9815TIP3   OH253639   3.396   5.106  12.365
 9815TIP3    H153640   3.476   5.190  12.381
 9815TIP3    H253641   3.364   5.075  12.457
 9816TIP3   OH253642   3.469   4.728  12.436
 9816TIP3    H153643   3.440   4.795  12.511
 9816TIP3    H253644   3.563   4.789  12.399
 9817TIP3   OH253645   3.142   6.437  12.189
 9817TIP3    H153646   3.143   6.526  12.124
 9817TIP3    H253647   3.107   6.496  12.269
 9818TIP3   OH253648   2.936   4.874  12.153
 9818TIP3    H153649   2.926   4.976  12.198
 9818TIP3    H253650   3.052   4.859  12.163
 9819TIP3   OH253651   2.758   6.119  12.026
 9819TIP3    H153652   2.848   6.155  12.082
 9819TIP3    H253653   2.818   6.065  11.956
 9820TIP3   OH253654   2.543   5.270  11.948
 9820TIP3    H153655   2.602   5.359  11.988
 9820TIP3    H253656   2.459   5.327  11.898
 9821TIP3   OH253657   2.681   4.643  12.846
 9821TIP3    H153658   2.644   4.639  12.754
 9821TIP3    H253659   2.629   4.548  12.883
 9822TIP3   OH253660   2.496   6.256  12.418
 9822TIP3    H153661   2.418   6.336  12.444
 9822TIP3    H253662   2.545   6.316  12.345
 9823TIP3   OH253663   3.498   6.464  11.865
 9823TIP3    H153664   3.434   6.366  11.871
 9823TIP3    H253665   3.598   6.424  11.824
 9824TIP3   OH253666   4.031   6.386  11.874
 9824TIP3    H153667   4.046   6.305  11.943
 9824TIP3    H253668   4.140   6.401  11.841
 9825TIP3   OH253669   2.938   5.912  11.854
 9825TIP3    H153670   2.958   5.831  11.920
 9825TIP3    H253671   3.043   5.922  11.810
 9826TIP3   OH253672   3.617   6.064  11.837
 9826TIP3    H153673   3.577   6.047  11.927
 9826TIP3    H253674   3.618   5.950  11.807
 9827TIP3   OH253675   3.096   5.688  12.119
 9827TIP3    H153676   3.018   5.617  12.160
 9827TIP3    H253677   3.144   5.616  12.053
 9828TIP3   OH253678   3.235   5.472  11.925
 9828TIP3    H153679   3.230   5.507  11.831
 9828TIP3    H253680   3.352   5.477  11.941
 9829TIP3   OH253681   4.332   5.734  11.878
 9829TIP3    H153682   4.314   5.706  11.784
 9829TIP3    H253683   4.332   5.851  11.872
 9830TIP3   OH253684   3.196   6.719  12.060
 9830TIP3    H153685   3.310   6.746  12.070
 9830TIP3    H253686   3.178   6.778  11.978
 9831TIP3   OH253687   2.414   6.096  12.012
 9831TIP3    H153688   2.532   6.101  12.007
 9831TIP3    H253689   2.390   6.031  11.932
 9832TIP3   OH253690   2.299   6.690  12.515
 9832TIP3    H153691   2.213   6.625  12.476
 9832TIP3    H253692   2.347   6.617  12.579
 9833TIP3   OH253693   2.381   6.469  12.705
 9833TIP3    H153694   2.334   6.364  12.692
 9833TIP3    H253695   2.324   6.498  12.787
 9834TIP3   OH253696   4.523   5.587  12.086
 9834TIP3    H153697   4.433   5.621  12.030
 9834TIP3    H253698   4.520   5.663  12.160
 9835TIP3   OH253699   4.196   5.244  11.942
 9835TIP3    H153700   4.265   5.321  11.898
 9835TIP3    H253701   4.228   5.146  11.899
 9836TIP3   OH253702   4.151   5.471  12.542
 9836TIP3    H153703   4.186   5.360  12.537
 9836TIP3    H253704   4.241   5.526  12.580
 9837TIP3   OH253705   4.202   4.892  11.902
 9837TIP3    H153706   4.225   4.892  11.997
 9837TIP3    H253707   4.090   4.922  11.895
 9838TIP3   OH253708   4.094   5.176  12.366
 9838TIP3    H153709   4.139   5.071  12.390
 9838TIP3    H253710   4.190   5.233  12.340
 9839TIP3   OH253711   2.460   4.949  12.790
 9839TIP3    H153712   2.500   4.850  12.829
 9839TIP3    H253713   2.489   5.030  12.853
 9840TIP3   OH253714   4.483   4.848  12.032
 9840TIP3    H153715   4.499   4.751  11.977
 9840TIP3    H253716   4.450   4.916  11.959
 9841TIP3   OH253717   2.308   4.838  12.354
 9841TIP3    H153718   2.195   4.864  12.346
 9841TIP3    H253719   2.347   4.902  12.279
 9842TIP3   OH253720   4.110   6.632  12.578
 9842TIP3    H153721   4.163   6.598  12.496
 9842TIP3    H253722   4.177   6.722  12.604
 9843TIP3   OH253723   3.499   4.787  12.734
 9843TIP3    H153724   3.408   4.736  12.780
 9843TIP3    H253725   3.558   4.690  12.712
 9844TIP3   OH253726   2.608   4.608  12.550
 9844TIP3    H153727   2.507   4.615  12.500
 9844TIP3    H253728   2.653   4.504  12.524
 9845TIP3   OH253729   2.476   4.571  12.138
 9845TIP3    H153730   2.507   4.651  12.072
 9845TIP3    H253731   2.395   4.630  12.190
 9846TIP3   OH253732   3.104   4.519  12.560
 9846TIP3    H153733   3.167   4.568  12.491
 9846TIP3    H253734   3.156   4.555  12.643
 9847TIP3   OH253735   2.472   6.502  12.250
 9847TIP3    H153736   2.358   6.521  12.235
 9847TIP3    H253737   2.514   6.598  12.208
 9848TIP3   OH253738   2.623   4.818  11.976
 9848TIP3    H153739   2.704   4.759  11.926
 9848TIP3    H253740   2.677   4.829  12.062
 9849TIP3   OH253741   3.278   4.883  12.200
 9849TIP3    H153742   3.316   4.806  12.265
 9849TIP3    H253743   3.324   4.979  12.245
 9850TIP3   OH253744   3.535   6.689  12.052
 9850TIP3    H153745   3.652   6.677  12.039
 9850TIP3    H253746   3.498   6.607  11.988
 9851TIP3   OH253747   4.300   6.562  12.357
 9851TIP3    H153748   4.260   6.487  12.288
 9851TIP3    H253749   4.304   6.660  12.304
 9852TIP3   OH253750   2.626   6.596  11.931
 9852TIP3    H153751   2.597   6.643  12.017
 9852TIP3    H253752   2.713   6.526  11.954
 9853TIP3   OH253753   6.260   6.034  12.764
 9853TIP3    H153754   6.269   5.921  12.744
 9853TIP3    H253755   6.206   6.034  12.852
 9854TIP3   OH253756   5.923   6.617  12.790
 9854TIP3    H153757   5.980   6.557  12.720
 9854TIP3    H253758   5.879   6.530  12.841
 9855TIP3   OH253759   5.659   5.966  12.999
 9855TIP3    H153760   5.650   5.950  12.905
 9855TIP3    H253761   5.772   5.954  13.017
 9856TIP3   OH253762   5.192   5.030  12.684
 9856TIP3    H153763   5.189   5.114  12.616
 9856TIP3    H253764   5.143   4.942  12.634
 9857TIP3   OH253765   6.157   5.052  12.492
 9857TIP3    H153766   6.199   4.994  12.569
 9857TIP3    H253767   6.254   5.112  12.466
 9858TIP3   OH253768   5.935   6.029  12.443
 9858TIP3    H153769   5.906   5.987  12.356
 9858TIP3    H253770   5.899   6.142  12.435
 9859TIP3   OH253771   5.003   5.090  12.904
 9859TIP3    H153772   5.047   5.196  12.913
 9859TIP3    H253773   5.072   5.044  12.836
 9860TIP3   OH253774   6.100   6.430  12.621
 9860TIP3    H153775   6.112   6.325  12.576
 9860TIP3    H253776   6.190   6.485  12.581
 9861TIP3   OH253777   6.287   6.184  12.509
 9861TIP3    H153778   6.278   6.100  12.442
 9861TIP3    H253779   6.263   6.122  12.589
 9862TIP3   OH253780   6.199   5.635  12.431
 9862TIP3    H153781   6.119   5.599  12.494
 9862TIP3    H253782   6.292   5.572  12.462
 9863TIP3   OH253783   5.202   5.713  12.538
 9863TIP3    H153784   5.106   5.702  12.483
 9863TIP3    H253785   5.188   5.630  12.603
 9864TIP3   OH253786   5.830   6.328  12.462
 9864TIP3    H153787   5.854   6.367  12.551
 9864TIP3    H253788   5.737   6.389  12.437
 9865TIP3   OH253789   6.542   4.542  12.180
 9865TIP3    H153790   6.430   4.561  12.207
 9865TIP3    H253791   6.576   4.648  12.147
 9866TIP3   OH253792   6.678   6.258  12.007
 9866TIP3    H153793   6.719   6.367  12.022
 9866TIP3    H253794   6.779   6.196  12.011
 9867TIP3   OH253795   5.773   6.695  12.332
 9867TIP3    H153796   5.756   6.703  12.236
 9867TIP3    H253797   5.759   6.806  12.360
 9868TIP3   OH253798   4.991   6.546  12.522
 9868TIP3    H153799   5.029   6.509  12.610
 9868TIP3    H253800   4.889   6.488  12.514
 9869TIP3   OH253801   6.142   6.607  12.039
 9869TIP3    H153802   6.179   6.510  11.993
 9869TIP3    H253803   6.149   6.578  12.134
 9870TIP3   OH253804   6.079   6.583  12.320
 9870TIP3    H153805   5.969   6.623  12.325
 9870TIP3    H253806   6.065   6.482  12.368
 9871TIP3   OH253807   6.276   5.711  11.986
 9871TIP3    H153808   6.259   5.688  11.892
 9871TIP3    H253809   6.390   5.736  11.988
 9872TIP3   OH253810   5.766   4.968  11.966
 9872TIP3    H153811   5.717   4.976  12.053
 9872TIP3    H253812   5.698   4.884  11.928
 9873TIP3   OH253813   5.363   4.973  11.927
 9873TIP3    H153814   5.257   4.940  11.955
 9873TIP3    H253815   5.352   5.081  11.890
 9874TIP3   OH253816   4.561   5.012  12.581
 9874TIP3    H153817   4.624   5.002  12.664
 9874TIP3    H253818   4.506   4.912  12.576
 9875TIP3   OH253819   5.501   4.919  12.676
 9875TIP3    H153820   5.406   4.984  12.688
 9875TIP3    H253821   5.584   5.000  12.653
 9876TIP3   OH253822   5.383   5.183  12.276
 9876TIP3    H153823   5.419   5.225  12.365
 9876TIP3    H253824   5.314   5.270  12.252
 9877TIP3   OH253825   5.167   5.318  12.037
 9877TIP3    H153826   5.087   5.324  11.967
 9877TIP3    H253827   5.267   5.329  11.985
 9878TIP3   OH253828   5.054   4.865  12.484
 9878TIP3    H153829   4.979   4.772  12.483
 9878TIP3    H253830   5.129   4.841  12.412
 9879TIP3   OH253831   5.564   5.885  12.255
 9879TIP3    H153832   5.476   5.824  12.217
 9879TIP3    H253833   5.521   5.920  12.342
 9880TIP3   OH253834   6.053   5.060  12.079
 9880TIP3    H153835   5.948   5.029  12.042
 9880TIP3    H253836   6.086   5.126  12.002
 9881TIP3   OH253837   5.815   6.035  12.132
 9881TIP3    H153838   5.782   6.145  12.152
 9881TIP3    H253839   5.736   5.971  12.180
 9882TIP3   OH253840   6.730   5.281  12.174
 9882TIP3    H153841   6.678   5.238  12.094
 9882TIP3    H253842   6.730   5.396  12.155
 9883TIP3   OH253843   6.492   6.277  12.231
 9883TIP3    H153844   6.439   6.181  12.264
 9883TIP3    H253845   6.548   6.239  12.151
 9884TIP3   OH253846   5.299   6.227  12.527
 9884TIP3    H153847   5.300   6.332  12.484
 9884TIP3    H253848   5.188   6.203  12.522
 9885TIP3   OH253849   4.842   5.659  12.023
 9885TIP3    H153850   4.867   5.681  12.116
 9885TIP3    H253851   4.728   5.629  12.030
 9886TIP3   OH253852   5.458   5.945  12.535
 9886TIP3    H153853   5.392   6.042  12.536
 9886TIP3    H253854   5.377   5.861  12.549
 9887TIP3   OH253855   5.293   6.516  12.405
 9887TIP3    H153856   5.180   6.538  12.427
 9887TIP3    H253857   5.342   6.600  12.460
 9888TIP3   OH253858   6.235   6.098  12.005
 9888TIP3    H153859   6.282   6.054  12.087
 9888TIP3    H253860   6.128   6.054  12.014
 9889TIP3   OH253861   6.736   6.593  12.065
 9889TIP3    H153862   6.814   6.672  12.037
 9889TIP3    H253863   6.649   6.664  12.098
 9890TIP3   OH253864   6.316   5.930  12.234
 9890TIP3    H153865   6.257   5.838  12.267
 9890TIP3    H253866   6.427   5.891  12.240
 9891TIP3   OH253867   5.508   6.252  11.860
 9891TIP3    H153868   5.491   6.187  11.781
 9891TIP3    H253869   5.436   6.199  11.922
 9892TIP3   OH253870   5.371   6.122  12.114
 9892TIP3    H153871   5.473   6.090  12.155
 9892TIP3    H253872   5.369   6.236  12.139
 9893TIP3   OH253873   6.031   4.848  12.301
 9893TIP3    H153874   6.066   4.918  12.228
 9893TIP3    H253875   6.068   4.913  12.377
 9894TIP3   OH253876   5.718   6.358  12.168
 9894TIP3    H153877   5.604   6.386  12.173
 9894TIP3    H253878   5.762   6.467  12.162
 9895TIP3   OH253879   5.742   4.760  12.401
 9895TIP3    H153880   5.734   4.794  12.494
 9895TIP3    H253881   5.845   4.804  12.371
 9896TIP3   OH253882   5.412   6.436  12.162
 9896TIP3    H153883   5.414   6.534  12.107
 9896TIP3    H253884   5.360   6.480  12.243
 9897TIP3   OH253885   5.200   4.850  12.152
 9897TIP3    H153886   5.242   4.957  12.166
 9897TIP3    H253887   5.300   4.790  12.160
 9898TIP3   OH253888   5.008   6.142  12.026
 9898TIP3    H153889   5.081   6.145  12.100
 9898TIP3    H253890   5.060   6.064  11.968
 9899TIP3   OH253891   4.805   6.286  12.457
 9899TIP3    H153892   4.693   6.268  12.474
 9899TIP3    H253893   4.804   6.335  12.368
 9900TIP3   OH253894   5.764   6.469  11.865
 9900TIP3    H153895   5.700   6.373  11.884
 9900TIP3    H253896   5.860   6.425  11.823
 9901TIP3   OH253897   6.302   6.388  11.877
 9901TIP3    H153898   6.305   6.293  11.936
 9901TIP3    H253899   6.404   6.378  11.831
 9902TIP3   OH253900   5.191   5.942  11.861
 9902TIP3    H153901   5.194   5.843  11.908
 9902TIP3    H253902   5.294   5.940  11.815
 9903TIP3   OH253903   5.885   6.048  11.850
 9903TIP3    H153904   5.836   6.044  11.939
 9903TIP3    H253905   5.876   5.935  11.826
 9904TIP3   OH253906   5.377   5.657  12.134
 9904TIP3    H153907   5.267   5.623  12.140
 9904TIP3    H253908   5.406   5.618  12.047
 9905TIP3   OH253909   6.592   5.719  11.874
 9905TIP3    H153910   6.562   5.693  11.781
 9905TIP3    H253911   6.605   5.837  11.869
 9906TIP3   OH253912   5.443   6.731  12.067
 9906TIP3    H153913   5.552   6.772  12.076
 9906TIP3    H253914   5.414   6.779  11.982
 9907TIP3   OH253915   4.668   6.090  12.006
 9907TIP3    H153916   4.782   6.106  12.015
 9907TIP3    H253917   4.663   6.011  11.933
 9908TIP3   OH253918   4.543   6.703  12.476
 9908TIP3    H153919   4.464   6.626  12.443
 9908TIP3    H253920   4.594   6.637  12.546
 9909TIP3   OH253921   4.645   6.482  12.654
 9909TIP3    H153922   4.612   6.383  12.695
 9909TIP3    H253923   4.696   6.534  12.731
 9910TIP3   OH253924   6.622   5.837  12.276
 9910TIP3    H153925   6.719   5.903  12.272
 9910TIP3    H253926   6.642   5.776  12.359
 9911TIP3   OH253927   6.692   5.650  12.493
 9911TIP3    H153928   6.613   5.578  12.533
 9911TIP3    H253929   6.782   5.638  12.557
 9912TIP3   OH253930   6.766   5.612  12.091
 9912TIP3    H153931   6.684   5.622  12.022
 9912TIP3    H253932   6.719   5.678  12.162
 9913TIP3   OH253933   6.545   5.257  11.936
 9913TIP3    H153934   6.560   5.339  11.868
 9913TIP3    H253935   6.517   5.161  11.883
 9914TIP3   OH253936   6.437   5.436  12.526
 9914TIP3    H153937   6.449   5.332  12.480
 9914TIP3    H253938   6.448   5.407  12.620
 9915TIP3   OH253939   6.473   4.963  11.838
 9915TIP3    H153940   6.526   4.928  11.920
 9915TIP3    H253941   6.362   4.936  11.855
 9916TIP3   OH253942   6.436   5.154  12.392
 9916TIP3    H153943   6.446   5.036  12.397
 9916TIP3    H253944   6.486   5.177  12.307
 9917TIP3   OH253945   6.407   4.832  12.405
 9917TIP3    H153946   6.512   4.801  12.438
 9917TIP3    H253947   6.361   4.730  12.375
 9918TIP3   OH253948   4.747   4.898  12.802
 9918TIP3    H153949   4.746   4.813  12.867
 9918TIP3    H253950   4.771   4.992  12.857
 9919TIP3   OH253951   6.707   4.793  12.050
 9919TIP3    H153952   6.766   4.752  11.972
 9919TIP3    H253953   6.796   4.798  12.113
 9920TIP3   OH253954   6.389   6.600  12.574
 9920TIP3    H153955   6.439   6.546  12.498
 9920TIP3    H253956   6.379   6.707  12.534
 9921TIP3   OH253957   4.847   6.580  12.861
 9921TIP3    H153958   4.819   6.523  12.942
 9921TIP3    H253959   4.952   6.534  12.838
 9922TIP3   OH253960   5.117   6.425  12.760
 9922TIP3    H153961   5.116   6.310  12.751
 9922TIP3    H253962   5.206   6.437  12.822
 9923TIP3   OH253963   5.803   4.738  12.731
 9923TIP3    H153964   5.780   4.727  12.825
 9923TIP3    H253965   5.911   4.693  12.728
 9924TIP3   OH253966   6.378   4.556  12.741
 9924TIP3    H153967   6.430   4.644  12.693
 9924TIP3    H253968   6.264   4.589  12.738
 9925TIP3   OH253969   6.629   4.711  12.575
 9925TIP3    H153970   6.666   4.602  12.565
 9925TIP3    H253971   6.721   4.774  12.544
 9926TIP3   OH253972   4.877   4.597  12.480
 9926TIP3    H153973   4.764   4.573  12.495
 9926TIP3    H253974   4.931   4.494  12.486
 9927TIP3   OH253975   4.758   4.549  12.135
 9927TIP3    H153976   4.806   4.634  12.081
 9927TIP3    H253977   4.684   4.612  12.188
 9928TIP3   OH253978   5.418   4.549  12.561
 9928TIP3    H153979   5.477   4.625  12.507
 9928TIP3    H253980   5.420   4.602  12.647
 9929TIP3   OH253981   6.086   4.613  12.662
 9929TIP3    H153982   6.055   4.616  12.569
 9929TIP3    H253983   6.035   4.513  12.694
 9930TIP3   OH253984   6.242   4.597  12.281
 9930TIP3    H153985   6.161   4.680  12.299
 9930TIP3    H253986   6.193   4.500  12.317
 9931TIP3   OH253987   4.748   6.509  12.247
 9931TIP3    H153988   4.654   6.484  12.195
 9931TIP3    H253989   4.763   6.622  12.220
 9932TIP3   OH253990   4.916   4.852  11.997
 9932TIP3    H153991   4.978   4.770  11.950
 9932TIP3    H253992   4.999   4.892  12.057
 9933TIP3   OH253993   5.542   4.846  12.214
 9933TIP3    H153994   5.610   4.795  12.282
 9933TIP3    H253995   5.525   4.951  12.254
 9934TIP3   OH253996   5.800   6.673  12.069
 9934TIP3    H153997   5.911   6.685  12.042
 9934TIP3    H253998   5.762   6.605  11.994
 9935TIP3   OH253999   6.582   6.550  12.362
 9935TIP3    H154000   6.551   6.458  12.304
 9935TIP3    H254001   6.569   6.640  12.301
 9936TIP3   OH254002   4.882   6.601  11.927
 9936TIP3    H154003   4.842   6.649  12.010
 9936TIP3    H254004   4.957   6.522  11.960
 9937TIP3   OH254005   8.216   5.707  12.541
 9937TIP3    H154006   8.191   5.821  12.522
 9937TIP3    H254007   8.118   5.659  12.512
 9938TIP3   OH254008   8.473   5.952  12.785
 9938TIP3    H154009   8.370   5.958  12.741
 9938TIP3    H254010   8.496   6.062  12.806
 9939TIP3   OH254011   6.871   5.335  12.470
 9939TIP3    H154012   6.882   5.414  12.400
 9939TIP3    H254013   6.842   5.239  12.419
 9940TIP3   OH254014   7.007   5.644  12.635
 9940TIP3    H154015   6.973   5.610  12.724
 9940TIP3    H254016   7.030   5.542  12.593
 9941TIP3   OH254017   8.173   6.589  12.736
 9941TIP3    H154018   8.267   6.536  12.779
 9941TIP3    H254019   8.147   6.674  12.802
 9942TIP3   OH254020   8.310   5.225  12.983
 9942TIP3    H154021   8.400   5.161  13.016
 9942TIP3    H254022   8.276   5.171  12.903
 9943TIP3   OH254023   7.074   5.341  12.753
 9943TIP3    H154024   7.170   5.302  12.710
 9943TIP3    H254025   6.994   5.338  12.683
 9944TIP3   OH254026   8.152   6.001  12.443
 9944TIP3    H154027   8.192   6.018  12.355
 9944TIP3    H254028   8.129   6.114  12.467
 9945TIP3   OH254029   6.913   5.984  12.264
 9945TIP3    H154030   6.943   6.026  12.177
 9945TIP3    H254031   6.974   6.046  12.327
 9946TIP3   OH254032   7.776   4.571  12.816
 9946TIP3    H154033   7.822   4.493  12.876
 9946TIP3    H254034   7.675   4.596  12.862
 9947TIP3   OH254035   8.410   6.400  12.519
 9947TIP3    H154036   8.482   6.305  12.519
 9947TIP3    H254037   8.480   6.481  12.558
 9948TIP3   OH254038   8.584   6.133  12.479
 9948TIP3    H154039   8.569   6.080  12.393
 9948TIP3    H254040   8.563   6.047  12.541
 9949TIP3   OH254041   8.465   5.657  12.371
 9949TIP3    H154042   8.372   5.657  12.433
 9949TIP3    H254043   8.539   5.584  12.416
 9950TIP3   OH254044   7.602   6.098  12.819
 9950TIP3    H154045   7.560   6.127  12.731
 9950TIP3    H254046   7.650   5.995  12.800
 9951TIP3   OH254047   8.369   5.516  12.138
 9951TIP3    H154048   8.400   5.561  12.225
 9951TIP3    H254049   8.410   5.598  12.075
 9952TIP3   OH254050   8.078   6.330  12.459
 9952TIP3    H154051   8.156   6.376  12.522
 9952TIP3    H254052   8.034   6.427  12.420
 9953TIP3   OH254053   8.801   4.561  12.130
 9953TIP3    H154054   8.694   4.565  12.094
 9953TIP3    H254055   8.810   4.664  12.173
 9954TIP3   OH254056   8.932   6.301  11.976
 9954TIP3    H154057   8.976   6.409  11.989
 9954TIP3    H254058   9.031   6.241  11.982
 9955TIP3   OH254059   8.008   6.674  12.335
 9955TIP3    H154060   8.016   6.685  12.237
 9955TIP3    H254061   8.002   6.787  12.362
 9956TIP3   OH254062   7.253   6.558  12.529
 9956TIP3    H154063   7.306   6.497  12.598
 9956TIP3    H254064   7.163   6.487  12.505
 9957TIP3   OH254065   8.369   6.583  12.041
 9957TIP3    H154066   8.447   6.506  12.005
 9957TIP3    H254067   8.392   6.583  12.137
 9958TIP3   OH254068   8.334   6.595  12.307
 9958TIP3    H154069   8.220   6.605  12.331
 9958TIP3    H254070   8.368   6.511  12.369
 9959TIP3   OH254071   7.483   4.618  12.939
 9959TIP3    H154072   7.376   4.615  12.902
 9959TIP3    H254073   7.493   4.728  12.968
 9960TIP3   OH254074   8.503   5.731  11.971
 9960TIP3    H154075   8.480   5.717  11.875
 9960TIP3    H254076   8.621   5.741  11.970
 9961TIP3   OH254077   8.004   4.897  11.999
 9961TIP3    H154078   7.925   4.907  12.068
 9961TIP3    H254079   7.938   4.873  11.922
 9962TIP3   OH254080   7.640   5.003  11.920
 9962TIP3    H154081   7.565   4.949  11.980
 9962TIP3    H254082   7.564   5.074  11.876
 9963TIP3   OH254083   7.748   5.046  12.603
 9963TIP3    H154084   7.652   5.004  12.644
 9963TIP3    H254085   7.830   4.967  12.625
 9964TIP3   OH254086   7.442   5.245  12.062
 9964TIP3    H154087   7.360   5.238  11.993
 9964TIP3    H254088   7.514   5.321  12.021
 9965TIP3   OH254089   8.014   5.290  12.757
 9965TIP3    H154090   7.978   5.182  12.745
 9965TIP3    H254091   7.973   5.321  12.843
 9966TIP3   OH254092   8.334   4.940  12.082
 9966TIP3    H154093   8.224   4.976  12.065
 9966TIP3    H254094   8.374   5.030  12.138
 9967TIP3   OH254095   8.414   5.209  12.193
 9967TIP3    H154096   8.509   5.232  12.248
 9967TIP3    H254097   8.395   5.314  12.151
 9968TIP3   OH254098   8.077   6.067  12.075
 9968TIP3    H154099   8.066   6.161  12.134
 9968TIP3    H254100   8.045   5.980  12.132
 9969TIP3   OH254101   8.992   5.254  12.170
 9969TIP3    H154102   8.917   5.226  12.098
 9969TIP3    H254103   9.010   5.366  12.150
 9970TIP3   OH254104   8.734   6.335  12.219
 9970TIP3    H154105   8.694   6.227  12.235
 9970TIP3    H254106   8.795   6.323  12.136
 9971TIP3   OH254107   7.488   6.230  12.583
 9971TIP3    H154108   7.585   6.293  12.577
 9971TIP3    H254109   7.474   6.200  12.490
 9972TIP3   OH254110   7.076   5.608  11.996
 9972TIP3    H154111   7.135   5.675  12.061
 9972TIP3    H254112   6.965   5.623  12.026
 9973TIP3   OH254113   7.555   6.576  12.430
 9973TIP3    H154114   7.442   6.586  12.455
 9973TIP3    H254115   7.604   6.656  12.488
 9974TIP3   OH254116   8.516   6.118  12.017
 9974TIP3    H154117   8.533   6.052  12.098
 9974TIP3    H254118   8.407   6.086  11.997
 9975TIP3   OH254119   9.048   6.598  12.050
 9975TIP3    H154120   9.071   6.691  11.993
 9975TIP3    H254121   8.948   6.636  12.089
 9976TIP3   OH254122   8.604   5.936  12.246
 9976TIP3    H154123   8.561   5.831  12.269
 9976TIP3    H254124   8.719   5.914  12.237
 9977TIP3   OH254125   7.776   6.233  11.866
 9977TIP3    H154126   7.759   6.196  11.775
 9977TIP3    H254127   7.717   6.152  11.916
 9978TIP3   OH254128   7.598   6.119  12.122
 9978TIP3    H154129   7.686   6.050  12.153
 9978TIP3    H254130   7.633   6.226  12.152
 9979TIP3   OH254131   7.235   5.818  12.144
 9979TIP3    H154132   7.176   5.824  12.227
 9979TIP3    H254133   7.343   5.832  12.176
 9980TIP3   OH254134   7.996   6.364  12.187
 9980TIP3    H154135   7.886   6.383  12.223
 9980TIP3    H254136   8.021   6.466  12.146
 9981TIP3   OH254137   7.669   6.432  12.191
 9981TIP3    H154138   7.679   6.520  12.126
 9981TIP3    H254139   7.621   6.493  12.265
 9982TIP3   OH254140   7.428   4.884  12.116
 9982TIP3    H154141   7.404   4.996  12.137
 9982TIP3    H254142   7.501   4.860  12.187
 9983TIP3   OH254143   8.568   5.452  12.771
 9983TIP3    H154144   8.474   5.430  12.825
 9983TIP3    H254145   8.647   5.383  12.815
 9984TIP3   OH254146   7.268   6.140  12.018
 9984TIP3    H154147   7.358   6.173  12.073
 9984TIP3    H254148   7.320   6.053  11.970
 9985TIP3   OH254149   7.112   5.268  11.944
 9985TIP3    H154150   7.130   5.365  11.996
 9985TIP3    H254151   7.010   5.231  11.978
 9986TIP3   OH254152   7.043   6.329  12.470
 9986TIP3    H154153   6.947   6.367  12.425
 9986TIP3    H254154   7.104   6.302  12.390
 9987TIP3   OH254155   8.016   6.484  11.874
 9987TIP3    H154156   7.964   6.378  11.887
 9987TIP3    H254157   8.119   6.456  11.832
 9988TIP3   OH254158   8.575   6.401  11.893
 9988TIP3    H154159   8.592   6.306  11.949
 9988TIP3    H254160   8.672   6.401  11.839
 9989TIP3   OH254161   7.432   5.916  11.844
 9989TIP3    H154162   7.392   5.820  11.887
 9989TIP3    H254163   7.541   5.888  11.817
 9990TIP3   OH254164   8.152   6.056  11.821
 9990TIP3    H154165   8.114   6.050  11.915
 9990TIP3    H254166   8.141   5.944  11.799
 9991TIP3   OH254167   7.771   5.443  11.936
 9991TIP3    H154168   7.684   5.444  11.871
 9991TIP3    H254169   7.853   5.500  11.886
 9992TIP3   OH254170   8.838   5.726  11.882
 9992TIP3    H154171   8.812   5.699  11.789
 9992TIP3    H254172   8.849   5.844  11.877
 9993TIP3   OH254173   7.714   6.708  12.050
 9993TIP3    H154174   7.822   6.721  12.084
 9993TIP3    H254175   7.715   6.785  11.976
 9994TIP3   OH254176   6.938   6.083  11.997
 9994TIP3    H154177   7.055   6.092  11.998
 9994TIP3    H254178   6.922   6.020  11.914
 9995TIP3   OH254179   6.838   6.672  12.489
 9995TIP3    H154180   6.739   6.631  12.447
 9995TIP3    H254181   6.836   6.622  12.575
 9996TIP3   OH254182   8.921   5.864  12.270
 9996TIP3    H154183   9.020   5.914  12.296
 9996TIP3    H254184   8.920   5.768  12.328
 9997TIP3   OH254185   8.963   5.633  12.460
 9997TIP3    H154186   8.863   5.573  12.480
 9997TIP3    H254187   8.990   5.665  12.550
 9998TIP3   OH254188   8.861   5.930  12.999
 9998TIP3    H154189   8.958   5.868  13.022
 9998TIP3    H254190   8.898   6.040  12.991
 9999TIP3   OH254191   8.989   5.599  12.114
 9999TIP3    H154192   8.935   5.629  12.031
 9999TIP3    H254193   8.996   5.704  12.157
10000TIP3   OH254194   8.780   5.245  11.944
10000TIP3    H154195   8.807   5.329  11.881
10000TIP3    H254196   8.747   5.158  11.885
10001TIP3   OH254197   8.693   5.449  12.512
10001TIP3    H154198   8.684   5.348  12.460
10001TIP3    H254199   8.629   5.428  12.592
10002TIP3   OH254200   8.700   4.956  11.836
10002TIP3    H154201   8.785   4.916  11.892
10002TIP3    H254202   8.604   4.942  11.889
10003TIP3   OH254203   8.689   5.189  12.336
10003TIP3    H154204   8.690   5.090  12.387
10003TIP3    H254205   8.797   5.184  12.299
10004TIP3   OH254206   8.720   4.862  12.382
10004TIP3    H154207   8.735   4.812  12.471
10004TIP3    H254208   8.604   4.872  12.380
10005TIP3   OH254209   9.013   4.829  12.034
10005TIP3    H154210   9.044   4.734  11.983
10005TIP3    H254211   9.070   4.915  11.989
10006TIP3   OH254212   8.621   6.637  12.557
10006TIP3    H154213   8.690   6.622  12.480
10006TIP3    H254214   8.686   6.708  12.613
10007TIP3   OH254215   7.606   6.434  12.852
10007TIP3    H154216   7.614   6.318  12.850
10007TIP3    H254217   7.604   6.455  12.947
10008TIP3   OH254218   8.800   4.686  12.607
10008TIP3    H154219   8.879   4.602  12.593
10008TIP3    H254220   8.863   4.757  12.662
10009TIP3   OH254221   7.789   4.609  12.518
10009TIP3    H154222   7.897   4.649  12.542
10009TIP3    H254223   7.736   4.615  12.604
10010TIP3   OH254224   6.962   6.467  12.230
10010TIP3    H154225   6.850   6.482  12.211
10010TIP3    H254226   7.002   6.572  12.204
10011TIP3   OH254227   7.160   4.843  11.951
10011TIP3    H154228   7.229   4.762  11.911
10011TIP3    H254229   7.200   4.849  12.042
10012TIP3   OH254230   8.056   6.679  12.074
10012TIP3    H154231   8.171   6.661  12.057
10012TIP3    H254232   8.015   6.616  11.998
10013TIP3   OH254233   8.851   6.580  12.373
10013TIP3    H154234   8.810   6.481  12.332
10013TIP3    H254235   8.861   6.644  12.292
10014TIP3   OH254236   7.153   6.586  11.931
10014TIP3    H154237   7.129   6.626  12.020
10014TIP3    H254238   7.248   6.521  11.949
10015TIP3   OH254239   9.098   5.323  12.466
10015TIP3    H154240   9.070   5.436  12.465
10015TIP3    H254241   9.035   5.282  12.393
10016TIP3   OH254242   9.131   6.294  12.614
10016TIP3    H154243   9.180   6.193  12.640
10016TIP3    H254244   9.030   6.263  12.571
10017TIP3   OH254245   9.043   4.939  12.595
10017TIP3    H154246   9.138   4.990  12.633
10017TIP3    H254247   9.065   4.936  12.500
10018TIP3   OH254248   8.968   6.808  12.545
10018TIP3    H154249   8.935   6.734  12.474
10018TIP3    H254250   8.980   6.728  12.617
10019TIP3   OH254251   9.065   6.589  12.714
10019TIP3    H154252   9.085   6.485  12.672
10019TIP3    H254253   9.175   6.624  12.726
10020TIP3   OH254254   9.079   5.704  12.998
10020TIP3    H154255   9.036   5.617  12.944
10020TIP3    H254256   9.161   5.640  13.044
10021TIP3   OH254257   9.030   4.865  12.303
10021TIP3    H154258   8.916   4.864  12.331
10021TIP3    H254259   9.022   4.849  12.206
10022TIP3   OH254260   1.460   7.963  12.542
10022TIP3    H154261   1.466   8.078  12.550
10022TIP3    H254262   1.375   7.954  12.476
10023TIP3   OH254263   1.723   8.281  12.746
10023TIP3    H154264   1.696   8.173  12.776
10023TIP3    H254265   1.812   8.304  12.806
10024TIP3   OH254266   0.162   7.580  12.370
10024TIP3    H154267   0.184   7.652  12.446
10024TIP3    H254268   0.046   7.568  12.380
10025TIP3   OH254269   0.205   7.798  12.579
10025TIP3    H154270   0.242   7.710  12.639
10025TIP3    H254271   0.220   7.890  12.637
10026TIP3   OH254272   1.541   7.486  12.976
10026TIP3    H154273   1.535   7.367  12.989
10026TIP3    H254274   1.445   7.499  12.924
10027TIP3   OH254275   0.672   7.268  12.687
10027TIP3    H154276   0.629   7.364  12.646
10027TIP3    H254277   0.622   7.186  12.635
10028TIP3   OH254278   1.634   7.295  12.475
10028TIP3    H154279   1.703   7.255  12.546
10028TIP3    H254280   1.692   7.394  12.457
10029TIP3   OH254281   0.281   7.532  12.723
10029TIP3    H154282   0.354   7.507  12.795
10029TIP3    H254283   0.331   7.481  12.645
10030TIP3   OH254284   1.388   8.262  12.435
10030TIP3    H154285   1.366   8.257  12.341
10030TIP3    H254286   1.414   8.375  12.449
10031TIP3   OH254287   1.804   7.249  12.700
10031TIP3    H154288   1.706   7.216  12.746
10031TIP3    H254289   1.852   7.146  12.680
10032TIP3   OH254290   0.492   7.356  12.905
10032TIP3    H154291   0.528   7.315  12.991
10032TIP3    H254292   0.564   7.295  12.847
10033TIP3   OH254293   0.216   8.282  12.260
10033TIP3    H154294   0.187   8.377  12.207
10033TIP3    H254295   0.214   8.326  12.352
10034TIP3   OH254296   1.764   8.401  12.482
10034TIP3    H154297   1.728   8.314  12.425
10034TIP3    H254298   1.740   8.362  12.572
10035TIP3   OH254299   1.301   7.895  12.301
10035TIP3    H154300   1.216   7.969  12.273
10035TIP3    H254301   1.386   7.921  12.238
10036TIP3   OH254302   1.259   7.765  11.983
10036TIP3    H154303   1.338   7.820  12.039
10036TIP3    H254304   1.292   7.655  11.996
10037TIP3   OH254305   1.730   7.854  12.379
10037TIP3    H154306   1.648   7.902  12.436
10037TIP3    H254307   1.808   7.814  12.444
10038TIP3   OH254308   0.746   7.966  12.555
10038TIP3    H154309   0.662   7.952  12.486
10038TIP3    H254310   0.787   7.858  12.555
10039TIP3   OH254311   1.554   7.854  12.135
10039TIP3    H154312   1.618   7.835  12.216
10039TIP3    H254313   1.638   7.882  12.069
10040TIP3   OH254314   1.310   8.711  12.493
10040TIP3    H154315   1.252   8.666  12.568
10040TIP3    H254316   1.235   8.796  12.464
10041TIP3   OH254317   2.024   6.803  12.177
10041TIP3    H154318   1.908   6.818  12.184
10041TIP3    H254319   2.062   6.904  12.136
10042TIP3   OH254320   0.583   7.855  12.345
10042TIP3    H154321   0.512   7.931  12.298
10042TIP3    H254322   0.527   7.754  12.339
10043TIP3   OH254323   2.147   8.533  11.997
10043TIP3    H154324   2.180   8.646  12.001
10043TIP3    H254325   2.249   8.477  12.014
10044TIP3   OH254326   0.086   8.375  12.860
10044TIP3    H154327   0.178   8.431  12.895
10044TIP3    H254328   0.002   8.430  12.909
10045TIP3   OH254329   1.597   8.851  12.058
10045TIP3    H154330   1.686   8.780  12.030
10045TIP3    H254331   1.588   8.825  12.154
10046TIP3   OH254332   1.532   8.822  12.312
10046TIP3    H154333   1.423   8.822  12.347
10046TIP3    H254334   1.583   8.748  12.374
10047TIP3   OH254335   1.782   7.973  11.976
10047TIP3    H154336   1.746   8.000  11.885
10047TIP3    H254337   1.898   7.988  11.970
10048TIP3   OH254338   1.228   7.206  11.964
10048TIP3    H154339   1.190   7.199  12.057
10048TIP3    H254340   1.170   7.114  11.930
10049TIP3   OH254341   0.676   7.552  12.527
10049TIP3    H154342   0.575   7.514  12.487
10049TIP3    H254343   0.749   7.523  12.455
10050TIP3   OH254344   1.366   7.614  12.394
10050TIP3    H154345   1.340   7.722  12.356
10050TIP3    H254346   1.448   7.580  12.331
10051TIP3   OH254347   1.390   7.637  12.701
10051TIP3    H154348   1.429   7.720  12.640
10051TIP3    H254349   1.430   7.544  12.655
10052TIP3   OH254350   0.775   7.234  11.892
10052TIP3    H154351   0.731   7.174  11.968
10052TIP3    H254352   0.694   7.310  11.870
10053TIP3   OH254353   0.067   7.192  12.637
10053TIP3    H154354   0.161   7.189  12.696
10053TIP3    H254355   0.107   7.222  12.550
10054TIP3   OH254356   0.101   7.366  12.167
10054TIP3    H154357   0.145   7.404  12.083
10054TIP3    H254358   0.149   7.442  12.231
10055TIP3   OH254359   1.028   7.274  12.629
10055TIP3    H154360   0.912   7.254  12.634
10055TIP3    H254361   1.052   7.226  12.716
10056TIP3   OH254362   0.385   7.412  12.490
10056TIP3    H154363   0.305   7.448  12.425
10056TIP3    H254364   0.404   7.300  12.463
10057TIP3   OH254365   0.792   7.442  12.288
10057TIP3    H154366   0.905   7.435  12.264
10057TIP3    H254367   0.754   7.506  12.211
10058TIP3   OH254368   0.710   7.585  12.058
10058TIP3    H154369   0.636   7.524  12.005
10058TIP3    H254370   0.786   7.625  11.989
10059TIP3   OH254371   0.508   7.124  12.464
10059TIP3    H154372   0.458   7.022  12.489
10059TIP3    H254373   0.610   7.091  12.429
10060TIP3   OH254374   1.075   8.104  12.248
10060TIP3    H154375   0.989   8.046  12.202
10060TIP3    H254376   1.014   8.167  12.313
10061TIP3   OH254377   1.519   7.277  12.052
10061TIP3    H154378   1.421   7.278  11.998
10061TIP3    H254379   1.529   7.390  12.077
10062TIP3   OH254380   1.576   7.541  12.194
10062TIP3    H154381   1.669   7.498  12.238
10062TIP3    H254382   1.622   7.615  12.130
10063TIP3   OH254383   1.277   8.297  12.116
10063TIP3    H154384   1.231   8.402  12.138
10063TIP3    H254385   1.207   8.227  12.170
10064TIP3   OH254386   2.184   7.504  12.188
10064TIP3    H154387   2.172   7.466  12.096
10064TIP3    H254388   2.207   7.618  12.173
10065TIP3   OH254389   1.937   8.569  12.220
10065TIP3    H154390   1.895   8.488  12.279
10065TIP3    H254391   2.002   8.513  12.155
10066TIP3   OH254392   1.656   7.951  12.886
10066TIP3    H154393   1.558   8.016  12.894
10066TIP3    H254394   1.680   7.938  12.980
10067TIP3   OH254395   0.248   7.861  12.010
10067TIP3    H154396   0.323   7.916  12.071
10067TIP3    H254397   0.154   7.850  12.066
10068TIP3   OH254398   0.887   8.254  12.440
10068TIP3    H154399   0.899   8.336  12.506
10068TIP3    H254400   0.822   8.172  12.486
10069TIP3   OH254401   1.726   8.340  12.009
10069TIP3    H154402   1.742   8.285  12.095
10069TIP3    H254403   1.615   8.309  11.993
10070TIP3   OH254404   2.238   8.844  12.024
10070TIP3    H154405   2.316   8.929  12.036
10070TIP3    H254406   2.136   8.902  12.041
10071TIP3   OH254407   1.782   8.176  12.250
10071TIP3    H154408   1.768   8.059  12.250
10071TIP3    H254409   1.898   8.182  12.251
10072TIP3   OH254410   0.979   8.477  11.848
10072TIP3    H154411   0.966   8.416  11.767
10072TIP3    H254412   0.920   8.411  11.909
10073TIP3   OH254413   0.418   8.045  12.182
10073TIP3    H154414   0.330   8.111  12.218
10073TIP3    H254415   0.461   8.114  12.113
10074TIP3   OH254416   1.458   7.154  12.292
10074TIP3    H154417   1.483   7.193  12.201
10074TIP3    H254418   1.524   7.228  12.349
10075TIP3   OH254419   1.175   8.587  12.189
10075TIP3    H154420   1.120   8.641  12.261
10075TIP3    H254421   1.244   8.672  12.158
10076TIP3   OH254422   1.129   7.364  12.362
10076TIP3    H154423   1.199   7.458  12.371
10076TIP3    H254424   1.106   7.332  12.455
10077TIP3   OH254425   1.236   6.984  12.414
10077TIP3    H154426   1.190   7.054  12.480
10077TIP3    H254427   1.319   7.057  12.376
10078TIP3   OH254428   0.709   7.136  12.145
10078TIP3    H154429   0.698   7.238  12.193
10078TIP3    H254430   0.820   7.108  12.165
10079TIP3   OH254431   1.740   7.590  12.768
10079TIP3    H154432   1.692   7.697  12.762
10079TIP3    H254433   1.670   7.538  12.835
10080TIP3   OH254434   0.252   7.514  11.960
10080TIP3    H154435   0.288   7.620  11.987
10080TIP3    H254436   0.208   7.536  11.873
10081TIP3   OH254437   0.302   6.898  12.746
10081TIP3    H154438   0.319   6.889  12.650
10081TIP3    H254439   0.340   6.792  12.773
10082TIP3   OH254440   0.263   8.504  12.447
10082TIP3    H154441   0.251   8.569  12.529
10082TIP3    H254442   0.222   8.582  12.383
10083TIP3   OH254443   1.236   8.687  11.877
10083TIP3    H154444   1.165   8.593  11.878
10083TIP3    H254445   1.326   8.650  11.821
10084TIP3   OH254446   1.804   8.666  11.918
10084TIP3    H154447   1.818   8.560  11.956
10084TIP3    H254448   1.882   8.669  11.845
10085TIP3   OH254449   0.690   8.191  11.886
10085TIP3    H154450   0.691   8.095  11.941
10085TIP3    H254451   0.797   8.179  11.847
10086TIP3   OH254452   1.361   8.306  11.842
10086TIP3    H154453   1.318   8.298  11.933
10086TIP3    H254454   1.360   8.191  11.818
10087TIP3   OH254455   0.817   7.932  12.108
10087TIP3    H154456   0.756   7.855  12.162
10087TIP3    H254457   0.877   7.860  12.049
10088TIP3   OH254458   0.943   7.735  11.910
10088TIP3    H154459   0.960   7.789  11.823
10088TIP3    H254460   1.055   7.732  11.941
10089TIP3   OH254461   2.089   8.009  11.866
10089TIP3    H154462   2.045   7.970  11.781
10089TIP3    H254463   2.071   8.125  11.858
10090TIP3   OH254464   0.936   8.993  12.038
10090TIP3    H154465   1.022   8.981  12.102
10090TIP3    H254466   0.967   9.089  11.990
10091TIP3   OH254467   0.187   8.406  12.011
10091TIP3    H154468   0.271   8.328  12.025
10091TIP3    H254469   0.139   8.352  11.935
10092TIP3   OH254470   0.064   8.939  12.428
10092TIP3    H154471  -0.040   8.987  12.447
10092TIP3    H254472   0.125   8.981  12.505
10093TIP3   OH254473   0.166   8.698  12.649
10093TIP3    H154474   0.054   8.716  12.673
10093TIP3    H254475   0.222   8.795  12.672
10094TIP3   OH254476   2.129   8.110  12.256
10094TIP3    H154477   2.237   8.155  12.262
10094TIP3    H254478   2.138   8.021  12.320
10095TIP3   OH254479   2.168   7.856  12.448
10095TIP3    H154480   2.077   7.806  12.495
10095TIP3    H254481   2.234   7.890  12.524
10096TIP3   OH254482   2.232   7.825  12.082
10096TIP3    H154483   2.149   7.825  12.013
10096TIP3    H254484   2.202   7.924  12.128
10097TIP3   OH254485   1.914   7.519  11.970
10097TIP3    H154486   2.016   7.568  11.952
10097TIP3    H254487   1.921   7.422  11.916
10098TIP3   OH254488   1.931   7.684  12.557
10098TIP3    H154489   1.897   7.598  12.495
10098TIP3    H254490   1.872   7.651  12.638
10099TIP3   OH254491   1.934   7.219  11.848
10099TIP3    H154492   1.987   7.168  11.924
10099TIP3    H254493   1.824   7.187  11.859
10100TIP3   OH254494   1.894   7.452  12.376
10100TIP3    H154495   1.902   7.333  12.374
10100TIP3    H254496   1.964   7.474  12.301
10101TIP3   OH254497   1.932   7.134  12.362
10101TIP3    H154498   1.960   7.073  12.441
10101TIP3    H254499   1.872   7.050  12.314
10102TIP3   OH254500   0.230   7.168  12.881
10102TIP3    H154501   0.257   7.064  12.837
10102TIP3    H254502   0.332   7.226  12.878
10103TIP3   OH254503   0.137   7.648  12.969
10103TIP3    H154504   0.168   7.540  12.944
10103TIP3    H254505   0.089   7.693  12.890
10104TIP3   OH254506   2.166   7.088  12.026
10104TIP3    H154507   2.231   7.019  11.966
10104TIP3    H254508   2.194   7.194  11.987
10105TIP3   OH254509   0.126   7.098  12.314
10105TIP3    H154510   0.016   7.081  12.346
10105TIP3    H254511   0.104   7.193  12.259
10106TIP3   OH254512   1.794   8.850  12.494
10106TIP3    H154513   1.898   8.830  12.454
10106TIP3    H254514   1.818   8.896  12.581
10107TIP3   OH254515   1.874   6.904  12.764
10107TIP3    H154516   1.967   6.898  12.704
10107TIP3    H254517   1.812   6.808  12.745
10108TIP3   OH254518   2.094   6.940  12.573
10108TIP3    H154519   2.167   6.858  12.534
10108TIP3    H254520   2.165   7.032  12.569
10109TIP3   OH254521   0.382   6.824  12.496
10109TIP3    H154522   0.281   6.797  12.448
10109TIP3    H254523   0.433   6.718  12.502
10110TIP3   OH254524   0.251   6.832  12.148
10110TIP3    H154525   0.248   6.890  12.065
10110TIP3    H254526   0.205   6.910  12.212
10111TIP3   OH254527   0.883   6.806  12.565
10111TIP3    H154528   0.988   6.806  12.522
10111TIP3    H254529   0.908   6.856  12.651
10112TIP3   OH254530   1.738   6.882  12.291
10112TIP3    H154531   1.645   6.950  12.309
10112TIP3    H254532   1.693   6.776  12.313
10113TIP3   OH254533   0.181   8.717  12.253
10113TIP3    H154534   0.089   8.766  12.210
10113TIP3    H254535   0.199   8.798  12.323
10114TIP3   OH254536   0.374   7.078  11.964
10114TIP3    H154537   0.461   7.015  11.924
10114TIP3    H254538   0.412   7.086  12.056
10115TIP3   OH254539   1.067   7.116  12.190
10115TIP3    H154540   1.118   7.045  12.253
10115TIP3    H254541   1.076   7.217  12.241
10116TIP3   OH254542   1.272   8.891  12.092
10116TIP3    H154543   1.382   8.888  12.059
10116TIP3    H254544   1.217   8.846  12.015
10117TIP3   OH254545   2.066   8.828  12.328
10117TIP3    H154546   2.027   8.725  12.292
10117TIP3    H254547   2.053   8.894  12.248
10118TIP3   OH254548   0.367   8.851  11.917
10118TIP3    H154549   0.305   8.896  11.991
10118TIP3    H254550   0.454   8.800  11.963
10119TIP3   OH254551   3.722   7.974  12.531
10119TIP3    H154552   3.685   8.086  12.530
10119TIP3    H254553   3.659   7.933  12.457
10120TIP3   OH254554   3.977   8.255  12.736
10120TIP3    H154555   3.942   8.158  12.783
10120TIP3    H254556   4.009   8.323  12.810
10121TIP3   OH254557   2.366   7.562  12.456
10121TIP3    H154558   2.352   7.676  12.472
10121TIP3    H254559   2.290   7.546  12.383
10122TIP3   OH254560   2.386   7.888  12.665
10122TIP3    H154561   2.447   7.814  12.720
10122TIP3    H254562   2.444   7.985  12.683
10123TIP3   OH254563   3.660   8.791  12.768
10123TIP3    H154564   3.757   8.756  12.723
10123TIP3    H254565   3.704   8.802  12.860
10124TIP3   OH254566   3.786   7.513  12.989
10124TIP3    H154567   3.703   7.439  13.013
10124TIP3    H254568   3.778   7.519  12.892
10125TIP3   OH254569   2.977   7.259  12.665
10125TIP3    H154570   2.986   7.360  12.614
10125TIP3    H254571   2.887   7.208  12.619
10126TIP3   OH254572   3.857   7.267  12.516
10126TIP3    H154573   3.902   7.230  12.601
10126TIP3    H254574   3.907   7.370  12.507
10127TIP3   OH254575   2.473   7.571  12.789
10127TIP3    H154576   2.560   7.523  12.845
10127TIP3    H254577   2.518   7.544  12.702
10128TIP3   OH254578   3.086   7.729  12.702
10128TIP3    H154579   3.185   7.682  12.736
10128TIP3    H254580   3.034   7.638  12.659
10129TIP3   OH254581   3.612   8.267  12.417
10129TIP3    H154582   3.599   8.272  12.320
10129TIP3    H254583   3.592   8.381  12.438
10130TIP3   OH254584   4.061   7.192  12.730
10130TIP3    H154585   4.162   7.141  12.707
10130TIP3    H254586   4.096   7.279  12.787
10131TIP3   OH254587   2.722   7.388  12.858
10131TIP3    H154588   2.747   7.326  12.938
10131TIP3    H254589   2.814   7.372  12.801
10132TIP3   OH254590   2.442   8.219  12.262
10132TIP3    H154591   2.441   8.292  12.185
10132TIP3    H254592   2.474   8.292  12.333
10133TIP3   OH254593   3.868   8.672  12.558
10133TIP3    H154594   3.913   8.567  12.540
10133TIP3    H254595   3.956   8.747  12.538
10134TIP3   OH254596   4.043   8.369  12.462
10134TIP3    H154597   4.004   8.296  12.393
10134TIP3    H254598   4.026   8.310  12.546
10135TIP3   OH254599   3.553   7.885  12.304
10135TIP3    H154600   3.479   7.973  12.281
10135TIP3    H254601   3.646   7.908  12.246
10136TIP3   OH254602   3.568   7.736  11.979
10136TIP3    H154603   3.629   7.789  12.051
10136TIP3    H254604   3.584   7.627  12.008
10137TIP3   OH254605   3.998   7.883  12.404
10137TIP3    H154606   3.908   7.910  12.464
10137TIP3    H254607   4.069   7.825  12.464
10138TIP3   OH254608   2.964   7.970  12.566
10138TIP3    H154609   2.918   7.903  12.496
10138TIP3    H254610   3.001   7.890  12.631
10139TIP3   OH254611   3.816   7.848  12.165
10139TIP3    H154612   3.892   7.860  12.239
10139TIP3    H254613   3.882   7.888  12.089
10140TIP3   OH254614   3.544   8.591  12.467
10140TIP3    H154615   3.613   8.646  12.531
10140TIP3    H254616   3.502   8.677  12.411
10141TIP3   OH254617   4.291   6.804  12.171
10141TIP3    H154618   4.181   6.817  12.203
10141TIP3    H254619   4.324   6.914  12.152
10142TIP3   OH254620   2.814   7.838  12.340
10142TIP3    H154621   2.788   7.942  12.297
10142TIP3    H254622   2.758   7.762  12.286
10143TIP3   OH254623   4.408   8.533  11.976
10143TIP3    H154624   4.434   8.646  11.989
10143TIP3    H254625   4.508   8.480  12.000
10144TIP3   OH254626   2.376   8.509  12.853
10144TIP3    H154627   2.482   8.518  12.893
10144TIP3    H254628   2.304   8.555  12.920
10145TIP3   OH254629   3.517   8.968  12.332
10145TIP3    H154630   3.521   8.999  12.238
10145TIP3    H254631   3.457   9.058  12.371
10146TIP3   OH254632   2.768   8.773  12.530
10146TIP3    H154633   2.814   8.854  12.591
10146TIP3    H254634   2.723   8.698  12.593
10147TIP3   OH254635   3.829   8.837  12.064
10147TIP3    H154636   3.924   8.774  12.037
10147TIP3    H254637   3.824   8.809  12.161
10148TIP3   OH254638   3.802   8.808  12.325
10148TIP3    H154639   3.703   8.863  12.348
10148TIP3    H254640   3.821   8.744  12.406
10149TIP3   OH254641   3.998   7.968  11.976
10149TIP3    H154642   3.986   7.985  11.879
10149TIP3    H254643   4.111   7.996  11.986
10150TIP3   OH254644   3.486   7.202  11.990
10150TIP3    H154645   3.456   7.174  12.081
10150TIP3    H254646   3.425   7.117  11.945
10151TIP3   OH254647   2.950   7.520  12.521
10151TIP3    H154648   2.840   7.488  12.497
10151TIP3    H254649   3.001   7.526  12.432
10152TIP3   OH254650   3.637   7.612  12.405
10152TIP3    H154651   3.600   7.712  12.362
10152TIP3    H254652   3.709   7.574  12.335
10153TIP3   OH254653   3.760   7.576  12.704
10153TIP3    H154654   3.726   7.672  12.654
10153TIP3    H254655   3.721   7.493  12.645
10154TIP3   OH254656   3.005   7.204  11.878
10154TIP3    H154657   2.971   7.157  11.963
10154TIP3    H254658   2.916   7.274  11.854
10155TIP3   OH254659   2.318   7.196  12.625
10155TIP3    H154660   2.381   7.294  12.636
10155TIP3    H254661   2.345   7.170  12.532
10156TIP3   OH254662   2.428   7.265  12.173
10156TIP3    H154663   2.479   7.303  12.092
10156TIP3    H254664   2.339   7.342  12.179
10157TIP3   OH254665   3.308   7.247  12.627
10157TIP3    H154666   3.192   7.234  12.633
10157TIP3    H254667   3.334   7.247  12.722
10158TIP3   OH254668   2.623   7.385  12.513
10158TIP3    H154669   2.548   7.448  12.460
10158TIP3    H254670   2.616   7.277  12.477
10159TIP3   OH254671   3.068   7.465  12.280
10159TIP3    H154672   3.184   7.456  12.267
10159TIP3    H254673   3.036   7.535  12.207
10160TIP3   OH254674   2.968   7.601  12.049
10160TIP3    H154675   2.908   7.531  11.989
10160TIP3    H254676   3.050   7.640  11.986
10161TIP3   OH254677   2.786   7.091  12.471
10161TIP3    H154678   2.840   6.986  12.469
10161TIP3    H254679   2.825   7.135  12.388
10162TIP3   OH254680   3.348   8.128  12.246
10162TIP3    H154681   3.254   8.075  12.205
10162TIP3    H254682   3.295   8.167  12.329
10163TIP3   OH254683   3.794   7.272  12.049
10163TIP3    H154684   3.677   7.277  12.039
10163TIP3    H254685   3.818   7.374  12.093
10164TIP3   OH254686   3.840   7.534  12.193
10164TIP3    H154687   3.926   7.489  12.249
10164TIP3    H254688   3.894   7.627  12.156
10165TIP3   OH254689   3.564   8.298  12.116
10165TIP3    H154690   3.509   8.398  12.145
10165TIP3    H254691   3.491   8.218  12.151
10166TIP3   OH254692   4.438   7.508  12.194
10166TIP3    H154693   4.374   7.499  12.112
10166TIP3    H254694   4.468   7.622  12.190
10167TIP3   OH254695   4.231   8.545  12.218
10167TIP3    H154696   4.188   8.462  12.277
10167TIP3    H254697   4.272   8.486  12.142
10168TIP3   OH254698   3.953   7.979  12.903
10168TIP3    H154699   3.910   7.933  12.985
10168TIP3    H254700   4.048   7.913  12.889
10169TIP3   OH254701   3.029   8.502  12.554
10169TIP3    H154702   3.062   8.603  12.512
10169TIP3    H254703   2.917   8.496  12.525
10170TIP3   OH254704   2.575   7.865  12.003
10170TIP3    H154705   2.627   7.933  12.071
10170TIP3    H254706   2.461   7.868  12.024
10171TIP3   OH254707   3.164   8.203  12.450
10171TIP3    H154708   3.124   8.293  12.499
10171TIP3    H254709   3.119   8.113  12.499
10172TIP3   OH254710   3.082   8.803  12.428
10172TIP3    H154711   2.964   8.798  12.421
10172TIP3    H254712   3.092   8.905  12.477
10173TIP3   OH254713   3.976   8.354  12.020
10173TIP3    H154714   3.979   8.308  12.110
10173TIP3    H254715   3.871   8.317  11.992
10174TIP3   OH254716   4.488   8.852  12.037
10174TIP3    H154717   4.548   8.954  12.045
10174TIP3    H254718   4.376   8.892  12.042
10175TIP3   OH254719   4.055   8.165  12.241
10175TIP3    H154720   4.032   8.065  12.288
10175TIP3    H254721   4.171   8.165  12.240
10176TIP3   OH254722   3.259   8.470  11.855
10176TIP3    H154723   3.227   8.389  11.791
10176TIP3    H254724   3.180   8.456  11.926
10177TIP3   OH254725   3.110   8.413  12.107
10177TIP3    H154726   3.182   8.362  12.169
10177TIP3    H254727   3.120   8.525  12.137
10178TIP3   OH254728   2.722   8.080  12.168
10178TIP3    H154729   2.621   8.128  12.199
10178TIP3    H254730   2.773   8.172  12.126
10179TIP3   OH254731   3.712   7.142  12.287
10179TIP3    H154732   3.772   7.181  12.210
10179TIP3    H254733   3.776   7.174  12.364
10180TIP3   OH254734   3.432   8.582  12.200
10180TIP3    H154735   3.326   8.623  12.223
10180TIP3    H254736   3.493   8.680  12.187
10181TIP3   OH254737   3.374   7.373  12.372
10181TIP3    H154738   3.458   7.452  12.389
10181TIP3    H254739   3.358   7.326  12.460
10182TIP3   OH254740   3.475   6.992  12.424
10182TIP3    H154741   3.462   7.057  12.504
10182TIP3    H254742   3.559   7.055  12.379
10183TIP3   OH254743   3.136   8.725  12.174
10183TIP3    H154744   3.154   8.828  12.127
10183TIP3    H254745   3.107   8.770  12.262
10184TIP3   OH254746   2.963   7.132  12.145
10184TIP3    H154747   2.956   7.238  12.182
10184TIP3    H254748   3.077   7.110  12.163
10185TIP3   OH254749   4.056   7.694  12.745
10185TIP3    H154750   3.944   7.661  12.754
10185TIP3    H254751   4.110   7.628  12.812
10186TIP3   OH254752   2.746   8.374  12.033
10186TIP3    H154753   2.830   8.442  12.068
10186TIP3    H254754   2.809   8.309  11.968
10187TIP3   OH254755   2.610   7.502  11.991
10187TIP3    H154756   2.608   7.618  12.008
10187TIP3    H254757   2.500   7.480  11.964
10188TIP3   OH254758   2.510   8.508  12.424
10188TIP3    H154759   2.424   8.545  12.480
10188TIP3    H254760   2.519   8.594  12.359
10189TIP3   OH254761   3.492   8.707  11.876
10189TIP3    H154762   3.436   8.604  11.883
10189TIP3    H254763   3.589   8.678  11.825
10190TIP3   OH254764   4.060   8.668  11.920
10190TIP3    H154765   4.073   8.561  11.957
10190TIP3    H254766   4.144   8.670  11.851
10191TIP3   OH254767   2.932   8.174  11.864
10191TIP3    H154768   2.958   8.110  11.941
10191TIP3    H254769   3.032   8.164  11.814
10192TIP3   OH254770   3.625   8.304  11.820
10192TIP3    H154771   3.570   8.304  11.904
10192TIP3    H254772   3.624   8.189  11.799
10193TIP3   OH254773   3.094   7.960  12.132
10193TIP3    H154774   3.023   7.894  12.188
10193TIP3    H254775   3.131   7.882  12.067
10194TIP3   OH254776   3.228   7.752  11.925
10194TIP3    H154777   3.214   7.783  11.832
10194TIP3    H254778   3.344   7.756  11.934
10195TIP3   OH254779   4.331   7.996  11.878
10195TIP3    H154780   4.309   7.960  11.786
10195TIP3    H254781   4.326   8.113  11.867
10196TIP3   OH254782   3.196   9.012  12.070
10196TIP3    H154783   3.313   9.022  12.070
10196TIP3    H254784   3.164   9.080  11.998
10197TIP3   OH254785   2.414   8.335  12.006
10197TIP3    H154786   2.532   8.339  11.999
10197TIP3    H254787   2.384   8.281  11.923
10198TIP3   OH254788   2.268   9.002  12.472
10198TIP3    H154789   2.194   8.930  12.424
10198TIP3    H254790   2.261   8.964  12.562
10199TIP3   OH254791   4.387   8.101  12.261
10199TIP3    H154792   4.494   8.147  12.272
10199TIP3    H254793   4.382   8.023  12.335
10200TIP3   OH254794   4.432   7.880  12.463
10200TIP3    H154795   4.346   7.813  12.502
10200TIP3    H254796   4.496   7.902  12.543
10201TIP3   OH254797   4.417   8.191  12.974
10201TIP3    H154798   4.500   8.111  12.975
10201TIP3    H254799   4.462   8.273  13.033
10202TIP3   OH254800   4.481   7.850  12.095
10202TIP3    H154801   4.408   7.868  12.020
10202TIP3    H254802   4.447   7.939  12.154
10203TIP3   OH254803   4.254   7.508  11.937
10203TIP3    H154804   4.283   7.579  11.865
10203TIP3    H254805   4.240   7.409  11.890
10204TIP3   OH254806   4.222   7.646  12.524
10204TIP3    H154807   4.162   7.559  12.482
10204TIP3    H254808   4.163   7.661  12.608
10205TIP3   OH254809   4.208   7.200  11.841
10205TIP3    H154810   4.253   7.157  11.924
10205TIP3    H254811   4.097   7.169  11.842
10206TIP3   OH254812   4.108   7.428  12.335
10206TIP3    H154813   4.140   7.319  12.356
10206TIP3    H254814   4.214   7.471  12.319
10207TIP3   OH254815   4.189   7.460  12.906
10207TIP3    H154816   4.303   7.492  12.898
10207TIP3    H254817   4.184   7.462  13.003
10208TIP3   OH254818   4.223   7.115  12.372
10208TIP3    H154819   4.256   7.067  12.456
10208TIP3    H254820   4.150   7.032  12.341
10209TIP3   OH254821   4.435   7.084  12.040
10209TIP3    H154822   4.478   7.019  11.966
10209TIP3    H254823   4.524   7.158  12.058
10210TIP3   OH254824   2.293   7.104  12.364
10210TIP3    H154825   2.186   7.104  12.327
10210TIP3    H254826   2.351   7.146  12.285
10211TIP3   OH254827   4.084   8.887  12.492
10211TIP3    H154828   4.181   8.874  12.440
10211TIP3    H254829   4.115   8.927  12.580
10212TIP3   OH254830   4.348   6.942  12.589
10212TIP3    H154831   4.417   6.863  12.546
10212TIP3    H254832   4.426   7.028  12.605
10213TIP3   OH254833   2.468   6.845  12.119
10213TIP3    H154834   2.530   6.904  12.053
10213TIP3    H254835   2.398   6.930  12.150
10214TIP3   OH254836   3.107   6.856  12.511
10214TIP3    H154837   3.210   6.883  12.474
10214TIP3    H254838   3.128   6.860  12.606
10215TIP3   OH254839   4.018   6.858  12.297
10215TIP3    H154840   3.938   6.901  12.236
10215TIP3    H254841   3.965   6.760  12.329
10216TIP3   OH254842   2.461   8.736  12.237
10216TIP3    H154843   2.347   8.742  12.221
10216TIP3    H254844   2.497   8.833  12.191
10217TIP3   OH254845   2.634   7.096  11.962
10217TIP3    H154846   2.714   7.026  11.921
10217TIP3    H254847   2.686   7.128  12.044
10218TIP3   OH254848   3.292   7.132  12.205
10218TIP3    H154849   3.358   7.062  12.258
10218TIP3    H254850   3.308   7.231  12.255
10219TIP3   OH254851   3.514   8.957  12.056
10219TIP3    H154852   3.624   8.923  12.037
10219TIP3    H254853   3.461   8.870  12.006
10220TIP3   OH254854   4.313   8.831  12.306
10220TIP3    H154855   4.286   8.722  12.272
10220TIP3    H254856   4.291   8.894  12.225
10221TIP3   OH254857   2.674   8.881  11.930
10221TIP3    H154858   2.606   8.905  12.007
10221TIP3    H254859   2.737   8.795  11.965
10222TIP3   OH254860   5.966   7.974  12.529
10222TIP3    H154861   5.972   8.088  12.551
10222TIP3    H254862   5.854   7.958  12.523
10223TIP3   OH254863   5.038   8.368  12.865
10223TIP3    H154864   4.987   8.263  12.863
10223TIP3    H254865   5.147   8.342  12.835
10224TIP3   OH254866   4.645   7.573  12.446
10224TIP3    H154867   4.597   7.675  12.469
10224TIP3    H254868   4.550   7.510  12.429
10225TIP3   OH254869   4.644   7.884  12.670
10225TIP3    H154870   4.698   7.789  12.706
10225TIP3    H254871   4.722   7.932  12.611
10226TIP3   OH254872   5.207   7.295  12.715
10226TIP3    H154873   5.214   7.384  12.652
10226TIP3    H254874   5.134   7.223  12.669
10227TIP3   OH254875   6.148   7.273  12.486
10227TIP3    H154876   6.185   7.231  12.572
10227TIP3    H254877   6.211   7.369  12.479
10228TIP3   OH254878   4.764   7.574  12.776
10228TIP3    H154879   4.769   7.470  12.824
10228TIP3    H254880   4.792   7.534  12.688
10229TIP3   OH254881   5.290   7.724  12.721
10229TIP3    H154882   5.394   7.682  12.745
10229TIP3    H254883   5.256   7.646  12.653
10230TIP3   OH254884   5.917   8.305  12.448
10230TIP3    H154885   5.802   8.298  12.452
10230TIP3    H254886   5.934   8.418  12.430
10231TIP3   OH254887   6.314   7.217  12.718
10231TIP3    H154888   6.352   7.132  12.776
10231TIP3    H254889   6.410   7.280  12.717
10232TIP3   OH254890   4.710   8.237  12.255
10232TIP3    H154891   4.696   8.303  12.174
10232TIP3    H254892   4.718   8.321  12.324
10233TIP3   OH254893   5.512   6.835  12.807
10233TIP3    H154894   5.522   6.724  12.831
10233TIP3    H254895   5.400   6.857  12.836
10234TIP3   OH254896   6.106   8.596  12.618
10234TIP3    H154897   6.186   8.526  12.582
10234TIP3    H254898   6.157   8.700  12.617
10235TIP3   OH254899   5.819   7.697  11.984
10235TIP3    H154900   5.860   7.669  12.071
10235TIP3    H254901   5.878   7.619  11.930
10236TIP3   OH254902   5.204   7.999  12.592
10236TIP3    H154903   5.189   7.926  12.518
10236TIP3    H254904   5.242   7.924  12.661
10237TIP3   OH254905   5.686   8.628  12.657
10237TIP3    H154906   5.798   8.606  12.674
10237TIP3    H254907   5.692   8.644  12.561
10238TIP3   OH254908   6.533   6.802  12.167
10238TIP3    H154909   6.424   6.817  12.202
10238TIP3    H254910   6.568   6.912  12.153
10239TIP3   OH254911   5.066   7.832  12.313
10239TIP3    H154912   5.036   7.934  12.271
10239TIP3    H254913   5.005   7.757  12.262
10240TIP3   OH254914   6.674   8.540  11.989
10240TIP3    H154915   6.715   8.652  11.994
10240TIP3    H254916   6.774   8.479  12.003
10241TIP3   OH254917   5.657   9.024  12.289
10241TIP3    H154918   5.686   8.911  12.289
10241TIP3    H254919   5.687   9.047  12.380
10242TIP3   OH254920   5.017   8.772  12.507
10242TIP3    H154921   5.026   8.752  12.604
10242TIP3    H254922   4.902   8.767  12.498
10243TIP3   OH254923   6.103   8.800  12.037
10243TIP3    H154924   6.182   8.735  11.990
10243TIP3    H254925   6.146   8.804  12.128
10244TIP3   OH254926   6.140   8.854  12.296
10244TIP3    H154927   6.025   8.831  12.314
10244TIP3    H254928   6.184   8.806  12.376
10245TIP3   OH254929   5.179   6.932  12.879
10245TIP3    H154930   5.077   6.899  12.845
10245TIP3    H254931   5.144   7.010  12.945
10246TIP3   OH254932   5.754   7.198  11.970
10246TIP3    H154933   5.724   7.189  12.063
10246TIP3    H254934   5.682   7.118  11.931
10247TIP3   OH254935   5.225   7.508  12.520
10247TIP3    H154936   5.110   7.487  12.505
10247TIP3    H254937   5.270   7.474  12.434
10248TIP3   OH254938   5.866   7.621  12.405
10248TIP3    H154939   5.850   7.715  12.349
10248TIP3    H254940   5.971   7.586  12.375
10249TIP3   OH254941   5.281   7.196  11.879
10249TIP3    H154942   5.236   7.176  11.968
10249TIP3    H254943   5.238   7.300  11.851
10250TIP3   OH254944   4.562   7.194  12.618
10250TIP3    H154945   4.652   7.200  12.679
10250TIP3    H254946   4.613   7.171  12.533
10251TIP3   OH254947   4.655   7.284  12.131
10251TIP3    H154948   4.721   7.337  12.063
10251TIP3    H254949   4.583   7.372  12.155
10252TIP3   OH254950   5.582   7.205  12.596
10252TIP3    H154951   5.473   7.237  12.619
10252TIP3    H254952   5.616   7.159  12.680
10253TIP3   OH254953   4.914   7.418  12.500
10253TIP3    H154954   4.816   7.454  12.454
10253TIP3    H254955   4.927   7.304  12.471
10254TIP3   OH254956   5.341   7.446  12.272
10254TIP3    H154957   5.450   7.446  12.238
10254TIP3    H254958   5.288   7.526  12.216
10255TIP3   OH254959   5.204   7.592  12.031
10255TIP3    H154960   5.149   7.532  11.962
10255TIP3    H254961   5.292   7.639  11.980
10256TIP3   OH254962   5.621   7.568  12.828
10256TIP3    H154963   5.710   7.571  12.767
10256TIP3    H254964   5.662   7.604  12.913
10257TIP3   OH254965   5.010   7.124  12.458
10257TIP3    H154966   4.957   7.038  12.510
10257TIP3    H254967   5.087   7.063  12.408
10258TIP3   OH254968   5.605   8.089  12.275
10258TIP3    H154969   5.515   8.034  12.231
10258TIP3    H254970   5.548   8.144  12.348
10259TIP3   OH254971   6.031   7.296  12.072
10259TIP3    H154972   5.934   7.273  12.020
10259TIP3    H254973   6.017   7.409  12.097
10260TIP3   OH254974   6.089   7.568  12.191
10260TIP3    H154975   6.167   7.500  12.240
10260TIP3    H254976   6.161   7.608  12.123
10261TIP3   OH254977   4.990   8.017  12.804
10261TIP3    H154978   5.048   8.054  12.726
10261TIP3    H254979   4.963   7.910  12.774
10262TIP3   OH254980   5.827   8.267  12.140
10262TIP3    H154981   5.786   8.377  12.144
10262TIP3    H254982   5.746   8.204  12.189
10263TIP3   OH254983   6.713   7.514  12.196
10263TIP3    H154984   6.630   7.510  12.128
10263TIP3    H254985   6.726   7.630  12.208
10264TIP3   OH254986   6.463   8.575  12.210
10264TIP3    H154987   6.460   8.537  12.302
10264TIP3    H254988   6.548   8.513  12.168
10265TIP3   OH254989   5.269   8.446  12.590
10265TIP3    H154990   5.315   8.552  12.589
10265TIP3    H254991   5.165   8.456  12.548
10266TIP3   OH254992   4.822   7.871  12.021
10266TIP3    H154993   4.873   7.960  12.068
10266TIP3    H254994   4.706   7.889  12.036
10267TIP3   OH254995   5.447   8.192  12.487
10267TIP3    H154996   5.392   8.291  12.516
10267TIP3    H254997   5.406   8.120  12.556
10268TIP3   OH254998   5.372   8.764  12.450
10268TIP3    H154999   5.263   8.767  12.485
10268TIP3    H255000   5.424   8.858  12.491
10269TIP3   OH255001   6.785   8.836  12.024
10269TIP3    H155002   6.863   8.923  12.016
10269TIP3    H255003   6.683   8.894  12.035
10270TIP3   OH255004   5.497   8.482  11.852
10270TIP3    H155005   5.503   8.406  11.779
10270TIP3    H255006   5.441   8.419  11.918
10271TIP3   OH255007   5.370   8.412  12.120
10271TIP3    H155008   5.456   8.354  12.163
10271TIP3    H255009   5.402   8.524  12.141
10272TIP3   OH255010   4.978   8.092  12.166
10272TIP3    H155011   4.877   8.138  12.199
10272TIP3    H255012   5.038   8.186  12.140
10273TIP3   OH255013   6.005   7.097  12.288
10273TIP3    H155014   6.037   7.164  12.213
10273TIP3    H255015   6.061   7.147  12.364
10274TIP3   OH255016   5.699   8.563  12.123
10274TIP3    H155017   5.602   8.620  12.149
10274TIP3    H255018   5.771   8.615  12.188
10275TIP3   OH255019   5.660   7.368  12.342
10275TIP3    H155020   5.718   7.466  12.369
10275TIP3    H255021   5.616   7.333  12.428
10276TIP3   OH255022   5.730   7.001  12.424
10276TIP3    H155023   5.675   7.076  12.484
10276TIP3    H255024   5.818   7.064  12.383
10277TIP3   OH255025   5.429   8.731  12.190
10277TIP3    H155026   5.472   8.832  12.155
10277TIP3    H255027   5.429   8.749  12.288
10278TIP3   OH255028   5.213   7.129  12.138
10278TIP3    H155029   5.208   7.223  12.196
10278TIP3    H255030   5.324   7.096  12.155
10279TIP3   OH255031   5.029   8.389  12.026
10279TIP3    H155032   5.126   8.420  12.076
10279TIP3    H255033   5.080   8.327  11.955
10280TIP3   OH255034   4.806   7.528  11.955
10280TIP3    H155035   4.856   7.626  11.987
10280TIP3    H255036   4.723   7.572  11.897
10281TIP3   OH255037   4.746   8.512  12.412
10281TIP3    H155038   4.669   8.592  12.441
10281TIP3    H255039   4.802   8.574  12.345
10282TIP3   OH255040   5.749   8.695  11.864
10282TIP3    H155041   5.674   8.611  11.894
10282TIP3    H255042   5.849   8.635  11.861
10283TIP3   OH255043   6.308   8.630  11.886
10283TIP3    H155044   6.386   8.582  11.946
10283TIP3    H255045   6.373   8.652  11.806
10284TIP3   OH255046   5.228   8.161  11.874
10284TIP3    H155047   5.281   8.152  11.961
10284TIP3    H255048   5.315   8.129  11.814
10285TIP3   OH255049   5.902   8.308  11.880
10285TIP3    H155050   5.855   8.299  11.970
10285TIP3    H255051   5.886   8.197  11.849
10286TIP3   OH255052   5.352   7.945  12.140
10286TIP3    H155053   5.270   7.880  12.185
10286TIP3    H255054   5.392   7.870  12.073
10287TIP3   OH255055   5.488   7.741  11.931
10287TIP3    H155056   5.466   7.756  11.835
10287TIP3    H255057   5.603   7.723  11.933
10288TIP3   OH255058   6.599   7.992  11.879
10288TIP3    H155059   6.576   7.954  11.788
10288TIP3    H255060   6.586   8.108  11.866
10289TIP3   OH255061   5.491   8.983  12.006
10289TIP3    H155062   5.608   8.989  12.024
10289TIP3    H255063   5.470   9.096  12.002
10290TIP3   OH255064   4.686   8.342  12.003
10290TIP3    H155065   4.804   8.344  11.999
10290TIP3    H255066   4.658   8.284  11.920
10291TIP3   OH255067   4.519   8.976  12.456
10291TIP3    H155068   4.430   8.926  12.407
10291TIP3    H255069   4.524   8.908  12.536
10292TIP3   OH255070   4.630   8.762  12.650
10292TIP3    H155071   4.698   8.674  12.675
10292TIP3    H255072   4.597   8.795  12.738
10293TIP3   OH255073   6.745   7.846  12.103
10293TIP3    H155074   6.671   7.883  12.033
10293TIP3    H255075   6.730   7.920  12.176
10294TIP3   OH255076   6.515   7.498  11.942
10294TIP3    H155077   6.552   7.570  11.874
10294TIP3    H255078   6.497   7.403  11.887
10295TIP3   OH255079   4.674   7.973  12.941
10295TIP3    H155080   4.601   7.957  12.866
10295TIP3    H255081   4.754   7.894  12.920
10296TIP3   OH255082   6.479   7.192  11.828
10296TIP3    H155083   6.526   7.148  11.910
10296TIP3    H255084   6.365   7.176  11.841
10297TIP3   OH255085   6.370   7.441  12.308
10297TIP3    H155086   6.414   7.333  12.309
10297TIP3    H255087   6.458   7.501  12.345
10298TIP3   OH255088   6.523   7.111  12.354
10298TIP3    H155089   6.535   7.062  12.442
10298TIP3    H255090   6.433   7.051  12.319
10299TIP3   OH255091   4.501   7.506  12.941
10299TIP3    H155092   4.558   7.403  12.951
10299TIP3    H255093   4.582   7.561  12.888
10300TIP3   OH255094   6.680   7.079  12.044
10300TIP3    H155095   6.726   7.019  11.969
10300TIP3    H255096   6.760   7.164  12.059
10301TIP3   OH255097   4.579   7.099  12.349
10301TIP3    H155098   4.464   7.110  12.342
10301TIP3    H255099   4.610   7.154  12.266
10302TIP3   OH255100   6.371   8.852  12.546
10302TIP3    H155101   6.443   8.868  12.471
10302TIP3    H255102   6.398   8.944  12.602
10303TIP3   OH255103   5.006   8.664  12.754
10303TIP3    H155104   5.011   8.550  12.781
10303TIP3    H255105   5.100   8.702  12.803
10304TIP3   OH255106   5.341   8.719  12.818
10304TIP3    H155107   5.411   8.626  12.809
10304TIP3    H255108   5.388   8.770  12.897
10305TIP3   OH255109   6.629   6.919  12.593
10305TIP3    H155110   6.710   6.856  12.550
10305TIP3    H255111   6.692   7.015  12.613
10306TIP3   OH255112   4.890   6.857  12.545
10306TIP3    H155113   4.796   6.836  12.491
10306TIP3    H255114   4.931   6.749  12.561
10307TIP3   OH255115   4.730   6.830  12.118
10307TIP3    H155116   4.766   6.916  12.057
10307TIP3    H255117   4.649   6.887  12.170
10308TIP3   OH255118   5.388   6.797  12.549
10308TIP3    H155119   5.491   6.802  12.506
10308TIP3    H255120   5.414   6.817  12.642
10309TIP3   OH255121   6.260   6.884  12.311
10309TIP3    H155122   6.164   6.948  12.293
10309TIP3    H255123   6.211   6.780  12.335
10310TIP3   OH255124   4.694   8.749  12.225
10310TIP3    H155125   4.613   8.761  12.155
10310TIP3    H255126   4.661   8.838  12.281
10311TIP3   OH255127   4.891   7.084  11.969
10311TIP3    H155128   4.975   7.025  11.921
10311TIP3    H255129   4.945   7.105  12.053
10312TIP3   OH255130   5.544   7.099  12.218
10312TIP3    H155131   5.600   7.033  12.285
10312TIP3    H255132   5.580   7.206  12.245
10313TIP3   OH255133   5.812   8.964  12.001
10313TIP3    H155134   5.917   8.917  12.019
10313TIP3    H255135   5.760   8.868  11.962
10314TIP3   OH255136   6.604   8.856  12.309
10314TIP3    H155137   6.571   8.755  12.266
10314TIP3    H255138   6.588   8.934  12.237
10315TIP3   OH255139   4.855   8.813  11.894
10315TIP3    H155140   4.819   8.813  11.987
10315TIP3    H255141   4.966   8.779  11.903
10316TIP3   OH255142   8.250   8.035  12.515
10316TIP3    H155143   8.209   8.098  12.588
10316TIP3    H255144   8.168   8.045  12.447
10317TIP3   OH255145   8.088   7.841  12.856
10317TIP3    H155146   8.100   7.817  12.950
10317TIP3    H255147   8.130   7.742  12.819
10318TIP3   OH255148   7.073   7.847  12.629
10318TIP3    H155149   7.012   7.762  12.673
10318TIP3    H255150   6.991   7.895  12.572
10319TIP3   OH255151   7.499   7.253  12.700
10319TIP3    H155152   7.477   7.349  12.646
10319TIP3    H255153   7.423   7.176  12.661
10320TIP3   OH255154   8.405   7.324  12.518
10320TIP3    H155155   8.459   7.258  12.586
10320TIP3    H255156   8.492   7.384  12.477
10321TIP3   OH255157   7.056   7.537  12.757
10321TIP3    H155158   7.145   7.487  12.802
10321TIP3    H255159   7.073   7.500  12.665
10322TIP3   OH255160   8.554   7.171  12.718
10322TIP3    H155161   8.468   7.135  12.778
10322TIP3    H255162   8.615   7.242  12.778
10323TIP3   OH255163   6.972   8.203  12.262
10323TIP3    H155164   6.926   8.249  12.181
10323TIP3    H255165   6.989   8.297  12.319
10324TIP3   OH255166   8.041   7.874  12.278
10324TIP3    H155167   7.979   7.970  12.254
10324TIP3    H255168   8.146   7.901  12.235
10325TIP3   OH255169   8.062   7.774  11.981
10325TIP3    H155170   8.159   7.819  12.021
10325TIP3    H255171   8.089   7.660  11.982
10326TIP3   OH255172   8.500   7.859  12.398
10326TIP3    H155173   8.430   7.945  12.430
10326TIP3    H255174   8.573   7.841  12.472
10327TIP3   OH255175   7.634   8.443  12.836
10327TIP3    H155176   7.650   8.368  12.764
10327TIP3    H255177   7.690   8.392  12.910
10328TIP3   OH255178   8.328   7.852  12.153
10328TIP3    H155179   8.410   7.812  12.215
10328TIP3    H255180   8.395   7.880  12.074
10329TIP3   OH255181   8.819   6.794  12.159
10329TIP3    H155182   8.713   6.815  12.200
10329TIP3    H255183   8.848   6.902  12.130
10330TIP3   OH255184   7.333   7.837  12.336
10330TIP3    H155185   7.298   7.940  12.297
10330TIP3    H255186   7.243   7.771  12.312
10331TIP3   OH255187   8.948   8.532  11.986
10331TIP3    H155188   8.963   8.648  11.999
10331TIP3    H255189   9.055   8.500  12.014
10332TIP3   OH255190   6.833   8.537  12.923
10332TIP3    H155191   6.941   8.492  12.908
10332TIP3    H255192   6.854   8.576  13.013
10333TIP3   OH255193   7.261   8.791  12.512
10333TIP3    H155194   7.248   8.780  12.608
10333TIP3    H255195   7.220   8.690  12.476
10334TIP3   OH255196   8.370   8.849  12.066
10334TIP3    H155197   8.419   8.770  12.006
10334TIP3    H255198   8.364   8.785  12.147
10335TIP3   OH255199   8.478   7.996  11.954
10335TIP3    H155200   8.465   7.970  11.859
10335TIP3    H255201   8.596   7.991  11.955
10336TIP3   OH255202   8.017   7.192  11.983
10336TIP3    H155203   7.984   7.162  12.072
10336TIP3    H255204   7.940   7.127  11.933
10337TIP3   OH255205   7.466   7.525  12.547
10337TIP3    H155206   7.363   7.519  12.503
10337TIP3    H255207   7.537   7.511  12.469
10338TIP3   OH255208   8.168   7.646  12.411
10338TIP3    H155209   8.147   7.738  12.350
10338TIP3    H255210   8.250   7.594  12.356
10339TIP3   OH255211   8.184   7.547  12.656
10339TIP3    H155212   8.186   7.588  12.565
10339TIP3    H255213   8.267   7.465  12.646
10340TIP3   OH255214   7.576   7.241  11.908
10340TIP3    H155215   7.519   7.187  11.981
10340TIP3    H255216   7.488   7.290  11.858
10341TIP3   OH255217   6.847   7.165  12.609
10341TIP3    H155218   6.872   7.278  12.622
10341TIP3    H255219   6.889   7.145  12.519
10342TIP3   OH255220   6.923   7.286  12.141
10342TIP3    H155221   6.988   7.333  12.069
10342TIP3    H255222   6.850   7.378  12.157
10343TIP3   OH255223   7.842   7.232  12.619
10343TIP3    H155224   7.733   7.207  12.648
10343TIP3    H255225   7.883   7.279  12.702
10344TIP3   OH255226   7.112   7.420  12.497
10344TIP3    H155227   7.051   7.421  12.415
10344TIP3    H255228   7.170   7.316  12.487
10345TIP3   OH255229   7.609   7.482  12.301
10345TIP3    H155230   7.706   7.450  12.256
10345TIP3    H255231   7.547   7.528  12.228
10346TIP3   OH255232   7.456   7.590  12.036
10346TIP3    H155233   7.422   7.518  11.965
10346TIP3    H255234   7.555   7.630  11.997
10347TIP3   OH255235   7.931   7.506  12.819
10347TIP3    H155236   8.030   7.507  12.766
10347TIP3    H255237   7.980   7.508  12.908
10348TIP3   OH255238   7.276   7.148  12.480
10348TIP3    H155239   7.210   7.064  12.522
10348TIP3    H255240   7.350   7.081  12.431
10349TIP3   OH255241   7.862   8.143  12.255
10349TIP3    H155242   7.771   8.096  12.206
10349TIP3    H255243   7.811   8.164  12.343
10350TIP3   OH255244   8.324   7.260  12.075
10350TIP3    H155245   8.222   7.276  12.029
10350TIP3    H255246   8.366   7.369  12.077
10351TIP3   OH255247   8.386   7.536  12.222
10351TIP3    H155248   8.491   7.508  12.257
10351TIP3    H255249   8.420   7.596  12.142
10352TIP3   OH255250   8.070   8.317  12.087
10352TIP3    H155251   8.093   8.406  12.147
10352TIP3    H255252   8.006   8.251  12.148
10353TIP3   OH255253   8.946   7.584  12.188
10353TIP3    H155254   8.932   7.525  12.104
10353TIP3    H255255   8.966   7.691  12.148
10354TIP3   OH255256   8.740   8.522  12.225
10354TIP3    H155257   8.660   8.440  12.241
10354TIP3    H255258   8.800   8.484  12.148
10355TIP3   OH255259   7.559   8.501  12.508
10355TIP3    H155260   7.576   8.592  12.565
10355TIP3    H255261   7.445   8.504  12.493
10356TIP3   OH255262   7.081   7.879  12.006
10356TIP3    H155263   7.138   7.948  12.071
10356TIP3    H255264   6.970   7.889  12.034
10357TIP3   OH255265   7.697   8.202  12.478
10357TIP3    H155266   7.680   8.318  12.468
10357TIP3    H255267   7.637   8.182  12.557
10358TIP3   OH255268   8.497   8.344  12.021
10358TIP3    H155269   8.515   8.305  12.113
10358TIP3    H255270   8.389   8.304  12.013
10359TIP3   OH255271   9.041   8.827  12.049
10359TIP3    H155272   9.118   8.912  12.045
10359TIP3    H255273   8.940   8.886  12.035
10360TIP3   OH255274   8.581   8.198  12.243
10360TIP3    H155275   8.526   8.099  12.224
10360TIP3    H255276   8.692   8.166  12.222
10361TIP3   OH255277   7.774   8.464  11.848
10361TIP3    H155278   7.782   8.363  11.801
10361TIP3    H255279   7.698   8.435  11.918
10362TIP3   OH255280   7.642   8.431  12.127
10362TIP3    H155281   7.728   8.363  12.158
10362TIP3    H255282   7.674   8.531  12.169
10363TIP3   OH255283   7.237   8.072  12.163
10363TIP3    H155284   7.138   8.125  12.192
10363TIP3    H255285   7.292   8.159  12.118
10364TIP3   OH255286   8.234   7.164  12.321
10364TIP3    H155287   8.274   7.196  12.233
10364TIP3    H255288   8.306   7.223  12.382
10365TIP3   OH255289   7.951   7.387  12.408
10365TIP3    H155290   8.062   7.350  12.423
10365TIP3    H255291   7.900   7.327  12.482
10366TIP3   OH255292   7.991   6.990  12.435
10366TIP3    H155293   7.952   7.060  12.507
10366TIP3    H255294   8.081   7.052  12.400
10367TIP3   OH255295   7.481   7.126  12.139
10367TIP3    H155296   7.456   7.212  12.200
10367TIP3    H255297   7.595   7.108  12.156
10368TIP3   OH255298   7.262   8.374  12.026
10368TIP3    H155299   7.331   8.423  12.093
10368TIP3    H255300   7.342   8.328  11.964
10369TIP3   OH255301   7.068   7.529  11.957
10369TIP3    H155302   7.118   7.630  11.985
10369TIP3    H255303   6.974   7.565  11.908
10370TIP3   OH255304   7.206   6.877  12.835
10370TIP3    H155305   7.187   6.884  12.740
10370TIP3    H255306   7.186   6.767  12.855
10371TIP3   OH255307   7.078   8.510  12.400
10371TIP3    H155308   7.008   8.522  12.476
10371TIP3    H255309   7.025   8.581  12.334
10372TIP3   OH255310   8.009   8.695  11.875
10372TIP3    H155311   7.949   8.593  11.881
10372TIP3    H255312   8.118   8.657  11.855
10373TIP3   OH255313   8.546   8.646  11.898
10373TIP3    H155314   8.603   8.566  11.950
10373TIP3    H255315   8.603   8.638  11.812
10374TIP3   OH255316   7.471   8.180  11.865
10374TIP3    H155317   7.511   8.116  11.939
10374TIP3    H255318   7.562   8.166  11.803
10375TIP3   OH255319   8.107   8.306  11.801
10375TIP3    H155320   8.077   8.310  11.895
10375TIP3    H255321   8.118   8.190  11.792
10376TIP3   OH255322   7.616   7.950  12.123
10376TIP3    H155323   7.535   7.878  12.160
10376TIP3    H255324   7.670   7.879  12.060
10377TIP3   OH255325   7.747   7.748  11.932
10377TIP3    H155326   7.705   7.789  11.848
10377TIP3    H255327   7.862   7.775  11.921
10378TIP3   OH255328   8.810   7.984  11.876
10378TIP3    H155329   8.789   7.936  11.789
10378TIP3    H255330   8.840   8.093  11.855
10379TIP3   OH255331   6.940   8.333  12.006
10379TIP3    H155332   7.057   8.346  12.005
10379TIP3    H255333   6.922   8.266  11.927
10380TIP3   OH255334   6.797   9.036  12.485
10380TIP3    H155335   6.726   9.005  12.411
10380TIP3    H255336   6.803   8.933  12.531
10381TIP3   OH255337   6.905   8.736  12.664
10381TIP3    H155338   6.880   8.640  12.716
10381TIP3    H255339   6.937   8.808  12.734
10382TIP3   OH255340   8.922   8.124  12.236
10382TIP3    H155341   8.987   8.209  12.273
10382TIP3    H255342   8.930   8.038  12.302
10383TIP3   OH255343   8.954   7.892  12.466
10383TIP3    H155344   8.854   7.840  12.491
10383TIP3    H255345   8.992   7.930  12.553
10384TIP3   OH255346   9.024   7.861  12.080
10384TIP3    H155347   8.940   7.873  12.013
10384TIP3    H255348   9.001   7.952  12.138
10385TIP3   OH255349   8.892   7.433  11.940
10385TIP3    H155350   8.809   7.514  11.965
10385TIP3    H255351   8.831   7.379  11.869
10386TIP3   OH255352   8.710   7.700  12.566
10386TIP3    H155353   8.722   7.621  12.493
10386TIP3    H255354   8.659   7.637  12.635
10387TIP3   OH255355   6.979   7.912  12.916
10387TIP3    H155356   6.904   7.944  12.849
10387TIP3    H255357   6.983   8.000  12.978
10388TIP3   OH255358   8.704   7.171  11.838
10388TIP3    H155359   8.698   7.180  11.935
10388TIP3    H255360   8.590   7.171  11.817
10389TIP3   OH255361   8.680   7.436  12.364
10389TIP3    H155362   8.695   7.320  12.355
10389TIP3    H255363   8.758   7.471  12.297
10390TIP3   OH255364   8.675   7.445  12.877
10390TIP3    H155365   8.788   7.469  12.897
10390TIP3    H255366   8.628   7.442  12.967
10391TIP3   OH255367   8.700   7.088  12.380
10391TIP3    H155368   8.730   7.092  12.473
10391TIP3    H255369   8.672   6.974  12.372
10392TIP3   OH255370   8.983   7.082  12.043
10392TIP3    H155371   9.046   7.020  11.979
10392TIP3    H255372   8.981   7.189  12.002
10393TIP3   OH255373   6.851   7.072  12.336
10393TIP3    H155374   6.733   7.074  12.334
10393TIP3    H255375   6.871   7.145  12.261
10394TIP3   OH255376   7.687   8.765  12.851
10394TIP3    H155377   7.690   8.648  12.841
10394TIP3    H255378   7.592   8.782  12.905
10395TIP3   OH255379   8.689   6.872  12.737
10395TIP3    H155380   8.598   6.923  12.691
10395TIP3    H255381   8.633   6.817  12.808
10396TIP3   OH255382   7.154   6.866  12.557
10396TIP3    H155383   7.057   6.866  12.503
10396TIP3    H255384   7.192   6.756  12.544
10397TIP3   OH255385   6.995   6.838  12.120
10397TIP3    H155386   7.038   6.910  12.052
10397TIP3    H255387   6.948   6.913  12.183
10398TIP3   OH255388   7.674   6.830  12.581
10398TIP3    H155389   7.774   6.824  12.532
10398TIP3    H255390   7.709   6.847  12.672
10399TIP3   OH255391   8.347   6.856  12.594
10399TIP3    H155392   8.296   6.824  12.511
10399TIP3    H255393   8.320   6.768  12.654
10400TIP3   OH255394   8.536   6.833  12.283
10400TIP3    H155395   8.434   6.888  12.278
10400TIP3    H255396   8.498   6.727  12.316
10401TIP3   OH255397   6.971   8.735  12.230
10401TIP3    H155398   6.874   8.758  12.178
10401TIP3    H255399   7.025   8.837  12.217
10402TIP3   OH255400   7.156   7.091  11.988
10402TIP3    H155401   7.228   7.020  11.938
10402TIP3    H255402   7.222   7.117  12.066
10403TIP3   OH255403   7.818   7.120  12.224
10403TIP3    H155404   7.877   7.055  12.289
10403TIP3    H255405   7.849   7.226  12.250
10404TIP3   OH255406   8.881   8.844  12.310
10404TIP3    H155407   8.843   8.734  12.302
10404TIP3    H255408   8.826   8.896  12.236
10405TIP3   OH255409   7.216   8.912  11.918
10405TIP3    H155410   7.124   8.929  11.977
10405TIP3    H255411   7.266   8.821  11.961
10406TIP3   OH255412   9.066   7.565  12.444
10406TIP3    H155413   9.043   7.678  12.454
10406TIP3    H255414   9.024   7.548  12.353
10407TIP3   OH255415   9.001   9.070  12.513
10407TIP3    H155416   8.942   9.044  12.431
10407TIP3    H255417   8.993   8.963  12.553
10408TIP3   OH255418   9.037   8.761  12.675
10408TIP3    H155419   9.032   8.675  12.743
10408TIP3    H255420   9.056   8.851  12.732
10409TIP3   OH255421  -0.037   7.930  12.904
10409TIP3    H155422  -0.006   7.992  12.828
10409TIP3    H255423   0.034   7.973  12.973
10410TIP3   OH255424   9.017   7.552  12.888
10410TIP3    H155425   9.089   7.559  12.813
10410TIP3    H255426   9.058   7.634  12.948
10411TIP3   OH255427   9.024   7.130  12.316
10411TIP3    H155428   8.906   7.132  12.316
10411TIP3    H255429   9.049   7.123  12.221
10412TIP3   OH255430   1.980   9.010  12.084
10412TIP3    H155431   1.894   9.006  12.149
10412TIP3    H255432   2.003   9.125  12.091
10413TIP3   OH255433   0.281   9.060  12.586
10413TIP3    H155434   0.245   9.172  12.579
10413TIP3    H255435   0.362   9.065  12.656
10414TIP3   OH255436   1.884   8.996  12.728
10414TIP3    H155437   1.987   8.953  12.751
10414TIP3    H255438   1.897   9.110  12.743
10415TIP3   OH255439   0.379   8.983  12.329
10415TIP3    H155440   0.295   9.006  12.395
10415TIP3    H255441   0.475   9.017  12.376
10416TIP3   OH255442   0.224   9.061  12.097
10416TIP3    H155443   0.305   9.143  12.080
10416TIP3    H255444   0.248   9.037  12.191
10417TIP3   OH255445   1.739   9.076  12.269
10417TIP3    H155446   1.644   9.050  12.217
10417TIP3    H255447   1.721   9.001  12.343
10418TIP3   OH255448   3.179   8.945  12.768
10418TIP3    H155449   3.258   9.014  12.810
10418TIP3    H255450   3.082   8.950  12.823
10419TIP3   OH255451   4.210   9.006  12.101
10419TIP3    H155452   4.117   9.025  12.159
10419TIP3    H255453   4.240   9.119  12.086
10420TIP3   OH255454   4.156   8.952  12.768
10420TIP3    H155455   4.204   9.056  12.786
10420TIP3    H255456   4.043   8.984  12.773
10421TIP3   OH255457   2.590   9.044  12.440
10421TIP3    H155458   2.477   9.008  12.441
10421TIP3    H255459   2.639   8.962  12.494
10422TIP3   OH255460   2.480   9.031  12.132
10422TIP3    H155461   2.558   9.116  12.122
10422TIP3    H255462   2.413   9.086  12.196
10423TIP3   OH255463   3.034   9.090  12.541
10423TIP3    H155464   3.118   9.158  12.502
10423TIP3    H255465   3.086   9.054  12.623
10424TIP3   OH255466   3.871   9.070  12.707
10424TIP3    H155467   3.798   9.102  12.636
10424TIP3    H255468   3.806   8.998  12.762
10425TIP3   OH255469   3.937   9.085  12.253
10425TIP3    H155470   3.850   9.047  12.197
10425TIP3    H255471   3.943   8.999  12.320
10426TIP3   OH255472   5.588   9.060  12.783
10426TIP3    H155473   5.622   8.983  12.715
10426TIP3    H255474   5.557   8.989  12.855
10427TIP3   OH255475   6.523   9.008  12.061
10427TIP3    H155476   6.434   9.001  12.124
10427TIP3    H255477   6.559   9.118  12.081
10428TIP3   OH255478   5.381   8.965  13.009
10428TIP3    H155479   5.288   8.933  12.956
10428TIP3    H255480   5.328   9.041  13.067
10429TIP3   OH255481   4.676   9.107  12.875
10429TIP3    H155482   4.691   9.127  12.780
10429TIP3    H255483   4.734   9.007  12.884
10430TIP3   OH255484   4.754   9.103  12.608
10430TIP3    H155485   4.666   9.073  12.548
10430TIP3    H255486   4.843   9.116  12.548
10431TIP3   OH255487   4.627   9.138  12.126
10431TIP3    H155488   4.627   9.211  12.051
10431TIP3    H255489   4.601   9.209  12.200
10432TIP3   OH255490   5.490   9.070  12.521
10432TIP3    H155491   5.503   9.176  12.479
10432TIP3    H255492   5.473   9.101  12.613
10433TIP3   OH255493   6.323   9.110  12.269
10433TIP3    H155494   6.254   9.150  12.197
10433TIP3    H255495   6.251   9.026  12.304
10434TIP3   OH255496   7.759   9.154  12.777
10434TIP3    H155497   7.805   9.046  12.774
10434TIP3    H255498   7.667   9.133  12.834
10435TIP3   OH255499   8.762   9.008  12.071
10435TIP3    H155500   8.672   8.986  12.132
10435TIP3    H255501   8.785   9.118  12.099
10436TIP3   OH255502   7.490   9.107  12.954
10436TIP3    H155503   7.390   9.084  12.907
10436TIP3    H255504   7.444   9.148  13.035
10437TIP3   OH255505   7.082   9.040  12.626
10437TIP3    H155506   6.980   9.046  12.578
10437TIP3    H255507   7.140   8.963  12.570
10438TIP3   OH255508   7.016   9.029  12.115
10438TIP3    H155509   7.076   9.118  12.077
10438TIP3    H255510   6.972   9.096  12.186
10439TIP3   OH255511   8.548   9.041  12.271
10439TIP3    H155512   8.478   9.122  12.234
10439TIP3    H255513   8.474   8.981  12.328
   9.21659   9.21659  30.00000
