Title
55513
    1DOPE     N    1   3.073   4.586   7.366  0.2305 -0.1202  0.3439
    1DOPE   HN1    2   3.038   4.580   7.268  0.2467  0.3445  0.3034
    1DOPE   HN2    3   3.045   4.677   7.408  1.5386 -0.7713  2.8098
    1DOPE   HN3    4   3.177   4.582   7.362  0.2114  0.1162 -0.7933
    1DOPE   C12    5   3.022   4.477   7.455 -0.0467  0.4484 -0.8201
    1DOPE  H12A    6   2.918   4.506   7.483  0.7847  2.1839  0.7219
    1DOPE  H12B    7   3.067   4.492   7.555 -2.5435 -0.9724  0.6182
    1DOPE   C11    8   3.057   4.332   7.413  0.2212  0.0343 -0.1176
    1DOPE  H11A    9   3.027   4.262   7.494 -1.0145  0.8689  0.1688
    1DOPE  H11B   10   3.168   4.324   7.420  0.5294  3.2204  0.3103
    1DOPE     P   11   2.857   4.261   7.277 -0.1146  0.3428  0.4725
    1DOPE   O13   12   2.775   4.365   7.344  0.2276  0.1519 -0.1668
    1DOPE   O14   13   2.840   4.122   7.327  0.1611 -0.1618  0.9320
    1DOPE   O11   14   2.824   4.259   7.117  0.0329 -0.2375  0.7640
    1DOPE   O12   15   3.009   4.297   7.286 -0.6820  0.1139 -0.1035
    1DOPE    C1   16   2.781   4.143   7.052 -0.9851 -0.0079 -0.4182
    1DOPE    HA   17   2.689   4.099   7.096  0.1057 -0.4436  1.5192
    1DOPE    HB   18   2.862   4.068   7.067 -1.2829  0.0968  2.0381
    1DOPE    C2   19   2.738   4.162   6.902  0.3133  0.2546 -0.1976
    1DOPE    HS   20   2.685   4.068   6.875  0.4672  0.1885 -0.2724
    1DOPE   O21   21   2.846   4.190   6.810  0.1718  0.5365 -0.1706
    1DOPE   C21   22   2.932   4.095   6.776 -1.0076  0.1347  0.3519
    1DOPE   O22   23   2.931   3.978   6.807 -0.0394 -0.1047 -0.2309
    1DOPE   C22   24   3.019   4.150   6.667 -0.0106  0.5319  0.1021
    1DOPE   H2R   25   3.110   4.088   6.681 -0.9223 -1.3038 -1.6186
    1DOPE   H2S   26   3.048   4.251   6.705  1.9120 -0.6547  2.0435
    1DOPE    C3   27   2.631   4.276   6.898 -0.2617 -0.1588  0.3873
    1DOPE    HX   28   2.676   4.365   6.946 -1.1911 -0.3739  1.7008
    1DOPE    HY   29   2.536   4.259   6.953 -0.1828  1.8841  1.2366
    1DOPE   O31   30   2.586   4.297   6.761 -0.8542  0.3368 -0.2321
    1DOPE   C31   31   2.630   4.410   6.701  0.0856  0.7878 -0.2824
    1DOPE   O32   32   2.692   4.496   6.758 -0.0751 -0.2692  0.1525
    1DOPE   C32   33   2.575   4.411   6.560 -0.9648 -0.2350 -0.0382
    1DOPE   H2X   34   2.629   4.333   6.502 -0.5226 -0.5881  0.8394
    1DOPE   H2Y   35   2.468   4.384   6.565 -0.4560 -2.2781  0.7543
    1DOPE   C23   36   2.966   4.128   6.519  0.0179  0.7069 -0.2354
    1DOPE   H3R   37   2.873   4.189   6.513  0.1468  0.7839 -2.1772
    1DOPE   H3S   38   2.941   4.021   6.506 -0.1103  0.6821  0.2094
    1DOPE   C24   39   3.061   4.186   6.412  0.2811 -0.1280 -0.2448
    1DOPE   H4R   40   3.028   4.167   6.308 -1.3629  1.2291 -0.0165
    1DOPE   H4S   41   3.163   4.145   6.428  1.3132  2.3032 -0.1783
    1DOPE   C25   42   3.080   4.345   6.412  0.3050  0.5668  0.5795
    1DOPE   H5R   43   3.159   4.351   6.334 -0.1300  0.6399  0.1389
    1DOPE   H5S   44   3.122   4.360   6.513  2.1696 -0.3115 -0.0143
    1DOPE   C26   45   2.955   4.424   6.392 -0.5503  0.3561  0.0767
    1DOPE   H6R   46   2.992   4.529   6.385  0.1634  0.0014 -2.5023
    1DOPE   H6S   47   2.887   4.410   6.479  0.5671 -1.5059  0.6933
    1DOPE   C27   48   2.879   4.392   6.259  0.2692 -0.2323 -0.4177
    1DOPE   H7R   49   2.816   4.481   6.234 -0.7468 -0.9081 -0.3102
    1DOPE   H7S   50   2.824   4.296   6.265  2.0953 -1.2493  1.3636
    1DOPE   C28   51   2.972   4.376   6.141 -0.2412 -0.0134  0.7616
    1DOPE   H8R   52   3.035   4.286   6.154 -1.5571 -1.4362 -1.8243
    1DOPE   H8S   53   3.047   4.458   6.143  1.0411 -1.1705  1.1968
    1DOPE   C29   54   2.898   4.355   6.004  0.1640 -0.3818  0.4438
    1DOPE   H9R   55   2.850   4.258   5.986  1.5708 -1.2936  1.4006
    1DOPE  C210   56   2.863   4.453   5.920 -0.5922  0.3422  0.4803
    1DOPE  H10R   57   2.826   4.428   5.819  0.3535  0.0738  0.1865
    1DOPE  C211   58   2.902   4.601   5.934 -0.2549 -0.3189 -0.6280
    1DOPE  H11R   59   2.936   4.616   6.038 -2.3015 -1.5357  0.2676
    1DOPE  H11S   60   2.811   4.661   5.915  0.3521  0.9681  0.4554
    1DOPE  C212   61   2.992   4.651   5.820  0.4361  0.6243 -0.4453
    1DOPE  H12R   62   2.959   4.626   5.717  0.5945  0.6894 -0.5123
    1DOPE  H12S   63   3.090   4.598   5.822  0.1004 -0.0375 -1.2539
    1DOPE  C213   64   3.022   4.802   5.845 -0.0013 -0.0412  0.8361
    1DOPE  H13R   65   2.927   4.861   5.838  1.2294  2.1120  1.2948
    1DOPE  H13S   66   3.093   4.844   5.770 -0.1317 -1.7087 -0.2865
    1DOPE  C214   67   3.085   4.842   5.980  0.3797  0.1991  0.4139
    1DOPE  H14R   68   2.998   4.836   6.049  0.7720  2.1565  1.1441
    1DOPE  H14S   69   3.123   4.946   5.982 -0.3260  0.6113 -2.6755
    1DOPE  C215   70   3.198   4.749   6.028 -0.0812  0.3931 -0.5862
    1DOPE  H15R   71   3.275   4.744   5.947  0.7537  1.1281  0.1372
    1DOPE  H15S   72   3.148   4.651   6.042 -0.9028  0.8379 -0.3812
    1DOPE  C216   73   3.264   4.803   6.161 -0.2758 -0.0513 -0.2282
    1DOPE  H16R   74   3.284   4.912   6.152 -1.1857  0.1207 -0.2235
    1DOPE  H16S   75   3.356   4.746   6.184 -1.5013 -1.4605  1.4636
    1DOPE  C217   76   3.166   4.789   6.275 -0.3470 -0.2130 -0.4098
    1DOPE  H17R   77   3.105   4.696   6.273  0.3978 -0.7179 -0.1746
    1DOPE  H17S   78   3.097   4.876   6.273  1.7651  1.7200  2.6377
    1DOPE  C218   79   3.249   4.803   6.410 -0.0893 -0.0343 -0.8257
    1DOPE  H18R   80   3.320   4.721   6.434 -1.6596 -1.3889 -0.5645
    1DOPE  H18S   81   3.179   4.797   6.497  0.9292  0.6981  0.0654
    1DOPE  H18T   82   3.287   4.907   6.420  1.0058 -0.3525 -1.5621
    1DOPE   C33   83   2.585   4.557   6.501 -0.1448  0.1589  0.0292
    1DOPE   H3X   84   2.691   4.586   6.516 -0.4215  1.3790 -0.2490
    1DOPE   H3Y   85   2.530   4.638   6.555 -2.1371  0.1867 -1.8809
    1DOPE   C34   86   2.534   4.557   6.356  0.4119 -0.6168  1.0577
    1DOPE   H4X   87   2.606   4.490   6.303  0.0083 -1.0456  1.0465
    1DOPE   H4Y   88   2.429   4.522   6.362  0.9332 -2.7976 -1.0587
    1DOPE   C35   89   2.535   4.696   6.289 -0.3478 -0.2054  0.2668
    1DOPE   H5X   90   2.634   4.746   6.288 -0.3828 -0.0816  1.6300
    1DOPE   H5Y   91   2.466   4.768   6.336 -1.0100  0.6936 -1.9478
    1DOPE   C36   92   2.482   4.697   6.139 -0.0803 -0.8757  0.4035
    1DOPE   H6X   93   2.529   4.614   6.082  0.5160 -0.6186  0.5138
    1DOPE   H6Y   94   2.514   4.791   6.090 -0.3112 -0.7099  0.5690
    1DOPE   C37   95   2.331   4.691   6.138  0.5067  0.2531  0.1832
    1DOPE   H7X   96   2.294   4.607   6.201 -1.6605  0.5256 -0.6227
    1DOPE   H7Y   97   2.292   4.784   6.185 -2.4072  0.1234 -1.7041
    1DOPE   C38   98   2.260   4.678   5.999  0.6594  0.8992 -0.0218
    1DOPE   H8X   99   2.265   4.776   5.946 -1.7394  0.2872 -1.4929
    1DOPE   H8Y  100   2.155   4.647   6.015  0.9291  0.3838  0.7907
    1DOPE   C39  101   2.314   4.566   5.913  0.3496  0.1477 -0.0479
    1DOPE   H9X  102   2.297   4.469   5.963 -1.6426  0.8185  0.6894
    1DOPE  C310  103   2.385   4.586   5.801  0.1124  0.4456 -0.6457
    1DOPE  H10X  104   2.423   4.492   5.758 -0.4260 -0.3795  0.5968
    1DOPE  C311  105   2.413   4.705   5.710  0.2723  0.8855 -0.7474
    1DOPE  H11X  106   2.424   4.658   5.610  0.4936 -0.3004 -0.1841
    1DOPE  H11Y  107   2.322   4.769   5.709 -1.1789 -1.0421  0.7266
    1DOPE  C312  108   2.541   4.783   5.747 -0.1955 -0.7635 -0.2057
    1DOPE  H12X  109   2.619   4.711   5.780  0.9361 -0.6721 -2.4505
    1DOPE  H12Y  110   2.529   4.843   5.839 -2.4082 -3.3298  1.3055
    1DOPE  C313  111   2.614   4.855   5.624  1.1294 -0.4146  0.3473
    1DOPE  H13X  112   2.562   4.948   5.592 -1.3067 -2.3040 -1.6275
    1DOPE  H13Y  113   2.708   4.879   5.677  0.3944 -0.7911  1.8758
    1DOPE  C314  114   2.640   4.766   5.498 -0.5376 -0.3702 -0.0376
    1DOPE  H14X  115   2.553   4.764   5.429  0.7528  0.0955 -1.7471
    1DOPE  H14Y  116   2.658   4.668   5.548  1.0970  0.6957  1.5833
    1DOPE  C315  117   2.766   4.812   5.423  1.1764 -0.8587  0.3545
    1DOPE  H15X  118   2.850   4.818   5.494  0.6295 -0.3787  0.9736
    1DOPE  H15Y  119   2.747   4.917   5.390  1.5231 -0.6305  0.8831
    1DOPE  C316  120   2.797   4.719   5.306  0.2037  0.4360 -0.1003
    1DOPE  H16X  121   2.703   4.700   5.250  0.4536  2.5545 -1.3524
    1DOPE  H16Y  122   2.830   4.620   5.345  2.5804  0.5822 -1.5467
    1DOPE  C317  123   2.913   4.764   5.229 -1.1029  0.3912  0.7671
    1DOPE  H17X  124   3.003   4.791   5.289  0.2603 -1.6655 -0.2485
    1DOPE  H17Y  125   2.946   4.683   5.161 -0.1938  1.4268 -0.0520
    1DOPE  C318  126   2.876   4.885   5.148 -0.6134  0.3844 -0.4457
    1DOPE  H18X  127   2.775   4.872   5.106 -0.2687 -0.2523 -1.0858
    1DOPE  H18Y  128   2.886   4.980   5.206  0.1493 -0.1808  0.3772
    1DOPE  H18Z  129   2.940   4.897   5.058  0.8012 -0.7905  0.3590
    2DOPE     N  130   3.827   4.657   7.210 -0.5282  0.2076  0.1194
    2DOPE   HN1  131   3.850   4.598   7.292  1.6771  0.7081 -0.0636
    2DOPE   HN2  132   3.903   4.638   7.141 -2.2530  0.7047 -2.0202
    2DOPE   HN3  133   3.819   4.760   7.218 -1.1266  0.3662 -1.8755
    2DOPE   C12  134   3.709   4.601   7.136  0.2834 -0.1374 -0.1974
    2DOPE  H12A  135   3.666   4.530   7.210  0.5833  0.4898  0.5900
    2DOPE  H12B  136   3.754   4.557   7.044  1.0365 -0.9228  0.5318
    2DOPE   C11  137   3.605   4.706   7.101  0.5530  0.0322  0.5455
    2DOPE  H11A  138   3.510   4.659   7.069 -0.3259  0.2811  2.6274
    2DOPE  H11B  139   3.639   4.767   7.014  0.5657  0.2046  0.6700
    2DOPE     P  140   3.631   4.930   7.240 -0.5480  0.3208 -0.0160
    2DOPE   O13  141   3.768   4.901   7.287  0.1950  0.2455  0.8933
    2DOPE   O14  142   3.543   5.010   7.331 -0.5987 -0.4928 -0.2040
    2DOPE   O11  143   3.632   5.003   7.098  0.0245  0.4011  0.7458
    2DOPE   O12  144   3.566   4.789   7.212 -0.1374  0.3355  0.1451
    2DOPE    C1  145   3.499   5.005   7.047  0.0095  0.8403  0.2568
    2DOPE    HA  146   3.430   5.076   7.097 -0.1078  0.3348  0.8316
    2DOPE    HB  147   3.457   4.902   7.040  1.3036  0.1793  1.5401
    2DOPE    C2  148   3.503   5.062   6.894 -0.0130 -0.8137  0.0443
    2DOPE    HS  149   3.403   5.086   6.852  0.8727  0.6439 -1.3340
    2DOPE   O21  150   3.573   4.982   6.802 -0.0277  0.1602 -0.8359
    2DOPE   C21  151   3.518   4.865   6.768  0.3039 -0.1086  0.1525
    2DOPE   O22  152   3.399   4.831   6.773 -0.1802 -0.1014 -0.1249
    2DOPE   C22  153   3.632   4.779   6.712  0.1552  0.1082  0.2038
    2DOPE   H2R  154   3.600   4.679   6.679  1.3802  0.3121 -1.7399
    2DOPE   H2S  155   3.706   4.761   6.794 -1.8847  0.1294  2.1324
    2DOPE    C3  156   3.576   5.196   6.884  0.3700  0.1100 -0.6826
    2DOPE    HX  157   3.686   5.186   6.875  0.6899 -1.1513  2.8586
    2DOPE    HY  158   3.558   5.250   6.980  1.1226 -0.8376  0.0165
    2DOPE   O31  159   3.520   5.267   6.774  0.5085 -0.4141 -0.2634
    2DOPE   C31  160   3.553   5.396   6.765  0.0365  0.5721 -0.3639
    2DOPE   O32  161   3.644   5.439   6.833 -0.1293  0.0389  0.0681
    2DOPE   C32  162   3.467   5.464   6.652 -0.1772 -0.4361 -0.4274
    2DOPE   H2X  163   3.362   5.428   6.652 -0.5489  0.5923  0.5647
    2DOPE   H2Y  164   3.478   5.573   6.672 -0.2048 -0.1843 -1.6970
    2DOPE   C23  165   3.688   4.847   6.590 -0.0894 -1.0044 -0.1105
    2DOPE   H3R  166   3.778   4.797   6.549 -0.1576 -0.3308 -1.1181
    2DOPE   H3S  167   3.723   4.947   6.624  0.4152 -1.2024 -0.0361
    2DOPE   C24  168   3.579   4.873   6.481 -0.3516 -0.6605  0.9516
    2DOPE   H4R  169   3.485   4.920   6.520 -1.2192  0.2267 -1.9803
    2DOPE   H4S  170   3.555   4.777   6.432  0.4114 -1.2626  1.7220
    2DOPE   C25  171   3.645   4.951   6.370  0.5651 -0.2829  0.3493
    2DOPE   H5R  172   3.746   4.920   6.336  0.2573 -0.8172 -0.0938
    2DOPE   H5S  173   3.666   5.051   6.413 -3.2445  0.0380  1.9062
    2DOPE   C26  174   3.548   4.981   6.256 -0.0100 -0.0433 -0.0379
    2DOPE   H6R  175   3.468   5.048   6.293  1.0521  0.7454  0.9085
    2DOPE   H6S  176   3.520   4.882   6.213 -0.6730  0.1550 -0.0645
    2DOPE   C27  177   3.630   5.057   6.156  0.2908 -0.7076 -0.0471
    2DOPE   H7R  178   3.723   4.999   6.138 -0.9372 -2.4033 -1.2255
    2DOPE   H7S  179   3.659   5.156   6.199 -1.3227 -0.0359 -0.4144
    2DOPE   C28  180   3.551   5.069   6.024  0.0182  0.3260 -0.1874
    2DOPE   H8R  181   3.461   5.132   6.042 -1.5393 -1.5228 -1.1261
    2DOPE   H8S  182   3.519   4.964   6.007  1.7855  0.0129 -1.9317
    2DOPE   C29  183   3.624   5.117   5.896  0.3133 -0.1064  0.5073
    2DOPE   H9R  184   3.686   5.206   5.913  0.3419  0.0890 -0.5569
    2DOPE  C210  185   3.630   5.051   5.773 -0.0256  0.4215  0.4879
    2DOPE  H10R  186   3.688   5.095   5.690 -0.9542  1.9646  0.6188
    2DOPE  C211  187   3.561   4.922   5.747 -0.5487  0.4458  0.1190
    2DOPE  H11R  188   3.606   4.850   5.819 -0.4073 -0.1605 -0.5546
    2DOPE  H11S  189   3.585   4.883   5.646  0.3554  1.9830 -0.2938
    2DOPE  C212  190   3.407   4.914   5.753  0.1068  0.6154 -0.5721
    2DOPE  H12R  191   3.381   4.941   5.857 -0.5667 -0.2208 -0.5131
    2DOPE  H12S  192   3.370   4.809   5.745  2.8966 -0.5333  0.2343
    2DOPE  C213  193   3.343   5.005   5.643 -0.5185 -0.0091  0.1340
    2DOPE  H13R  194   3.394   5.102   5.627  0.9365 -0.9986 -1.6280
    2DOPE  H13S  195   3.244   5.038   5.681  0.3971  2.1742  0.7757
    2DOPE  C214  196   3.319   4.937   5.506  0.3523  0.9046 -0.2331
    2DOPE  H14R  197   3.266   4.842   5.528 -0.2803  1.3690  0.2940
    2DOPE  H14S  198   3.423   4.931   5.468  0.6982  0.1100  0.7732
    2DOPE  C215  199   3.222   5.010   5.412 -0.3559  0.5131  0.4116
    2DOPE  H15R  200   3.221   5.121   5.425  1.9348  0.6190  0.1581
    2DOPE  H15S  201   3.117   4.983   5.433 -0.5493  0.9324  0.0158
    2DOPE  C216  202   3.253   4.991   5.263  0.2336 -0.3700 -0.4637
    2DOPE  H16R  203   3.220   4.894   5.221  0.6742 -1.1951  1.0300
    2DOPE  H16S  204   3.362   4.987   5.243  0.7226  3.4480  0.5962
    2DOPE  C217  205   3.181   5.113   5.187 -0.6274 -0.0653  0.3966
    2DOPE  H17R  206   3.241   5.204   5.208 -0.3902  0.1162 -1.0180
    2DOPE  H17S  207   3.076   5.127   5.222 -0.8086 -0.8512  0.1848
    2DOPE  C218  208   3.189   5.114   5.031  0.0380  0.4473  0.0115
    2DOPE  H18R  209   3.161   5.212   4.986  0.8584  0.2227 -1.0326
    2DOPE  H18S  210   3.115   5.040   4.996 -1.0855  0.6417  1.8298
    2DOPE  H18T  211   3.291   5.083   5.000  0.6909  2.9659 -0.6160
    2DOPE   C33  212   3.524   5.437   6.510 -0.5198 -0.0216 -0.0901
    2DOPE   H3X  213   3.442   5.476   6.447 -0.9660  1.4704  1.3288
    2DOPE   H3Y  214   3.541   5.330   6.487  1.8070  0.1449  0.5561
    2DOPE   C34  215   3.658   5.508   6.499 -0.3450 -0.3086  0.0087
    2DOPE   H4X  216   3.653   5.618   6.511  0.0532  0.0059 -2.2764
    2DOPE   H4Y  217   3.720   5.456   6.575 -1.4115  0.8473  1.7500
    2DOPE   C35  218   3.728   5.488   6.363 -0.8891  0.4952 -0.6690
    2DOPE   H5X  219   3.653   5.526   6.291 -1.5450  1.1844  0.3560
    2DOPE   H5Y  220   3.750   5.381   6.339  1.0058  0.5116  0.7263
    2DOPE   C36  221   3.850   5.585   6.339 -0.2393  0.4849 -0.3771
    2DOPE   H6X  222   3.930   5.527   6.289 -0.1671 -0.8269  1.1485
    2DOPE   H6Y  223   3.893   5.617   6.436 -0.1613  1.7818 -0.8282
    2DOPE   C37  224   3.805   5.715   6.269  0.6677 -0.0882 -0.1022
    2DOPE   H7X  225   3.720   5.693   6.201  1.0057 -0.2738 -0.4758
    2DOPE   H7Y  226   3.766   5.778   6.352  0.7596 -0.7332  0.4424
    2DOPE   C38  227   3.904   5.791   6.175 -0.1087 -0.3461 -0.3542
    2DOPE   H8X  228   3.909   5.732   6.080  0.1764  2.7162 -2.3736
    2DOPE   H8Y  229   3.997   5.781   6.235  0.7446  1.7309 -1.2544
    2DOPE   C39  230   3.863   5.937   6.158  0.2970  0.0601  0.2239
    2DOPE   H9X  231   3.877   5.995   6.250 -0.3394 -0.5520  0.7191
    2DOPE  C310  232   3.820   5.986   6.044  0.8383 -0.3797 -0.5080
    2DOPE  H10X  233   3.801   6.094   6.034 -0.7430 -0.3366  2.0255
    2DOPE  C311  234   3.791   5.914   5.915 -0.5066  0.1934 -0.8671
    2DOPE  H11X  235   3.771   5.806   5.931  0.6244 -0.0039 -0.7213
    2DOPE  H11Y  236   3.699   5.960   5.873 -1.8913  1.0845  2.7529
    2DOPE  C312  237   3.902   5.938   5.815 -0.1498 -0.5608  0.9830
    2DOPE  H12X  238   4.000   5.927   5.868 -0.6856 -3.2973  1.5549
    2DOPE  H12Y  239   3.889   6.044   5.783 -1.3953 -0.0484  2.9979
    2DOPE  C313  240   3.909   5.845   5.695 -0.0012  0.0980 -0.3062
    2DOPE  H13X  241   3.816   5.866   5.638  0.3541  1.0581 -0.5548
    2DOPE  H13Y  242   3.989   5.862   5.620  0.1334 -1.1963 -0.4862
    2DOPE  C314  243   3.923   5.693   5.722  0.1010  0.5878  0.0486
    2DOPE  H14X  244   3.935   5.633   5.630  0.4338 -1.3025  1.2644
    2DOPE  H14Y  245   3.828   5.656   5.767 -0.1979  0.0926 -0.9816
    2DOPE  C315  246   4.043   5.649   5.811  0.9924  0.0967 -0.1715
    2DOPE  H15X  247   4.017   5.688   5.912  0.6634 -1.4319  0.3653
    2DOPE  H15Y  248   4.139   5.683   5.767  1.1339 -0.4839 -0.3219
    2DOPE  C316  249   4.048   5.494   5.825 -0.5201 -0.1631  0.3170
    2DOPE  H16X  250   4.143   5.476   5.881 -1.3620  1.1930  2.3210
    2DOPE  H16Y  251   4.063   5.451   5.724  0.1976  3.6615 -1.3752
    2DOPE  C317  252   3.939   5.425   5.909 -0.1234 -0.0518  0.9313
    2DOPE  H17X  253   3.919   5.481   6.003  0.1593  0.4072  0.7233
    2DOPE  H17Y  254   3.841   5.433   5.857  0.8371  0.0624 -0.9657
    2DOPE  C318  255   3.985   5.284   5.938  0.3301  0.1541  0.7877
    2DOPE  H18X  256   3.969   5.223   5.846 -0.1253  0.5958  0.5690
    2DOPE  H18Y  257   4.093   5.277   5.964  0.1981 -0.7892  1.1457
    2DOPE  H18Z  258   3.922   5.233   6.014 -1.3971  0.7074 -0.2098
    3DOPE     N  259   2.628   6.017   7.103 -0.1933  0.1645 -0.1491
    3DOPE   HN1  260   2.568   6.101   7.108 -0.8031 -0.3316  1.1377
    3DOPE   HN2  261   2.682   6.025   7.014 -0.5626  2.2917 -0.2348
    3DOPE   HN3  262   2.578   5.926   7.094 -0.7703  0.1722  2.2809
    3DOPE   C12  263   2.722   6.025   7.216 -0.1590 -0.0114 -0.5639
    3DOPE  H12A  264   2.808   5.956   7.204  0.2516  0.3191  0.3584
    3DOPE  H12B  265   2.670   5.988   7.306 -0.7935 -0.5760 -1.1510
    3DOPE   C11  266   2.775   6.165   7.232 -0.2173  0.3391  0.4355
    3DOPE  H11A  267   2.839   6.180   7.142  1.0363 -0.9162  1.0861
    3DOPE  H11B  268   2.845   6.179   7.316 -0.7075 -2.5759  1.4560
    3DOPE     P  269   2.709   6.418   7.260  0.1242  0.2332 -0.7384
    3DOPE   O13  270   2.831   6.440   7.344 -0.2443  0.4406 -0.2132
    3DOPE   O14  271   2.592   6.498   7.311  0.1798 -0.4598 -0.3605
    3DOPE   O11  272   2.734   6.463   7.110 -0.3914  0.3391  0.0819
    3DOPE   O12  273   2.668   6.264   7.247  0.0033 -0.1240  0.5468
    3DOPE    C1  274   2.634   6.480   7.012  0.1944  0.0625 -0.4992
    3DOPE    HA  275   2.568   6.560   7.052 -2.1144 -1.9239 -0.1180
    3DOPE    HB  276   2.569   6.390   7.011  1.8878 -1.2449  0.6026
    3DOPE    C2  277   2.690   6.501   6.870 -0.4414  0.6397 -0.8524
    3DOPE    HS  278   2.742   6.598   6.858  0.6228  0.5845  2.2711
    3DOPE   O21  279   2.584   6.486   6.776 -0.2149  0.3478 -0.1540
    3DOPE   C21  280   2.509   6.595   6.769  0.0755 -0.5957 -0.1543
    3DOPE   O22  281   2.527   6.702   6.823 -0.0255  0.1043  0.7747
    3DOPE   C22  282   2.397   6.571   6.674  0.0690  0.3440 -0.2113
    3DOPE   H2R  283   2.308   6.533   6.727 -0.1037  0.7442 -0.2183
    3DOPE   H2S  284   2.436   6.497   6.600 -0.7528  0.0409 -0.3475
    3DOPE    C3  285   2.792   6.389   6.844  0.5886 -0.2266  0.1581
    3DOPE    HX  286   2.746   6.290   6.868  1.0392 -0.9125 -1.6324
    3DOPE    HY  287   2.873   6.401   6.919  0.2287 -0.2306  0.5508
    3DOPE   O31  288   2.840   6.382   6.708  0.5400  0.7812 -0.1363
    3DOPE   C31  289   2.934   6.288   6.683 -0.7623  0.0069 -0.2578
    3DOPE   O32  290   2.976   6.212   6.772  0.1002 -0.2872  0.4839
    3DOPE   C32  291   2.963   6.289   6.533 -0.2399  0.3277  0.5043
    3DOPE   H2X  292   2.868   6.297   6.475 -1.6694 -1.9462  2.3686
    3DOPE   H2Y  293   3.010   6.383   6.499  0.1485  0.1676  0.6001
    3DOPE   C23  294   2.349   6.709   6.622 -0.2727  0.0904 -1.0444
    3DOPE   H3R  295   2.432   6.763   6.573 -0.0727  1.7470  0.9993
    3DOPE   H3S  296   2.319   6.778   6.704 -0.8032 -2.0110  0.6430
    3DOPE   C24  297   2.232   6.694   6.533 -0.3600 -0.2298  0.8401
    3DOPE   H4R  298   2.138   6.663   6.583 -0.6159  1.9821  1.8121
    3DOPE   H4S  299   2.253   6.619   6.454 -1.3105  0.1122  0.2444
    3DOPE   C25  300   2.200   6.836   6.464 -0.2204  0.7195  0.1368
    3DOPE   H5R  301   2.290   6.865   6.406  0.0197  1.6699  0.9590
    3DOPE   H5S  302   2.204   6.918   6.539  1.3599  0.9832 -0.2050
    3DOPE   C26  303   2.080   6.831   6.371 -0.4277  0.3945 -0.2419
    3DOPE   H6R  304   1.979   6.825   6.416 -1.2093  3.4656 -1.3369
    3DOPE   H6S  305   2.100   6.735   6.319  0.3045  0.0627  0.6144
    3DOPE   C27  306   2.081   6.935   6.257  0.2920 -0.3640 -0.2080
    3DOPE   H7R  307   2.189   6.935   6.228  0.7764  1.4077  1.4207
    3DOPE   H7S  308   2.055   7.035   6.296  0.9698 -0.1836 -0.2038
    3DOPE   C28  309   1.998   6.893   6.137  0.4639 -0.5666  0.3188
    3DOPE   H8R  310   1.892   6.895   6.172  0.5989  0.8174  0.6899
    3DOPE   H8S  311   2.027   6.790   6.106  0.3678 -0.4165 -0.2776
    3DOPE   C29  312   2.003   6.996   6.021  0.0665  0.2517  0.4366
    3DOPE   H9R  313   1.962   7.092   6.056 -2.1672 -0.2178 -0.6950
    3DOPE  C210  314   2.049   6.981   5.898 -0.0824 -0.2391 -0.0031
    3DOPE  H10R  315   2.059   7.066   5.829  2.1300 -0.0178  0.5255
    3DOPE  C211  316   2.108   6.852   5.856 -0.8929 -0.1808 -0.0050
    3DOPE  H11R  317   2.090   6.832   5.749 -2.5433  1.1504 -0.0159
    3DOPE  H11S  318   2.057   6.767   5.905  0.5075 -0.9910  0.1095
    3DOPE  C212  319   2.256   6.844   5.881 -0.4558  0.2216 -0.5270
    3DOPE  H12R  320   2.282   6.840   5.989 -0.6469 -0.7100 -0.5068
    3DOPE  H12S  321   2.315   6.931   5.845  0.9151  0.3544  1.8376
    3DOPE  C213  322   2.321   6.714   5.829  0.4088  0.4015 -0.6712
    3DOPE  H13R  323   2.265   6.625   5.867  0.9964 -0.0561 -0.8608
    3DOPE  H13S  324   2.425   6.713   5.867 -0.5835 -2.0791  2.4237
    3DOPE  C214  325   2.317   6.704   5.677  0.4557 -0.3372  0.6706
    3DOPE  H14R  326   2.359   6.797   5.634  0.6294  0.0557  1.6717
    3DOPE  H14S  327   2.210   6.697   5.649  0.6818 -0.8398 -0.0999
    3DOPE  C215  328   2.396   6.587   5.621 -0.1431 -0.7970 -0.1744
    3DOPE  H15R  329   2.377   6.506   5.695  2.5489  0.2144  1.7808
    3DOPE  H15S  330   2.504   6.612   5.627  0.0213 -1.4342 -0.3816
    3DOPE  C216  331   2.360   6.546   5.481 -0.0871  0.7975  0.5842
    3DOPE  H16R  332   2.406   6.617   5.410  2.3027 -1.5233 -0.3648
    3DOPE  H16S  333   2.251   6.532   5.467  0.3779 -3.3856 -0.2097
    3DOPE  C217  334   2.429   6.412   5.450 -0.3101  0.1161  0.0598
    3DOPE  H17R  335   2.455   6.358   5.544  0.6954 -0.6332 -0.6154
    3DOPE  H17S  336   2.525   6.447   5.405 -0.3094  1.3214  0.9710
    3DOPE  C218  337   2.371   6.308   5.352 -0.1814  0.4856 -0.3718
    3DOPE  H18R  338   2.357   6.355   5.252  0.0518 -2.4938 -1.9112
    3DOPE  H18S  339   2.278   6.254   5.380 -0.3361  0.0512 -1.6582
    3DOPE  H18T  340   2.451   6.233   5.335  0.1442  0.1122  2.3681
    3DOPE   C33  341   3.050   6.164   6.488  0.3132 -0.3516  0.1027
    3DOPE   H3X  342   2.990   6.071   6.501  1.7017 -1.4787 -1.2076
    3DOPE   H3Y  343   3.139   6.164   6.555  0.1958  0.3103  0.2685
    3DOPE   C34  344   3.094   6.172   6.345 -0.2843  0.4256  0.0449
    3DOPE   H4X  345   3.145   6.270   6.333 -0.4503  0.6572  1.2016
    3DOPE   H4Y  346   3.169   6.093   6.319 -0.9879  0.2614 -1.6089
    3DOPE   C35  347   2.978   6.160   6.250 -0.8963 -0.1989  0.8133
    3DOPE   H5X  348   2.902   6.238   6.270  0.7567  1.2278  1.7204
    3DOPE   H5Y  349   2.930   6.061   6.269 -0.7367  0.1156  3.0799
    3DOPE   C36  350   3.004   6.160   6.096 -0.0040 -0.0429  0.1345
    3DOPE   H6X  351   2.904   6.153   6.047  0.0616  0.6434 -0.0984
    3DOPE   H6Y  352   3.075   6.077   6.072  1.1173  0.8107  0.4090
    3DOPE   C37  353   3.064   6.291   6.055 -0.1164 -0.1431  0.3629
    3DOPE   H7X  354   2.977   6.358   6.068 -0.2452 -0.2429  0.0067
    3DOPE   H7Y  355   3.149   6.315   6.123  1.7256 -0.7918 -1.6081
    3DOPE   C38  356   3.124   6.306   5.916 -0.4352  0.1685  0.2425
    3DOPE   H8X  357   3.046   6.269   5.845 -1.4098  0.4097  1.1622
    3DOPE   H8Y  358   3.214   6.243   5.897 -0.1213  0.7159 -0.1081
    3DOPE   C39  359   3.157   6.450   5.873  0.5432  0.2595  0.0057
    3DOPE   H9X  360   3.262   6.481   5.880  1.0613 -1.3854 -0.2031
    3DOPE  C310  361   3.078   6.527   5.799  0.2182  0.1794  0.9959
    3DOPE  H10X  362   3.110   6.629   5.771  1.7929  0.0862  2.3009
    3DOPE  C311  363   2.931   6.502   5.771  0.3043  0.1664  0.0478
    3DOPE  H11X  364   2.908   6.394   5.773  4.8981 -1.0160  1.2690
    3DOPE  H11Y  365   2.875   6.546   5.857  0.3190 -1.4002  0.8994
    3DOPE  C312  366   2.883   6.563   5.643  0.1125 -0.3743  0.7379
    3DOPE  H12X  367   2.783   6.517   5.629  0.6491 -1.0397 -1.1711
    3DOPE  H12Y  368   2.947   6.534   5.557 -0.8797 -0.6243  0.0685
    3DOPE  C313  369   2.864   6.715   5.641 -0.5039 -0.4297 -0.3127
    3DOPE  H13X  370   2.772   6.738   5.699  1.2166  2.1660  1.6467
    3DOPE  H13Y  371   2.943   6.762   5.704  0.5323  0.7157 -2.3582
    3DOPE  C314  372   2.872   6.771   5.501  0.2704 -0.4178  0.2293
    3DOPE  H14X  373   2.963   6.740   5.445 -1.9789 -2.2772 -2.6985
    3DOPE  H14Y  374   2.868   6.882   5.500 -1.3520 -0.4514 -0.7174
    3DOPE  C315  375   2.751   6.724   5.417 -0.4610 -0.2437 -0.2194
    3DOPE  H15X  376   2.656   6.711   5.473 -1.5254  0.0218 -1.8915
    3DOPE  H15Y  377   2.756   6.626   5.363  0.9490 -1.0541  1.2903
    3DOPE  C316  378   2.725   6.816   5.291 -0.1682 -0.2475 -0.4287
    3DOPE  H16X  379   2.783   6.789   5.201 -1.1904  1.7176 -1.7514
    3DOPE  H16Y  380   2.750   6.920   5.319 -0.9260 -0.3421  0.6531
    3DOPE  C317  381   2.575   6.818   5.244  0.5634  0.0572  0.0107
    3DOPE  H17X  382   2.555   6.725   5.186  0.0045  1.1059 -1.5429
    3DOPE  H17Y  383   2.510   6.811   5.334 -0.1351 -4.1379 -0.5828
    3DOPE  C318  384   2.531   6.936   5.158 -0.0378 -0.3686  0.2244
    3DOPE  H18X  385   2.517   7.022   5.227 -0.7789 -1.7936  1.9196
    3DOPE  H18Y  386   2.608   6.966   5.083  0.4528 -0.9259  0.4999
    3DOPE  H18Z  387   2.441   6.919   5.095  0.7569 -0.9327 -0.7961
    4DOPE     N  388   3.627   3.180   7.283 -0.4391  0.1706 -0.4988
    4DOPE   HN1  389   3.532   3.201   7.319 -0.0283  2.3458 -0.5703
    4DOPE   HN2  390   3.694   3.253   7.312  1.2686 -0.6807 -2.0594
    4DOPE   HN3  391   3.616   3.193   7.180  0.1345  0.4286 -0.5320
    4DOPE   C12  392   3.671   3.039   7.315  0.8482  1.2249  0.4787
    4DOPE  H12A  393   3.774   3.033   7.272 -0.6206  0.4996 -3.2786
    4DOPE  H12B  394   3.606   2.972   7.255  2.4947  1.4363 -1.6765
    4DOPE   C11  395   3.672   2.999   7.468  0.0550  0.0791  0.0410
    4DOPE  H11A  396   3.724   2.902   7.476  0.6070  0.3823  0.1596
    4DOPE  H11B  397   3.572   2.973   7.510  1.6210 -0.9648  3.4649
    4DOPE     P  398   3.887   3.090   7.568  0.1711  0.1332 -0.3219
    4DOPE   O13  399   3.909   2.974   7.658 -0.5072 -0.8099 -0.0064
    4DOPE   O14  400   3.926   3.216   7.626 -0.3728 -0.6231  0.3289
    4DOPE   O11  401   3.953   3.054   7.436  0.6959 -0.0708  0.6149
    4DOPE   O12  402   3.737   3.105   7.538  0.4979  0.1635  0.2667
    4DOPE    C1  403   4.093   3.082   7.414  0.2461 -0.6801 -0.3398
    4DOPE    HA  404   4.152   3.037   7.497  0.1759  0.6397  0.4624
    4DOPE    HB  405   4.105   3.192   7.422 -0.5298 -0.7264  2.8151
    4DOPE    C2  406   4.142   3.031   7.276  0.1798 -0.9197  0.4127
    4DOPE    HS  407   4.249   3.061   7.275  0.2673 -1.2048 -0.8876
    4DOPE   O21  408   4.059   3.089   7.166 -0.0675 -0.1563 -0.0333
    4DOPE   C21  409   4.090   3.211   7.124 -0.9129  0.7087 -0.4745
    4DOPE   O22  410   4.178   3.286   7.176 -0.3677  0.3047 -0.6134
    4DOPE   C22  411   4.006   3.254   7.004 -0.1546  0.1322  0.5953
    4DOPE   H2R  412   3.898   3.263   7.027 -0.1785  0.7811  0.2557
    4DOPE   H2S  413   4.019   3.175   6.928  0.9134  0.9253 -0.0709
    4DOPE    C3  414   4.122   2.879   7.265  0.0118 -0.6095 -0.4207
    4DOPE    HX  415   4.011   2.876   7.270 -0.2021  3.3797  1.6574
    4DOPE    HY  416   4.163   2.830   7.355 -1.3723  1.1460  1.2698
    4DOPE   O31  417   4.174   2.834   7.141  0.3930 -0.3311  0.3357
    4DOPE   C31  418   4.148   2.706   7.122  0.3884  0.3174 -0.2661
    4DOPE   O32  419   4.078   2.640   7.202 -0.4252 -0.2175  0.4861
    4DOPE   C32  420   4.213   2.654   6.998  0.2389 -0.3455 -0.0353
    4DOPE   H2X  421   4.306   2.598   7.023  1.4182  1.4575 -0.2290
    4DOPE   H2Y  422   4.147   2.574   6.959 -0.2702  0.1103 -0.1197
    4DOPE   C23  423   4.051   3.394   6.941  0.3948  0.1752  0.2656
    4DOPE   H3R  424   4.149   3.386   6.889  0.5150  1.7959  0.1695
    4DOPE   H3S  425   4.052   3.464   7.027 -0.7811  0.2974  0.1859
    4DOPE   C24  426   3.950   3.448   6.827  0.0143  0.5212 -0.1424
    4DOPE   H4R  427   3.981   3.554   6.813  0.3518  0.6560  1.4427
    4DOPE   H4S  428   3.849   3.461   6.872 -0.9632 -2.7424 -1.0960
    4DOPE   C25  429   3.938   3.352   6.707 -0.0279 -0.2138  0.1820
    4DOPE   H5R  430   3.901   3.259   6.755  3.4654 -1.7422  0.1594
    4DOPE   H5S  431   4.034   3.323   6.658 -0.6023  0.7311 -1.6168
    4DOPE   C26  432   3.842   3.400   6.601 -0.0171  0.6483 -0.1931
    4DOPE   H6R  433   3.859   3.350   6.504  0.7926 -0.1301  0.3376
    4DOPE   H6S  434   3.852   3.511   6.597 -1.5446  0.8631  0.9818
    4DOPE   C27  435   3.693   3.379   6.636  0.6198 -0.2877  0.0238
    4DOPE   H7R  436   3.674   3.449   6.720  2.4297 -0.7425  0.8732
    4DOPE   H7S  437   3.663   3.276   6.664 -0.6805 -0.2900 -1.2473
    4DOPE   C28  438   3.606   3.407   6.513  0.1185  0.0418  0.7357
    4DOPE   H8R  439   3.618   3.344   6.422 -0.4020 -0.4551  1.0040
    4DOPE   H8S  440   3.637   3.506   6.473  1.0661 -1.0893 -1.5137
    4DOPE   C29  441   3.461   3.396   6.540 -0.0290 -0.4219 -0.4705
    4DOPE   H9R  442   3.455   3.381   6.649  2.7009  0.0764 -0.1914
    4DOPE  C210  443   3.356   3.383   6.456 -0.2105 -0.9151 -0.4572
    4DOPE  H10R  444   3.254   3.392   6.495  0.2932  2.1277  0.4242
    4DOPE  C211  445   3.353   3.376   6.308 -0.7798  0.1016  0.4863
    4DOPE  H11R  446   3.454   3.379   6.262  0.2923  0.9597  2.7239
    4DOPE  H11S  447   3.312   3.469   6.264  2.9588  0.7254 -2.1969
    4DOPE  C212  448   3.267   3.268   6.244  0.4265  0.6044 -0.2437
    4DOPE  H12R  449   3.163   3.283   6.281 -0.1306 -2.4308 -0.2946
    4DOPE  H12S  450   3.316   3.172   6.271 -2.8631 -2.5481 -4.0141
    4DOPE  C213  451   3.260   3.283   6.093 -0.4285 -0.1338  0.2008
    4DOPE  H13R  452   3.360   3.297   6.048  0.2122 -3.0376  0.4900
    4DOPE  H13S  453   3.191   3.365   6.064 -0.4867 -0.7716 -1.5914
    4DOPE  C214  454   3.191   3.163   6.023  0.3504  1.0716  0.0755
    4DOPE  H14R  455   3.087   3.145   6.058  0.0239 -1.6030 -1.9525
    4DOPE  H14S  456   3.256   3.075   6.044 -0.0237  0.8248  0.2044
    4DOPE  C215  457   3.180   3.179   5.873 -1.3934  0.3195  0.0893
    4DOPE  H15R  458   3.282   3.171   5.830 -1.3777  0.5750  0.0763
    4DOPE  H15S  459   3.127   3.272   5.841 -1.3061  0.8148  1.3251
    4DOPE  C216  460   3.113   3.055   5.802 -0.5997 -0.8115  0.2102
    4DOPE  H16R  461   3.016   3.044   5.855 -0.6800  0.0901  0.2701
    4DOPE  H16S  462   3.179   2.966   5.814  1.2968  0.5309  0.2365
    4DOPE  C217  463   3.092   3.082   5.649  0.1375 -0.5730 -0.6643
    4DOPE  H17R  464   3.039   3.179   5.648 -0.8574 -1.1075 -0.4847
    4DOPE  H17S  465   3.034   2.998   5.606 -2.4648  1.4027 -1.2216
    4DOPE  C218  466   3.211   3.104   5.549 -0.3198 -0.3389 -0.5076
    4DOPE  H18R  467   3.188   3.169   5.462  0.3979  4.2267  2.3747
    4DOPE  H18S  468   3.243   3.004   5.513  1.8776 -0.3114  1.1485
    4DOPE  H18T  469   3.293   3.160   5.599 -0.4257 -1.1811  0.6621
    4DOPE   C33  470   4.239   2.756   6.885  0.0118 -0.8701  0.2742
    4DOPE   H3X  471   4.314   2.716   6.813 -1.8456 -3.4483 -0.3737
    4DOPE   H3Y  472   4.293   2.837   6.939  1.0105 -0.1180 -1.7281
    4DOPE   C34  473   4.109   2.807   6.822 -0.5473 -0.1255 -0.0552
    4DOPE   H4X  474   4.042   2.728   6.782 -1.3915  0.4852  0.1374
    4DOPE   H4Y  475   4.055   2.864   6.901  1.9066 -0.8710  2.3001
    4DOPE   C35  476   4.133   2.901   6.703  0.3233  0.2365 -0.6668
    4DOPE   H5X  477   4.216   2.969   6.731  1.2309 -2.1287  3.1381
    4DOPE   H5Y  478   4.045   2.968   6.698  0.0600  0.3419  2.9849
    4DOPE   C36  479   4.162   2.831   6.569  0.2230 -0.0558 -0.3334
    4DOPE   H6X  480   4.079   2.760   6.550 -0.3714  0.8390 -1.1985
    4DOPE   H6Y  481   4.263   2.784   6.573  1.7254  2.9609  2.9377
    4DOPE   C37  482   4.173   2.933   6.456  0.3374 -0.2884 -0.7361
    4DOPE   H7X  483   4.098   3.011   6.479 -1.3598 -2.0155 -0.1824
    4DOPE   H7Y  484   4.275   2.978   6.458 -0.6937  2.2184 -1.1172
    4DOPE   C38  485   4.153   2.865   6.322 -0.4712  0.7974  0.2730
    4DOPE   H8X  486   4.151   2.943   6.244 -1.2187 -0.6116 -1.1704
    4DOPE   H8Y  487   4.050   2.825   6.330  0.3359 -1.4450  0.3558
    4DOPE   C39  488   4.264   2.760   6.293 -0.4917 -0.5828  0.4600
    4DOPE   H9X  489   4.273   2.682   6.370  1.7881  0.1605  1.0341
    4DOPE  C310  490   4.329   2.746   6.177  0.4641  0.2901  0.0595
    4DOPE  H10X  491   4.414   2.677   6.168 -0.3410 -0.7823  0.4902
    4DOPE  C311  492   4.312   2.825   6.048 -1.3051 -0.2151 -0.2113
    4DOPE  H11X  493   4.337   2.933   6.054  0.7141 -0.5857 -1.1717
    4DOPE  H11Y  494   4.395   2.796   5.980 -1.1614  0.9021 -0.5461
    4DOPE  C312  495   4.175   2.813   5.981 -0.8728 -0.1741 -0.2256
    4DOPE  H12X  496   4.099   2.850   6.052 -1.3344 -0.1770 -0.7130
    4DOPE  H12Y  497   4.153   2.706   5.961  0.6743 -0.3036 -1.4866
    4DOPE  C313  498   4.170   2.885   5.850  0.2262 -0.5424  0.0151
    4DOPE  H13X  499   4.253   2.844   5.787 -0.1105 -2.9606  1.0560
    4DOPE  H13Y  500   4.072   2.865   5.803 -0.2427 -2.0634  1.5336
    4DOPE  C314  501   4.190   3.039   5.868  0.4802  0.9554 -0.1866
    4DOPE  H14X  502   4.296   3.060   5.896  0.4736  1.6639 -0.6445
    4DOPE  H14Y  503   4.118   3.058   5.950  0.0506 -0.1984 -0.2828
    4DOPE  C315  504   4.146   3.132   5.749  0.4668  0.5557  0.0839
    4DOPE  H15X  505   4.216   3.128   5.663  0.4848  1.3180  0.0499
    4DOPE  H15Y  506   4.150   3.238   5.783  1.4396  0.1433  1.3075
    4DOPE  C316  507   4.006   3.110   5.705  0.4846 -0.0167  0.1050
    4DOPE  H16X  508   3.944   3.096   5.797 -0.6429  2.6370 -0.1649
    4DOPE  H16Y  509   3.988   3.014   5.652 -1.1102  0.9867 -1.2674
    4DOPE  C317  510   3.955   3.222   5.616 -0.2374 -0.4723 -0.5460
    4DOPE  H17X  511   3.864   3.184   5.565  0.1257 -0.6920 -1.0413
    4DOPE  H17Y  512   3.918   3.304   5.680  0.1228 -2.0985  1.8563
    4DOPE  C318  513   4.043   3.276   5.505  0.4153  0.2291 -0.1436
    4DOPE  H18X  514   4.132   3.323   5.553  0.7621  0.6677 -1.1709
    4DOPE  H18Y  515   4.089   3.210   5.428  0.0560 -0.5616  0.3206
    4DOPE  H18Z  516   3.990   3.355   5.448  0.2345  0.7425  0.7167
    5DOPE     N  517   0.154   3.908   7.172 -0.5634  0.3914  0.2680
    5DOPE   HN1  518   0.192   3.856   7.254  0.6124  1.4227  0.4138
    5DOPE   HN2  519   0.216   3.991   7.163  1.4703 -0.7254  2.5869
    5DOPE   HN3  520   0.056   3.935   7.193 -0.8552 -0.3328 -0.1521
    5DOPE   C12  521   0.167   3.828   7.051  0.6376  0.1647 -0.3939
    5DOPE  H12A  522   0.246   3.867   6.983 -0.1190 -0.1092 -1.4603
    5DOPE  H12B  523   0.074   3.837   6.991  0.4906 -2.0002 -0.5501
    5DOPE   C11  524   0.193   3.678   7.081  0.2955  0.6504  1.0733
    5DOPE  H11A  525   0.289   3.677   7.137  2.1383  0.3623 -1.8810
    5DOPE  H11B  526   0.197   3.624   6.984 -0.0499 -1.1584  2.0319
    5DOPE     P  527  -0.038   3.547   7.131 -0.0426 -0.2251 -0.0925
    5DOPE   O13  528  -0.154   3.615   7.187  0.4266  0.2912  0.1937
    5DOPE   O14  529  -0.029   3.400   7.166 -0.5152 -0.0679 -0.2416
    5DOPE   O11  530  -0.048   3.551   6.973  0.1677 -0.3392  0.0898
    5DOPE   O12  531   0.095   3.623   7.168 -0.2566 -0.0705  0.5011
    5DOPE    C1  532   0.018   3.472   6.877 -0.2650  0.2999 -0.3638
    5DOPE    HA  533   0.119   3.447   6.915  0.0465  1.2536 -0.5479
    5DOPE    HB  534   0.032   3.531   6.784  0.0393  1.1749  0.2288
    5DOPE    C2  535  -0.044   3.333   6.837  0.1136  0.2475 -0.0897
    5DOPE    HS  536  -0.022   3.260   6.918  0.4635 -1.3463 -1.5551
    5DOPE   O21  537   0.005   3.288   6.713  0.4353  0.1776 -0.1951
    5DOPE   C21  538   0.123   3.239   6.715 -0.3329  0.7313  1.0485
    5DOPE   O22  539   0.197   3.233   6.807 -0.2345  0.4949  0.0362
    5DOPE   C22  540   0.165   3.218   6.566 -0.9029  0.1742  0.1067
    5DOPE   H2R  541   0.161   3.319   6.521 -2.4695  1.1024  2.1235
    5DOPE   H2S  542   0.094   3.160   6.503  0.3162  0.6835 -1.8152
    5DOPE    C3  543  -0.199   3.324   6.832  0.3303 -0.0480  0.1632
    5DOPE    HX  544  -0.243   3.342   6.933  0.1319  1.1953 -0.1305
    5DOPE    HY  545  -0.221   3.219   6.805 -1.5801  0.5336 -0.6401
    5DOPE   O31  546  -0.236   3.423   6.727  0.5156  0.1222  0.1219
    5DOPE   C31  547  -0.346   3.399   6.658 -0.2400  0.4972 -0.1512
    5DOPE   O32  548  -0.417   3.299   6.680  0.2756  0.1642 -0.4816
    5DOPE   C32  549  -0.372   3.506   6.558 -0.6647  0.7644 -0.0554
    5DOPE   H2X  550  -0.456   3.474   6.492  0.7662  0.9699 -2.0580
    5DOPE   H2Y  551  -0.392   3.603   6.609 -0.7613  0.2922  0.8322
    5DOPE   C23  552   0.297   3.138   6.566  0.0441  0.0766  0.0404
    5DOPE   H3R  553   0.267   3.044   6.617  1.4270  1.4532  3.7553
    5DOPE   H3S  554   0.378   3.176   6.632  0.3599  1.3096 -1.0140
    5DOPE   C24  555   0.353   3.116   6.427  0.0554  0.4735  0.0644
    5DOPE   H4R  556   0.286   3.057   6.362  0.7564  0.2465 -0.4528
    5DOPE   H4S  557   0.449   3.062   6.442 -0.1439 -0.0784 -0.6064
    5DOPE   C25  558   0.390   3.244   6.350 -0.5228  0.0709  0.0001
    5DOPE   H5R  559   0.439   3.311   6.424 -3.8307  0.8541  1.6924
    5DOPE   H5S  560   0.308   3.303   6.303 -0.0770  0.1397 -0.6952
    5DOPE   C26  561   0.494   3.210   6.241  0.7294  0.9164 -0.3678
    5DOPE   H6R  562   0.450   3.134   6.173  0.7068 -0.5360  1.2127
    5DOPE   H6S  563   0.589   3.168   6.280  1.0419 -0.4109 -2.4044
    5DOPE   C27  564   0.544   3.332   6.168  0.3131  0.2384 -0.3075
    5DOPE   H7R  565   0.599   3.403   6.233 -2.3259  3.1461 -1.0388
    5DOPE   H7S  566   0.455   3.389   6.135  0.2799 -0.4163 -1.4268
    5DOPE   C28  567   0.629   3.296   6.053 -0.6495  0.3354 -0.1418
    5DOPE   H8R  568   0.723   3.245   6.081 -0.5059  1.0352  0.6893
    5DOPE   H8S  569   0.661   3.394   6.011 -1.2771 -0.6146 -3.1528
    5DOPE   C29  570   0.559   3.227   5.941  0.0316  0.4129 -0.0564
    5DOPE   H9R  571   0.454   3.254   5.923 -0.1903  0.3379  1.0505
    5DOPE  C210  572   0.610   3.136   5.853  0.7710 -0.5461  0.0047
    5DOPE  H10R  573   0.532   3.085   5.794 -1.5863  0.4424  2.0877
    5DOPE  C211  574   0.750   3.077   5.855  0.4251 -0.1143 -0.4612
    5DOPE  H11R  575   0.773   3.034   5.955 -2.3029 -0.4310  0.1190
    5DOPE  H11S  576   0.811   3.169   5.851  1.2649 -0.5524  1.2033
    5DOPE  C212  577   0.783   2.978   5.742  0.8403 -0.7542  0.8001
    5DOPE  H12R  578   0.692   2.916   5.734 -0.4157  1.1398 -0.5224
    5DOPE  H12S  579   0.880   2.924   5.755  1.4269 -0.8485 -2.8668
    5DOPE  C213  580   0.795   3.055   5.614 -0.6846  0.1522 -0.2228
    5DOPE  H13R  581   0.903   3.078   5.597 -0.7330  0.2294 -0.4302
    5DOPE  H13S  582   0.744   3.153   5.628 -1.7514 -0.5882  1.2944
    5DOPE  C214  583   0.749   2.988   5.487 -0.2096  0.1090  0.6215
    5DOPE  H14R  584   0.646   2.955   5.513  0.0327 -0.0707  1.3909
    5DOPE  H14S  585   0.809   2.899   5.460 -0.5330 -0.2860  1.1873
    5DOPE  C215  586   0.727   3.076   5.364  0.9512  0.1667 -0.0173
    5DOPE  H15R  587   0.816   3.138   5.341  0.9957  0.6324  1.3205
    5DOPE  H15S  588   0.651   3.156   5.376 -0.3273 -0.7984 -1.2707
    5DOPE  C216  589   0.690   2.988   5.240  0.3042 -0.1292 -0.2351
    5DOPE  H16R  590   0.585   2.955   5.251  0.1979  0.5491  0.9522
    5DOPE  H16S  591   0.754   2.897   5.244  0.2506 -0.1623 -0.1363
    5DOPE  C217  592   0.710   3.062   5.114 -0.3398  0.2941 -0.5731
    5DOPE  H17R  593   0.804   3.119   5.126 -1.1344  1.1530  2.6038
    5DOPE  H17S  594   0.634   3.144   5.122  0.2210  0.7824 -0.1695
    5DOPE  C218  595   0.700   3.000   4.983  1.1615  0.1586 -0.2044
    5DOPE  H18R  596   0.706   3.087   4.915 -1.1472  0.3080 -0.2763
    5DOPE  H18S  597   0.600   2.955   4.965 -0.3107  3.6720 -1.6918
    5DOPE  H18T  598   0.786   2.934   4.958  1.0073 -0.7589  1.5238
    5DOPE   C33  599  -0.252   3.533   6.463  0.7536 -1.1670  0.2205
    5DOPE   H3X  600  -0.165   3.567   6.523  1.5813 -0.4971 -1.2955
    5DOPE   H3Y  601  -0.271   3.622   6.400  3.0973  0.4137  1.5667
    5DOPE   C34  602  -0.203   3.422   6.376  0.0121 -0.6519  0.2276
    5DOPE   H4X  603  -0.097   3.439   6.349 -1.0148  0.5238 -3.8948
    5DOPE   H4Y  604  -0.212   3.321   6.423 -1.6686 -1.3777 -1.4835
    5DOPE   C35  605  -0.281   3.419   6.243 -0.1794 -0.1908 -0.1703
    5DOPE   H5X  606  -0.302   3.524   6.213 -1.8847 -0.0852  1.2669
    5DOPE   H5Y  607  -0.381   3.375   6.263 -0.1752 -2.5519 -4.1816
    5DOPE   C36  608  -0.214   3.334   6.127 -0.1137 -0.3674 -0.3786
    5DOPE   H6X  609  -0.190   3.236   6.172  2.2481 -0.2338 -1.2276
    5DOPE   H6Y  610  -0.115   3.376   6.099 -1.0669  1.2066 -1.5783
    5DOPE   C37  611  -0.292   3.306   6.005  0.0296  0.2711 -0.0394
    5DOPE   H7X  612  -0.222   3.245   5.943  1.4021 -0.9308  2.5243
    5DOPE   H7Y  613  -0.377   3.238   6.028  0.1666 -0.6256 -1.9707
    5DOPE   C38  614  -0.319   3.445   5.930  0.2257 -0.1750  0.5428
    5DOPE   H8X  615  -0.219   3.490   5.909 -0.1640  1.2123  1.4950
    5DOPE   H8Y  616  -0.381   3.499   6.005 -0.4329 -1.1843  0.7475
    5DOPE   C39  617  -0.391   3.431   5.797  0.1843  0.0182  0.2526
    5DOPE   H9X  618  -0.499   3.417   5.807  0.0527  0.5702 -0.3531
    5DOPE  C310  619  -0.332   3.437   5.678  0.1014 -0.4867 -0.3509
    5DOPE  H10X  620  -0.388   3.416   5.585  1.1668 -1.0356 -0.8870
    5DOPE  C311  621  -0.189   3.450   5.661 -0.2686 -0.1709  0.5649
    5DOPE  H11X  622  -0.151   3.547   5.699 -1.0781 -0.4402  2.1755
    5DOPE  H11Y  623  -0.135   3.369   5.715 -0.7560 -1.3160 -0.6020
    5DOPE  C312  624  -0.127   3.441   5.520  0.7039  0.1524 -0.0969
    5DOPE  H12X  625  -0.017   3.460   5.514  0.6442  0.7835  0.6084
    5DOPE  H12Y  626  -0.172   3.519   5.454  2.2588  0.0732 -1.3252
    5DOPE  C313  627  -0.142   3.298   5.454 -0.0853 -0.3391 -0.5482
    5DOPE  H13X  628  -0.087   3.222   5.513  0.4549  0.2554 -0.2802
    5DOPE  H13Y  629  -0.249   3.271   5.444  0.1029 -0.6177 -2.0243
    5DOPE  C314  630  -0.071   3.296   5.318  0.1156  0.8640  0.3323
    5DOPE  H14X  631   0.033   3.331   5.335 -0.2273  0.8300  2.8130
    5DOPE  H14Y  632  -0.121   3.370   5.251 -0.4772 -0.1455 -0.3824
    5DOPE  C315  633  -0.077   3.160   5.244  0.4632  0.7428  0.1604
    5DOPE  H15X  634  -0.035   3.092   5.321 -2.9308 -1.7393  0.0336
    5DOPE  H15Y  635  -0.021   3.170   5.149 -0.8570  0.6407 -0.6497
    5DOPE  C316  636  -0.221   3.113   5.213  0.0081  0.0826  0.5547
    5DOPE  H16X  637  -0.273   3.193   5.156 -1.8345  1.4655  3.8798
    5DOPE  H16Y  638  -0.278   3.096   5.307  0.6602  1.7576  1.2852
    5DOPE  C317  639  -0.224   2.989   5.130  0.0381  0.5953 -0.4684
    5DOPE  H17X  640  -0.182   2.898   5.176  0.9228  0.9843 -0.4930
    5DOPE  H17Y  641  -0.331   2.959   5.125 -0.0043  0.6530  0.0584
    5DOPE  C318  642  -0.176   3.020   4.988  0.8230 -0.1506  0.1667
    5DOPE  H18X  643  -0.069   3.048   5.001  0.4471  0.8324  1.3565
    5DOPE  H18Y  644  -0.184   2.939   4.912  2.2233  0.6736 -0.9234
    5DOPE  H18Z  645  -0.227   3.108   4.945 -0.0793 -0.0039  1.4767
    6DOPE     N  646   0.563   5.067   6.952  0.3484 -0.0271 -0.5173
    6DOPE   HN1  647   0.656   5.073   6.998  1.3082  0.8930 -2.4701
    6DOPE   HN2  648   0.569   5.122   6.864  1.4364  0.4337 -0.1758
    6DOPE   HN3  649   0.487   5.109   7.009 -0.5143 -1.5380 -0.5016
    6DOPE   C12  650   0.530   4.925   6.915 -0.1667 -0.1359  0.8827
    6DOPE  H12A  651   0.470   4.927   6.822  1.0002  0.9480  0.1196
    6DOPE  H12B  652   0.477   4.875   6.999 -0.7370 -1.3102 -0.1534
    6DOPE   C11  653   0.659   4.861   6.864  0.4486  0.5459 -0.0023
    6DOPE  H11A  654   0.717   4.926   6.795  3.2249 -2.2114 -0.4502
    6DOPE  H11B  655   0.622   4.769   6.814  1.9309 -0.3115  0.4272
    6DOPE     P  656   0.864   4.920   7.014  0.0148 -0.4959 -0.4093
    6DOPE   O13  657   0.937   4.860   7.128 -0.2532 -0.3087  0.2237
    6DOPE   O14  658   0.810   5.057   7.041  0.0574 -0.2902 -0.4162
    6DOPE   O11  659   0.973   4.929   6.901  0.1708 -0.2870 -0.1941
    6DOPE   O12  660   0.743   4.827   6.975 -0.5965  0.8132  0.5718
    6DOPE    C1  661   1.004   4.822   6.812 -0.1149 -0.0361  0.3268
    6DOPE    HA  662   1.028   4.858   6.710 -2.6932 -0.7961 -0.6145
    6DOPE    HB  663   0.921   4.751   6.792 -0.6888  0.3078  1.4257
    6DOPE    C2  664   1.133   4.750   6.857 -0.3846 -0.1845  0.7001
    6DOPE    HS  665   1.130   4.744   6.968  2.1406 -0.5294  0.8077
    6DOPE   O21  666   1.252   4.825   6.826 -0.1727 -0.2435  0.2460
    6DOPE   C21  667   1.369   4.780   6.875  0.2855 -0.0339 -0.1723
    6DOPE   O22  668   1.379   4.691   6.962 -0.2142  0.1288  0.5009
    6DOPE   C22  669   1.484   4.862   6.812 -0.0142 -0.1340  0.3936
    6DOPE   H2R  670   1.574   4.798   6.824  1.1763  1.2236 -0.9477
    6DOPE   H2S  671   1.497   4.962   6.858  2.2805  1.4617 -3.2646
    6DOPE    C3  672   1.137   4.603   6.809  0.5608  0.7315 -0.0584
    6DOPE    HX  673   1.046   4.551   6.847  1.2203 -1.5825 -1.5099
    6DOPE    HY  674   1.219   4.545   6.857  0.4081  0.9282  0.4530
    6DOPE   O31  675   1.135   4.590   6.667 -0.1330  0.0342 -0.1826
    6DOPE   C31  676   1.265   4.581   6.616  0.5744  0.3860 -0.2813
    6DOPE   O32  677   1.365   4.576   6.683  0.0963 -0.4891 -0.7993
    6DOPE   C32  678   1.250   4.555   6.471  0.0169  0.9909 -0.6555
    6DOPE   H2X  679   1.314   4.469   6.442  1.4454  0.1248  4.1992
    6DOPE   H2Y  680   1.144   4.533   6.450 -0.3541 -2.1915  3.3674
    6DOPE   C23  681   1.460   4.903   6.668  0.5116  0.0912 -0.6614
    6DOPE   H3R  682   1.363   4.957   6.666  0.6964  0.5857  1.5791
    6DOPE   H3S  683   1.453   4.808   6.610  0.4243 -0.9537  0.9845
    6DOPE   C24  684   1.566   4.970   6.589 -0.5279 -0.3909 -0.7640
    6DOPE   H4R  685   1.648   4.895   6.596 -0.0392 -0.0136 -2.1715
    6DOPE   H4S  686   1.606   5.058   6.643  1.8166 -1.2287 -1.0077
    6DOPE   C25  687   1.531   4.990   6.446  0.1206  0.4328  0.1445
    6DOPE   H5R  688   1.435   5.047   6.446 -0.6237 -0.6492 -2.2863
    6DOPE   H5S  689   1.506   4.897   6.390  0.2176  1.3619 -1.5319
    6DOPE   C26  690   1.632   5.063   6.360 -0.8374  0.7179 -0.9750
    6DOPE   H6R  691   1.726   5.005   6.373 -2.1188 -1.0245  1.4325
    6DOPE   H6S  692   1.650   5.162   6.406  2.4450 -0.7295  1.2248
    6DOPE   C27  693   1.598   5.067   6.210  0.1496 -0.7243 -0.3624
    6DOPE   H7R  694   1.504   5.118   6.180  0.3056 -1.4782 -2.3041
    6DOPE   H7S  695   1.578   4.964   6.173 -1.6086  0.1352 -1.9681
    6DOPE   C28  696   1.717   5.137   6.139 -0.3397  0.9665  0.3881
    6DOPE   H8R  697   1.813   5.089   6.165 -1.2579 -0.2175  1.7574
    6DOPE   H8S  698   1.727   5.243   6.171  1.1426  1.3623 -1.2429
    6DOPE   C29  699   1.706   5.138   5.987  0.0117 -0.5751  0.0886
    6DOPE   H9R  700   1.624   5.197   5.943 -0.4689 -1.4920 -0.2718
    6DOPE  C210  701   1.789   5.062   5.902 -0.0594 -0.4764  0.3060
    6DOPE  H10R  702   1.772   5.085   5.795  0.5555 -0.7167  0.1543
    6DOPE  C211  703   1.902   4.969   5.929  0.2170  0.8382 -0.7059
    6DOPE  H11R  704   1.927   4.965   6.037 -2.5289  1.0077  0.0126
    6DOPE  H11S  705   1.986   5.003   5.865 -0.5643  0.4397 -1.9692
    6DOPE  C212  706   1.864   4.825   5.891  0.3261 -0.1059  0.3327
    6DOPE  H12R  707   1.764   4.798   5.934 -0.8469  2.6537 -0.4713
    6DOPE  H12S  708   1.941   4.749   5.917  0.9244  0.6883  0.9349
    6DOPE  C213  709   1.846   4.806   5.737  0.2651  0.1013  0.9567
    6DOPE  H13R  710   1.765   4.867   5.693 -0.6907 -1.2769  0.7475
    6DOPE  H13S  711   1.815   4.701   5.720 -0.8464  0.9476 -3.1766
    6DOPE  C214  712   1.978   4.814   5.660  0.0411 -0.0082  0.4006
    6DOPE  H14R  713   2.067   4.817   5.727 -0.4479  3.3081  1.0957
    6DOPE  H14S  714   1.986   4.911   5.605  1.2537  0.7477  1.8086
    6DOPE  C215  715   1.992   4.717   5.546 -0.3692  0.1912 -0.0836
    6DOPE  H15R  716   1.909   4.724   5.473 -0.9232 -0.3142  0.4797
    6DOPE  H15S  717   2.003   4.611   5.577  0.9585  0.4022  0.2313
    6DOPE  C216  718   2.120   4.752   5.466  0.1523  0.5099 -0.2796
    6DOPE  H16R  719   2.205   4.726   5.532 -0.7133  0.2969  0.7830
    6DOPE  H16S  720   2.116   4.857   5.430 -1.5363 -0.4125 -3.1324
    6DOPE  C217  721   2.140   4.667   5.337 -0.0420  0.0267 -0.1162
    6DOPE  H17R  722   2.037   4.669   5.296 -0.9070 -3.0652  1.5428
    6DOPE  H17S  723   2.160   4.562   5.370  1.1910 -0.0881 -1.1750
    6DOPE  C218  724   2.246   4.704   5.239 -0.3750 -0.3425  0.2447
    6DOPE  H18R  725   2.338   4.676   5.295  0.0620  0.4707 -0.0490
    6DOPE  H18S  726   2.254   4.812   5.213  1.5485 -0.9588 -2.0449
    6DOPE  H18T  727   2.257   4.645   5.146 -1.6461  1.1941 -0.9376
    6DOPE   C33  728   1.290   4.678   6.389  0.1121  0.1246  0.3697
    6DOPE   H3X  729   1.399   4.695   6.401 -0.1131  1.8422  0.2153
    6DOPE   H3Y  730   1.240   4.775   6.409  0.9382  1.0642 -1.8089
    6DOPE   C34  731   1.282   4.634   6.236  0.3979  0.4319  0.1224
    6DOPE   H4X  732   1.334   4.536   6.226 -1.3073 -0.5286  0.3779
    6DOPE   H4Y  733   1.175   4.628   6.207  0.6558 -0.7110 -0.6543
    6DOPE   C35  734   1.353   4.734   6.142 -0.4424 -0.3002 -0.2252
    6DOPE   H5X  735   1.457   4.753   6.176 -0.3792 -1.3578  0.1910
    6DOPE   H5Y  736   1.294   4.827   6.155  1.7048  1.2920 -1.1397
    6DOPE   C36  737   1.359   4.686   5.998 -0.3022  0.0529 -0.1867
    6DOPE   H6X  738   1.258   4.659   5.962  0.2933 -0.8168 -1.2557
    6DOPE   H6Y  739   1.422   4.594   5.999  0.4791  0.5703 -0.7579
    6DOPE   C37  740   1.424   4.793   5.906 -0.1464 -0.8441 -0.0715
    6DOPE   H7X  741   1.510   4.836   5.962  0.0230 -0.2420 -0.7884
    6DOPE   H7Y  742   1.465   4.743   5.815 -0.5181 -2.4739  0.6160
    6DOPE   C38  743   1.322   4.906   5.861 -0.3241  0.2438  0.0518
    6DOPE   H8X  744   1.288   4.949   5.957 -0.1181  0.0643  0.2066
    6DOPE   H8Y  745   1.237   4.853   5.814  0.2595 -0.5826 -0.0963
    6DOPE   C39  746   1.392   5.004   5.778 -0.3384  0.4311 -0.0406
    6DOPE   H9X  747   1.465   5.064   5.834  0.8083 -1.1492  0.2445
    6DOPE  C310  748   1.383   5.022   5.644 -0.2272  0.0064 -0.7672
    6DOPE  H10X  749   1.449   5.098   5.601  2.8704 -2.5901 -1.0091
    6DOPE  C311  750   1.289   4.949   5.556  0.6119 -0.0868  0.2536
    6DOPE  H11X  751   1.223   4.873   5.604 -1.6989  0.9388 -1.0995
    6DOPE  H11Y  752   1.213   5.023   5.521  2.1930  0.7744 -1.5198
    6DOPE  C312  753   1.370   4.906   5.428  0.7109  0.3895  0.1772
    6DOPE  H12X  754   1.409   4.991   5.369  0.2395 -1.2229 -2.6492
    6DOPE  H12Y  755   1.309   4.854   5.350  1.6309  0.2542 -0.4692
    6DOPE  C313  756   1.477   4.801   5.457 -0.0628 -0.3979  0.4619
    6DOPE  H13X  757   1.555   4.853   5.516  0.2816 -3.0376  2.5228
    6DOPE  H13Y  758   1.438   4.722   5.524 -2.9437  2.1182  2.0332
    6DOPE  C314  759   1.532   4.734   5.332 -0.6247 -0.2918  0.7458
    6DOPE  H14X  760   1.594   4.801   5.269  1.0652 -1.3100  1.2254
    6DOPE  H14Y  761   1.454   4.693   5.264 -0.2565 -0.3780  0.3686
    6DOPE  C315  762   1.619   4.612   5.368 -0.4394  0.1225 -0.7257
    6DOPE  H15X  763   1.559   4.537   5.423  0.4204  0.5757  0.8834
    6DOPE  H15Y  764   1.707   4.638   5.431 -0.4930  2.0611 -1.3803
    6DOPE  C316  765   1.689   4.550   5.244 -0.1544 -0.1057  0.4270
    6DOPE  H16X  766   1.775   4.492   5.284  0.9208  0.0514 -1.5343
    6DOPE  H16Y  767   1.742   4.627   5.184  0.4174 -2.0543 -1.7112
    6DOPE  C317  768   1.594   4.475   5.145  0.0538  0.7042  0.1540
    6DOPE  H17X  769   1.505   4.539   5.130 -0.2511  0.5172  1.1213
    6DOPE  H17Y  770   1.655   4.462   5.053  2.0953 -0.6860  1.5982
    6DOPE  C318  771   1.551   4.336   5.193 -0.1200  0.5638  0.1324
    6DOPE  H18X  772   1.528   4.332   5.301 -1.6433 -0.4416 -0.1890
    6DOPE  H18Y  773   1.458   4.318   5.135 -1.0620  4.0670  0.3032
    6DOPE  H18Z  774   1.631   4.260   5.177 -0.6120 -0.1472  0.9687
    7DOPE     N  775   5.090   0.173   7.366 -0.2476  0.0086  0.1575
    7DOPE   HN1  776   5.071   0.092   7.429  1.9492  0.3675  1.4086
    7DOPE   HN2  777   5.193   0.187   7.359 -0.3522  1.3843  0.8343
    7DOPE   HN3  778   5.053   0.263   7.402 -1.0116 -0.5058  0.6849
    7DOPE   C12  779   5.028   0.150   7.234  0.2663 -0.4383 -0.3209
    7DOPE  H12A  780   5.053   0.235   7.167  1.6530  0.3427  1.1097
    7DOPE  H12B  781   4.918   0.156   7.253 -0.0493  3.5968 -2.3817
    7DOPE   C11  782   5.060   0.016   7.172 -0.5899 -0.0127  0.2032
    7DOPE  H11A  783   5.158   0.029   7.122  0.5106 -1.6123  1.8089
    7DOPE  H11B  784   4.986   0.002   7.091 -1.4466  0.3532  0.9045
    7DOPE     P  785   4.938  -0.182   7.280  0.1079 -0.3600  0.0213
    7DOPE   O13  786   4.811  -0.105   7.290  0.1039 -0.1386  0.1561
    7DOPE   O14  787   4.972  -0.276   7.383 -0.3268  0.3199 -0.4237
    7DOPE   O11  788   4.939  -0.255   7.146  0.5906 -0.4492 -0.1466
    7DOPE   O12  789   5.056  -0.088   7.271  0.2025 -0.1145 -0.2473
    7DOPE    C1  790   5.049  -0.313   7.075  0.2777  0.3154  0.4948
    7DOPE    HA  791   5.051  -0.424   7.076  2.2699  0.2153 -2.2993
    7DOPE    HB  792   5.146  -0.288   7.122  0.4736  0.4598  0.0228
    7DOPE    C2  793   5.047  -0.276   6.926 -0.3342  0.1431  0.0484
    7DOPE    HS  794   5.063  -0.166   6.927 -0.6637  0.2212  2.3727
    7DOPE   O21  795   4.920  -0.312   6.868  0.1539  0.4481 -0.2814
    7DOPE   C21  796   4.888  -0.238   6.764 -0.2324 -0.3460  0.4311
    7DOPE   O22  797   4.935  -0.126   6.737  0.5240  0.2795 -0.1123
    7DOPE   C22  798   4.796  -0.316   6.670  0.0115  0.5088 -0.6135
    7DOPE   H2R  799   4.697  -0.328   6.719  0.2748  0.9228  0.0308
    7DOPE   H2S  800   4.833  -0.418   6.645 -1.4069 -0.4261  0.8904
    7DOPE    C3  801   5.175  -0.338   6.857 -0.5047 -1.1028  0.2259
    7DOPE    HX  802   5.176  -0.448   6.851  2.3409 -1.0995 -0.7778
    7DOPE    HY  803   5.259  -0.314   6.927  0.3280 -0.2743 -1.0118
    7DOPE   O31  804   5.205  -0.284   6.724 -0.3329  0.0501 -0.0806
    7DOPE   C31  805   5.282  -0.185   6.717 -0.5532  0.8359 -0.0712
    7DOPE   O32  806   5.348  -0.134   6.809  0.2270 -0.8585  0.1034
    7DOPE   C32  807   5.282  -0.135   6.564 -0.2497  0.3952 -0.2914
    7DOPE   H2X  808   5.315  -0.224   6.507 -1.6654 -1.5361  1.7146
    7DOPE   H2Y  809   5.179  -0.103   6.539 -1.1264 -1.3794  0.8519
    7DOPE   C23  810   4.763  -0.244   6.538 -0.7643  0.4799 -0.1707
    7DOPE   H3R  811   4.725  -0.144   6.566 -1.9600 -0.3401  1.3378
    7DOPE   H3S  812   4.670  -0.288   6.497 -0.4960  0.2897 -0.5845
    7DOPE   C24  813   4.872  -0.251   6.426 -0.2409 -0.4374 -0.8412
    7DOPE   H4R  814   4.909  -0.354   6.410  0.2687 -0.2061 -1.1687
    7DOPE   H4S  815   4.963  -0.193   6.449 -1.1025  0.8858 -0.6216
    7DOPE   C25  816   4.821  -0.187   6.297  0.7926 -0.4900 -0.2700
    7DOPE   H5R  817   4.795  -0.079   6.304  0.5236 -0.5619 -0.1396
    7DOPE   H5S  818   4.724  -0.238   6.278  1.8730 -3.1670  0.8838
    7DOPE   C26  819   4.920  -0.207   6.185 -0.3010  0.6579  0.0963
    7DOPE   H6R  820   4.961  -0.310   6.180  1.3924  1.3626 -1.3492
    7DOPE   H6S  821   5.009  -0.142   6.193 -0.1077  0.3635  0.3509
    7DOPE   C27  822   4.856  -0.194   6.039 -0.1497  0.3188 -0.5040
    7DOPE   H7R  823   4.832  -0.087   6.024  1.4415  0.8954  0.7542
    7DOPE   H7S  824   4.758  -0.247   6.047  0.0270 -0.0221 -0.5700
    7DOPE   C28  825   4.938  -0.249   5.924 -0.7184  0.1489  0.4840
    7DOPE   H8R  826   4.886  -0.225   5.829  0.9639  0.1302 -0.4891
    7DOPE   H8S  827   4.953  -0.359   5.927  0.5582  0.2040 -1.6210
    7DOPE   C29  828   5.074  -0.196   5.911 -0.6611 -0.5668 -0.1406
    7DOPE   H9R  829   5.125  -0.189   6.008 -0.0793  3.0000 -0.5575
    7DOPE  C210  830   5.129  -0.133   5.804  0.1680 -0.3606 -0.1955
    7DOPE  H10R  831   5.235  -0.109   5.816 -0.1890  0.9594  0.5801
    7DOPE  C211  832   5.068  -0.115   5.666 -0.2765  0.0699  0.4258
    7DOPE  H11R  833   4.975  -0.054   5.662  0.5269  1.3367  0.4866
    7DOPE  H11S  834   5.052  -0.215   5.620 -1.3803 -0.9978  2.9750
    7DOPE  C212  835   5.172  -0.050   5.572  0.0996  0.1413 -0.6881
    7DOPE  H12R  836   5.258  -0.119   5.561  1.4129  1.4873  0.6849
    7DOPE  H12S  837   5.211   0.042   5.621 -0.9373  0.6102 -0.7186
    7DOPE  C213  838   5.108  -0.014   5.441 -0.5751 -0.0521  0.4876
    7DOPE  H13R  839   5.178   0.033   5.369  1.1157  0.6362  2.5158
    7DOPE  H13S  840   5.026   0.059   5.462 -2.5407 -1.3919 -1.8949
    7DOPE  C214  841   5.033  -0.132   5.370 -0.1701 -0.1642 -0.0763
    7DOPE  H14R  842   4.977  -0.103   5.278 -0.7372  1.4257  0.7367
    7DOPE  H14S  843   4.953  -0.168   5.438 -0.3225  1.0127  0.4051
    7DOPE  C215  844   5.130  -0.241   5.315 -0.5111 -0.3404  0.9476
    7DOPE  H15R  845   5.166  -0.299   5.403 -1.2840 -0.5721  1.1215
    7DOPE  H15S  846   5.215  -0.197   5.260  0.6019 -1.4134  1.7664
    7DOPE  C216  847   5.068  -0.343   5.217  0.1574 -0.0696 -0.6377
    7DOPE  H16R  848   5.027  -0.284   5.133  0.4272  1.4517  0.2754
    7DOPE  H16S  849   4.982  -0.384   5.275  0.8275  1.9236  1.9324
    7DOPE  C217  850   5.162  -0.451   5.164  0.3710 -0.3589 -0.1837
    7DOPE  H17R  851   5.213  -0.504   5.247 -0.1877  2.2540  1.9695
    7DOPE  H17S  852   5.245  -0.416   5.099  2.7667 -1.5943  2.0456
    7DOPE  C218  853   5.081  -0.557   5.078 -0.3753  0.5944 -0.1524
    7DOPE  H18R  854   5.014  -0.604   5.153  2.2479 -2.0363  0.7646
    7DOPE  H18S  855   5.146  -0.637   5.036 -0.8684 -1.2485  2.3210
    7DOPE  H18T  856   5.026  -0.518   4.990 -0.3981 -0.8810 -0.8154
    7DOPE   C33  857   5.371  -0.010   6.543 -0.2684  0.7081 -0.3956
    7DOPE   H3X  858   5.476  -0.039   6.565  0.0207  0.4154 -2.0577
    7DOPE   H3Y  859   5.354   0.071   6.617  1.7135  1.0903 -0.3080
    7DOPE   C34  860   5.360   0.048   6.403  0.5090  0.2773 -0.0854
    7DOPE   H4X  861   5.253   0.052   6.371  0.8534 -0.4944 -1.4361
    7DOPE   H4Y  862   5.400   0.151   6.413 -1.1041  0.7746  2.0726
    7DOPE   C35  863   5.430  -0.032   6.292  0.2865  0.0013  0.5457
    7DOPE   H5X  864   5.507  -0.095   6.342  0.1899 -0.9819 -0.4997
    7DOPE   H5Y  865   5.483   0.042   6.227  2.0497 -0.1663  1.7193
    7DOPE   C36  866   5.328  -0.111   6.209 -0.1362 -1.0766 -0.1256
    7DOPE   H6X  867   5.258  -0.052   6.145 -1.4832 -1.2084  1.1895
    7DOPE   H6Y  868   5.260  -0.169   6.275  0.5359 -0.8859  0.7488
    7DOPE   C37  869   5.395  -0.200   6.096  0.1572 -0.2859 -0.1780
    7DOPE   H7X  870   5.333  -0.204   6.004  0.1502 -0.3894 -0.1681
    7DOPE   H7Y  871   5.492  -0.155   6.065  0.0397 -1.3912 -2.2929
    7DOPE   C38  872   5.402  -0.348   6.147  0.0843 -0.7948  0.4427
    7DOPE   H8X  873   5.297  -0.380   6.162 -0.2246  0.2580  0.5757
    7DOPE   H8Y  874   5.449  -0.347   6.247 -0.2695 -0.9753  0.6080
    7DOPE   C39  875   5.467  -0.440   6.050 -0.7066  0.5472  0.3624
    7DOPE   H9X  876   5.544  -0.392   5.987 -2.0071  2.4212  0.1305
    7DOPE  C310  877   5.434  -0.569   6.018  0.6274 -0.2751  0.1265
    7DOPE  H10X  878   5.483  -0.620   5.933  1.1829 -2.5779  1.7190
    7DOPE  C311  879   5.319  -0.654   6.071 -0.5468 -1.3876  0.5073
    7DOPE  H11X  880   5.354  -0.759   6.064  0.8691 -0.9089  0.2342
    7DOPE  H11Y  881   5.299  -0.647   6.181 -1.4788  1.6067  0.2421
    7DOPE  C312  882   5.187  -0.634   5.980  0.2329 -0.7442 -0.0106
    7DOPE  H12X  883   5.154  -0.528   5.985 -0.2792 -0.8264 -1.3761
    7DOPE  H12Y  884   5.106  -0.698   6.021  1.2945 -0.4723  2.7031
    7DOPE  C313  885   5.204  -0.654   5.827 -0.4866  0.1465 -0.7859
    7DOPE  H13X  886   5.124  -0.600   5.772 -0.4241  0.2020 -0.8215
    7DOPE  H13Y  887   5.297  -0.602   5.798  1.5147 -2.0875  1.2166
    7DOPE  C314  888   5.213  -0.803   5.790  0.1435 -0.4226 -0.7205
    7DOPE  H14X  889   5.105  -0.824   5.776 -0.4059  2.8162 -2.3759
    7DOPE  H14Y  890   5.265  -0.857   5.872  1.3425  0.6022 -0.7652
    7DOPE  C315  891   5.278  -0.819   5.658  0.2711 -0.2398  0.0415
    7DOPE  H15X  892   5.347  -0.734   5.640 -0.9748  0.5095 -1.5196
    7DOPE  H15Y  893   5.201  -0.804   5.578 -0.4901  1.1762  0.9898
    7DOPE  C316  894   5.342  -0.962   5.648  0.1546 -0.7571  0.0062
    7DOPE  H16X  895   5.265  -1.034   5.683  0.0166  0.3681  2.2005
    7DOPE  H16Y  896   5.428  -0.975   5.717 -0.0363 -0.5097  0.2957
    7DOPE  C317  897   5.389  -0.992   5.506 -0.5381  0.3818  0.4951
    7DOPE  H17X  898   5.307  -1.018   5.437  0.5507  0.6647 -0.9534
    7DOPE  H17Y  899   5.442  -0.902   5.469  1.8855 -0.9004  0.6321
    7DOPE  C318  900   5.501  -1.106   5.507  0.3070  0.0421  0.0773
    7DOPE  H18X  901   5.462  -1.201   5.550 -1.1050  0.7201  0.3377
    7DOPE  H18Y  902   5.540  -1.121   5.404  1.8749 -1.4792  0.8357
    7DOPE  H18Z  903   5.586  -1.075   5.571  0.4878 -0.4965  0.1033
    8DOPE     N  904   6.767   5.650   7.200 -0.0087 -0.2522  0.5032
    8DOPE   HN1  905   6.737   5.713   7.276  0.3855  0.5637 -0.0033
    8DOPE   HN2  906   6.680   5.640   7.144 -0.1565  0.4801  0.5927
    8DOPE   HN3  907   6.799   5.560   7.241  0.3663  0.1477  1.0964
    8DOPE   C12  908   6.874   5.713   7.112 -0.0936  0.0160 -0.0207
    8DOPE  H12A  909   6.965   5.724   7.175  0.3476  2.6266 -0.9649
    8DOPE  H12B  910   6.836   5.814   7.083 -2.0116 -0.8136 -0.5443
    8DOPE   C11  911   6.907   5.628   6.988 -0.2045 -0.7291 -0.3233
    8DOPE  H11A  912   6.997   5.675   6.943 -0.6244  0.4622  0.0156
    8DOPE  H11B  913   6.824   5.643   6.916 -0.3072  1.7161  0.2021
    8DOPE     P  914   7.026   5.388   6.969 -0.0690  0.0933  0.2636
    8DOPE   O13  915   6.969   5.260   6.986  1.2299 -0.3285  0.2253
    8DOPE   O14  916   7.166   5.408   7.019  0.6973 -0.7638  0.7586
    8DOPE   O11  917   7.024   5.437   6.817 -0.2315  0.2531 -0.5401
    8DOPE   O12  918   6.926   5.491   7.031 -0.2538  0.9280 -0.4882
    8DOPE    C1  919   6.940   5.362   6.724  0.1073  0.3180 -0.1788
    8DOPE    HA  920   6.838   5.345   6.763  0.6337 -0.1364  1.0704
    8DOPE    HB  921   6.986   5.261   6.714  0.0664 -0.1175  2.9937
    8DOPE    C2  922   6.922   5.428   6.583  0.3464 -0.1254  0.1928
    8DOPE    HS  923   6.884   5.349   6.516 -2.3692  0.8352  0.4756
    8DOPE   O21  924   7.041   5.473   6.526  0.2111 -0.1912  0.4939
    8DOPE   C21  925   7.149   5.399   6.486 -0.2472  0.2156 -0.9397
    8DOPE   O22  926   7.171   5.280   6.498 -0.2491 -0.1420 -0.0380
    8DOPE   C22  927   7.243   5.499   6.419 -0.7146  0.1661  0.2289
    8DOPE   H2R  928   7.342   5.500   6.469 -0.3869  1.0629 -0.4224
    8DOPE   H2S  929   7.208   5.604   6.420  2.6730  1.4607 -1.4021
    8DOPE    C3  930   6.819   5.543   6.572  1.2305  0.5712 -0.0494
    8DOPE    HX  931   6.848   5.641   6.615  0.2955  1.0045 -0.3873
    8DOPE    HY  932   6.725   5.513   6.621  1.6800  0.1881  0.5943
    8DOPE   O31  933   6.788   5.560   6.437 -0.5103 -0.6624  0.1117
    8DOPE   C31  934   6.707   5.466   6.380  0.2587 -0.1422 -0.6638
    8DOPE   O32  935   6.640   5.383   6.435  0.6119 -0.2000  0.4468
    8DOPE   C32  936   6.708   5.502   6.228  0.8588  0.2521  0.0984
    8DOPE   H2X  937   6.696   5.612   6.220  0.7501  0.3209  1.1160
    8DOPE   H2Y  938   6.808   5.478   6.186  0.5792 -0.3489 -0.2400
    8DOPE   C23  939   7.277   5.442   6.279  0.0469  0.1853  0.1931
    8DOPE   H3R  940   7.184   5.445   6.218  0.1218  0.2168  0.0795
    8DOPE   H3S  941   7.321   5.340   6.277  2.2818  1.0892 -0.2289
    8DOPE   C24  942   7.386   5.518   6.196  0.1666  0.2492 -0.7679
    8DOPE   H4R  943   7.478   5.526   6.258 -0.6698  2.3985  0.2833
    8DOPE   H4S  944   7.348   5.622   6.192 -0.4742  0.2908  2.8372
    8DOPE   C25  945   7.432   5.461   6.062 -0.2025  0.0898 -0.8535
    8DOPE   H5R  946   7.465   5.356   6.081 -0.1468  0.3050  0.3092
    8DOPE   H5S  947   7.524   5.517   6.035  0.9603 -2.1831 -1.8847
    8DOPE   C26  948   7.325   5.469   5.943 -1.1026 -0.2595 -0.0176
    8DOPE   H6R  949   7.271   5.566   5.948  0.1287  0.4028  1.4557
    8DOPE   H6S  950   7.242   5.400   5.971 -1.2350 -0.3720 -0.6600
    8DOPE   C27  951   7.374   5.443   5.799  0.2108  0.5902 -0.3987
    8DOPE   H7R  952   7.292   5.449   5.725  0.9408 -2.6839 -1.6295
    8DOPE   H7S  953   7.412   5.340   5.784  0.1106  0.8422 -2.6303
    8DOPE   C28  954   7.471   5.556   5.753  0.3186  0.3864 -0.3682
    8DOPE   H8R  955   7.570   5.555   5.802 -0.0575  2.4872  0.5170
    8DOPE   H8S  956   7.427   5.649   5.793 -2.7686 -0.8914 -0.5045
    8DOPE   C29  957   7.494   5.566   5.603  0.0333  0.4998 -1.0970
    8DOPE   H9R  958   7.563   5.492   5.560 -0.0098  0.7559 -1.6092
    8DOPE  C210  959   7.419   5.632   5.522  0.6961  0.2217  0.6708
    8DOPE  H10R  960   7.448   5.634   5.416  0.2442 -0.4486  0.5274
    8DOPE  C211  961   7.306   5.724   5.548  0.1960  0.6321 -0.6078
    8DOPE  H11R  962   7.299   5.802   5.468 -0.0046  2.3156  0.9772
    8DOPE  H11S  963   7.314   5.784   5.642  0.0902  0.0227 -0.2076
    8DOPE  C212  964   7.165   5.654   5.546 -0.4678 -0.5333 -0.2757
    8DOPE  H12R  965   7.171   5.584   5.632  1.7526 -2.5038 -1.8999
    8DOPE  H12S  966   7.164   5.589   5.456 -0.5139 -0.4539 -0.3331
    8DOPE  C213  967   7.052   5.758   5.553  0.7549 -0.2296 -0.7430
    8DOPE  H13R  968   6.953   5.709   5.539  1.6224 -2.4591  0.5132
    8DOPE  H13S  969   7.054   5.836   5.474  0.1117  0.6604  0.0827
    8DOPE  C214  970   7.045   5.854   5.674 -0.2167 -0.0964  0.5014
    8DOPE  H14R  971   6.963   5.927   5.653  0.0156 -0.1126 -0.5085
    8DOPE  H14S  972   7.139   5.912   5.690 -1.4734  1.9689  0.7483
    8DOPE  C215  973   6.995   5.786   5.808 -0.1712  0.2660  0.9419
    8DOPE  H15R  974   7.050   5.690   5.818 -1.1936 -0.4466 -0.0664
    8DOPE  H15S  975   6.887   5.769   5.786 -0.2709  2.0147 -0.0546
    8DOPE  C216  976   7.014   5.871   5.933  0.1803  0.1789 -0.5321
    8DOPE  H16R  977   6.973   5.806   6.013  1.3915 -0.0180 -0.0451
    8DOPE  H16S  978   6.946   5.958   5.922  0.3478  0.5085  0.8538
    8DOPE  C217  979   7.161   5.902   5.960 -1.4772  0.2833 -0.5015
    8DOPE  H17R  980   7.187   5.999   5.912  4.1888 -0.6822 -0.0964
    8DOPE  H17S  981   7.217   5.814   5.922 -0.4141  0.9842 -0.6146
    8DOPE  C218  982   7.182   5.913   6.113 -0.3846 -0.5544 -0.2614
    8DOPE  H18R  983   7.147   5.820   6.162  1.7571  0.0679  2.7045
    8DOPE  H18S  984   7.138   6.007   6.154 -2.5628 -1.1738 -1.0203
    8DOPE  H18T  985   7.287   5.923   6.146 -0.3853  2.3949 -0.8051
    8DOPE   C33  986   6.594   5.423   6.154 -0.3392  0.1511  0.2017
    8DOPE   H3X  987   6.495   5.466   6.181  0.5462  1.3414  1.6581
    8DOPE   H3Y  988   6.616   5.316   6.173  1.7015  0.6857  1.1261
    8DOPE   C34  989   6.604   5.452   6.005 -0.4509  0.1172  0.0682
    8DOPE   H4X  990   6.509   5.410   5.966 -0.3596 -0.0359  0.0106
    8DOPE   H4Y  991   6.592   5.562   5.997  2.7141  0.4228 -2.8096
    8DOPE   C35  992   6.725   5.389   5.931 -0.2182 -0.0088  0.0246
    8DOPE   H5X  993   6.730   5.278   5.934 -0.0065  0.0122  0.5626
    8DOPE   H5Y  994   6.816   5.432   5.979  0.3329 -0.2594 -0.7732
    8DOPE   C36  995   6.715   5.439   5.786  0.1156  0.3308  0.0179
    8DOPE   H6X  996   6.706   5.547   5.807  1.5384  0.3268  0.7997
    8DOPE   H6Y  997   6.623   5.399   5.738  0.2698 -1.8747  1.3757
    8DOPE   C37  998   6.835   5.400   5.701 -0.2965 -0.6476 -0.3201
    8DOPE   H7X  999   6.834   5.476   5.620 -1.5272  0.4647  0.7057
    8DOPE   H7Y 1000   6.923   5.412   5.767 -1.7485  0.2415  1.5157
    8DOPE   C38 1001   6.848   5.258   5.638 -0.3521 -0.3071 -0.5439
    8DOPE   H8X 1002   6.866   5.195   5.727  3.5321  1.6023  0.2707
    8DOPE   H8Y 1003   6.952   5.263   5.599  0.4844 -0.2595  1.5396
    8DOPE   C39 1004   6.744   5.221   5.537 -0.3791 -0.3158  0.1278
    8DOPE   H9X 1005   6.640   5.246   5.561 -0.0668  0.5585  0.6168
    8DOPE  C310 1006   6.769   5.176   5.412  0.1552 -0.0153  0.2688
    8DOPE  H10X 1007   6.680   5.141   5.359  0.3410  2.2219 -1.7309
    8DOPE  C311 1008   6.894   5.163   5.339 -0.5778 -0.2791  0.0574
    8DOPE  H11X 1009   6.974   5.211   5.400 -0.1898 -3.0960  1.9463
    8DOPE  H11Y 1010   6.914   5.053   5.335  0.5730 -0.0653 -0.6821
    8DOPE  C312 1011   6.881   5.208   5.196  0.4021  0.2511 -0.3083
    8DOPE  H12X 1012   6.871   5.319   5.193 -3.0395  0.0354 -0.5637
    8DOPE  H12Y 1013   6.789   5.156   5.163 -0.4487  0.1298  2.0443
    8DOPE  C313 1014   7.011   5.174   5.122 -0.8226 -0.1527  0.4025
    8DOPE  H13X 1015   7.041   5.069   5.145  0.6932 -0.0956 -1.1057
    8DOPE  H13Y 1016   7.003   5.184   5.012  0.5460 -1.1007  0.1920
    8DOPE  C314 1017   7.127   5.271   5.167  0.6003 -0.2448  1.3779
    8DOPE  H14X 1018   7.219   5.221   5.129 -1.3846 -2.0616 -1.4908
    8DOPE  H14Y 1019   7.137   5.283   5.277 -2.8239  4.1152  1.5090
    8DOPE  C315 1020   7.117   5.408   5.093 -0.4012  0.7753  0.4158
    8DOPE  H15X 1021   7.039   5.459   5.153 -0.4808 -0.3866  1.3359
    8DOPE  H15Y 1022   7.091   5.401   4.985  3.3899 -0.1913 -0.5754
    8DOPE  C316 1023   7.245   5.491   5.118 -0.0228  0.0636 -0.7090
    8DOPE  H16X 1024   7.328   5.455   5.053  1.1427  2.8841 -0.9316
    8DOPE  H16Y 1025   7.275   5.479   5.225 -2.4592 -1.6280 -0.1248
    8DOPE  C317 1026   7.230   5.637   5.086  0.1156  0.6726  0.0296
    8DOPE  H17X 1027   7.210   5.644   4.977 -0.6088  1.4733  0.2061
    8DOPE  H17Y 1028   7.144   5.679   5.141  1.1850  1.8659  0.8672
    8DOPE  C318 1029   7.348   5.723   5.138 -0.3353 -0.2088  0.0188
    8DOPE  H18X 1030   7.378   5.698   5.242  4.3419 -1.9893 -1.4785
    8DOPE  H18Y 1031   7.319   5.829   5.132  0.0463 -0.0987  0.0497
    8DOPE  H18Z 1032   7.446   5.695   5.091  1.3135  2.2256  1.7744
    9DOPE     N 1033   0.820   4.684   7.318 -0.3160 -0.2369 -0.1214
    9DOPE   HN1 1034   0.870   4.763   7.271 -0.0940  0.3258  1.0235
    9DOPE   HN2 1035   0.731   4.717   7.360 -0.2044 -2.0531  1.6570
    9DOPE   HN3 1036   0.894   4.639   7.375  2.2428  1.3009 -1.9842
    9DOPE   C12 1037   0.786   4.578   7.216  0.1530 -0.3333  0.0555
    9DOPE  H12A 1038   0.884   4.537   7.182  0.9294  0.5230  1.1889
    9DOPE  H12B 1039   0.739   4.633   7.132  1.7244  2.2386  0.7468
    9DOPE   C11 1040   0.717   4.465   7.291  0.0301 -0.1190  0.2100
    9DOPE  H11A 1041   0.790   4.417   7.359  1.6094 -0.9441 -1.9642
    9DOPE  H11B 1042   0.688   4.387   7.217  0.8918 -0.6428  0.4092
    9DOPE     P 1043   0.476   4.420   7.384  0.1313 -0.7202 -0.2598
    9DOPE   O13 1044   0.381   4.504   7.460 -0.1266 -0.1244 -0.0320
    9DOPE   O14 1045   0.524   4.293   7.445 -0.1988  0.0926 -0.2043
    9DOPE   O11 1046   0.432   4.387   7.236 -0.2830 -0.1848  0.6370
    9DOPE   O12 1047   0.601   4.513   7.366  0.2742 -0.6846  0.2751
    9DOPE    C1 1048   0.363   4.489   7.158  0.2501  0.5685  0.6719
    9DOPE    HA 1049   0.415   4.587   7.157  1.7558 -0.0379 -3.9863
    9DOPE    HB 1050   0.261   4.500   7.200  0.1031 -1.1776  0.8580
    9DOPE    C2 1051   0.364   4.451   7.011 -0.8444 -0.3798  0.4379
    9DOPE    HS 1052   0.312   4.353   7.015  0.5833 -1.1892 -0.2612
    9DOPE   O21 1053   0.498   4.446   6.963  0.0072  0.5835 -0.4103
    9DOPE   C21 1054   0.554   4.324   6.956 -0.0889 -0.0437  0.3447
    9DOPE   O22 1055   0.495   4.223   6.987 -0.0081 -0.5452 -0.5772
    9DOPE   C22 1056   0.709   4.330   6.923 -0.2205  0.0055  0.4579
    9DOPE   H2R 1057   0.730   4.238   6.866  3.4045  1.1976 -0.3621
    9DOPE   H2S 1058   0.753   4.317   7.024 -0.5655  0.0509  0.6192
    9DOPE    C3 1059   0.287   4.555   6.924 -0.1114  0.0123 -0.7223
    9DOPE    HX 1060   0.328   4.654   6.954  0.8007 -0.4217 -0.4929
    9DOPE    HY 1061   0.178   4.567   6.941  0.4916  2.5470  2.2093
    9DOPE   O31 1062   0.311   4.522   6.788  0.2960 -0.2385  0.4145
    9DOPE   C31 1063   0.320   4.622   6.699 -0.3379  1.0276  0.6683
    9DOPE   O32 1064   0.330   4.740   6.726 -0.5143 -0.0947 -0.3331
    9DOPE   C32 1065   0.321   4.561   6.561 -0.7933 -0.7286 -0.2774
    9DOPE   H2X 1066   0.417   4.506   6.555 -0.7014 -0.5841 -0.1276
    9DOPE   H2Y 1067   0.225   4.507   6.545  0.1183 -2.0721 -1.4611
    9DOPE   C23 1068   0.761   4.448   6.842 -0.2722  0.9269 -0.5784
    9DOPE   H3R 1069   0.872   4.451   6.849 -0.2369 -0.4309 -0.2942
    9DOPE   H3S 1070   0.731   4.539   6.897 -2.5709  0.7631 -1.4477
    9DOPE   C24 1071   0.702   4.436   6.696 -0.1573 -0.2368  0.1259
    9DOPE   H4R 1072   0.594   4.463   6.690  0.3459  1.8320 -0.5997
    9DOPE   H4S 1073   0.719   4.334   6.656  2.2744  0.7946 -1.7290
    9DOPE   C25 1074   0.765   4.535   6.599 -0.8189  0.2326  0.1572
    9DOPE   H5R 1075   0.875   4.521   6.601 -0.6932  1.2279  1.4014
    9DOPE   H5S 1076   0.756   4.635   6.647  2.4966 -0.1902  1.8850
    9DOPE   C26 1077   0.719   4.540   6.450 -0.5685 -0.2306 -0.1724
    9DOPE   H6R 1078   0.757   4.623   6.386  0.7728 -0.7412 -0.0583
    9DOPE   H6S 1079   0.609   4.547   6.466 -0.1710 -0.7552  3.4945
    9DOPE   C27 1080   0.752   4.410   6.384 -0.0796  0.1378  0.1873
    9DOPE   H7R 1081   0.773   4.329   6.458  1.5961  1.2340  0.9901
    9DOPE   H7S 1082   0.844   4.421   6.322 -0.7411  1.6255 -0.5756
    9DOPE   C28 1083   0.649   4.363   6.291  0.2496  0.0423  0.4215
    9DOPE   H8R 1084   0.631   4.447   6.220 -1.4390  0.1686  0.9711
    9DOPE   H8S 1085   0.555   4.357   6.349 -0.4400  3.4249 -0.1113
    9DOPE   C29 1086   0.661   4.228   6.220  0.5218  0.6088 -0.1760
    9DOPE   H9R 1087   0.649   4.139   6.284 -0.3456  2.0715  1.8042
    9DOPE  C210 1088   0.695   4.207   6.094 -0.0976  0.4671  0.1432
    9DOPE  H10R 1089   0.689   4.106   6.053  0.9944  1.2416 -2.0980
    9DOPE  C211 1090   0.714   4.322   6.000 -0.3970  0.2676  0.9824
    9DOPE  H11R 1091   0.631   4.395   5.998  0.3373  1.1259 -1.0105
    9DOPE  H11S 1092   0.715   4.283   5.896  1.0168 -1.3720  1.5625
    9DOPE  C212 1093   0.846   4.405   6.001  0.1778  0.2176 -0.2201
    9DOPE  H12R 1094   0.936   4.341   6.011 -0.1249  0.1129  2.8957
    9DOPE  H12S 1095   0.863   4.474   6.087  2.0434  1.5978 -1.6060
    9DOPE  C213 1096   0.855   4.494   5.873  0.2242  0.9403  0.5944
    9DOPE  H13R 1097   0.906   4.591   5.892 -0.5755  1.6513 -0.7097
    9DOPE  H13S 1098   0.757   4.528   5.832  0.7207 -0.0181 -1.5335
    9DOPE  C214 1099   0.948   4.432   5.764 -0.1984  0.2457  0.4913
    9DOPE  H14R 1100   0.908   4.331   5.738  1.2694  0.0851 -1.3574
    9DOPE  H14S 1101   1.049   4.411   5.805 -1.1699 -5.1706  0.8139
    9DOPE  C215 1102   0.961   4.524   5.646  0.0522 -0.1101 -0.1828
    9DOPE  H15R 1103   0.992   4.624   5.683  0.7712 -0.0543 -0.9005
    9DOPE  H15S 1104   0.861   4.540   5.600 -1.0117 -0.9536  1.7442
    9DOPE  C216 1105   1.059   4.479   5.538  1.0188  0.3822 -0.6295
    9DOPE  H16R 1106   1.004   4.404   5.477 -0.6196  0.6046  0.5260
    9DOPE  H16S 1107   1.144   4.428   5.589 -1.0808 -0.0062  2.7532
    9DOPE  C217 1108   1.109   4.596   5.450  0.6376  0.0611  0.3355
    9DOPE  H17R 1109   1.162   4.673   5.509  2.4574 -0.1382 -0.9530
    9DOPE  H17S 1110   1.016   4.639   5.407  1.1373  0.4720 -0.3489
    9DOPE  C218 1111   1.208   4.556   5.345 -0.1517 -0.3499  0.3949
    9DOPE  H18R 1112   1.161   4.507   5.256  0.4209  0.0263 -0.1235
    9DOPE  H18S 1113   1.289   4.492   5.384 -0.0732 -0.7848 -0.4478
    9DOPE  H18T 1114   1.264   4.642   5.304  0.1105  0.8710  3.1162
    9DOPE   C33 1115   0.340   4.670   6.453 -0.3746 -0.3110  0.6203
    9DOPE   H3X 1116   0.432   4.729   6.471  0.0617 -0.8036  0.0500
    9DOPE   H3Y 1117   0.271   4.756   6.467  3.0171  2.8115 -0.3058
    9DOPE   C34 1118   0.340   4.609   6.308 -0.2052 -0.3559 -0.2833
    9DOPE   H4X 1119   0.425   4.538   6.311 -0.0269 -0.1047  1.0621
    9DOPE   H4Y 1120   0.250   4.545   6.308  1.7493 -3.4270  2.1468
    9DOPE   C35 1121   0.329   4.711   6.196 -0.2633 -0.4295  0.5699
    9DOPE   H5X 1122   0.412   4.786   6.194 -0.3709 -0.0742  3.9359
    9DOPE   H5Y 1123   0.244   4.780   6.213 -0.3926 -0.8724  1.8306
    9DOPE   C36 1124   0.317   4.649   6.058  0.1256 -0.1785  0.2468
    9DOPE   H6X 1125   0.230   4.693   6.006  3.2829  2.2072 -3.6658
    9DOPE   H6Y 1126   0.292   4.542   6.073 -4.0257  0.6478  0.2777
    9DOPE   C37 1127   0.444   4.663   5.983 -0.4690  0.0742 -0.0174
    9DOPE   H7X 1128   0.469   4.771   5.978 -0.0118  0.0481  1.3623
    9DOPE   H7Y 1129   0.529   4.607   6.028  0.2743  0.6925 -0.6334
    9DOPE   C38 1130   0.428   4.628   5.833 -0.3173 -0.0587  0.2117
    9DOPE   H8X 1131   0.517   4.667   5.778 -0.5338 -0.9878 -0.8538
    9DOPE   H8Y 1132   0.344   4.691   5.796  0.0990  0.1709 -0.3607
    9DOPE   C39 1133   0.387   4.490   5.778 -0.5808  0.5452  0.2694
    9DOPE   H9X 1134   0.298   4.445   5.823 -0.7037 -1.3984 -1.7846
    9DOPE  C310 1135   0.432   4.436   5.663 -0.2752  0.3879 -0.9265
    9DOPE  H10X 1136   0.384   4.350   5.614 -0.1476  0.1149 -0.5716
    9DOPE  C311 1137   0.560   4.472   5.596 -0.0619 -0.5480 -0.0645
    9DOPE  H11X 1138   0.626   4.533   5.661  2.2700 -4.0589  1.1582
    9DOPE  H11Y 1139   0.623   4.384   5.568  1.2099 -0.3504  1.9709
    9DOPE  C312 1140   0.547   4.563   5.468 -0.0343 -0.1535  0.7967
    9DOPE  H12X 1141   0.509   4.662   5.502 -0.3505  1.1506 -2.9297
    9DOPE  H12Y 1142   0.471   4.525   5.397 -1.1624  1.6576  0.9549
    9DOPE  C313 1143   0.680   4.592   5.391  0.3317  0.0552 -0.3720
    9DOPE  H13X 1144   0.740   4.660   5.455 -0.5226  1.3426 -0.9052
    9DOPE  H13Y 1145   0.736   4.497   5.377  1.1232  0.1896  1.5992
    9DOPE  C314 1146   0.649   4.657   5.261 -0.4456 -0.9031  0.0692
    9DOPE  H14X 1147   0.613   4.761   5.280  0.8125 -0.3926 -0.2228
    9DOPE  H14Y 1148   0.558   4.607   5.223 -0.9807  1.2305 -1.6350
    9DOPE  C315 1149   0.768   4.644   5.158 -0.2886 -0.3213  0.6407
    9DOPE  H15X 1150   0.820   4.547   5.176  0.8078 -0.3607 -2.2612
    9DOPE  H15Y 1151   0.847   4.713   5.195 -0.1596 -0.2647  0.2639
    9DOPE  C316 1152   0.748   4.685   5.009 -0.1034  0.6530  0.1670
    9DOPE  H16X 1153   0.846   4.665   4.962 -0.1039 -2.6695  1.2741
    9DOPE  H16Y 1154   0.722   4.793   4.998  1.7825  0.9929 -1.3927
    9DOPE  C317 1155   0.631   4.609   4.943  0.0723  0.2209 -0.7251
    9DOPE  H17X 1156   0.666   4.504   4.942 -0.6120 -0.0142 -0.6090
    9DOPE  H17Y 1157   0.542   4.604   5.009  0.3775 -0.4056 -0.3551
    9DOPE  C318 1158   0.594   4.647   4.800 -0.9406 -0.7373 -0.1285
    9DOPE  H18X 1159   0.551   4.749   4.807  2.2358  0.6281  1.3685
    9DOPE  H18Y 1160   0.691   4.644   4.745 -0.6527 -0.8849  0.3831
    9DOPE  H18Z 1161   0.522   4.573   4.759 -1.4073 -1.3382  1.6981
   10DOPE     N 1162   0.494   6.955   6.938  0.1102 -0.0043 -0.4406
   10DOPE   HN1 1163   0.542   6.961   7.029 -1.0403 -2.9857  0.4619
   10DOPE   HN2 1164   0.411   7.018   6.933 -0.3210 -0.4735  0.6099
   10DOPE   HN3 1165   0.457   6.858   6.946  0.0138 -0.0176 -0.9690
   10DOPE   C12 1166   0.591   6.964   6.829 -0.5787 -0.2951 -0.1244
   10DOPE  H12A 1167   0.632   7.066   6.817  1.4023 -1.2436 -2.3631
   10DOPE  H12B 1168   0.544   6.930   6.734  0.5566  0.3511 -0.9343
   10DOPE   C11 1169   0.706   6.860   6.863  0.3727  0.0986 -0.2684
   10DOPE  H11A 1170   0.784   6.858   6.785  2.5805  2.8882  1.6167
   10DOPE  H11B 1171   0.658   6.761   6.876  2.4470 -0.9465 -0.1028
   10DOPE     P 1172   0.843   6.808   7.077  0.1446 -0.1603  0.0448
   10DOPE   O13 1173   0.740   6.773   7.178 -0.3650 -0.3498  0.9539
   10DOPE   O14 1174   0.974   6.864   7.120  0.0240  0.8752  0.4932
   10DOPE   O11 1175   0.872   6.691   6.983 -0.8914 -0.0915 -0.3042
   10DOPE   O12 1176   0.774   6.913   6.981  0.0516  0.0813  0.0360
   10DOPE    C1 1177   0.981   6.596   6.996  0.5153 -0.3225 -0.3503
   10DOPE    HA 1178   0.956   6.517   7.070  2.3043 -0.2088  0.4335
   10DOPE    HB 1179   1.079   6.641   7.025 -0.3361  0.1980  1.9325
   10DOPE    C2 1180   0.977   6.519   6.861 -0.0826  0.0777 -0.9114
   10DOPE    HS 1181   1.055   6.440   6.863 -0.1255  0.0400 -0.7200
   10DOPE   O21 1182   0.994   6.606   6.748 -0.3066 -0.7293  0.1940
   10DOPE   C21 1183   1.115   6.661   6.742 -0.6527  0.2972 -0.3624
   10DOPE   O22 1184   1.209   6.633   6.815 -0.3050 -0.2688 -0.4998
   10DOPE   C22 1185   1.125   6.758   6.623 -0.5384 -0.0198  0.3887
   10DOPE   H2R 1186   1.098   6.856   6.666 -3.9410 -1.0031  0.8013
   10DOPE   H2S 1187   1.054   6.713   6.550 -0.7073 -1.1333  1.2123
   10DOPE    C3 1188   0.840   6.442   6.841 -0.5126  0.2972 -0.2512
   10DOPE    HX 1189   0.764   6.519   6.815  1.1504  1.4562 -2.0107
   10DOPE    HY 1190   0.823   6.397   6.941  0.2000  1.4138  0.4088
   10DOPE   O31 1191   0.845   6.347   6.733 -0.5237  0.0191  0.4873
   10DOPE   C31 1192   0.903   6.229   6.768 -0.0210  0.9660  0.3699
   10DOPE   O32 1193   0.936   6.206   6.884 -0.1704  0.1699  0.3833
   10DOPE   C32 1194   0.917   6.141   6.647  0.0113  0.0639  0.0979
   10DOPE   H2X 1195   0.816   6.135   6.600 -0.3984  0.1245  0.9484
   10DOPE   H2Y 1196   0.994   6.189   6.583 -1.1390  0.1023 -1.2983
   10DOPE   C23 1197   1.268   6.776   6.575 -0.0131 -0.5366 -0.3029
   10DOPE   H3R 1198   1.330   6.687   6.597 -1.1910 -0.9325  1.6907
   10DOPE   H3S 1199   1.307   6.865   6.630 -2.6073  0.6927 -0.3193
   10DOPE   C24 1200   1.268   6.808   6.425 -0.1555  0.3844  0.4843
   10DOPE   H4R 1201   1.220   6.732   6.360 -1.6589 -1.3542  3.3857
   10DOPE   H4S 1202   1.377   6.809   6.403 -0.4239  0.9905 -0.9266
   10DOPE   C25 1203   1.207   6.949   6.399  0.0999  0.1999  0.3974
   10DOPE   H5R 1204   1.257   7.029   6.457 -0.2798 -0.0833  1.1235
   10DOPE   H5S 1205   1.102   6.942   6.434  0.1057  1.7649  0.7685
   10DOPE   C26 1206   1.219   6.998   6.249  0.2956  0.2183  0.6377
   10DOPE   H6R 1207   1.195   6.912   6.183  2.4317  1.4339 -1.9232
   10DOPE   H6S 1208   1.322   7.035   6.233  0.7890 -1.1259  0.6029
   10DOPE   C27 1209   1.118   7.115   6.221 -0.2003 -0.2751  0.8661
   10DOPE   H7R 1210   1.129   7.199   6.293 -1.2104 -0.6289  1.4627
   10DOPE   H7S 1211   1.017   7.070   6.230 -0.3846 -0.3384 -1.1496
   10DOPE   C28 1212   1.135   7.184   6.080 -0.4693  1.1791 -0.9745
   10DOPE   H8R 1213   1.241   7.216   6.083  0.3838 -1.3908 -0.8925
   10DOPE   H8S 1214   1.057   7.262   6.075 -1.2082  0.5738  0.5010
   10DOPE   C29 1215   1.123   7.084   5.965 -0.3310  0.5250 -0.1914
   10DOPE   H9R 1216   1.104   6.980   5.995 -0.2393 -0.1491 -2.3055
   10DOPE  C210 1217   1.098   7.115   5.842  0.9699  0.2043 -0.4345
   10DOPE  H10R 1218   1.098   7.036   5.765  1.6864  1.5407 -1.8594
   10DOPE  C211 1219   1.089   7.256   5.795  1.0929 -1.2742 -0.1807
   10DOPE  H11R 1220   1.009   7.315   5.843  2.1791  0.4599 -0.4062
   10DOPE  H11S 1221   1.064   7.251   5.687  0.2862 -1.0275 -0.0073
   10DOPE  C212 1222   1.217   7.345   5.813  0.1810 -0.0747  0.6085
   10DOPE  H12R 1223   1.301   7.298   5.757 -0.7051 -1.3698  0.3105
   10DOPE  H12S 1224   1.245   7.343   5.920  2.5890  1.7514  0.0961
   10DOPE  C213 1225   1.203   7.490   5.766  0.4484 -0.2642 -0.6319
   10DOPE  H13R 1226   1.098   7.512   5.795 -0.2713 -1.7361 -2.0035
   10DOPE  H13S 1227   1.206   7.476   5.656 -0.8325  2.6971 -1.1218
   10DOPE  C214 1228   1.323   7.584   5.809  0.0592 -0.5131 -0.3311
   10DOPE  H14R 1229   1.416   7.531   5.782  0.3711 -0.2470  0.2199
   10DOPE  H14S 1230   1.323   7.597   5.919 -0.2451 -2.4455 -0.0634
   10DOPE  C215 1231   1.316   7.729   5.756 -0.0432  0.8118 -0.0844
   10DOPE  H15R 1232   1.213   7.758   5.785 -0.7329  0.1225 -1.7116
   10DOPE  H15S 1233   1.324   7.733   5.646 -0.5748  0.4228 -0.1434
   10DOPE  C216 1234   1.420   7.822   5.808  0.7137 -0.2166 -0.3472
   10DOPE  H16R 1235   1.423   7.814   5.919  1.0021 -0.0170 -0.3406
   10DOPE  H16S 1236   1.394   7.928   5.787  0.0774  1.0790  5.4078
   10DOPE  C217 1237   1.560   7.782   5.770  0.0437  0.0525 -0.2324
   10DOPE  H17R 1238   1.559   7.764   5.660 -0.2903 -1.3141 -0.0137
   10DOPE  H17S 1239   1.594   7.684   5.809 -1.2903 -0.6867 -0.8290
   10DOPE  C218 1240   1.670   7.870   5.820  0.4057  0.0914 -0.5549
   10DOPE  H18R 1241   1.761   7.820   5.861 -1.1167 -0.6277  2.1872
   10DOPE  H18S 1242   1.642   7.938   5.904  0.6206 -0.4419 -0.0386
   10DOPE  H18T 1243   1.715   7.934   5.742  0.4221 -0.0262 -0.6423
   10DOPE   C33 1244   0.959   5.997   6.685 -0.2111  0.1277  0.0035
   10DOPE   H3X 1245   0.885   5.954   6.756 -2.6905 -0.0366 -2.5285
   10DOPE   H3Y 1246   1.061   5.977   6.724 -0.3462 -2.1563 -0.6901
   10DOPE   C34 1247   0.944   5.904   6.556  0.1051 -0.5392  0.6668
   10DOPE   H4X 1248   0.947   5.795   6.576 -1.2916 -0.7278 -0.0479
   10DOPE   H4Y 1249   0.845   5.916   6.508  1.1361 -0.5573 -1.5771
   10DOPE   C35 1250   1.055   5.944   6.450 -0.5961 -0.4932  0.1513
   10DOPE   H5X 1251   1.158   5.931   6.491 -0.4645  2.8627  1.1986
   10DOPE   H5Y 1252   1.051   6.053   6.429  1.7522 -0.3936 -0.0451
   10DOPE   C36 1253   1.044   5.870   6.314  0.4782 -0.1295  0.0469
   10DOPE   H6X 1254   1.050   5.763   6.343 -2.2078 -0.6075 -0.8898
   10DOPE   H6Y 1255   1.134   5.900   6.256  0.0009 -2.4245 -2.0593
   10DOPE   C37 1256   0.909   5.893   6.239 -0.7920  0.0296  0.0141
   10DOPE   H7X 1257   0.920   5.822   6.154  1.3217 -0.7270  0.8353
   10DOPE   H7Y 1258   0.820   5.864   6.298 -0.5075 -1.0443 -0.0685
   10DOPE   C38 1259   0.880   6.037   6.188  0.2581  0.0112  0.2558
   10DOPE   H8X 1260   0.870   6.098   6.280  2.8551  0.1123  0.5565
   10DOPE   H8Y 1261   0.786   6.032   6.128 -0.2716 -1.8372  1.1549
   10DOPE   C39 1262   0.994   6.106   6.106  0.3490  0.2155 -0.6803
   10DOPE   H9X 1263   1.084   6.126   6.167 -0.3288 -0.2622  0.5215
   10DOPE  C310 1264   0.985   6.132   5.974  0.0047  0.2542  0.3323
   10DOPE  H10X 1265   1.075   6.166   5.923 -0.2128 -0.5241 -0.6052
   10DOPE  C311 1266   0.872   6.098   5.886 -0.0214 -0.2102 -0.7495
   10DOPE  H11X 1267   0.818   6.009   5.924 -0.1578 -0.0392 -0.5329
   10DOPE  H11Y 1268   0.795   6.178   5.879  1.0919  0.7469 -3.0483
   10DOPE  C312 1269   0.912   6.071   5.738 -0.1494 -0.1228  0.5904
   10DOPE  H12X 1270   0.964   6.161   5.697  1.4137 -1.3139 -0.1587
   10DOPE  H12Y 1271   0.818   6.059   5.679 -0.2209  1.5589  0.2973
   10DOPE  C313 1272   1.011   5.958   5.707 -0.0741 -0.4565  0.5727
   10DOPE  H13X 1273   1.113   5.985   5.742 -0.4272  1.5556  0.1642
   10DOPE  H13Y 1274   0.978   5.863   5.755 -0.7868 -0.5430 -0.0738
   10DOPE  C314 1275   1.016   5.943   5.554  0.1865  0.3101  0.2222
   10DOPE  H14X 1276   1.022   6.042   5.504 -1.4795  0.7469  0.8074
   10DOPE  H14Y 1277   0.929   5.886   5.515  0.1665 -0.6180  1.5513
   10DOPE  C315 1278   1.136   5.864   5.495  0.2888 -0.5337  0.3360
   10DOPE  H15X 1279   1.161   5.773   5.554 -0.1836 -1.9264 -1.5311
   10DOPE  H15Y 1280   1.227   5.928   5.492  0.4723 -0.7623  0.9803
   10DOPE  C316 1281   1.111   5.815   5.353  0.3570  0.0452  0.4006
   10DOPE  H16X 1282   1.059   5.717   5.342 -1.5051  0.9094  1.1590
   10DOPE  H16Y 1283   1.212   5.807   5.307  0.0439 -4.1041  0.0612
   10DOPE  C317 1284   1.046   5.916   5.257 -0.4966  0.3458  1.1791
   10DOPE  H17X 1285   1.028   5.862   5.162 -2.2168 -0.2045  1.7914
   10DOPE  H17Y 1286   0.945   5.948   5.288 -0.9956 -0.0703  0.0244
   10DOPE  C318 1287   1.125   6.043   5.231 -0.7575  0.7047  0.5379
   10DOPE  H18X 1288   1.158   6.096   5.323 -0.8700 -1.0541  1.6415
   10DOPE  H18Y 1289   1.217   6.020   5.173 -1.1739  4.1341 -1.7585
   10DOPE  H18Z 1290   1.061   6.111   5.171 -1.6885 -0.8579 -0.2874
   11DOPE     N 1291   0.834   2.967   7.105  0.1469 -0.3393 -0.1904
   11DOPE   HN1 1292   0.849   3.047   7.170  0.1102  0.7662 -1.4862
   11DOPE   HN2 1293   0.859   2.996   7.008 -0.9549  0.3151 -0.3035
   11DOPE   HN3 1294   0.732   2.948   7.102 -0.5622  2.0288  3.1928
   11DOPE   C12 1295   0.907   2.844   7.151 -0.0364 -0.5873  0.0355
   11DOPE  H12A 1296   0.849   2.803   7.237 -3.5539 -0.1279 -1.9192
   11DOPE  H12B 1297   1.005   2.879   7.190 -0.7203  1.9412 -0.3541
   11DOPE   C11 1298   0.932   2.739   7.040  0.5171  0.8684  0.2141
   11DOPE  H11A 1299   1.000   2.654   7.062  0.8423  1.3396  1.0731
   11DOPE  H11B 1300   0.986   2.792   6.960  0.7072  1.2358  0.5860
   11DOPE     P 1301   0.732   2.573   7.062  0.5593  0.0122  0.2172
   11DOPE   O13 1302   0.658   2.636   7.174 -0.0380 -0.3172 -0.2161
   11DOPE   O14 1303   0.827   2.462   7.099  0.5291 -0.6061 -0.3373
   11DOPE   O11 1304   0.623   2.525   6.955  0.3815  0.2151  0.2441
   11DOPE   O12 1305   0.805   2.690   6.990  0.1447  0.1462 -0.4897
   11DOPE    C1 1306   0.669   2.496   6.821  0.1242  0.4757 -0.1862
   11DOPE    HA 1307   0.607   2.413   6.781  0.9907  0.2943 -1.1834
   11DOPE    HB 1308   0.774   2.461   6.814 -0.0502 -0.0554 -0.1909
   11DOPE    C2 1309   0.642   2.619   6.723 -0.2886  0.1326 -1.3395
   11DOPE    HS 1310   0.623   2.707   6.789 -0.1697 -1.8877  1.6241
   11DOPE   O21 1311   0.530   2.596   6.649  0.0470 -0.4544  0.7293
   11DOPE   C21 1312   0.448   2.703   6.628 -0.0786 -0.1047  0.4236
   11DOPE   O22 1313   0.471   2.819   6.660 -0.0985  0.3942 -0.0430
   11DOPE   C22 1314   0.313   2.663   6.562 -0.6479 -0.2270 -0.0450
   11DOPE   H2R 1315   0.230   2.686   6.632 -1.3209 -0.0597 -0.8842
   11DOPE   H2S 1316   0.322   2.554   6.547 -0.5653 -0.6568  2.6041
   11DOPE    C3 1317   0.762   2.627   6.629 -0.5449 -1.2495  0.4158
   11DOPE    HX 1318   0.769   2.529   6.578  1.0210 -1.0773  0.2529
   11DOPE    HY 1319   0.851   2.648   6.692  0.6485 -0.8502 -1.3175
   11DOPE   O31 1320   0.737   2.727   6.521  0.3286 -0.8288  0.2919
   11DOPE   C31 1321   0.796   2.846   6.523 -0.0740 -0.0240 -0.0325
   11DOPE   O32 1322   0.891   2.878   6.598  0.1448  0.2242  0.0684
   11DOPE   C32 1323   0.730   2.937   6.421  0.0875 -0.3231 -0.1407
   11DOPE   H2X 1324   0.622   2.941   6.449 -0.8776  0.2954 -3.4511
   11DOPE   H2Y 1325   0.787   3.032   6.427  1.3390 -1.0822  0.2421
   11DOPE   C23 1326   0.284   2.747   6.436  0.1046  0.4128  0.3808
   11DOPE   H3R 1327   0.300   2.855   6.455  1.6183  0.5799 -1.5158
   11DOPE   H3S 1328   0.175   2.734   6.418 -0.1856  0.2620  2.0844
   11DOPE   C24 1329   0.372   2.690   6.327  0.8394 -0.1257  0.3638
   11DOPE   H4R 1330   0.337   2.587   6.304  2.3087 -0.5393 -0.1756
   11DOPE   H4S 1331   0.481   2.688   6.349  1.4136  0.2786 -2.0781
   11DOPE   C25 1332   0.354   2.769   6.196  0.0405 -0.4188 -0.4625
   11DOPE   H5R 1333   0.395   2.872   6.207 -1.5109  0.0457  1.8088
   11DOPE   H5S 1334   0.246   2.770   6.173 -0.2759 -1.1866  0.9180
   11DOPE   C26 1335   0.422   2.709   6.072  0.6044 -0.0752 -0.7678
   11DOPE   H6R 1336   0.377   2.607   6.068  0.1550 -0.0480  1.7383
   11DOPE   H6S 1337   0.529   2.694   6.099  0.4810  0.7591  0.2444
   11DOPE   C27 1338   0.391   2.780   5.942  0.3377 -0.3715 -0.0986
   11DOPE   H7R 1339   0.456   2.870   5.932 -0.3364  0.7887  3.8776
   11DOPE   H7S 1340   0.287   2.819   5.946  0.4993  0.0924 -0.3498
   11DOPE   C28 1341   0.402   2.689   5.825  0.0888 -0.2878 -0.6499
   11DOPE   H8R 1342   0.367   2.743   5.735 -0.2261  0.0091 -0.3552
   11DOPE   H8S 1343   0.322   2.614   5.842  0.7350 -0.8385  0.0263
   11DOPE   C29 1344   0.540   2.619   5.809 -0.4629 -0.4567  1.0750
   11DOPE   H9R 1345   0.621   2.692   5.825 -2.7780  3.0869 -1.6317
   11DOPE  C210 1346   0.561   2.496   5.749 -0.2750 -0.4491  0.7609
   11DOPE  H10R 1347   0.663   2.454   5.750 -0.0479  0.0945  0.7085
   11DOPE  C211 1348   0.465   2.402   5.680  0.0820 -0.2695 -0.4325
   11DOPE  H11R 1349   0.370   2.404   5.739  0.2367 -0.5426 -0.1716
   11DOPE  H11S 1350   0.496   2.295   5.682  0.9073 -0.0526  1.8468
   11DOPE  C212 1351   0.422   2.454   5.540 -0.1117  0.2075 -0.0441
   11DOPE  H12R 1352   0.375   2.554   5.553 -0.7951  0.0144 -1.0138
   11DOPE  H12S 1353   0.342   2.384   5.511  0.8820 -0.3404 -1.5917
   11DOPE  C213 1354   0.531   2.438   5.430  0.2800 -0.2084 -0.0115
   11DOPE  H13R 1355   0.584   2.341   5.422  0.0207 -0.2745 -1.0828
   11DOPE  H13S 1356   0.600   2.521   5.459 -1.0745  1.1672 -0.5963
   11DOPE  C214 1357   0.474   2.472   5.293  0.1160  0.6390 -0.1419
   11DOPE  H14R 1358   0.425   2.572   5.292  2.5497  1.8944 -1.0821
   11DOPE  H14S 1359   0.394   2.396   5.276  1.0020 -0.5229  0.6584
   11DOPE  C215 1360   0.571   2.504   5.184 -0.5258  0.0317  0.4807
   11DOPE  H15R 1361   0.521   2.513   5.085  1.1921 -0.5258 -0.4872
   11DOPE  H15S 1362   0.646   2.422   5.178 -0.1348  0.4532 -0.6578
   11DOPE  C216 1363   0.640   2.637   5.204  0.3532 -0.5961  0.0495
   11DOPE  H16R 1364   0.679   2.647   5.307  0.1372  1.0522 -0.0112
   11DOPE  H16S 1365   0.580   2.725   5.173  0.9061 -0.7315 -1.5045
   11DOPE  C217 1366   0.769   2.639   5.112 -0.0540 -0.0196 -0.5368
   11DOPE  H17R 1367   0.839   2.558   5.138  1.8063  1.5347 -0.4840
   11DOPE  H17S 1368   0.831   2.728   5.136  0.2078  0.0348 -1.3701
   11DOPE  C218 1369   0.764   2.640   4.962  0.0937 -0.0409 -1.0323
   11DOPE  H18R 1370   0.744   2.740   4.917  0.2979 -0.2313 -1.5465
   11DOPE  H18S 1371   0.682   2.578   4.920  0.8027 -1.1644 -0.7923
   11DOPE  H18T 1372   0.852   2.586   4.923  0.0936 -1.4234  0.7141
   11DOPE   C33 1373   0.728   2.874   6.278 -0.7470 -0.3687  0.0374
   11DOPE   H3X 1374   0.656   2.933   6.216  0.5932  0.0229 -1.2089
   11DOPE   H3Y 1375   0.680   2.773   6.275 -1.9548  0.2008 -1.0476
   11DOPE   C34 1376   0.861   2.881   6.200  0.0079 -0.6002 -0.1126
   11DOPE   H4X 1377   0.863   2.978   6.146  0.2612 -0.0133  0.9250
   11DOPE   H4Y 1378   0.944   2.880   6.274  0.4096  0.3005 -0.5379
   11DOPE   C35 1379   0.866   2.762   6.103 -0.3600  0.5010  0.0903
   11DOPE   H5X 1380   0.767   2.741   6.058  0.1706  1.4869 -1.5965
   11DOPE   H5Y 1381   0.894   2.672   6.162  0.5009  0.1716 -0.7973
   11DOPE   C36 1382   0.985   2.768   6.011  0.9374  0.4802 -0.3614
   11DOPE   H6X 1383   1.078   2.814   6.051  1.0355 -0.5411  0.6364
   11DOPE   H6Y 1384   0.955   2.836   5.928 -1.6745  0.9847  0.8976
   11DOPE   C37 1385   1.023   2.638   5.938  0.1847 -0.2665  0.2391
   11DOPE   H7X 1386   1.066   2.560   6.005  0.5735 -0.0144  0.2858
   11DOPE   H7Y 1387   0.939   2.583   5.891  0.6684 -0.7047 -0.1216
   11DOPE   C38 1388   1.140   2.646   5.833  0.1985 -0.2046 -0.3804
   11DOPE   H8X 1389   1.151   2.543   5.792  1.3035 -0.5957  0.8328
   11DOPE   H8Y 1390   1.236   2.669   5.883  0.6907  2.0933 -2.2044
   11DOPE   C39 1391   1.123   2.743   5.723  0.2551  0.1606 -0.5879
   11DOPE   H9X 1392   1.161   2.844   5.745 -2.6383  0.7247  2.5843
   11DOPE  C310 1393   1.041   2.714   5.614  0.9645 -0.0995  0.3675
   11DOPE  H10X 1394   1.004   2.792   5.545  1.1548  0.7459  1.1955
   11DOPE  C311 1395   0.962   2.584   5.590 -0.3303  0.1894 -0.0431
   11DOPE  H11X 1396   1.013   2.503   5.647 -1.6940 -1.9340 -1.7033
   11DOPE  H11Y 1397   0.856   2.589   5.620 -0.0051 -0.5653  1.3296
   11DOPE  C312 1398   0.995   2.531   5.442  0.2034 -0.1926 -0.1864
   11DOPE  H12X 1399   1.104   2.520   5.422  0.0101  0.0113 -1.4186
   11DOPE  H12Y 1400   0.955   2.596   5.361 -1.1481 -0.8220 -0.0501
   11DOPE  C313 1401   0.940   2.387   5.426 -0.2137 -0.7980  0.2101
   11DOPE  H13X 1402   0.990   2.320   5.499  0.8776 -0.9579 -0.6683
   11DOPE  H13Y 1403   0.829   2.391   5.431 -0.2163  0.4248 -0.3848
   11DOPE  C314 1404   0.977   2.312   5.297 -0.0818  0.5264 -0.0678
   11DOPE  H14X 1405   1.087   2.300   5.297 -0.1030  0.3313 -0.0622
   11DOPE  H14Y 1406   0.956   2.371   5.205  1.9891 -0.4984 -1.2755
   11DOPE  C315 1407   0.914   2.168   5.292  0.1395 -1.0277 -0.3659
   11DOPE  H15X 1408   0.939   2.120   5.195 -2.0089 -2.8515 -0.0971
   11DOPE  H15Y 1409   0.804   2.186   5.293  0.5181  1.8577  0.2747
   11DOPE  C316 1410   0.964   2.070   5.394 -0.4010 -0.1029 -0.4613
   11DOPE  H16X 1411   0.936   2.105   5.496  2.0941  0.4455  0.1110
   11DOPE  H16Y 1412   1.074   2.055   5.388 -0.4135 -0.0086 -0.9920
   11DOPE  C317 1413   0.910   1.926   5.371  0.3645 -0.2298 -0.4484
   11DOPE  H17X 1414   0.800   1.930   5.354  0.4936  0.5590 -1.1497
   11DOPE  H17Y 1415   0.965   1.880   5.287 -1.3873 -4.3186  0.3975
   11DOPE  C318 1416   0.947   1.827   5.483  0.5975 -0.1017  0.2558
   11DOPE  H18X 1417   0.881   1.836   5.572  2.3494 -0.2844  1.6580
   11DOPE  H18Y 1418   0.930   1.724   5.446 -0.6314  0.1329  0.1444
   11DOPE  H18Z 1419   1.056   1.831   5.505  0.4071 -0.8696  1.4051
   12DOPE     N 1420   3.316   7.090   7.039 -0.1957 -0.4200 -0.4935
   12DOPE   HN1 1421   3.245   7.163   7.019 -0.5398  0.0895  2.1798
   12DOPE   HN2 1422   3.288   7.034   7.122 -0.1651  1.6497  0.9947
   12DOPE   HN3 1423   3.412   7.122   7.062 -0.4439 -0.5173  0.7692
   12DOPE   C12 1424   3.321   7.007   6.916  0.2040  0.2137 -0.5448
   12DOPE  H12A 1425   3.346   7.069   6.827 -2.7001 -0.5110 -1.9826
   12DOPE  H12B 1426   3.222   6.966   6.887  0.5096 -1.6214  0.8113
   12DOPE   C11 1427   3.427   6.900   6.931  0.4881 -0.1426 -0.0040
   12DOPE  H11A 1428   3.527   6.942   6.908  1.0677 -2.4224 -2.0662
   12DOPE  H11B 1429   3.404   6.834   6.845  0.4242 -1.1367  0.7597
   12DOPE     P 1430   3.315   6.735   7.101  0.5330 -0.1582  0.1182
   12DOPE   O13 1431   3.186   6.808   7.090  0.6242 -0.5172  0.1764
   12DOPE   O14 1432   3.351   6.684   7.234  0.0484 -0.1263 -0.1699
   12DOPE   O11 1433   3.329   6.620   6.985  0.6569  0.1789 -0.0006
   12DOPE   O12 1434   3.428   6.835   7.064 -0.0032 -0.3373 -0.2180
   12DOPE    C1 1435   3.227   6.524   6.980 -0.3647  0.0071 -0.0365
   12DOPE    HA 1436   3.140   6.552   7.043 -0.9235  1.9289 -1.5783
   12DOPE    HB 1437   3.257   6.424   7.019 -2.4447 -0.4213  0.5973
   12DOPE    C2 1438   3.167   6.519   6.839  0.0106 -0.4136 -0.2238
   12DOPE    HS 1439   3.085   6.444   6.831  1.2148 -1.5677 -3.2776
   12DOPE   O21 1440   3.258   6.483   6.737 -0.1069 -0.1512  0.5173
   12DOPE   C21 1441   3.325   6.366   6.751  0.2224  0.0299 -0.9569
   12DOPE   O22 1442   3.311   6.289   6.846  0.2326  0.1419  0.0644
   12DOPE   C22 1443   3.416   6.342   6.639  0.8095  0.1955 -0.0213
   12DOPE   H2R 1444   3.468   6.432   6.601 -1.3355  1.3805 -0.3034
   12DOPE   H2S 1445   3.362   6.292   6.556  0.4393  0.4024  0.0912
   12DOPE    C3 1446   3.101   6.650   6.788 -0.0237 -0.4233  0.5892
   12DOPE    HX 1447   3.189   6.717   6.779 -2.7119  3.4065  0.7431
   12DOPE    HY 1448   3.046   6.691   6.875  0.3052  1.1771  0.0758
   12DOPE   O31 1449   3.022   6.643   6.664  0.1956  0.1353 -0.3624
   12DOPE   C31 1450   2.920   6.733   6.656 -0.5857 -0.2749 -0.2356
   12DOPE   O32 1451   2.912   6.829   6.731  0.6164 -0.3697  0.1438
   12DOPE   C32 1452   2.822   6.696   6.541  0.0254 -0.7077  0.2725
   12DOPE   H2X 1453   2.816   6.585   6.539  1.7543 -0.8168  0.1770
   12DOPE   H2Y 1454   2.723   6.743   6.562 -0.1496 -1.6467  1.6964
   12DOPE   C23 1455   3.513   6.232   6.685 -0.4338 -0.5905  0.2599
   12DOPE   H3R 1456   3.455   6.138   6.702 -1.8355 -0.2231 -2.0299
   12DOPE   H3S 1457   3.558   6.266   6.781  0.9125  2.0382 -1.1858
   12DOPE   C24 1458   3.621   6.204   6.586  0.1900 -0.5125  0.5794
   12DOPE   H4R 1459   3.582   6.183   6.484  0.5054 -2.4903  0.8277
   12DOPE   H4S 1460   3.675   6.110   6.610 -1.1869 -0.8641  2.4981
   12DOPE   C25 1461   3.742   6.305   6.586 -0.2835  0.1747 -1.2018
   12DOPE   H5R 1462   3.801   6.280   6.677 -1.2482  0.0838 -0.5906
   12DOPE   H5S 1463   3.705   6.409   6.598 -1.0952 -0.3850  2.0040
   12DOPE   C26 1464   3.830   6.287   6.466 -0.5861 -0.7133  0.0978
   12DOPE   H6R 1465   3.866   6.183   6.454 -1.8173 -1.0140 -1.2572
   12DOPE   H6S 1466   3.914   6.356   6.486  0.1523 -1.6152  0.1730
   12DOPE   C27 1467   3.763   6.328   6.333 -0.1897 -0.3076  0.0231
   12DOPE   H7R 1468   3.725   6.432   6.326 -0.5949 -0.5492 -2.3823
   12DOPE   H7S 1469   3.678   6.259   6.318 -0.2531 -0.4140  0.8563
   12DOPE   C28 1470   3.848   6.313   6.207 -0.3815  0.0979 -0.5796
   12DOPE   H8R 1471   3.788   6.322   6.114 -1.7383 -2.9307 -0.1383
   12DOPE   H8S 1472   3.875   6.205   6.214 -3.0412 -0.6575 -0.7888
   12DOPE   C29 1473   3.970   6.401   6.217 -0.3566 -0.1482 -0.2927
   12DOPE   H9R 1474   4.056   6.367   6.276 -0.1450 -2.1067 -1.6342
   12DOPE  C210 1475   3.988   6.521   6.155 -0.7191 -0.5382 -0.0423
   12DOPE  H10R 1476   4.067   6.592   6.184 -2.2391  0.6764  1.2918
   12DOPE  C211 1477   3.892   6.582   6.060 -0.3486  0.4522 -0.5015
   12DOPE  H11R 1478   3.886   6.693   6.066  0.9525  0.5815 -1.0929
   12DOPE  H11S 1479   3.787   6.548   6.067 -0.5129  0.5321 -2.1106
   12DOPE  C212 1480   3.918   6.558   5.912  0.3332 -0.3603  0.0929
   12DOPE  H12R 1481   3.837   6.606   5.854  1.4310  0.5872 -0.7037
   12DOPE  H12S 1482   3.909   6.447   5.907 -1.5186 -0.2749  0.6570
   12DOPE  C213 1483   4.052   6.616   5.865 -0.3880  0.1140 -0.0707
   12DOPE  H13R 1484   4.128   6.541   5.897  0.4129  0.4259 -1.1952
   12DOPE  H13S 1485   4.061   6.703   5.933  1.1089 -0.4082  0.4383
   12DOPE  C214 1486   4.067   6.639   5.718  0.5504 -0.6661  0.4330
   12DOPE  H14R 1487   4.156   6.703   5.705 -0.5005  0.8081  0.2213
   12DOPE  H14S 1488   3.990   6.701   5.667  1.5151 -0.5355 -0.9070
   12DOPE  C215 1489   4.095   6.509   5.646 -0.4642 -0.1896 -0.1609
   12DOPE  H15R 1490   4.038   6.419   5.679 -0.5942 -1.6615 -3.9194
   12DOPE  H15S 1491   4.203   6.487   5.634 -1.1722 -2.6109 -3.6322
   12DOPE  C216 1492   4.041   6.519   5.501  0.4408 -0.0963 -0.0326
   12DOPE  H16R 1493   3.933   6.541   5.498  0.3992 -0.0402  1.2726
   12DOPE  H16S 1494   4.058   6.418   5.458  0.2715  0.0887 -0.5352
   12DOPE  C217 1495   4.118   6.621   5.419  0.1889 -0.5645  0.5781
   12DOPE  H17R 1496   4.226   6.601   5.437  0.0125 -1.3828  0.7916
   12DOPE  H17S 1497   4.082   6.721   5.452 -1.2642 -1.2255  1.0893
   12DOPE  C218 1498   4.092   6.607   5.268 -0.4376  0.1203 -0.5254
   12DOPE  H18R 1499   4.132   6.514   5.224  1.7037  0.7182  0.0379
   12DOPE  H18S 1500   4.150   6.691   5.223  0.4305 -0.3109 -0.2400
   12DOPE  H18T 1501   3.982   6.617   5.253 -0.7034 -0.6535  0.7145
   12DOPE   C33 1502   2.883   6.738   6.405  0.4274 -0.2054  0.2144
   12DOPE   H3X 1503   2.994   6.726   6.407  0.5766  0.3029 -2.0032
   12DOPE   H3Y 1504   2.850   6.840   6.378 -0.7530 -0.8207 -0.7890
   12DOPE   C34 1505   2.836   6.657   6.276  0.3073 -0.9202 -0.4277
   12DOPE   H4X 1506   2.904   6.693   6.196  0.8443 -1.0754 -0.0449
   12DOPE   H4Y 1507   2.851   6.548   6.294 -3.0566 -0.9915  3.4848
   12DOPE   C35 1508   2.689   6.695   6.240  0.3708 -0.1343  0.1481
   12DOPE   H5X 1509   2.680   6.784   6.174  0.8946  0.9727  1.5063
   12DOPE   H5Y 1510   2.636   6.713   6.336  0.6313  5.1312 -0.4286
   12DOPE   C36 1511   2.612   6.577   6.178 -0.1416 -0.0840 -0.1583
   12DOPE   H6X 1512   2.504   6.598   6.163 -0.8492 -1.4077  2.4576
   12DOPE   H6Y 1513   2.597   6.495   6.251 -2.0065  1.1608  0.9532
   12DOPE   C37 1514   2.669   6.524   6.045 -0.6544 -0.2400 -0.5315
   12DOPE   H7X 1515   2.685   6.612   5.979 -1.0812  0.5926  0.4633
   12DOPE   H7Y 1516   2.769   6.478   6.061  0.3017  1.4869 -1.3222
   12DOPE   C38 1517   2.567   6.417   5.992  0.8918 -1.3502 -0.4160
   12DOPE   H8X 1518   2.479   6.469   5.949 -0.0365 -1.9341  0.7160
   12DOPE   H8Y 1519   2.533   6.361   6.082  1.2962 -1.2283 -0.1858
   12DOPE   C39 1520   2.623   6.324   5.892  0.3369  0.6910 -0.2776
   12DOPE   H9X 1521   2.713   6.353   5.836  0.2448  0.6852 -0.4301
   12DOPE  C310 1522   2.590   6.195   5.876 -0.5631 -0.4539  0.3106
   12DOPE  H10X 1523   2.640   6.129   5.803 -2.0471 -0.9032 -0.3424
   12DOPE  C311 1524   2.467   6.126   5.922 -0.5256  0.2139 -0.2037
   12DOPE  H11X 1525   2.403   6.201   5.973 -0.4291 -1.0076  1.8351
   12DOPE  H11Y 1526   2.408   6.077   5.841 -1.6731 -1.5143  1.5581
   12DOPE  C312 1527   2.496   6.015   6.031  0.6713 -0.1847  0.4491
   12DOPE  H12X 1528   2.582   5.954   5.996  1.1335 -0.5140  2.0889
   12DOPE  H12Y 1529   2.408   5.947   6.033 -0.3620  1.1159  0.4675
   12DOPE  C313 1530   2.532   6.072   6.168 -0.8095 -0.0871 -0.0344
   12DOPE  H13X 1531   2.627   6.130   6.166 -1.1957  0.5979  0.6107
   12DOPE  H13Y 1532   2.453   6.145   6.192 -0.3124  0.9722 -1.4851
   12DOPE  C314 1533   2.533   5.968   6.280  0.2280 -0.0634  0.4710
   12DOPE  H14X 1534   2.570   5.869   6.246 -1.6101 -0.1948 -1.3785
   12DOPE  H14Y 1535   2.429   5.963   6.319 -0.6359  1.3532 -1.4669
   12DOPE  C315 1536   2.620   6.007   6.400  0.7552 -0.7822  0.3668
   12DOPE  H15X 1537   2.722   6.029   6.363  1.5610 -2.5634  1.4443
   12DOPE  H15Y 1538   2.632   5.914   6.458 -0.6623 -0.8968  0.5252
   12DOPE  C316 1539   2.568   6.122   6.494 -0.8684  0.4908 -0.2445
   12DOPE  H16X 1540   2.549   6.214   6.435  0.3705  0.4647 -0.7212
   12DOPE  H16Y 1541   2.645   6.148   6.570  0.3305 -2.5047 -0.2798
   12DOPE  C317 1542   2.452   6.077   6.577 -0.6234  0.2031 -0.1698
   12DOPE  H17X 1543   2.363   6.090   6.511 -1.1773  2.4128  0.9162
   12DOPE  H17Y 1544   2.459   5.967   6.589 -0.5177  0.2108 -0.1580
   12DOPE  C318 1545   2.423   6.131   6.717 -0.2920 -0.1432  0.8257
   12DOPE  H18X 1546   2.511   6.106   6.780 -0.2529 -1.2317  0.3730
   12DOPE  H18Y 1547   2.398   6.239   6.712  0.9622  0.1343  0.1888
   12DOPE  H18Z 1548   2.345   6.064   6.760 -0.0826 -0.5924  0.5208
   13DOPE     N 1549   1.618   1.263   6.757 -0.0035 -0.4265  0.2652
   13DOPE   HN1 1550   1.652   1.198   6.683 -0.0163  1.1059 -1.1284
   13DOPE   HN2 1551   1.677   1.257   6.843 -0.7181  0.4929  0.8444
   13DOPE   HN3 1552   1.531   1.215   6.789 -0.7729  0.6639 -0.1531
   13DOPE   C12 1553   1.602   1.401   6.707  0.2600  0.1380  0.2777
   13DOPE  H12A 1554   1.572   1.473   6.786  1.0131  0.4010  0.3338
   13DOPE  H12B 1555   1.517   1.403   6.635  0.6666  0.6976 -0.2039
   13DOPE   C11 1556   1.727   1.458   6.637 -0.1217 -0.1762 -0.3995
   13DOPE  H11A 1557   1.703   1.556   6.590 -3.3049 -0.8353 -0.4263
   13DOPE  H11B 1558   1.748   1.391   6.551  2.5282 -0.3668  0.3207
   13DOPE     P 1559   1.887   1.598   6.807 -0.1424 -0.4739  0.0484
   13DOPE   O13 1560   1.898   1.576   6.950  0.1166  0.7677 -0.0368
   13DOPE   O14 1561   1.807   1.718   6.766 -0.2243 -0.0660 -0.4717
   13DOPE   O11 1562   2.029   1.622   6.751  0.2693  0.3248  0.1432
   13DOPE   O12 1563   1.833   1.463   6.733 -0.1374 -0.0711 -0.8220
   13DOPE    C1 1564   2.071   1.578   6.623 -0.7037 -0.4638  0.1474
   13DOPE    HA 1565   2.045   1.474   6.595 -0.3830 -0.6042  0.3648
   13DOPE    HB 1566   2.180   1.571   6.604 -0.9854 -0.7153 -1.4984
   13DOPE    C2 1567   2.021   1.670   6.513 -0.6356  0.1549  0.4295
   13DOPE    HS 1568   1.916   1.698   6.534 -1.0099 -0.7385 -0.1829
   13DOPE   O21 1569   2.037   1.604   6.386  0.1004  0.1286 -0.1139
   13DOPE   C21 1570   1.933   1.620   6.300 -0.4528  0.3141 -0.3715
   13DOPE   O22 1571   1.830   1.675   6.323  0.6080  0.6288 -0.5745
   13DOPE   C22 1572   1.974   1.560   6.159 -0.5363  0.5610 -0.0733
   13DOPE   H2R 1573   2.060   1.491   6.170 -1.1989 -0.4927 -1.2217
   13DOPE   H2S 1574   2.007   1.649   6.101  0.3812  0.8744  0.9019
   13DOPE    C3 1575   2.098   1.803   6.518 -0.2471 -0.1654 -0.3903
   13DOPE    HX 1576   2.203   1.767   6.516  0.0390  0.5087  1.3487
   13DOPE    HY 1577   2.082   1.862   6.611 -1.9189 -0.2156 -0.6049
   13DOPE   O31 1578   2.082   1.876   6.397 -0.5542  0.7152  0.3991
   13DOPE   C31 1579   1.999   1.978   6.416 -0.2294  0.4309 -0.0393
   13DOPE   O32 1580   1.922   1.991   6.508 -0.5056  0.5891  0.1600
   13DOPE   C32 1581   2.015   2.059   6.290  0.9432  0.4624 -0.4137
   13DOPE   H2X 1582   2.118   2.086   6.259  0.7624 -0.6307 -2.1037
   13DOPE   H2Y 1583   1.969   2.006   6.204  0.1700  1.2125 -0.4735
   13DOPE   C23 1584   1.877   1.453   6.086 -0.1822 -0.1227 -0.2668
   13DOPE   H3R 1585   1.779   1.503   6.066 -0.4639 -0.5996 -0.0834
   13DOPE   H3S 1586   1.849   1.374   6.158 -2.7967  1.0997  0.2156
   13DOPE   C24 1587   1.925   1.407   5.948  0.7603  0.2860  0.0587
   13DOPE   H4R 1588   1.872   1.314   5.920 -2.2265  1.3106  1.8128
   13DOPE   H4S 1589   2.033   1.381   5.956  0.6951 -1.6618 -3.6205
   13DOPE   C25 1590   1.920   1.514   5.836 -0.5363  0.5755  0.6012
   13DOPE   H5R 1591   1.979   1.603   5.866 -2.1010  1.5798  0.8266
   13DOPE   H5S 1592   1.816   1.553   5.833 -0.8558 -0.3150 -1.0363
   13DOPE   C26 1593   1.952   1.462   5.694 -0.5316 -0.2015 -0.1735
   13DOPE   H6R 1594   1.886   1.379   5.661 -1.2406  0.9883 -1.9507
   13DOPE   H6S 1595   2.054   1.419   5.703 -1.8246 -3.7354 -0.9519
   13DOPE   C27 1596   1.952   1.576   5.584 -0.8665 -0.0303 -0.3369
   13DOPE   H7R 1597   1.997   1.661   5.640 -0.6645 -0.8385  0.7662
   13DOPE   H7S 1598   1.844   1.595   5.569 -0.9047 -1.0622 -1.5483
   13DOPE   C28 1599   2.010   1.530   5.457  0.6012 -0.3792 -0.0508
   13DOPE   H8R 1600   2.110   1.486   5.479 -0.2638 -1.8236  1.1137
   13DOPE   H8S 1601   2.024   1.627   5.403  0.1167  0.2955  0.9964
   13DOPE   C29 1602   1.929   1.429   5.378  0.2894 -0.4993 -0.0398
   13DOPE   H9R 1603   1.830   1.465   5.347  0.7049  0.6243 -0.1390
   13DOPE  C210 1604   1.968   1.310   5.335  0.0264 -0.8840  0.1200
   13DOPE  H10R 1605   1.898   1.255   5.270 -1.8256 -1.4130  2.4667
   13DOPE  C211 1606   2.102   1.247   5.368 -0.3908  0.2688  0.2182
   13DOPE  H11R 1607   2.177   1.313   5.417  0.6060 -0.5828 -0.1291
   13DOPE  H11S 1608   2.146   1.226   5.269 -0.4634  1.4306 -0.0768
   13DOPE  C212 1609   2.098   1.114   5.447  0.2287 -0.1233  0.1557
   13DOPE  H12R 1610   2.199   1.072   5.469 -0.8898 -1.8480  2.4546
   13DOPE  H12S 1611   2.046   1.039   5.384 -0.2027  0.5177 -0.2622
   13DOPE  C213 1612   2.036   1.133   5.580 -0.4395  0.2806  0.4705
   13DOPE  H13R 1613   1.929   1.164   5.578 -1.0263 -1.6221 -2.1115
   13DOPE  H13S 1614   2.089   1.221   5.624  2.7673 -2.0486  1.6200
   13DOPE  C214 1615   2.058   1.004   5.665  0.1300 -0.6120  0.7050
   13DOPE  H14R 1616   2.163   0.969   5.674  0.0510 -0.9062  0.4696
   13DOPE  H14S 1617   2.001   0.921   5.619  0.7133 -0.4668 -0.2980
   13DOPE  C215 1618   2.005   1.027   5.803  0.0503  0.0518  0.3491
   13DOPE  H15R 1619   1.905   1.075   5.796 -1.4762 -2.2070  3.7139
   13DOPE  H15S 1620   2.051   1.104   5.868  0.6416  1.5293 -1.7256
   13DOPE  C216 1621   1.973   0.900   5.884  0.1134 -0.1802 -0.2352
   13DOPE  H16R 1622   2.041   0.816   5.857  3.1387  1.5637  1.4341
   13DOPE  H16S 1623   1.872   0.862   5.860  0.1443  0.3589 -1.2465
   13DOPE  C217 1624   1.979   0.952   6.029 -0.1110  0.1391  0.0362
   13DOPE  H17R 1625   1.921   1.046   6.037  0.0113  0.4520 -2.1641
   13DOPE  H17S 1626   2.086   0.954   6.058 -0.0325  0.0080 -0.2362
   13DOPE  C218 1627   1.908   0.855   6.131  0.4344 -0.1988 -0.0703
   13DOPE  H18R 1628   1.805   0.825   6.101  0.6395  1.0130 -2.1508
   13DOPE  H18S 1629   1.916   0.906   6.230  1.7802  1.8110 -1.1523
   13DOPE  H18T 1630   1.966   0.761   6.146  1.2462  0.3471  0.2773
   13DOPE   C33 1631   1.938   2.193   6.311  0.2638  0.2634  0.1001
   13DOPE   H3X 1632   1.834   2.169   6.343  0.6448 -0.7601  0.6159
   13DOPE   H3Y 1633   1.926   2.260   6.224  2.4353  1.5447  0.7411
   13DOPE   C34 1634   2.009   2.288   6.408  0.1864  0.7276  0.5224
   13DOPE   H4X 1635   2.039   2.229   6.498 -2.2407 -2.2186 -0.4249
   13DOPE   H4Y 1636   2.102   2.334   6.368  1.5636 -2.0142  0.3125
   13DOPE   C35 1637   1.908   2.405   6.451 -0.8313 -0.5818  0.1533
   13DOPE   H5X 1638   1.866   2.453   6.360  0.3193 -1.9477 -1.1620
   13DOPE   H5Y 1639   1.968   2.488   6.494  1.7610 -2.0730 -0.3318
   13DOPE   C36 1640   1.801   2.362   6.551 -0.0124  0.7906 -0.5702
   13DOPE   H6X 1641   1.846   2.325   6.646 -1.1736  1.5773  0.3140
   13DOPE   H6Y 1642   1.738   2.279   6.514  1.5713 -1.2406  1.0402
   13DOPE   C37 1643   1.715   2.479   6.597  0.6587 -0.1248  0.2609
   13DOPE   H7X 1644   1.648   2.465   6.684  0.3287  2.6425  0.5311
   13DOPE   H7Y 1645   1.782   2.564   6.619 -1.1809  1.3901  0.1974
   13DOPE   C38 1646   1.611   2.519   6.488 -0.3181  0.1136  0.4303
   13DOPE   H8X 1647   1.674   2.546   6.400  0.4658 -1.4413  0.4786
   13DOPE   H8Y 1648   1.549   2.606   6.520 -0.3034  0.5642 -0.7240
   13DOPE   C39 1649   1.510   2.411   6.458 -0.1613 -0.1906  0.8796
   13DOPE   H9X 1650   1.449   2.380   6.544  3.3090 -3.7755  2.3706
   13DOPE  C310 1651   1.496   2.341   6.343  0.0994 -0.2227  0.4538
   13DOPE  H10X 1652   1.420   2.263   6.355  0.4403 -0.3319  2.2097
   13DOPE  C311 1653   1.579   2.340   6.217  0.3669 -0.1269 -0.5415
   13DOPE  H11X 1654   1.673   2.399   6.224 -0.0457  0.5929 -0.9968
   13DOPE  H11Y 1655   1.616   2.238   6.193  0.6328  0.5174 -3.1895
   13DOPE  C312 1656   1.509   2.394   6.090  0.1216 -0.1104 -0.2667
   13DOPE  H12X 1657   1.496   2.504   6.101 -0.1758 -0.3949  3.8194
   13DOPE  H12Y 1658   1.405   2.356   6.078 -0.1029  0.4784 -0.2051
   13DOPE  C313 1659   1.594   2.355   5.967  0.6364 -0.4313 -0.3353
   13DOPE  H13X 1660   1.698   2.385   5.990  0.0465  1.1188  0.4745
   13DOPE  H13Y 1661   1.594   2.244   5.954 -2.1313 -1.0094  2.9604
   13DOPE  C314 1662   1.534   2.423   5.845 -0.1834  0.5069  0.4524
   13DOPE  H14X 1663   1.553   2.531   5.862 -1.3059  0.5263  1.7808
   13DOPE  H14Y 1664   1.424   2.410   5.844 -0.0912 -0.5660  1.7210
   13DOPE  C315 1665   1.584   2.391   5.705 -0.1349  0.3362 -0.1285
   13DOPE  H15X 1666   1.538   2.467   5.639  0.6425  0.9254  0.0016
   13DOPE  H15Y 1667   1.548   2.289   5.680  2.4507 -0.8895  0.7768
   13DOPE  C316 1668   1.737   2.378   5.704 -0.3890 -1.3784  0.1789
   13DOPE  H16X 1669   1.754   2.279   5.752 -0.1733 -1.6230 -0.3915
   13DOPE  H16Y 1670   1.778   2.455   5.773  0.3337 -0.9403 -0.7323
   13DOPE  C317 1671   1.805   2.396   5.566  0.3244 -0.0346  0.3071
   13DOPE  H17X 1672   1.782   2.306   5.504  1.4770 -1.6816  2.1710
   13DOPE  H17Y 1673   1.768   2.494   5.530  0.5042  0.6623  1.9714
   13DOPE  C318 1674   1.963   2.392   5.572 -0.0399  0.3404 -0.2785
   13DOPE  H18X 1675   1.998   2.292   5.606  1.5627  1.2947  0.9611
   13DOPE  H18Y 1676   2.013   2.408   5.474  1.9007 -1.2919  0.3671
   13DOPE  H18Z 1677   1.990   2.471   5.644  0.5020  0.2011 -0.3295
   14DOPE     N 1678   6.618   3.907   7.025 -1.1765 -0.0336 -0.4486
   14DOPE   HN1 1679   6.615   3.939   6.926 -0.3374 -1.0757 -0.8261
   14DOPE   HN2 1680   6.717   3.888   7.049 -1.6832  0.5598  2.5092
   14DOPE   HN3 1681   6.571   3.815   7.031 -0.5379 -0.4951 -2.0041
   14DOPE   C12 1682   6.559   4.015   7.111  0.1639  0.5835  0.4965
   14DOPE  H12A 1683   6.494   3.974   7.192 -1.6960  2.6977  0.1532
   14DOPE  H12B 1684   6.477   4.059   7.051  0.2728 -2.7174 -2.4106
   14DOPE   C11 1685   6.662   4.118   7.161  0.7443  0.1521  0.2882
   14DOPE  H11A 1686   6.717   4.078   7.249  0.6808  2.4851  1.4855
   14DOPE  H11B 1687   6.613   4.209   7.202  1.9060  0.4048  1.1922
   14DOPE     P 1688   6.866   4.253   7.095 -0.1040  0.3137  0.3861
   14DOPE   O13 1689   6.965   4.181   7.177  0.3952 -0.2564 -0.3169
   14DOPE   O14 1690   6.814   4.376   7.157 -0.1714  0.3664 -0.1011
   14DOPE   O11 1691   6.931   4.292   6.959 -0.3181 -0.5310 -0.7224
   14DOPE   O12 1692   6.747   4.163   7.053  0.0663  0.0426  0.2099
   14DOPE    C1 1693   6.992   4.198   6.872 -0.4811  0.0654  0.0295
   14DOPE    HA 1694   6.948   4.097   6.888 -1.4751  0.6281  0.9647
   14DOPE    HB 1695   7.101   4.189   6.893 -0.4420 -1.4681 -0.6404
   14DOPE    C2 1696   6.975   4.237   6.722  0.1537 -0.0205  0.0841
   14DOPE    HS 1697   6.866   4.250   6.702  0.1304  2.9768  1.6098
   14DOPE   O21 1698   7.038   4.136   6.640 -0.5619  0.7342  0.5218
   14DOPE   C21 1699   6.967   4.030   6.616  0.2960  0.6757  0.0493
   14DOPE   O22 1700   6.861   4.002   6.667 -0.8409  0.2425  0.0656
   14DOPE   C22 1701   7.045   3.936   6.517 -0.5621 -0.4942 -0.2525
   14DOPE   H2R 1702   6.979   3.847   6.505 -0.5065 -0.5787  0.0473
   14DOPE   H2S 1703   7.142   3.896   6.553 -1.3355 -0.8255  1.5843
   14DOPE    C3 1704   7.035   4.385   6.689 -0.5336  0.1959 -0.0272
   14DOPE    HX 1705   7.140   4.386   6.723 -0.9121 -0.7477  1.2539
   14DOPE    HY 1706   6.986   4.465   6.749 -0.3650  1.5341 -1.6119
   14DOPE   O31 1707   7.013   4.413   6.547 -0.0397  0.2015  0.0504
   14DOPE   C31 1708   7.122   4.401   6.475 -0.2001 -0.0327 -0.2154
   14DOPE   O32 1709   7.230   4.360   6.510 -0.0789  0.2223  0.5297
   14DOPE   C32 1710   7.083   4.430   6.332 -0.2948 -0.3112 -0.4173
   14DOPE   H2X 1711   7.092   4.336   6.273  2.7382 -0.2855 -0.1634
   14DOPE   H2Y 1712   6.976   4.460   6.326  0.0133  0.9261 -0.0454
   14DOPE   C23 1713   7.055   4.000   6.374 -0.2617  0.5267  0.0264
   14DOPE   H3R 1714   7.129   4.081   6.389  1.5300 -0.6946 -1.6508
   14DOPE   H3S 1715   6.954   4.042   6.353 -0.9313 -1.0823 -0.1473
   14DOPE   C24 1716   7.074   3.900   6.263  0.6979  0.0187  0.6410
   14DOPE   H4R 1717   7.002   3.816   6.276 -0.3395  0.7764 -0.0247
   14DOPE   H4S 1718   7.172   3.851   6.281  0.2306 -2.6038 -2.9081
   14DOPE   C25 1719   7.064   3.967   6.125 -0.4425 -0.5973 -0.3692
   14DOPE   H5R 1720   7.150   4.031   6.095  0.2765  0.3061  3.1929
   14DOPE   H5S 1721   6.986   4.045   6.114  1.7780  1.4603 -3.1747
   14DOPE   C26 1722   7.025   3.875   6.008 -0.0238  0.4595 -0.0963
   14DOPE   H6R 1723   6.929   3.821   6.021  0.0592  0.6390  1.3496
   14DOPE   H6S 1724   7.105   3.799   6.000  0.6057  0.9304  1.4341
   14DOPE   C27 1725   7.003   3.948   5.873 -0.2778  0.0678  0.6060
   14DOPE   H7R 1726   7.090   4.011   5.842 -0.0109 -1.2208 -1.5490
   14DOPE   H7S 1727   6.917   4.016   5.887 -0.8298 -0.2621 -0.9871
   14DOPE   C28 1728   6.963   3.853   5.758 -0.2016 -0.2929  1.0341
   14DOPE   H8R 1729   7.053   3.805   5.716  0.0586 -2.1775  3.5456
   14DOPE   H8S 1730   6.931   3.927   5.681 -0.0507 -2.2420 -0.9964
   14DOPE   C29 1731   6.852   3.751   5.790  0.0702 -0.4777  0.0451
   14DOPE   H9R 1732   6.899   3.660   5.831  1.9270  0.2120 -0.4490
   14DOPE  C210 1733   6.722   3.755   5.762 -0.2293  0.0496 -0.3994
   14DOPE  H10R 1734   6.671   3.664   5.795  0.2473  0.7107  2.3807
   14DOPE  C211 1735   6.639   3.866   5.697 -0.5373  0.2574  0.3218
   14DOPE  H11R 1736   6.696   3.962   5.706  0.7128 -0.5333  1.2982
   14DOPE  H11S 1737   6.545   3.880   5.754  0.0890  0.3572  1.3556
   14DOPE  C212 1738   6.598   3.839   5.548 -0.6619 -0.6076 -0.4280
   14DOPE  H12R 1739   6.698   3.818   5.504  0.1914 -0.4377  1.3482
   14DOPE  H12S 1740   6.558   3.935   5.508  0.0148  0.9684  2.3805
   14DOPE  C213 1741   6.491   3.717   5.533  0.3691  0.2262  0.1796
   14DOPE  H13R 1742   6.400   3.749   5.588  1.2827  1.6374  0.9275
   14DOPE  H13S 1743   6.523   3.628   5.590 -1.5579 -1.5782 -1.3803
   14DOPE  C214 1744   6.456   3.667   5.390 -0.0669 -0.0356 -0.2325
   14DOPE  H14R 1745   6.552   3.656   5.335  0.5801  1.3897  0.5606
   14DOPE  H14S 1746   6.399   3.750   5.343 -2.6379 -1.7860 -0.3947
   14DOPE  C215 1747   6.374   3.537   5.383  0.2567 -0.3237 -0.0701
   14DOPE  H15R 1748   6.282   3.552   5.444 -1.4620 -4.4647 -1.2301
   14DOPE  H15S 1749   6.430   3.459   5.438 -1.2511 -0.8912  0.7366
   14DOPE  C216 1750   6.351   3.492   5.241  0.2293 -0.1556 -0.6722
   14DOPE  H16R 1751   6.449   3.485   5.189  0.0768  1.9417 -1.3164
   14DOPE  H16S 1752   6.296   3.570   5.184 -0.4728 -1.0465 -1.2438
   14DOPE  C217 1753   6.253   3.384   5.222  0.4586  0.4895  0.6843
   14DOPE  H17R 1754   6.159   3.402   5.278 -0.4104  1.2068 -0.9591
   14DOPE  H17S 1755   6.302   3.292   5.262  0.9629  0.4678  0.0354
   14DOPE  C218 1756   6.215   3.343   5.074 -0.4480  0.1268 -0.2026
   14DOPE  H18R 1757   6.308   3.309   5.023 -1.3171  0.4458 -2.0586
   14DOPE  H18S 1758   6.148   3.414   5.021 -3.1833 -2.3759 -0.3771
   14DOPE  H18T 1759   6.152   3.252   5.085 -0.8037  0.0604 -2.3801
   14DOPE   C33 1760   7.181   4.531   6.268 -0.2393  0.1094  0.7129
   14DOPE   H3X 1761   7.284   4.490   6.276 -0.6175 -1.0776 -0.1107
   14DOPE   H3Y 1762   7.170   4.628   6.319 -0.1314  0.5887 -0.1594
   14DOPE   C34 1763   7.152   4.565   6.118 -1.0387 -1.0098  0.1556
   14DOPE   H4X 1764   7.042   4.581   6.118 -0.6372  2.6696 -0.6142
   14DOPE   H4Y 1765   7.208   4.659   6.098  0.3549 -2.1207 -1.4072
   14DOPE   C35 1766   7.191   4.461   6.011 -0.2672  0.0673 -0.2076
   14DOPE   H5X 1767   7.132   4.368   6.029 -0.2225  0.1054  0.1394
   14DOPE   H5Y 1768   7.298   4.436   6.026 -0.2643  0.7192  1.0466
   14DOPE   C36 1769   7.153   4.499   5.862  0.1420 -0.0598 -0.0571
   14DOPE   H6X 1770   7.042   4.507   5.867  0.0385 -1.6321  0.7632
   14DOPE   H6Y 1771   7.179   4.413   5.798  0.3852  0.3322 -0.4923
   14DOPE   C37 1772   7.216   4.637   5.813 -0.4376  0.2826 -0.2080
   14DOPE   H7X 1773   7.167   4.721   5.866 -0.2605 -0.7689  1.7004
   14DOPE   H7Y 1774   7.317   4.637   5.860 -0.9291 -0.0618  0.8628
   14DOPE   C38 1775   7.244   4.650   5.663 -0.0191  0.1593 -0.0899
   14DOPE   H8X 1776   7.310   4.566   5.632  1.1115  1.8716 -2.6662
   14DOPE   H8Y 1777   7.314   4.736   5.664  1.6059 -1.0839 -1.0750
   14DOPE   C39 1778   7.121   4.669   5.577 -0.6644 -0.4092 -0.4672
   14DOPE   H9X 1779   7.030   4.614   5.603 -1.4308  1.4799  1.1523
   14DOPE  C310 1780   7.117   4.760   5.474  0.1544  0.5938 -0.5994
   14DOPE  H10X 1781   7.028   4.757   5.410  0.6880  0.4078 -1.3386
   14DOPE  C311 1782   7.229   4.851   5.432  0.6197 -0.0877  0.2256
   14DOPE  H11X 1783   7.207   4.949   5.479  0.7670  0.0235  0.0599
   14DOPE  H11Y 1784   7.327   4.819   5.472  1.2050  1.5402  0.1525
   14DOPE  C312 1785   7.234   4.867   5.277  0.4078  0.0525 -0.9570
   14DOPE  H12X 1786   7.276   4.970   5.272 -0.9649  0.8916  2.2358
   14DOPE  H12Y 1787   7.133   4.870   5.230  0.6922 -1.8048 -1.7505
   14DOPE  C313 1788   7.315   4.760   5.202 -0.1109 -0.5917 -0.5340
   14DOPE  H13X 1789   7.418   4.785   5.235 -0.8985 -0.0734  1.6929
   14DOPE  H13Y 1790   7.311   4.659   5.249  1.5748  0.4138  1.9864
   14DOPE  C314 1791   7.304   4.788   5.048 -0.4385  0.5237  0.4966
   14DOPE  H14X 1792   7.196   4.800   5.028 -0.8073  1.0130  2.5864
   14DOPE  H14Y 1793   7.354   4.712   4.985  0.8624  0.8193  1.1321
   14DOPE  C315 1794   7.379   4.913   5.003  0.4804 -0.3187 -0.4982
   14DOPE  H15X 1795   7.487   4.904   5.030 -0.1390  0.2588  2.6709
   14DOPE  H15Y 1796   7.344   5.003   5.059 -1.4732 -0.4887 -1.3580
   14DOPE  C316 1797   7.370   4.940   4.846 -0.2542  0.7652 -0.4622
   14DOPE  H16X 1798   7.270   4.901   4.816 -0.6523  1.1563  0.3105
   14DOPE  H16Y 1799   7.446   4.879   4.794 -0.7832  0.4119 -0.8210
   14DOPE  C317 1800   7.394   5.087   4.821 -0.2248 -0.1864  0.5622
   14DOPE  H17X 1801   7.325   5.155   4.875  0.2604  1.4418 -0.7883
   14DOPE  H17Y 1802   7.500   5.120   4.836 -0.6384  0.7169  1.6846
   14DOPE  C318 1803   7.359   5.106   4.671  0.0240 -0.0798 -0.4783
   14DOPE  H18X 1804   7.251   5.103   4.643  0.3549 -0.2998 -1.8089
   14DOPE  H18Y 1805   7.413   5.196   4.635  1.8472 -1.3029 -0.9359
   14DOPE  H18Z 1806   7.411   5.021   4.622 -0.6145  0.0045 -1.3248
   15DOPE     N 1807   7.447   3.269   7.247 -0.4153 -0.2135  0.0274
   15DOPE   HN1 1808   7.365   3.292   7.186 -1.4673  1.5193  1.9905
   15DOPE   HN2 1809   7.415   3.310   7.337 -1.0393 -0.9568  0.1528
   15DOPE   HN3 1810   7.533   3.315   7.210  1.2500 -0.6274  3.0900
   15DOPE   C12 1811   7.479   3.122   7.252 -0.0571 -0.2246  0.5500
   15DOPE  H12A 1812   7.387   3.073   7.292 -1.1011  0.0801 -1.3982
   15DOPE  H12B 1813   7.579   3.106   7.298  1.4607  1.4578 -1.9193
   15DOPE   C11 1814   7.509   3.066   7.112  0.0151 -0.4719 -0.2537
   15DOPE  H11A 1815   7.546   2.963   7.127 -1.1863 -0.8968 -0.1220
   15DOPE  H11B 1816   7.589   3.119   7.055  0.7034 -2.7445 -1.5475
   15DOPE     P 1817   7.291   2.963   7.000  0.2591  0.3549  0.1043
   15DOPE   O13 1818   7.157   3.030   6.981 -0.1890  0.0732 -0.0809
   15DOPE   O14 1819   7.313   2.856   7.096  0.3772 -0.1356  0.3767
   15DOPE   O11 1820   7.337   2.911   6.851  0.2645  0.6532 -0.6975
   15DOPE   O12 1821   7.390   3.083   7.032 -0.7080 -0.9500  0.2044
   15DOPE    C1 1822   7.479   2.905   6.833 -0.5743 -0.1765  0.0087
   15DOPE    HA 1823   7.531   2.872   6.925  2.2718  0.1222 -1.3980
   15DOPE    HB 1824   7.524   3.003   6.807 -0.7780 -0.0762  0.0286
   15DOPE    C2 1825   7.520   2.791   6.737  0.4530  0.6696  0.9856
   15DOPE    HS 1826   7.628   2.766   6.735 -0.0668 -2.2566  2.7322
   15DOPE   O21 1827   7.474   2.819   6.601  0.3404 -0.2738 -0.4197
   15DOPE   C21 1828   7.556   2.896   6.529  0.0459 -0.5041  0.0237
   15DOPE   O22 1829   7.659   2.939   6.569  0.1429  0.4342  0.0629
   15DOPE   C22 1830   7.498   2.910   6.384 -0.0194 -0.2115 -0.5236
   15DOPE   H2R 1831   7.394   2.944   6.403  0.3824  1.3938 -1.0299
   15DOPE   H2S 1832   7.495   2.806   6.347  0.2350 -0.6634  0.6672
   15DOPE    C3 1833   7.457   2.658   6.794 -0.9866  0.4536 -0.0503
   15DOPE    HX 1834   7.347   2.668   6.807 -1.0564  2.2472 -1.6496
   15DOPE    HY 1835   7.496   2.635   6.895  0.1401 -0.8140 -0.7341
   15DOPE   O31 1836   7.485   2.553   6.704 -0.2740  0.5553  0.8675
   15DOPE   C31 1837   7.610   2.502   6.704  0.0272  0.9304 -0.6280
   15DOPE   O32 1838   7.705   2.549   6.768  0.4779 -0.2714  0.0624
   15DOPE   C32 1839   7.612   2.364   6.632 -0.4044 -0.3118 -0.5605
   15DOPE   H2X 1840   7.657   2.284   6.694 -1.8221 -1.5165 -1.0277
   15DOPE   H2Y 1841   7.509   2.338   6.599 -0.6054  0.1573 -0.3081
   15DOPE   C23 1842   7.566   3.015   6.290  0.0937 -0.1283  0.4152
   15DOPE   H3R 1843   7.557   3.115   6.336 -3.3324  0.1280 -0.5275
   15DOPE   H3S 1844   7.504   3.022   6.197  1.6557 -1.1429 -0.7539
   15DOPE   C24 1845   7.711   2.978   6.245  0.4898  0.6599 -0.4234
   15DOPE   H4R 1846   7.711   2.870   6.218 -0.2797  0.7585 -0.8269
   15DOPE   H4S 1847   7.780   2.987   6.332 -1.8591  0.1293  1.6072
   15DOPE   C25 1848   7.766   3.073   6.141  0.0717  0.0079  0.3677
   15DOPE   H5R 1849   7.877   3.068   6.148 -0.0034 -0.3642  1.4317
   15DOPE   H5S 1850   7.733   3.177   6.159 -0.3322  0.3315 -1.9164
   15DOPE   C26 1851   7.713   3.043   6.002  0.1542  0.7820  0.4316
   15DOPE   H6R 1852   7.604   3.058   5.990  0.0834  0.4857  0.7015
   15DOPE   H6S 1853   7.733   2.934   5.990 -0.6710  0.7972 -1.5119
   15DOPE   C27 1854   7.799   3.122   5.900 -0.2178 -0.4089  0.1810
   15DOPE   H7R 1855   7.900   3.076   5.901 -0.6084 -1.2732  1.0982
   15DOPE   H7S 1856   7.813   3.226   5.938  3.1253 -0.0290 -1.7341
   15DOPE   C28 1857   7.742   3.130   5.758  0.2497 -0.1201 -0.4295
   15DOPE   H8R 1858   7.633   3.152   5.750  0.3349  0.3812 -0.2624
   15DOPE   H8S 1859   7.761   3.024   5.730 -0.6866 -0.2983 -0.4205
   15DOPE   C29 1860   7.816   3.220   5.668  0.6324 -0.1324  0.0874
   15DOPE   H9R 1861   7.766   3.318   5.656  1.5608  0.4121  0.5625
   15DOPE  C210 1862   7.931   3.192   5.606 -0.5070 -0.6587  0.0660
   15DOPE  H10R 1863   7.968   3.269   5.537 -0.1153 -1.8441 -1.0957
   15DOPE  C211 1864   8.020   3.066   5.606  0.0729  0.0136 -0.6136
   15DOPE  H11R 1865   8.025   3.020   5.707 -0.0927  0.2752 -0.4841
   15DOPE  H11S 1866   8.124   3.102   5.590  0.5247 -1.4892 -1.2069
   15DOPE  C212 1867   7.987   2.953   5.510  0.0658  0.1377  0.3610
   15DOPE  H12R 1868   7.905   2.886   5.545  1.6533 -0.7778  2.5329
   15DOPE  H12S 1869   8.074   2.884   5.515 -0.7552 -1.0684 -1.2464
   15DOPE  C213 1870   7.956   2.983   5.362  0.1273 -0.3060  0.5813
   15DOPE  H13R 1871   8.045   3.033   5.320 -0.5030  0.2798 -0.0844
   15DOPE  H13S 1872   7.860   3.038   5.350 -0.6644 -1.6574  0.4265
   15DOPE  C214 1873   7.950   2.847   5.280  0.0564  0.2940  0.3272
   15DOPE  H14R 1874   7.895   2.773   5.342 -0.3499  0.1640 -0.1813
   15DOPE  H14S 1875   8.055   2.811   5.269  0.6926  2.3009 -0.6335
   15DOPE  C215 1876   7.897   2.855   5.137 -0.5798 -0.2605  0.6642
   15DOPE  H15R 1877   7.796   2.898   5.121 -1.5380 -0.9479  4.0717
   15DOPE  H15S 1878   7.886   2.750   5.101  0.6384 -0.1903  0.0492
   15DOPE  C216 1879   7.995   2.930   5.043  0.2958 -0.0971 -0.0367
   15DOPE  H16R 1880   8.091   2.873   5.042  1.6931  2.1265 -0.5022
   15DOPE  H16S 1881   8.013   3.028   5.091 -1.7351 -0.5308  1.7282
   15DOPE  C217 1882   7.938   2.964   4.910  0.0182  0.5548  1.0426
   15DOPE  H17R 1883   7.862   3.045   4.918  0.9207  1.4215  1.0399
   15DOPE  H17S 1884   7.888   2.876   4.865 -0.6968  0.9339  1.0918
   15DOPE  C218 1885   8.044   2.997   4.804 -0.7938 -0.4470 -0.1867
   15DOPE  H18R 1886   8.074   3.103   4.821 -0.3912 -0.5648 -0.1608
   15DOPE  H18S 1887   7.992   2.986   4.707  1.0468 -1.2471 -1.1272
   15DOPE  H18T 1888   8.138   2.938   4.805  1.3050  2.6245 -1.0412
   15DOPE   C33 1889   7.706   2.376   6.512  0.0501  0.0686  0.0465
   15DOPE   H3X 1890   7.718   2.272   6.473  1.9414  0.4643 -0.5401
   15DOPE   H3Y 1891   7.807   2.409   6.544 -0.6684  1.2935  1.1212
   15DOPE   C34 1892   7.651   2.461   6.399  0.5305  0.9479  0.2660
   15DOPE   H4X 1893   7.552   2.426   6.365  1.4257 -0.2542 -1.2290
   15DOPE   H4Y 1894   7.641   2.566   6.433  0.8409  1.6951 -1.7865
   15DOPE   C35 1895   7.730   2.446   6.271 -0.3623 -0.7512  0.1226
   15DOPE   H5X 1896   7.699   2.365   6.202  1.7790  0.0129 -1.8471
   15DOPE   H5Y 1897   7.838   2.439   6.294  0.0482  2.0208 -0.5615
   15DOPE   C36 1898   7.700   2.565   6.179 -0.1492  0.1365 -0.2734
   15DOPE   H6X 1899   7.783   2.566   6.104  0.4939 -1.4834  0.3853
   15DOPE   H6Y 1900   7.705   2.659   6.238 -0.8853 -0.1973  0.3362
   15DOPE   C37 1901   7.570   2.551   6.096 -0.3966  0.1339  0.3160
   15DOPE   H7X 1902   7.572   2.447   6.057 -0.4974 -0.6645  2.3361
   15DOPE   H7Y 1903   7.477   2.547   6.156 -1.0869  2.4741 -0.5083
   15DOPE   C38 1904   7.559   2.660   5.997  0.3099 -0.9970 -0.1497
   15DOPE   H8X 1905   7.644   2.666   5.926  0.6157 -0.4117  0.2518
   15DOPE   H8Y 1906   7.559   2.746   6.068  0.5699 -2.5196  1.7837
   15DOPE   C39 1907   7.431   2.654   5.925 -0.0860 -0.0384  0.1552
   15DOPE   H9X 1908   7.412   2.560   5.872  0.2405 -0.9031  1.5309
   15DOPE  C310 1909   7.321   2.733   5.925  0.1762 -0.7428  0.0122
   15DOPE  H10X 1910   7.233   2.711   5.863 -0.6558  0.7393  0.6261
   15DOPE  C311 1911   7.301   2.863   6.006  0.1806  0.0286  0.0409
   15DOPE  H11X 1912   7.393   2.897   6.058 -0.9192  2.4526  0.5577
   15DOPE  H11Y 1913   7.296   2.949   5.935  0.3834  0.3834  0.4479
   15DOPE  C312 1914   7.175   2.868   6.102  0.1260  0.1482 -0.5690
   15DOPE  H12X 1915   7.187   2.787   6.178 -1.7644 -0.5667 -0.9766
   15DOPE  H12Y 1916   7.083   2.838   6.047  0.1324  1.4454 -1.3332
   15DOPE  C313 1917   7.146   3.004   6.164  0.2790  0.4866  0.2149
   15DOPE  H13X 1918   7.239   3.048   6.205  1.6732 -0.8727 -1.3378
   15DOPE  H13Y 1919   7.119   3.068   6.077 -1.7073 -1.8516 -1.0436
   15DOPE  C314 1920   7.025   2.993   6.263  0.1927 -0.1409 -0.0397
   15DOPE  H14X 1921   7.040   2.913   6.338  1.7961 -0.0787 -0.2622
   15DOPE  H14Y 1922   6.942   2.971   6.193  0.4308 -0.2340 -0.2945
   15DOPE  C315 1923   6.986   3.122   6.342  0.6706 -0.4466  0.0317
   15DOPE  H15X 1924   7.062   3.140   6.422  1.1342  1.3647 -0.7597
   15DOPE  H15Y 1925   6.881   3.111   6.374  0.0145  0.7309 -1.6165
   15DOPE  C316 1926   6.994   3.246   6.247 -0.0513  0.2813  0.0523
   15DOPE  H16X 1927   6.932   3.231   6.156 -0.5171 -0.3386  0.4577
   15DOPE  H16Y 1928   7.097   3.263   6.209  0.3056 -0.2617  0.7430
   15DOPE  C317 1929   6.947   3.376   6.312  0.7048 -0.0110 -0.5725
   15DOPE  H17X 1930   6.836   3.385   6.306  0.2874 -2.6352  1.4770
   15DOPE  H17Y 1931   6.976   3.371   6.419 -0.7376  2.3723  0.0112
   15DOPE  C318 1932   7.011   3.508   6.255 -0.4947  0.2564  0.0434
   15DOPE  H18X 1933   6.985   3.604   6.304 -0.3443  1.1911 -1.6048
   15DOPE  H18Y 1934   7.121   3.492   6.243 -0.3256  2.4582 -2.2809
   15DOPE  H18Z 1935   6.975   3.508   6.150 -0.6292  0.2297  0.0898
   16DOPE     N 1936   7.022   3.172   6.805 -0.0011 -0.0004  0.5132
   16DOPE   HN1 1937   7.040   3.270   6.837  0.0922  0.2921 -0.3932
   16DOPE   HN2 1938   7.011   3.111   6.887 -1.4519 -0.6262 -0.1201
   16DOPE   HN3 1939   7.098   3.132   6.746 -0.3108  0.9453 -0.5630
   16DOPE   C12 1940   6.899   3.162   6.724  0.2148  0.2444 -0.2749
   16DOPE  H12A 1941   6.882   3.059   6.688  1.0768  0.3016 -0.8724
   16DOPE  H12B 1942   6.902   3.236   6.641 -1.8525 -0.9837 -1.5016
   16DOPE   C11 1943   6.785   3.190   6.830 -0.0310 -0.5265  0.5321
   16DOPE  H11A 1944   6.690   3.172   6.775 -0.6755  1.4529  0.9116
   16DOPE  H11B 1945   6.782   3.298   6.855 -0.7124 -0.2597 -0.6078
   16DOPE     P 1946   6.695   2.989   6.958  0.4026 -0.0135 -0.1590
   16DOPE   O13 1947   6.558   3.045   6.931  0.2519 -0.8248 -0.3300
   16DOPE   O14 1948   6.715   2.930   7.091 -1.0509  0.6668  0.4138
   16DOPE   O11 1949   6.740   2.890   6.836  0.2656  0.1664 -0.0008
   16DOPE   O12 1950   6.803   3.102   6.941  0.1651 -0.6522  0.1036
   16DOPE    C1 1951   6.853   2.800   6.846 -0.0947 -0.2789  0.2424
   16DOPE    HA 1952   6.812   2.712   6.900 -2.2972  0.6464  0.2166
   16DOPE    HB 1953   6.934   2.842   6.910  1.3690  1.1101 -2.3515
   16DOPE    C2 1954   6.912   2.750   6.711  0.3062 -0.2243 -0.0255
   16DOPE    HS 1955   6.957   2.836   6.657 -2.3722  0.3483 -1.5521
   16DOPE   O21 1956   6.803   2.691   6.633 -0.1561 -0.0868  0.4770
   16DOPE   C21 1957   6.764   2.771   6.531 -0.0109  0.2219 -0.3853
   16DOPE   O22 1958   6.819   2.876   6.494  0.1970  0.2668  0.3485
   16DOPE   C22 1959   6.631   2.715   6.475 -0.3215  0.2018  0.2347
   16DOPE   H2R 1960   6.561   2.693   6.558 -2.4619 -0.9053 -1.7610
   16DOPE   H2S 1961   6.663   2.621   6.425 -1.0946  0.3204 -0.5025
   16DOPE    C3 1962   7.029   2.645   6.717 -0.7849 -0.5742 -0.1423
   16DOPE    HX 1963   6.990   2.554   6.767 -3.0980  0.6152  0.3392
   16DOPE    HY 1964   7.108   2.684   6.785 -3.7543  0.9382  2.7037
   16DOPE   O31 1965   7.083   2.626   6.583 -0.5748 -0.5786  0.5490
   16DOPE   C31 1966   7.138   2.507   6.563 -0.5025  0.3558 -0.6035
   16DOPE   O32 1967   7.157   2.426   6.655 -0.2570  0.8640  0.1751
   16DOPE   C32 1968   7.177   2.492   6.414  0.3095 -0.4653 -0.2174
   16DOPE   H2X 1969   7.209   2.592   6.378  1.9693 -0.7792  0.2985
   16DOPE   H2Y 1970   7.266   2.426   6.407  1.1145  0.8161 -3.3668
   16DOPE   C23 1971   6.558   2.804   6.370  0.3080  0.0578 -0.2166
   16DOPE   H3R 1972   6.556   2.911   6.400 -1.1700  0.0757 -0.3181
   16DOPE   H3S 1973   6.454   2.769   6.358  0.6739 -1.7687  1.3201
   16DOPE   C24 1974   6.626   2.803   6.230 -0.0734 -0.1866 -0.5914
   16DOPE   H4R 1975   6.686   2.895   6.217 -0.6420  0.4613  1.0362
   16DOPE   H4S 1976   6.542   2.812   6.159 -0.1433  1.7330 -0.3121
   16DOPE   C25 1977   6.702   2.679   6.181 -0.1477  0.0124 -0.7695
   16DOPE   H5R 1978   6.652   2.582   6.200 -1.0667  0.1178 -2.4012
   16DOPE   H5S 1979   6.797   2.676   6.239 -0.6993  2.2298  0.3249
   16DOPE   C26 1980   6.739   2.701   6.029 -0.0965  0.8340 -0.2283
   16DOPE   H6R 1981   6.796   2.795   6.047 -0.8813  1.0076  1.5411
   16DOPE   H6S 1982   6.652   2.714   5.962  0.1336 -1.6689 -1.1013
   16DOPE   C27 1983   6.827   2.582   5.983  0.2556 -0.4101 -0.2510
   16DOPE   H7R 1984   6.786   2.486   6.020  2.2471 -1.7023 -1.1825
   16DOPE   H7S 1985   6.925   2.597   6.034  0.2384  2.4680 -0.8801
   16DOPE   C28 1986   6.838   2.577   5.828  0.3367 -0.4678 -0.5210
   16DOPE   H8R 1987   6.730   2.579   5.799 -0.3895 -5.3465  0.9869
   16DOPE   H8S 1988   6.879   2.480   5.793  1.6522  0.5479 -1.9587
   16DOPE   C29 1989   6.912   2.692   5.764  0.0227 -0.2677  0.1285
   16DOPE   H9R 1990   6.891   2.795   5.796  0.0981  0.0487 -0.8154
   16DOPE  C210 1991   7.004   2.676   5.672  0.2571  0.2292  0.3621
   16DOPE  H10R 1992   7.044   2.768   5.627 -0.2404  0.5618  0.5848
   16DOPE  C211 1993   7.044   2.555   5.589 -0.0655 -0.5193  0.2106
   16DOPE  H11R 1994   7.049   2.581   5.481  0.9867  1.3904  0.6696
   16DOPE  H11S 1995   6.978   2.468   5.610  0.5837 -0.1550  4.7815
   16DOPE  C212 1996   7.177   2.496   5.637 -0.3437  0.1495 -0.3783
   16DOPE  H12R 1997   7.166   2.472   5.745 -0.1579 -1.2901 -0.6571
   16DOPE  H12S 1998   7.257   2.573   5.636 -0.8277  0.6551 -0.6287
   16DOPE  C213 1999   7.219   2.366   5.563 -0.6349 -0.3365  0.0392
   16DOPE  H13R 2000   7.129   2.302   5.574 -1.2064  0.6940  1.7856
   16DOPE  H13S 2001   7.304   2.326   5.622 -0.3689  1.4533  0.9606
   16DOPE  C214 2002   7.258   2.387   5.419  0.0742  0.0186  0.3442
   16DOPE  H14R 2003   7.356   2.438   5.406 -0.9994  1.8761 -0.8894
   16DOPE  H14S 2004   7.193   2.472   5.390 -1.2088 -1.1755 -0.3401
   16DOPE  C215 2005   7.218   2.275   5.321 -1.1991  0.2331 -0.0256
   16DOPE  H15R 2006   7.108   2.256   5.320 -1.0025 -1.2595  1.5168
   16DOPE  H15S 2007   7.272   2.186   5.359 -1.5440 -1.0387 -2.3566
   16DOPE  C216 2008   7.255   2.321   5.175  0.5017 -0.3505 -0.2210
   16DOPE  H16R 2009   7.356   2.368   5.175 -0.9206  2.9860 -0.5556
   16DOPE  H16S 2010   7.201   2.408   5.134  0.8811 -0.0701 -0.1334
   16DOPE  C217 2011   7.253   2.201   5.072  0.0161  0.1327  0.3657
   16DOPE  H17R 2012   7.151   2.156   5.067 -1.2208  2.5067  1.8208
   16DOPE  H17S 2013   7.313   2.119   5.115 -0.2571  0.0192  0.5368
   16DOPE  C218 2014   7.304   2.228   4.920 -0.4767 -0.5051 -0.9406
   16DOPE  H18R 2015   7.245   2.315   4.886  0.6632  1.2331  1.2970
   16DOPE  H18S 2016   7.284   2.133   4.865 -0.7498 -0.0031 -1.7321
   16DOPE  H18T 2017   7.411   2.256   4.923 -0.6785  0.2026  0.6521
   16DOPE   C33 2018   7.056   2.445   6.330  0.4280 -0.0084 -0.3057
   16DOPE   H3X 2019   6.975   2.516   6.357  0.5416 -0.6986  2.0952
   16DOPE   H3Y 2020   7.020   2.350   6.374 -1.7410  1.2313  0.7288
   16DOPE   C34 2021   7.089   2.437   6.186  0.2685 -0.0849 -0.0575
   16DOPE   H4X 2022   7.007   2.384   6.133  0.3130  0.3797 -0.6038
   16DOPE   H4Y 2023   7.095   2.540   6.144  2.7789 -0.6206 -1.1849
   16DOPE   C35 2024   7.216   2.361   6.142  0.4059 -0.5207 -0.1872
   16DOPE   H5X 2025   7.214   2.263   6.195  1.0476 -0.6204 -0.3463
   16DOPE   H5Y 2026   7.309   2.415   6.171  0.4108  0.8835 -2.5553
   16DOPE   C36 2027   7.225   2.327   5.995 -0.6266  0.3019 -0.2969
   16DOPE   H6X 2028   7.209   2.411   5.924  1.5004 -0.2228 -1.5183
   16DOPE   H6Y 2029   7.147   2.252   5.971 -0.0379 -0.6505  0.6497
   16DOPE   C37 2030   7.360   2.264   5.962 -0.2525 -0.4951 -0.3417
   16DOPE   H7X 2031   7.418   2.335   5.899 -1.2216  1.6855  1.1015
   16DOPE   H7Y 2032   7.425   2.267   6.052 -0.9776 -0.4325  0.1901
   16DOPE   C38 2033   7.342   2.126   5.904  0.5488  0.0730 -0.5752
   16DOPE   H8X 2034   7.277   2.126   5.814 -2.1820  0.1534  1.2944
   16DOPE   H8Y 2035   7.289   2.062   5.977  0.1818 -1.3530 -2.0465
   16DOPE   C39 2036   7.475   2.061   5.870 -0.6149 -0.7922 -1.2083
   16DOPE   H9X 2037   7.496   2.087   5.765  0.8236  0.3358 -0.6844
   16DOPE  C310 2038   7.560   2.008   5.961 -0.1448  0.0994  0.1783
   16DOPE  H10X 2039   7.654   1.960   5.929  0.5185 -0.4204  2.6647
   16DOPE  C311 2040   7.536   1.991   6.105 -0.0739  0.3494 -0.6185
   16DOPE  H11X 2041   7.480   2.071   6.158 -0.6995 -0.1627 -0.4906
   16DOPE  H11Y 2042   7.484   1.897   6.133 -0.5788  0.7920 -0.0303
   16DOPE  C312 2043   7.678   1.994   6.166 -0.4555 -0.5213 -0.0657
   16DOPE  H12X 2044   7.735   2.089   6.152  0.0292 -0.1343  3.5728
   16DOPE  H12Y 2045   7.746   1.921   6.118 -0.6265  0.4435 -1.8429
   16DOPE  C313 2046   7.685   1.962   6.318 -0.7581  0.2046  0.5536
   16DOPE  H13X 2047   7.652   2.054   6.370 -1.7093 -1.1712  2.4648
   16DOPE  H13Y 2048   7.609   1.888   6.351 -1.5165  0.5583 -0.3655
   16DOPE  C314 2049   7.827   1.937   6.372 -0.1605 -0.2781  1.0472
   16DOPE  H14X 2050   7.874   1.862   6.305 -0.9258 -1.0688  1.3773
   16DOPE  H14Y 2051   7.828   1.887   6.471 -1.4695  0.7289  1.6021
   16DOPE  C315 2052   7.928   2.048   6.396  0.0627  0.6422  0.0047
   16DOPE  H15X 2053   7.888   2.143   6.439 -0.6355 -0.8699  2.9368
   16DOPE  H15Y 2054   7.994   2.067   6.308  1.3115 -2.4065  0.1777
   16DOPE  C316 2055   8.029   2.000   6.504  0.1683  0.1987 -0.2157
   16DOPE  H16X 2056   8.058   1.895   6.487  2.5677  0.6693  0.6452
   16DOPE  H16Y 2057   7.977   1.993   6.602  0.4204 -1.4599 -0.1741
   16DOPE  C317 2058   8.151   2.093   6.512 -0.1479  0.9415 -0.1345
   16DOPE  H17X 2059   8.223   2.062   6.433  0.7616 -1.4283  1.5018
   16DOPE  H17Y 2060   8.127   2.200   6.493 -1.0115  0.4585 -2.0642
   16DOPE  C318 2061   8.224   2.092   6.651  0.1065  0.5705  0.3067
   16DOPE  H18X 2062   8.313   2.157   6.639  1.1235 -0.9613 -0.7629
   16DOPE  H18Y 2063   8.155   2.115   6.735 -0.1948  2.2621 -0.3751
   16DOPE  H18Z 2064   8.258   1.986   6.657  1.1605  0.8713 -0.2143
   17DOPE     N 2065   2.919   7.009   7.390 -0.2451  0.3192  0.5820
   17DOPE   HN1 2066   2.825   6.989   7.350 -0.8866  3.0817  0.5237
   17DOPE   HN2 2067   2.977   6.924   7.407 -1.9528 -1.8587 -3.1092
   17DOPE   HN3 2068   2.911   7.063   7.478  0.6606  1.2099  0.1366
   17DOPE   C12 2069   2.980   7.105   7.299 -0.0139 -0.6328  0.4924
   17DOPE  H12A 2070   3.002   7.053   7.203 -1.2415 -2.6931  1.2396
   17DOPE  H12B 2071   3.075   7.139   7.344  2.0968  0.4014 -4.1517
   17DOPE   C11 2072   2.891   7.228   7.281  0.1875 -0.9555 -0.0134
   17DOPE  H11A 2073   2.808   7.206   7.211  0.3270 -0.5914 -0.2966
   17DOPE  H11B 2074   2.948   7.305   7.224 -2.2359 -0.4577 -1.9773
   17DOPE     P 2075   2.761   7.404   7.430 -0.6423  0.2372  0.5157
   17DOPE   O13 2076   2.826   7.471   7.542  0.5108  0.4507 -0.0102
   17DOPE   O14 2077   2.618   7.380   7.429  0.2920 -0.3039  0.1075
   17DOPE   O11 2078   2.794   7.495   7.305 -0.4420 -0.4098  0.0144
   17DOPE   O12 2079   2.838   7.268   7.409 -0.2105  0.7059  0.2953
   17DOPE    C1 2080   2.680   7.556   7.236  0.2846 -1.0515  0.4223
   17DOPE    HA 2081   2.708   7.656   7.197 -1.1141 -1.2517 -1.2186
   17DOPE    HB 2082   2.598   7.585   7.305 -0.1566  0.0280 -0.5067
   17DOPE    C2 2083   2.621   7.462   7.130  0.1246  0.1035 -0.6677
   17DOPE    HS 2084   2.666   7.362   7.146 -1.4634 -0.2968  1.8703
   17DOPE   O21 2085   2.646   7.525   7.002 -0.4133  0.5110  0.4051
   17DOPE   C21 2086   2.767   7.502   6.959  0.0470 -0.3177 -0.7298
   17DOPE   O22 2087   2.861   7.443   7.008  0.0197  0.3774  0.1820
   17DOPE   C22 2088   2.790   7.580   6.824  0.5081  0.7132 -0.2713
   17DOPE   H2R 2089   2.898   7.607   6.827  0.9455 -0.4633 -2.9845
   17DOPE   H2S 2090   2.736   7.675   6.845  1.1496  0.9269  0.4415
   17DOPE    C3 2091   2.466   7.438   7.144 -0.4754 -0.5112  0.4808
   17DOPE    HX 2092   2.414   7.534   7.128  0.7401  0.1659  0.4510
   17DOPE    HY 2093   2.443   7.404   7.247 -2.6191  0.2506  0.3054
   17DOPE   O31 2094   2.427   7.347   7.034 -0.4176  0.2747  0.0923
   17DOPE   C31 2095   2.384   7.223   7.077 -0.2047  0.8392  1.0786
   17DOPE   O32 2096   2.361   7.195   7.190  0.0586 -0.2912 -0.2863
   17DOPE   C32 2097   2.380   7.124   6.963 -0.4106  0.5638  0.1438
   17DOPE   H2X 2098   2.412   7.030   7.014  1.8880  1.7589  1.0422
   17DOPE   H2Y 2099   2.272   7.106   6.944 -0.2475  0.2238 -0.4781
   17DOPE   C23 2100   2.740   7.513   6.691 -0.3077  0.1634 -0.3684
   17DOPE   H3R 2101   2.762   7.584   6.608  1.0101  0.5242  0.2673
   17DOPE   H3S 2102   2.632   7.506   6.716 -0.3199  1.4767  0.0498
   17DOPE   C24 2103   2.797   7.374   6.664  0.2935 -0.2943  0.5396
   17DOPE   H4R 2104   2.732   7.332   6.585  0.2547 -1.8803  1.3898
   17DOPE   H4S 2105   2.780   7.307   6.751 -1.6546  0.8399  1.0982
   17DOPE   C25 2106   2.945   7.357   6.611  0.8449 -0.5636  0.0887
   17DOPE   H5R 2107   3.014   7.378   6.695 -0.6921  1.6971  0.8872
   17DOPE   H5S 2108   2.959   7.427   6.526  2.1315 -0.7782  0.1038
   17DOPE   C26 2109   2.981   7.217   6.561  0.1836 -0.0169  0.4363
   17DOPE   H6R 2110   2.959   7.198   6.454  2.8499 -2.4474  0.1980
   17DOPE   H6S 2111   2.927   7.146   6.628  1.3758 -1.9307 -0.5426
   17DOPE   C27 2112   3.128   7.191   6.576 -0.6994  0.4505  0.2417
   17DOPE   H7R 2113   3.161   7.192   6.682 -1.7418 -0.9016  0.6056
   17DOPE   H7S 2114   3.185   7.268   6.521 -0.0341 -0.9939 -1.1725
   17DOPE   C28 2115   3.164   7.048   6.515 -0.7503 -0.0155 -0.1136
   17DOPE   H8R 2116   3.120   7.052   6.413  0.9140 -0.1758 -0.8576
   17DOPE   H8S 2117   3.115   6.976   6.584 -0.5656  0.4455  0.5108
   17DOPE   C29 2118   3.311   7.032   6.506 -0.1357  0.0742  0.1859
   17DOPE   H9R 2119   3.369   7.123   6.487  0.4941 -0.5180 -0.8618
   17DOPE  C210 2120   3.379   6.917   6.507 -0.4458  1.1739 -0.0697
   17DOPE  H10R 2121   3.488   6.927   6.494 -0.3476  1.0547  0.6350
   17DOPE  C211 2122   3.328   6.773   6.506  0.1825  0.0889  0.8734
   17DOPE  H11R 2123   3.218   6.773   6.490  0.1175 -0.3701  1.3021
   17DOPE  H11S 2124   3.361   6.715   6.594  1.2523 -0.9830 -0.2014
   17DOPE  C212 2125   3.373   6.698   6.377  0.0056  0.3424 -0.0052
   17DOPE  H12R 2126   3.482   6.676   6.373 -0.1469 -0.3259 -0.5848
   17DOPE  H12S 2127   3.356   6.762   6.287 -0.4167 -1.1472 -1.0206
   17DOPE  C213 2128   3.301   6.563   6.356  0.2597 -0.3672  0.5728
   17DOPE  H13R 2129   3.206   6.586   6.304 -0.3044 -1.3625  1.1492
   17DOPE  H13S 2130   3.267   6.519   6.453 -1.2786 -0.2453  0.1176
   17DOPE  C214 2131   3.387   6.462   6.276  0.1463  0.0644 -0.0891
   17DOPE  H14R 2132   3.325   6.376   6.245  1.0783 -1.1244  1.1696
   17DOPE  H14S 2133   3.476   6.437   6.339  0.8081  0.4360 -0.8553
   17DOPE  C215 2134   3.428   6.523   6.138 -0.0269  0.0490  0.7187
   17DOPE  H15R 2135   3.500   6.605   6.159  0.9625 -0.7947  0.6745
   17DOPE  H15S 2136   3.332   6.561   6.096  0.0120 -1.0188 -0.3840
   17DOPE  C216 2137   3.500   6.420   6.044 -0.0278 -0.1098  0.8753
   17DOPE  H16R 2138   3.426   6.340   6.023  0.3897 -0.1528 -0.5145
   17DOPE  H16S 2139   3.578   6.354   6.089  0.6400 -2.2855 -3.0766
   17DOPE  C217 2140   3.551   6.490   5.919  0.1427  0.2119  0.9342
   17DOPE  H17R 2141   3.623   6.567   5.952 -0.3831  0.3548  1.7975
   17DOPE  H17S 2142   3.472   6.544   5.863 -0.3779  0.1571  1.5984
   17DOPE  C218 2143   3.624   6.396   5.823  0.3010  0.2335 -0.0504
   17DOPE  H18R 2144   3.704   6.337   5.871  1.5510  1.3836 -0.6544
   17DOPE  H18S 2145   3.683   6.463   5.757  1.7622 -0.8747  0.0731
   17DOPE  H18T 2146   3.559   6.322   5.770  1.3030 -0.6144 -0.1257
   17DOPE   C33 2147   2.464   7.158   6.838 -0.5062 -0.0566  1.0452
   17DOPE   H3X 2148   2.570   7.164   6.868  0.1572 -1.4780 -0.8120
   17DOPE   H3Y 2149   2.433   7.260   6.807 -0.8417  0.6417  3.4510
   17DOPE   C34 2150   2.444   7.066   6.718 -0.0740  0.7179 -0.4342
   17DOPE   H4X 2151   2.465   6.958   6.739 -1.5786  0.4930 -0.0071
   17DOPE   H4Y 2152   2.341   7.079   6.678  0.0679  0.8681 -0.7525
   17DOPE   C35 2153   2.543   7.113   6.603  0.2629  0.0206  0.0277
   17DOPE   H5X 2154   2.648   7.114   6.640  1.0633 -2.1509 -1.9810
   17DOPE   H5Y 2155   2.523   7.219   6.578  1.0645  1.3084  4.1056
   17DOPE   C36 2156   2.538   7.021   6.479 -0.3932  0.3930 -0.2565
   17DOPE   H6X 2157   2.436   7.032   6.436 -0.3175 -0.5661 -0.6975
   17DOPE   H6Y 2158   2.541   6.917   6.519  0.3177  1.5037  2.8451
   17DOPE   C37 2159   2.647   7.037   6.381 -0.2426 -0.0132  0.7214
   17DOPE   H7X 2160   2.745   7.033   6.432  0.7760  2.9915 -0.7783
   17DOPE   H7Y 2161   2.636   6.966   6.296  2.3913 -0.5295  0.7284
   17DOPE   C38 2162   2.659   7.177   6.308 -0.1353  0.4376 -0.0832
   17DOPE   H8X 2163   2.666   7.262   6.380  1.2946 -0.3483  0.7621
   17DOPE   H8Y 2164   2.562   7.182   6.255  0.8583  0.0666 -2.0020
   17DOPE   C39 2165   2.755   7.189   6.191  0.1666 -0.7639 -0.4918
   17DOPE   H9X 2166   2.857   7.158   6.221  1.1626  0.2007 -2.6506
   17DOPE  C310 2167   2.735   7.228   6.062 -0.3545  0.3825 -0.7661
   17DOPE  H10X 2168   2.818   7.227   5.991 -1.0762  1.4571 -1.6629
   17DOPE  C311 2169   2.603   7.267   5.999 -0.2575 -0.1896  0.0591
   17DOPE  H11X 2170   2.594   7.246   5.890 -2.9169 -0.6496  0.3109
   17DOPE  H11Y 2171   2.529   7.199   6.046  1.2098 -3.1535 -1.5969
   17DOPE  C312 2172   2.546   7.407   6.027  0.1339  0.1555  0.4856
   17DOPE  H12X 2173   2.608   7.477   5.968  0.6651 -0.8157 -0.1429
   17DOPE  H12Y 2174   2.557   7.428   6.136  0.3738 -0.8226  0.6649
   17DOPE  C313 2175   2.401   7.425   5.981  0.5036  0.1074 -0.3441
   17DOPE  H13X 2176   2.391   7.532   6.009  0.4507  0.4212 -1.5133
   17DOPE  H13Y 2177   2.395   7.411   5.871  0.6773 -0.2148 -0.3122
   17DOPE  C314 2178   2.295   7.338   6.059 -0.3481  0.3703 -0.4546
   17DOPE  H14X 2179   2.320   7.231   6.042  2.4210  0.4766  2.1750
   17DOPE  H14Y 2180   2.193   7.359   6.021  0.0418 -1.9382 -3.1354
   17DOPE  C315 2181   2.302   7.367   6.207  0.1898  0.1545  0.2105
   17DOPE  H15X 2182   2.308   7.476   6.227  0.8158  0.4256 -1.2906
   17DOPE  H15Y 2183   2.398   7.325   6.245  1.6298  2.4891 -0.6244
   17DOPE  C316 2184   2.185   7.299   6.278 -0.5905 -0.1126  0.0542
   17DOPE  H16X 2185   2.187   7.189   6.271 -0.1450 -0.0617 -0.7143
   17DOPE  H16Y 2186   2.094   7.336   6.226 -0.1881  0.6387 -0.1376
   17DOPE  C317 2187   2.189   7.343   6.425  0.1208 -0.2939  0.0288
   17DOPE  H17X 2188   2.283   7.304   6.471 -0.4533 -2.1902 -0.2839
   17DOPE  H17Y 2189   2.181   7.453   6.438 -0.4123 -0.4784  1.4340
   17DOPE  C318 2190   2.070   7.283   6.490  0.0673  0.3060 -0.1603
   17DOPE  H18X 2191   2.063   7.315   6.596 -1.0061 -0.0633 -0.1120
   17DOPE  H18Y 2192   1.975   7.313   6.442  0.9896  0.4807 -1.9635
   17DOPE  H18Z 2193   2.081   7.173   6.489 -1.4181  0.1120  1.3427
   18DOPE     N 2194   5.837   4.714   7.220  0.6620 -0.6677 -0.0449
   18DOPE   HN1 2195   5.775   4.661   7.155  0.2841 -1.0115  0.5887
   18DOPE   HN2 2196   5.830   4.671   7.314 -1.0406  0.7573  0.5426
   18DOPE   HN3 2197   5.807   4.813   7.232  1.0212 -0.8243  2.8488
   18DOPE   C12 2198   5.987   4.696   7.194 -0.0328  1.2066 -0.2039
   18DOPE  H12A 2199   6.045   4.762   7.262  1.3246 -1.5598  1.5323
   18DOPE  H12B 2200   5.999   4.718   7.086 -2.0048  1.0105 -0.5034
   18DOPE   C11 2201   6.045   4.550   7.204  0.5405 -0.5184  0.9121
   18DOPE  H11A 2202   6.027   4.521   7.310  1.9105  0.0278  1.3124
   18DOPE  H11B 2203   6.156   4.549   7.209  0.5602 -0.8349  0.3954
   18DOPE     P 2204   6.048   4.438   6.961 -0.0350 -0.1249 -0.3516
   18DOPE   O13 2205   6.004   4.302   6.910 -0.1998  0.2101 -0.2245
   18DOPE   O14 2206   6.195   4.471   6.949 -0.0031 -0.2543  0.3795
   18DOPE   O11 2207   5.977   4.555   6.878  0.4553  0.6015 -0.1872
   18DOPE   O12 2208   5.987   4.463   7.110 -0.2533  0.6241  0.2086
   18DOPE    C1 2209   5.963   4.562   6.736  0.3957 -0.2948  0.5129
   18DOPE    HA 2210   5.887   4.636   6.703  0.3434 -0.0418  1.1857
   18DOPE    HB 2211   5.930   4.468   6.687 -0.3983 -0.3420  1.1171
   18DOPE    C2 2212   6.088   4.609   6.666 -0.2057 -0.0172  0.0034
   18DOPE    HS 2213   6.158   4.641   6.746  0.7694 -0.6391 -0.5778
   18DOPE   O21 2214   6.066   4.719   6.573 -0.2356 -0.3316 -0.1437
   18DOPE   C21 2215   6.172   4.807   6.562 -0.9518  0.3163 -0.1327
   18DOPE   O22 2216   6.288   4.784   6.599  0.8792  0.7431 -0.1085
   18DOPE   C22 2217   6.116   4.929   6.501  0.5391 -0.0043 -0.9415
   18DOPE   H2R 2218   6.087   4.990   6.590  0.6242  0.7286 -1.4127
   18DOPE   H2S 2219   6.029   4.911   6.435 -1.4250 -2.3942  1.9946
   18DOPE    C3 2220   6.167   4.491   6.598  0.0796 -0.4679  0.0494
   18DOPE    HX 2221   6.199   4.421   6.678  1.1262 -1.6412 -1.3277
   18DOPE    HY 2222   6.258   4.531   6.547 -0.1471 -0.9693 -0.7738
   18DOPE   O31 2223   6.081   4.415   6.508 -0.3256 -0.9380 -0.5141
   18DOPE   C31 2224   6.153   4.346   6.419 -0.0377  0.0024  0.1340
   18DOPE   O32 2225   6.275   4.338   6.416 -0.2191 -0.0663  0.2715
   18DOPE   C32 2226   6.065   4.284   6.313  0.2782 -0.2996  0.6349
   18DOPE   H2X 2227   6.013   4.357   6.247  0.3453 -1.3887 -0.6656
   18DOPE   H2Y 2228   6.145   4.245   6.246  0.2130  0.9716 -0.2338
   18DOPE   C23 2229   6.211   4.998   6.398 -0.0118  0.5737  0.0455
   18DOPE   H3R 2230   6.305   5.023   6.451 -0.2242 -0.5784  1.0005
   18DOPE   H3S 2231   6.169   5.092   6.356  1.7661  0.4302 -2.2351
   18DOPE   C24 2232   6.254   4.901   6.287 -0.0227 -0.0489 -0.1557
   18DOPE   H4R 2233   6.290   4.804   6.328  0.3689 -0.3364 -1.1625
   18DOPE   H4S 2234   6.339   4.940   6.227 -0.0669  0.4777  0.1221
   18DOPE   C25 2235   6.137   4.887   6.184 -0.0633 -0.2887 -0.0700
   18DOPE   H5R 2236   6.126   4.981   6.127 -2.0729  0.5050  1.5164
   18DOPE   H5S 2237   6.038   4.872   6.232 -0.3141  0.1688 -0.4392
   18DOPE   C26 2238   6.163   4.787   6.079 -0.5013  0.3199 -0.6392
   18DOPE   H6R 2239   6.252   4.826   6.024 -0.3669 -2.2972 -2.4501
   18DOPE   H6S 2240   6.079   4.782   6.006  0.6209 -1.8366 -1.8874
   18DOPE   C27 2241   6.190   4.639   6.132  0.0014  0.5631  0.4955
   18DOPE   H7R 2242   6.102   4.611   6.195 -0.5675 -0.0676 -0.5528
   18DOPE   H7S 2243   6.276   4.653   6.201 -0.3689  2.0900  0.6857
   18DOPE   C28 2244   6.197   4.533   6.015 -0.0939  0.7987 -0.3429
   18DOPE   H8R 2245   6.105   4.551   5.954  0.9920  0.6881 -2.0745
   18DOPE   H8S 2246   6.207   4.427   6.047  3.7758  0.7943 -1.1056
   18DOPE   C29 2247   6.316   4.561   5.924  0.0926 -0.3079  0.2845
   18DOPE   H9R 2248   6.403   4.579   5.989  1.4549 -5.0309  0.1130
   18DOPE  C210 2249   6.333   4.542   5.787 -0.2199  0.9544 -0.1999
   18DOPE  H10R 2250   6.426   4.576   5.739  0.1266  1.2003  0.6142
   18DOPE  C211 2251   6.234   4.479   5.688  0.1325  0.1233  0.0512
   18DOPE  H11R 2252   6.143   4.439   5.739  0.2988 -0.5019 -0.1311
   18DOPE  H11S 2253   6.281   4.395   5.633  2.0931  0.1122  1.6361
   18DOPE  C212 2254   6.184   4.584   5.587 -0.0477  0.5318  0.0016
   18DOPE  H12R 2255   6.122   4.527   5.513  2.9471 -2.1199 -0.6850
   18DOPE  H12S 2256   6.273   4.627   5.536  0.2207 -0.2952 -0.2432
   18DOPE  C213 2257   6.097   4.689   5.651 -0.0300 -0.1665 -0.0117
   18DOPE  H13R 2258   6.162   4.753   5.715  0.9114  1.2650 -2.3062
   18DOPE  H13S 2259   6.007   4.652   5.705 -0.2762  0.6984  0.1871
   18DOPE  C214 2260   6.040   4.796   5.551 -0.1502 -0.1166  0.5131
   18DOPE  H14R 2261   6.121   4.859   5.508 -0.1563 -1.1066 -0.9993
   18DOPE  H14S 2262   5.979   4.867   5.611 -0.1025 -0.5516  1.0760
   18DOPE  C215 2263   5.943   4.734   5.451  0.8205  0.4191  0.0920
   18DOPE  H15R 2264   5.865   4.671   5.499  1.8339 -1.4767 -0.6201
   18DOPE  H15S 2265   5.995   4.648   5.403 -1.5574 -1.3369  0.4706
   18DOPE  C216 2266   5.888   4.836   5.354  0.0572 -0.1897 -0.0568
   18DOPE  H16R 2267   5.973   4.881   5.299  1.9460  0.8449  3.3969
   18DOPE  H16S 2268   5.855   4.921   5.418  1.3063  0.8568 -0.7752
   18DOPE  C217 2269   5.779   4.784   5.259 -0.1511  0.2834 -0.2196
   18DOPE  H17R 2270   5.700   4.727   5.312  0.9201 -1.4768 -0.4378
   18DOPE  H17S 2271   5.833   4.716   5.190  2.5163  1.6943  0.3198
   18DOPE  C218 2272   5.712   4.891   5.168  1.0947  0.2320  0.5564
   18DOPE  H18R 2273   5.631   4.955   5.209  0.1993  0.1048 -0.9309
   18DOPE  H18S 2274   5.665   4.827   5.090  1.3295  1.7335 -0.8555
   18DOPE  H18T 2275   5.795   4.952   5.128  1.0248  1.2391  1.8977
   18DOPE   C33 2276   5.981   4.162   6.347  0.3377 -0.1948  0.6219
   18DOPE   H3X 2277   5.886   4.199   6.392  0.1899 -0.6148  0.6596
   18DOPE   H3Y 2278   6.027   4.094   6.423 -0.0428 -0.4622  0.6193
   18DOPE   C34 2279   5.949   4.081   6.220 -0.0559 -0.0643 -0.0262
   18DOPE   H4X 2280   5.953   4.141   6.127 -1.0930 -1.0711 -0.7456
   18DOPE   H4Y 2281   6.036   4.013   6.208  0.0913  0.5465 -3.2210
   18DOPE   C35 2282   5.814   4.007   6.230 -0.2032 -0.2457  0.2604
   18DOPE   H5X 2283   5.726   4.072   6.241  0.4282  0.4109  1.5798
   18DOPE   H5Y 2284   5.822   3.939   6.317 -3.6195 -0.6353  0.4072
   18DOPE   C36 2285   5.795   3.912   6.109  0.3988 -0.4413 -0.0763
   18DOPE   H6X 2286   5.877   3.838   6.111  1.1983  0.3724 -1.2765
   18DOPE   H6Y 2287   5.816   3.968   6.016  0.8617 -2.2782 -1.1404
   18DOPE   C37 2288   5.658   3.838   6.110 -0.2205  0.4905 -0.4418
   18DOPE   H7X 2289   5.658   3.795   6.213  2.1613  0.4837 -0.3942
   18DOPE   H7Y 2290   5.574   3.910   6.110  0.7602  1.7058 -1.8244
   18DOPE   C38 2291   5.650   3.720   6.011 -0.2301 -0.6292 -0.6992
   18DOPE   H8X 2292   5.561   3.661   6.041 -0.0824 -1.4518 -1.8146
   18DOPE   H8Y 2293   5.741   3.656   6.016  2.0294  2.4716  2.9856
   18DOPE   C39 2294   5.646   3.770   5.867  0.4875 -1.0352  0.4850
   18DOPE   H9X 2295   5.682   3.874   5.864  2.7540 -1.7137  1.5439
   18DOPE  C310 2296   5.600   3.706   5.755  0.4014 -0.1494 -0.2099
   18DOPE  H10X 2297   5.630   3.745   5.656 -0.4485  3.0741  0.6815
   18DOPE  C311 2298   5.550   3.564   5.767  0.1609  0.2138  0.0938
   18DOPE  H11X 2299   5.581   3.508   5.858 -0.4892 -0.0836  0.1395
   18DOPE  H11Y 2300   5.439   3.566   5.776 -0.0087  0.9217 -1.7561
   18DOPE  C312 2301   5.573   3.471   5.639  0.5032 -0.1204 -0.7694
   18DOPE  H12X 2302   5.569   3.368   5.680 -1.7936  0.8688  1.7847
   18DOPE  H12Y 2303   5.679   3.481   5.607  1.0642 -1.6041  0.4529
   18DOPE  C313 2304   5.492   3.494   5.511  0.1090  0.6077 -0.0373
   18DOPE  H13X 2305   5.394   3.452   5.542 -0.3387  1.7229  0.1252
   18DOPE  H13Y 2306   5.481   3.604   5.500  1.3758  0.9524  1.8007
   18DOPE  C314 2307   5.564   3.440   5.391 -0.4548 -0.2205  0.1505
   18DOPE  H14X 2308   5.617   3.344   5.407 -0.9045 -0.7724 -1.4939
   18DOPE  H14Y 2309   5.643   3.517   5.382  1.2224 -1.9022 -0.1482
   18DOPE  C315 2310   5.491   3.432   5.264  0.0814 -0.5509 -0.5178
   18DOPE  H15X 2311   5.571   3.414   5.190  0.8607 -0.3571  0.2662
   18DOPE  H15Y 2312   5.448   3.531   5.238  1.4571 -0.3809 -2.3078
   18DOPE  C316 2313   5.378   3.335   5.260  0.0937  0.6201 -0.5418
   18DOPE  H16X 2314   5.299   3.362   5.186 -1.0555 -2.3519 -0.5642
   18DOPE  H16Y 2315   5.329   3.323   5.359  1.5993  0.3100  0.1932
   18DOPE  C317 2316   5.421   3.191   5.213  0.5180  0.8545 -0.0025
   18DOPE  H17X 2317   5.486   3.196   5.123  1.9638  1.3975  1.0224
   18DOPE  H17Y 2318   5.472   3.128   5.289 -3.1214 -2.4252 -0.0044
   18DOPE  C318 2319   5.299   3.099   5.188  0.4803  0.6143 -1.3121
   18DOPE  H18X 2320   5.234   3.097   5.278  1.2737 -0.4985 -0.7386
   18DOPE  H18Y 2321   5.235   3.136   5.105 -0.0412  1.6376 -0.4731
   18DOPE  H18Z 2322   5.315   2.992   5.162  0.8658  0.9093 -2.3674
   19DOPE     N 2323   7.281   3.692   7.103 -0.5952  0.5339 -0.9611
   19DOPE   HN1 2324   7.315   3.790   7.099  0.4369  0.1488 -2.3568
   19DOPE   HN2 2325   7.205   3.665   7.168  0.9173 -0.4290  0.5094
   19DOPE   HN3 2326   7.368   3.661   7.152 -1.0644  1.0206  0.2139
   19DOPE   C12 2327   7.280   3.644   6.960  0.1760  0.3678  0.7029
   19DOPE  H12A 2328   7.292   3.535   6.972  0.3215 -0.1025 -2.7796
   19DOPE  H12B 2329   7.365   3.694   6.909  2.0472 -0.8849  2.4869
   19DOPE   C11 2330   7.149   3.697   6.898  0.3727 -0.0566 -0.4856
   19DOPE  H11A 2331   7.144   3.673   6.790 -2.6276 -1.3788 -0.1541
   19DOPE  H11B 2332   7.149   3.808   6.901  1.1095 -0.0532 -0.5653
   19DOPE     P 2333   6.957   3.524   6.910 -0.1839 -0.3304  0.1467
   19DOPE   O13 2334   6.828   3.511   6.978 -0.1151 -0.2059 -0.0445
   19DOPE   O14 2335   7.050   3.409   6.925 -0.7552  0.4920  0.2546
   19DOPE   O11 2336   6.931   3.557   6.756  0.0150 -0.0279  0.3163
   19DOPE   O12 2337   7.028   3.649   6.966  0.5006  0.4335 -0.0503
   19DOPE    C1 2338   6.820   3.641   6.716 -0.3025 -0.0674 -0.0121
   19DOPE    HA 2339   6.853   3.679   6.617 -0.2590 -0.0304  0.0165
   19DOPE    HB 2340   6.809   3.727   6.786 -1.5420 -0.5335  0.3913
   19DOPE    C2 2341   6.682   3.568   6.712 -0.1226  0.0787 -0.5075
   19DOPE    HS 2342   6.653   3.537   6.815  1.1559 -0.6919 -0.3498
   19DOPE   O21 2343   6.693   3.451   6.637  0.4933 -0.1302  0.3387
   19DOPE   C21 2344   6.583   3.378   6.623  0.5577  0.1261 -0.0992
   19DOPE   O22 2345   6.490   3.376   6.702 -0.0359 -0.1757 -0.0169
   19DOPE   C22 2346   6.583   3.297   6.493  0.2859  0.1978 -0.3503
   19DOPE   H2R 2347   6.518   3.208   6.508 -0.3691  0.7721  0.3388
   19DOPE   H2S 2348   6.687   3.260   6.484  0.2834  0.0226  0.2648
   19DOPE    C3 2349   6.587   3.660   6.648  0.1112 -0.8094  0.2637
   19DOPE    HX 2350   6.587   3.751   6.711  0.3967 -0.9922  0.5298
   19DOPE    HY 2351   6.484   3.621   6.636  0.0564  0.1271 -3.4837
   19DOPE   O31 2352   6.635   3.707   6.519  0.2050 -0.2737 -0.1276
   19DOPE   C31 2353   6.542   3.770   6.448 -0.1983  0.0075  0.9963
   19DOPE   O32 2354   6.428   3.789   6.474 -0.6036 -0.0621  0.6130
   19DOPE   C32 2355   6.613   3.841   6.333 -0.2707  0.3426 -0.0348
   19DOPE   H2X 2356   6.707   3.791   6.303 -0.0568 -0.2935  1.5887
   19DOPE   H2Y 2357   6.540   3.842   6.249 -1.3508  1.2177  0.8811
   19DOPE   C23 2358   6.528   3.378   6.373  0.3045  0.4742 -0.1301
   19DOPE   H3R 2359   6.576   3.478   6.363 -0.7984  0.9138 -1.2948
   19DOPE   H3S 2360   6.424   3.410   6.395 -0.0292 -0.7086  0.0921
   19DOPE   C24 2361   6.542   3.305   6.240 -0.3467  0.8043  0.2161
   19DOPE   H4R 2362   6.485   3.210   6.251 -0.4570  0.9658  1.1101
   19DOPE   H4S 2363   6.647   3.282   6.213 -0.2869 -0.5428  1.4704
   19DOPE   C25 2364   6.480   3.394   6.120 -0.4679 -0.1376 -1.1646
   19DOPE   H5R 2365   6.545   3.484   6.126  1.3608 -1.4943  0.7240
   19DOPE   H5S 2366   6.384   3.428   6.165 -0.2095 -0.3873 -0.4060
   19DOPE   C26 2367   6.470   3.328   5.987  0.0809 -0.7158  0.0374
   19DOPE   H6R 2368   6.419   3.230   5.998 -1.8843  0.4449  2.1229
   19DOPE   H6S 2369   6.571   3.306   5.946  0.2376 -0.8615  0.5012
   19DOPE   C27 2370   6.398   3.410   5.872  0.0308  0.6243  0.3400
   19DOPE   H7R 2371   6.453   3.506   5.858 -0.2901  0.6234 -1.0611
   19DOPE   H7S 2372   6.310   3.443   5.931  1.4684  2.2286  1.6929
   19DOPE   C28 2373   6.349   3.338   5.745  0.0816 -0.2578  0.2631
   19DOPE   H8R 2374   6.302   3.423   5.690 -3.4028 -0.7409  2.1701
   19DOPE   H8S 2375   6.273   3.260   5.766  2.9663 -3.8268 -1.4175
   19DOPE   C29 2376   6.472   3.289   5.671 -1.0677  0.0028 -0.0198
   19DOPE   H9R 2377   6.549   3.367   5.659 -1.0058  0.2318  1.6870
   19DOPE  C210 2378   6.498   3.160   5.630  0.0635 -0.1225 -0.7547
   19DOPE  H10R 2379   6.591   3.128   5.582  0.2885 -0.0972 -0.3321
   19DOPE  C211 2380   6.402   3.041   5.669 -0.5790 -0.9213  0.4455
   19DOPE  H11R 2381   6.304   3.078   5.707 -0.1205 -0.3167  1.0553
   19DOPE  H11S 2382   6.446   2.984   5.754 -0.4478  0.4842  1.3493
   19DOPE  C212 2383   6.364   2.947   5.555  0.1087 -0.1372 -0.6711
   19DOPE  H12R 2384   6.306   3.021   5.496 -0.9647 -0.1055  0.3863
   19DOPE  H12S 2385   6.289   2.868   5.577 -2.0834  1.0655 -3.1181
   19DOPE  C213 2386   6.476   2.900   5.463 -0.4645 -0.0079  0.3716
   19DOPE  H13R 2387   6.517   2.990   5.412 -0.3691 -0.4068 -0.2564
   19DOPE  H13S 2388   6.431   2.848   5.376  1.4774  0.2988 -0.8648
   19DOPE  C214 2389   6.582   2.806   5.520  0.6638 -0.4785 -0.5090
   19DOPE  H14R 2390   6.536   2.707   5.543  1.6954 -0.6916  0.7391
   19DOPE  H14S 2391   6.614   2.843   5.620 -0.6287  0.0059 -0.2611
   19DOPE  C215 2392   6.700   2.774   5.437  0.4403  0.1209  0.3760
   19DOPE  H15R 2393   6.666   2.768   5.331 -1.1173  0.8423  0.8026
   19DOPE  H15S 2394   6.747   2.677   5.462  0.0563 -0.3004 -0.5122
   19DOPE  C216 2395   6.805   2.885   5.447 -0.6199  0.2679 -0.4162
   19DOPE  H16R 2396   6.858   2.890   5.544  0.9466 -0.5225 -1.1868
   19DOPE  H16S 2397   6.743   2.977   5.445 -2.3076 -0.7981 -0.1117
   19DOPE  C217 2398   6.922   2.882   5.338  0.3624  0.3697 -0.5966
   19DOPE  H17R 2399   6.864   2.884   5.244 -1.1526  1.7094  0.3127
   19DOPE  H17S 2400   6.969   2.781   5.332 -3.3980 -1.5269 -1.1467
   19DOPE  C218 2401   7.035   2.988   5.345  0.5540 -0.4854  0.6861
   19DOPE  H18R 2402   6.983   3.085   5.358 -0.5835 -0.8898 -0.5375
   19DOPE  H18S 2403   7.107   2.993   5.261 -0.2490  0.8878  0.0500
   19DOPE  H18T 2404   7.090   2.969   5.439 -2.0360 -0.4316  2.3126
   19DOPE   C33 2405   6.650   3.985   6.366  0.3283 -0.3303 -0.1556
   19DOPE   H3X 2406   6.744   3.995   6.424 -1.6357  0.0619  3.1806
   19DOPE   H3Y 2407   6.575   4.043   6.424 -0.0010 -1.3879  0.4932
   19DOPE   C34 2408   6.668   4.054   6.226 -0.3595 -0.0611 -0.3974
   19DOPE   H4X 2409   6.757   4.003   6.183 -0.7021 -0.4195 -0.6928
   19DOPE   H4Y 2410   6.569   4.031   6.181  0.1809 -0.8034 -1.2566
   19DOPE   C35 2411   6.700   4.201   6.246  1.1007  0.1001 -0.0446
   19DOPE   H5X 2412   6.780   4.210   6.322  0.1466  1.1572  0.8800
   19DOPE   H5Y 2413   6.608   4.258   6.272  0.4468 -1.0733  0.2710
   19DOPE   C36 2414   6.760   4.265   6.120  0.0843  0.4514 -0.2345
   19DOPE   H6X 2415   6.840   4.199   6.079  0.4127 -0.3669  1.5849
   19DOPE   H6Y 2416   6.813   4.356   6.156  0.0444  0.2266  0.4106
   19DOPE   C37 2417   6.656   4.306   6.013  0.0613 -0.6484 -0.0770
   19DOPE   H7X 2418   6.616   4.210   5.972 -3.6055  0.4066  0.6323
   19DOPE   H7Y 2419   6.568   4.351   6.063  0.0017 -0.1937 -0.5857
   19DOPE   C38 2420   6.715   4.384   5.895 -0.3428 -0.3481 -0.3276
   19DOPE   H8X 2421   6.775   4.473   5.924  1.4111 -0.1075 -4.1381
   19DOPE   H8Y 2422   6.625   4.429   5.848  0.3739  0.7718 -0.6803
   19DOPE   C39 2423   6.789   4.287   5.808  0.8326  0.2595  0.1427
   19DOPE   H9X 2424   6.879   4.251   5.859  2.0876  0.4777 -1.8157
   19DOPE  C310 2425   6.746   4.237   5.691  0.5251 -0.8199  0.1753
   19DOPE  H10X 2426   6.814   4.159   5.654  0.5694  0.3090 -2.3450
   19DOPE  C311 2427   6.636   4.289   5.600 -0.1940  0.0512 -0.1558
   19DOPE  H11X 2428   6.555   4.217   5.621 -0.5019  0.3570 -0.2839
   19DOPE  H11Y 2429   6.606   4.386   5.646  1.7348  0.5240  0.1908
   19DOPE  C312 2430   6.673   4.296   5.455 -0.2266 -0.3240 -0.2638
   19DOPE  H12X 2431   6.585   4.329   5.396  0.4626 -1.6812 -2.1513
   19DOPE  H12Y 2432   6.701   4.196   5.416 -4.3189 -2.0509  0.6847
   19DOPE  C313 2433   6.798   4.382   5.428  0.8648  0.3178  0.1334
   19DOPE  H13X 2434   6.783   4.489   5.452  1.8853  0.7224 -0.9337
   19DOPE  H13Y 2435   6.869   4.331   5.496  0.3538  2.1349  2.1450
   19DOPE  C314 2436   6.852   4.388   5.284  0.3307  0.5307 -0.2351
   19DOPE  H14X 2437   6.773   4.428   5.216 -0.9290 -1.3608  0.0413
   19DOPE  H14Y 2438   6.877   4.285   5.249  1.2060  1.1736 -1.6273
   19DOPE  C315 2439   6.980   4.472   5.274  0.4316  0.0687  0.2946
   19DOPE  H15X 2440   6.989   4.533   5.366 -4.0393 -2.8575  3.0575
   19DOPE  H15Y 2441   6.976   4.541   5.187 -1.5977  2.2954  2.0121
   19DOPE  C316 2442   7.106   4.381   5.283  0.8104  0.3343  0.1291
   19DOPE  H16X 2443   7.091   4.299   5.357  0.8001 -0.1975 -0.4490
   19DOPE  H16Y 2444   7.187   4.447   5.320 -0.4985  2.2278 -0.2605
   19DOPE  C317 2445   7.142   4.327   5.148 -0.1421 -0.3501  0.2665
   19DOPE  H17X 2446   7.239   4.277   5.169 -0.8974 -2.5822 -1.2195
   19DOPE  H17Y 2447   7.076   4.249   5.105 -0.4171  0.6233 -1.1661
   19DOPE  C318 2448   7.151   4.440   5.041  0.0085  0.8848 -0.5426
   19DOPE  H18X 2449   7.229   4.412   4.966  0.2204 -0.8642  0.2721
   19DOPE  H18Y 2450   7.055   4.448   4.985 -0.6603 -0.5079  0.3477
   19DOPE  H18Z 2451   7.179   4.537   5.086 -0.7078  1.9755 -2.3146
   20DOPE     N 2452   5.684   7.050   7.528  0.0045  0.1661 -0.5716
   20DOPE   HN1 2453   5.777   7.093   7.511  1.0746 -2.3885 -1.6936
   20DOPE   HN2 2454   5.642   7.040   7.434 -1.3115 -1.2332  0.1254
   20DOPE   HN3 2455   5.627   7.119   7.582 -1.3888 -1.6310  0.3602
   20DOPE   C12 2456   5.705   6.921   7.601 -0.6254 -0.1528 -1.0984
   20DOPE  H12A 2457   5.607   6.886   7.638 -0.2188  0.6011  0.7963
   20DOPE  H12B 2458   5.781   6.935   7.681 -0.9248 -0.1955 -0.8047
   20DOPE   C11 2459   5.759   6.815   7.509 -0.1219  1.0106  0.5340
   20DOPE  H11A 2460   5.687   6.794   7.427  0.3861  1.7954 -0.1369
   20DOPE  H11B 2461   5.774   6.723   7.570  1.1425  0.7771 -0.0783
   20DOPE     P 2462   5.964   6.762   7.357 -0.5853  0.3192  0.5159
   20DOPE   O13 2463   5.888   6.643   7.306  0.2141 -0.3604 -0.6214
   20DOPE   O14 2464   6.086   6.727   7.427 -0.4852  0.6698  0.3773
   20DOPE   O11 2465   6.002   6.847   7.236 -0.3070 -0.7744  0.0963
   20DOPE   O12 2466   5.882   6.859   7.454 -0.3310  0.1999  0.2755
   20DOPE    C1 2467   5.901   6.923   7.167 -0.3626 -0.5829  0.9123
   20DOPE    HA 2468   5.863   7.005   7.233  1.4788 -0.0830  1.4208
   20DOPE    HB 2469   5.813   6.862   7.136  0.1133  1.3295 -5.7629
   20DOPE    C2 2470   5.957   6.977   7.034 -0.5831 -0.4229  0.5537
   20DOPE    HS 2471   5.893   7.054   6.988  1.1689 -0.1450 -1.5786
   20DOPE   O21 2472   5.984   6.872   6.943 -0.1162 -0.6336  0.9419
   20DOPE   C21 2473   5.881   6.836   6.867 -0.1178  0.7666  0.5683
   20DOPE   O22 2474   5.767   6.890   6.868 -0.5266  0.3288 -0.3447
   20DOPE   C22 2475   5.917   6.709   6.794  0.0884 -0.2699 -0.5769
   20DOPE   H2R 2476   5.837   6.639   6.830 -0.0749  0.7138  1.0954
   20DOPE   H2S 2477   6.021   6.684   6.823 -0.3143 -1.5369 -0.1551
   20DOPE    C3 2478   6.086   7.055   7.051 -0.1331 -0.1960  0.0832
   20DOPE    HX 2479   6.171   6.985   7.065 -0.9978 -1.6380 -1.4957
   20DOPE    HY 2480   6.082   7.115   7.145 -4.4448 -0.6731  0.3746
   20DOPE   O31 2481   6.111   7.139   6.932 -0.1657 -0.1234  0.7217
   20DOPE   C31 2482   6.182   7.097   6.833 -1.6476 -0.2005  0.8708
   20DOPE   O32 2483   6.235   6.987   6.822 -0.1219  0.0732  0.4653
   20DOPE   C32 2484   6.194   7.211   6.727  0.2364  0.2349  0.3719
   20DOPE   H2X 2485   6.090   7.230   6.693  0.1922 -0.4004  0.1364
   20DOPE   H2Y 2486   6.230   7.303   6.779 -1.1313  0.3853  1.1022
   20DOPE   C23 2487   5.921   6.728   6.640 -0.0765  0.5225  0.6652
   20DOPE   H3R 2488   5.987   6.814   6.615 -0.1810  0.2460 -0.6142
   20DOPE   H3S 2489   5.829   6.756   6.585  0.4740  0.4614 -0.3005
   20DOPE   C24 2490   5.970   6.594   6.575 -0.2723  0.6883 -0.4334
   20DOPE   H4R 2491   5.901   6.513   6.608  0.2986  0.9233  1.4104
   20DOPE   H4S 2492   6.071   6.568   6.615 -0.0895  1.4803 -0.3691
   20DOPE   C25 2493   5.989   6.596   6.427  0.0299 -0.3739 -0.4287
   20DOPE   H5R 2494   5.899   6.648   6.389  0.4735  2.1329  1.6124
   20DOPE   H5S 2495   6.001   6.496   6.381 -1.9138 -0.4083 -0.9376
   20DOPE   C26 2496   6.121   6.669   6.382  0.6056  0.2561  0.1679
   20DOPE   H6R 2497   6.205   6.597   6.390  0.1506 -0.2139  0.8976
   20DOPE   H6S 2498   6.142   6.756   6.448 -1.2303  0.6643  0.2720
   20DOPE   C27 2499   6.118   6.719   6.235  0.2129 -0.3047 -0.5412
   20DOPE   H7R 2500   6.023   6.765   6.200 -2.4390 -3.4987  1.8355
   20DOPE   H7S 2501   6.112   6.623   6.181  2.3198  0.3460 -2.0771
   20DOPE   C28 2502   6.244   6.792   6.194 -0.2643 -0.6618 -0.4938
   20DOPE   H8R 2503   6.333   6.761   6.253 -1.5187 -2.9404  0.3255
   20DOPE   H8S 2504   6.225   6.895   6.232 -0.4346 -0.3961 -1.2949
   20DOPE   C29 2505   6.272   6.796   6.045 -0.0420 -0.3880 -0.5987
   20DOPE   H9R 2506   6.323   6.703   6.013  2.9821  0.5446  1.1764
   20DOPE  C210 2507   6.215   6.873   5.949 -0.4237 -0.4634  0.3977
   20DOPE  H10R 2508   6.246   6.852   5.846 -0.4425  0.7382  0.1365
   20DOPE  C211 2509   6.143   7.002   5.976 -0.2082  0.4113  0.3579
   20DOPE  H11R 2510   6.188   7.086   5.919 -1.1511  1.6514  1.3796
   20DOPE  H11S 2511   6.147   7.028   6.084  0.8148  1.1165  0.1555
   20DOPE  C212 2512   5.993   6.999   5.934  0.5206  0.5368 -0.3562
   20DOPE  H12R 2513   5.950   7.093   5.974  2.4551  1.7638 -1.0004
   20DOPE  H12S 2514   5.944   6.918   5.992  2.5760 -0.0622  0.6371
   20DOPE  C213 2515   5.965   6.981   5.782  0.4021 -0.3332  1.1682
   20DOPE  H13R 2516   6.010   6.888   5.741 -3.5715 -1.9620  0.0450
   20DOPE  H13S 2517   6.026   7.063   5.738 -2.1154  2.2405  2.2046
   20DOPE  C214 2518   5.822   7.008   5.740  0.4023 -0.2553 -0.1590
   20DOPE  H14R 2519   5.797   7.109   5.780 -1.2378 -0.9870  0.8134
   20DOPE  H14S 2520   5.754   6.933   5.787 -0.1100  0.5271  0.3879
   20DOPE  C215 2521   5.793   6.994   5.586 -0.7557 -0.4609 -0.5128
   20DOPE  H15R 2522   5.855   6.908   5.553  0.3417  1.1289 -2.8983
   20DOPE  H15S 2523   5.835   7.084   5.536 -3.1335  0.7934 -0.4000
   20DOPE  C216 2524   5.640   6.998   5.544 -0.0499  0.3780  0.0311
   20DOPE  H16R 2525   5.608   6.902   5.588  2.6495 -0.9585 -0.6710
   20DOPE  H16S 2526   5.650   6.990   5.433 -0.8755 -0.4357  0.0054
   20DOPE  C217 2527   5.567   7.124   5.579  0.1804  0.3303 -0.0156
   20DOPE  H17R 2528   5.569   7.132   5.690  0.3161 -2.7229  0.2957
   20DOPE  H17S 2529   5.463   7.103   5.546  0.4160  0.1307 -0.6491
   20DOPE  C218 2530   5.621   7.248   5.518 -0.0875 -0.6030  0.4586
   20DOPE  H18R 2531   5.645   7.234   5.410  1.6036 -1.7838  0.9404
   20DOPE  H18S 2532   5.720   7.271   5.563 -0.5179 -0.8376  1.5368
   20DOPE  H18T 2533   5.558   7.337   5.539 -0.9532 -1.2180  0.5191
   20DOPE   C33 2534   6.275   7.187   6.590  0.2511 -0.4555 -0.0300
   20DOPE   H3X 2535   6.249   7.264   6.514  0.9309  1.2063  1.3541
   20DOPE   H3Y 2536   6.240   7.092   6.545 -0.4697  0.7862 -2.2516
   20DOPE   C34 2537   6.425   7.173   6.619 -0.2514 -0.9347  0.3337
   20DOPE   H4X 2538   6.450   7.270   6.666  0.9388 -1.7411  1.4328
   20DOPE   H4Y 2539   6.441   7.084   6.684 -1.7343 -0.5578  1.2749
   20DOPE   C35 2540   6.508   7.163   6.487  0.0580  0.0124  0.2023
   20DOPE   H5X 2541   6.615   7.143   6.511 -0.1763  0.2506  1.5290
   20DOPE   H5Y 2542   6.504   7.262   6.436  1.7045 -1.3319 -2.8486
   20DOPE   C36 2543   6.459   7.055   6.387 -0.7560  0.4175  0.5092
   20DOPE   H6X 2544   6.352   7.073   6.363 -0.6089 -0.5707 -1.0641
   20DOPE   H6Y 2545   6.464   6.957   6.439  2.8171 -0.6784 -1.5633
   20DOPE   C37 2546   6.537   7.055   6.257 -0.3672  0.6161 -0.6490
   20DOPE   H7X 2547   6.471   6.999   6.187 -0.1586 -1.5785  0.8135
   20DOPE   H7Y 2548   6.549   7.161   6.227  0.6219  0.3550 -1.1982
   20DOPE   C38 2549   6.668   6.970   6.255  0.7296 -0.1443 -0.4892
   20DOPE   H8X 2550   6.695   6.946   6.150  2.2104  0.3008 -0.2385
   20DOPE   H8Y 2551   6.628   6.876   6.299  0.0358  0.8150  1.0034
   20DOPE   C39 2552   6.790   7.012   6.336  0.0226 -0.2344  0.2784
   20DOPE   H9X 2553   6.783   7.114   6.376 -0.4015 -0.1662  0.0360
   20DOPE  C310 2554   6.903   6.942   6.344  0.1456 -0.1836  0.1808
   20DOPE  H10X 2555   6.990   6.984   6.398 -1.2428  1.6405  1.0896
   20DOPE  C311 2556   6.930   6.814   6.271  0.2711 -0.1885 -0.6351
   20DOPE  H11X 2557   6.917   6.729   6.341  0.5469  0.2414 -0.0573
   20DOPE  H11Y 2558   6.849   6.791   6.198 -1.7517 -0.7326  1.6717
   20DOPE  C312 2559   7.070   6.799   6.200  0.3344 -0.4919 -0.3643
   20DOPE  H12X 2560   7.090   6.691   6.189 -1.4704 -1.0530  1.2420
   20DOPE  H12Y 2561   7.148   6.841   6.268  0.6328 -1.1801 -0.2757
   20DOPE  C313 2562   7.076   6.867   6.064  0.6443 -1.3772  0.7105
   20DOPE  H13X 2563   7.063   6.977   6.076 -0.9842 -1.4174 -0.4122
   20DOPE  H13Y 2564   7.169   6.841   6.010  0.0345 -1.1492 -0.4771
   20DOPE  C314 2565   6.961   6.845   5.956 -0.7610  0.3374  0.8706
   20DOPE  H14X 2566   6.867   6.903   5.971 -1.7033 -0.8952 -0.0267
   20DOPE  H14Y 2567   6.931   6.738   5.970  0.3281 -0.1439 -0.2424
   20DOPE  C315 2568   6.995   6.865   5.806  0.2030 -0.4435  0.3839
   20DOPE  H15X 2569   7.049   6.783   5.756 -0.5318 -0.3021 -0.6942
   20DOPE  H15Y 2570   7.075   6.942   5.812 -0.4406  0.1874  1.2994
   20DOPE  C316 2571   6.869   6.917   5.721 -0.6687  0.6339 -0.4343
   20DOPE  H16X 2572   6.836   7.009   5.774 -1.5230  0.4553 -0.6326
   20DOPE  H16Y 2573   6.782   6.848   5.727  0.5643 -0.9172  0.6690
   20DOPE  C317 2574   6.899   6.931   5.570 -0.1275  0.1382  0.1407
   20DOPE  H17X 2575   6.971   7.013   5.551 -0.0703 -0.1007 -0.6959
   20DOPE  H17Y 2576   6.953   6.842   5.533 -0.5148 -0.2536  0.4965
   20DOPE  C318 2577   6.779   6.987   5.489 -0.5612 -0.2701 -0.2642
   20DOPE  H18X 2578   6.762   7.094   5.515  3.1146  0.3892 -0.0040
   20DOPE  H18Y 2579   6.801   6.972   5.381 -1.9588 -0.9517 -0.4739
   20DOPE  H18Z 2580   6.694   6.916   5.502  0.9827 -1.7642  2.8062
   21DOPE     N 2581   2.044   0.493   7.258  0.4461 -0.6286 -0.6812
   21DOPE   HN1 2582   1.997   0.555   7.190 -0.9771  0.5677  1.2706
   21DOPE   HN2 2583   2.054   0.396   7.224 -0.2137 -0.5575 -1.1038
   21DOPE   HN3 2584   1.988   0.493   7.346  2.0937  0.9486  0.4621
   21DOPE   C12 2585   2.165   0.574   7.298 -0.1129 -0.4045  0.0511
   21DOPE  H12A 2586   2.229   0.517   7.368 -1.8455 -1.9946  0.4242
   21DOPE  H12B 2587   2.126   0.667   7.344  1.0707 -0.4161  1.1372
   21DOPE   C11 2588   2.250   0.608   7.169 -0.6839 -0.3574 -0.9182
   21DOPE  H11A 2589   2.183   0.663   7.100 -0.3997  3.3745  1.5028
   21DOPE  H11B 2590   2.282   0.511   7.125  0.5949 -0.3697 -0.0024
   21DOPE     P 2591   2.503   0.640   7.242 -0.5915  0.0931 -0.2507
   21DOPE   O13 2592   2.480   0.514   7.319  0.1644 -0.6385 -0.8655
   21DOPE   O14 2593   2.573   0.755   7.301 -0.0509 -0.5125 -0.0768
   21DOPE   O11 2594   2.569   0.607   7.103 -0.1102  0.6481 -0.5729
   21DOPE   O12 2595   2.361   0.696   7.200 -0.0793 -0.3284 -0.3932
   21DOPE    C1 2596   2.560   0.697   6.992  0.2392  0.2622  0.2180
   21DOPE    HA 2597   2.622   0.787   7.014  0.4572  0.0380  0.5291
   21DOPE    HB 2598   2.459   0.744   6.990  1.1378  2.2649 -0.1022
   21DOPE    C2 2599   2.593   0.630   6.857 -0.1376 -0.4978  0.7856
   21DOPE    HS 2600   2.576   0.697   6.770  1.5658  0.1865  0.9423
   21DOPE   O21 2601   2.527   0.504   6.845  0.2531  0.0034 -0.6805
   21DOPE   C21 2602   2.390   0.521   6.836  0.4526  0.5358  0.1466
   21DOPE   O22 2603   2.339   0.632   6.813 -0.1961  0.0827 -0.2550
   21DOPE   C22 2604   2.319   0.389   6.850 -0.1370  0.2379  0.0754
   21DOPE   H2R 2605   2.310   0.371   6.959 -2.2186 -0.0480 -0.0933
   21DOPE   H2S 2606   2.383   0.308   6.809  1.4581  1.1563  0.6867
   21DOPE    C3 2607   2.750   0.612   6.858 -0.4429 -0.2519 -0.6386
   21DOPE    HX 2608   2.789   0.561   6.950 -1.5762  2.0640  1.2192
   21DOPE    HY 2609   2.792   0.712   6.883 -0.8408  0.2732 -1.9779
   21DOPE   O31 2610   2.802   0.560   6.733 -0.2204 -0.6575 -0.4476
   21DOPE   C31 2611   2.805   0.424   6.740  0.6463  0.1519  0.3309
   21DOPE   O32 2612   2.757   0.360   6.829  0.8588 -0.3281  0.2823
   21DOPE   C32 2613   2.884   0.364   6.625 -0.2592 -0.1892 -0.3466
   21DOPE   H2X 2614   2.961   0.439   6.597  0.3440 -0.7844 -0.3017
   21DOPE   H2Y 2615   2.940   0.282   6.674 -1.0755  0.2061  1.3291
   21DOPE   C23 2616   2.180   0.382   6.772  0.3750  0.8444 -0.3321
   21DOPE   H3R 2617   2.113   0.447   6.833  0.1849 -2.3706  3.2278
   21DOPE   H3S 2618   2.150   0.275   6.780 -1.1025  1.1383 -1.4487
   21DOPE   C24 2619   2.175   0.439   6.627 -0.0787 -0.6339 -0.5157
   21DOPE   H4R 2620   2.254   0.391   6.565 -0.0975  0.6498 -1.5706
   21DOPE   H4S 2621   2.189   0.548   6.615  1.1037 -0.6014  0.8994
   21DOPE   C25 2622   2.041   0.414   6.555  0.0985 -0.5116 -1.3636
   21DOPE   H5R 2623   1.961   0.480   6.594  0.4231 -0.7318 -0.2868
   21DOPE   H5S 2624   2.024   0.309   6.587  3.4741 -0.6767  0.3268
   21DOPE   C26 2625   2.053   0.406   6.407 -0.1574 -0.6077 -0.0781
   21DOPE   H6R 2626   2.069   0.299   6.380  3.4162 -0.1362 -0.4217
   21DOPE   H6S 2627   2.147   0.461   6.382  0.4432 -0.2532  2.6872
   21DOPE   C27 2628   1.929   0.462   6.340 -0.4593 -0.1335  0.9336
   21DOPE   H7R 2629   1.915   0.560   6.391  1.0761  1.4783 -1.4887
   21DOPE   H7S 2630   1.836   0.405   6.358 -0.1357 -0.8721  0.3383
   21DOPE   C28 2631   1.952   0.493   6.191 -0.7281 -0.2905  0.2216
   21DOPE   H8R 2632   2.051   0.542   6.181  0.2242 -2.1533  0.0194
   21DOPE   H8S 2633   1.879   0.566   6.149 -1.0363 -0.2930  0.7506
   21DOPE   C29 2634   1.953   0.375   6.104 -0.1427  0.3633 -0.0459
   21DOPE   H9R 2635   1.940   0.281   6.158  2.1156  0.1939  0.2958
   21DOPE  C210 2636   1.944   0.370   5.973  0.6537  0.2612 -0.1752
   21DOPE  H10R 2637   1.952   0.273   5.921  0.2525 -1.6687  3.0370
   21DOPE  C211 2638   1.944   0.488   5.885 -0.3174 -0.1423  0.4695
   21DOPE  H11R 2639   1.989   0.576   5.936  1.8581  0.6668 -2.5449
   21DOPE  H11S 2640   1.844   0.525   5.856  0.0349  0.0906 -0.4717
   21DOPE  C212 2641   2.021   0.471   5.754  1.2687  0.0611  0.2187
   21DOPE  H12R 2642   2.111   0.408   5.771  0.6692 -0.4378  1.6881
   21DOPE  H12S 2643   2.064   0.566   5.717 -2.0760  2.2535  1.5050
   21DOPE  C213 2644   1.932   0.429   5.632 -0.0699 -0.0318 -0.3331
   21DOPE  H13R 2645   1.866   0.516   5.613 -1.0750 -0.7661 -0.2783
   21DOPE  H13S 2646   1.853   0.353   5.645 -0.7432  0.8879  1.1457
   21DOPE  C214 2647   2.021   0.397   5.509 -0.0546  0.5709 -0.7046
   21DOPE  H14R 2648   2.119   0.450   5.507  0.7165 -0.8543 -1.5591
   21DOPE  H14S 2649   1.974   0.431   5.414  3.5440  3.7481 -1.6115
   21DOPE  C215 2650   2.054   0.244   5.506  0.0347  0.2774 -0.2128
   21DOPE  H15R 2651   1.959   0.194   5.476  0.7930 -1.3352 -0.0106
   21DOPE  H15S 2652   2.095   0.212   5.604  0.5142 -0.6457 -0.6993
   21DOPE  C216 2653   2.156   0.192   5.403 -0.0802 -0.1647  0.3803
   21DOPE  H16R 2654   2.261   0.202   5.440  0.4882 -0.2358 -1.1636
   21DOPE  H16S 2655   2.143   0.240   5.304  1.1240 -0.9393 -0.1807
   21DOPE  C217 2656   2.134   0.038   5.381  0.1143  0.2823 -0.7527
   21DOPE  H17R 2657   2.032   0.016   5.345  0.6130 -1.0099 -1.4241
   21DOPE  H17S 2658   2.152  -0.013   5.478 -2.0129 -0.2009 -0.5653
   21DOPE  C218 2659   2.225  -0.009   5.271 -0.0702  0.9066 -0.4637
   21DOPE  H18R 2660   2.188  -0.107   5.236  1.3928 -0.5085  1.6644
   21DOPE  H18S 2661   2.328  -0.024   5.311 -0.4817 -1.6949 -0.1902
   21DOPE  H18T 2662   2.232   0.061   5.185 -1.9604  1.0020 -0.5859
   21DOPE   C33 2663   2.791   0.317   6.512  0.0445 -0.3069  0.3496
   21DOPE   H3X 2664   2.756   0.403   6.451 -0.7381 -1.0926 -0.3273
   21DOPE   H3Y 2665   2.699   0.262   6.542 -0.1714  0.7658  1.7737
   21DOPE   C34 2666   2.865   0.230   6.422 -0.7877  0.2189  0.0673
   21DOPE   H4X 2667   2.967   0.266   6.395  0.1458 -1.0371  1.6743
   21DOPE   H4Y 2668   2.882   0.135   6.478  0.9019  0.1847 -0.4379
   21DOPE   C35 2669   2.789   0.199   6.295 -0.1191  0.0425 -0.3653
   21DOPE   H5X 2670   2.757   0.297   6.253  1.2008 -0.2627 -2.2169
   21DOPE   H5Y 2671   2.698   0.143   6.322 -0.7522  1.3284  0.2434
   21DOPE   C36 2672   2.882   0.141   6.192 -0.1337 -0.0838  0.4874
   21DOPE   H6X 2673   2.929   0.047   6.229  0.1388 -0.3271 -0.4524
   21DOPE   H6Y 2674   2.970   0.204   6.167  1.0508 -1.9431 -0.2170
   21DOPE   C37 2675   2.803   0.115   6.064 -0.2603 -0.0587  0.3995
   21DOPE   H7X 2676   2.723   0.044   6.093  0.9319 -1.1173  1.2122
   21DOPE   H7Y 2677   2.766   0.213   6.026 -2.1374  1.2046  4.8308
   21DOPE   C38 2678   2.889   0.028   5.975  0.2464 -0.1461 -0.5881
   21DOPE   H8X 2679   2.918  -0.064   6.030  0.4443  1.8940  2.9957
   21DOPE   H8Y 2680   2.985   0.082   5.984  0.4860 -0.8463  1.5868
   21DOPE   C39 2681   2.828   0.003   5.838 -0.0950  0.0854  0.0207
   21DOPE   H9X 2682   2.731  -0.047   5.849 -0.0197  0.3008  2.1298
   21DOPE  C310 2683   2.882   0.040   5.722 -0.2111 -0.5952 -0.2552
   21DOPE  H10X 2684   2.819   0.030   5.632  0.2563  1.1646 -0.8231
   21DOPE  C311 2685   2.998   0.134   5.708  0.1831 -0.1675  0.5997
   21DOPE  H11X 2686   2.978   0.218   5.638  3.5463  1.0001  0.8410
   21DOPE  H11Y 2687   3.040   0.180   5.801  1.9001  0.5667 -0.4859
   21DOPE  C312 2688   3.118   0.057   5.654 -0.0784  0.0147 -0.1278
   21DOPE  H12X 2689   3.137  -0.034   5.716 -1.8889 -0.8213 -0.7321
   21DOPE  H12Y 2690   3.206   0.125   5.646 -0.5582  0.4810 -1.7031
   21DOPE  C313 2691   3.105   0.004   5.506  0.0542 -0.7988 -0.2969
   21DOPE  H13X 2692   3.025  -0.074   5.507 -1.0757  0.3169  1.6366
   21DOPE  H13Y 2693   3.075   0.092   5.446  0.2992 -0.2566  0.3688
   21DOPE  C314 2694   3.230  -0.049   5.439 -0.1514  0.0802 -0.1444
   21DOPE  H14X 2695   3.269  -0.121   5.515 -1.7862  0.0914  0.7447
   21DOPE  H14Y 2696   3.300   0.038   5.434 -0.5492  0.4139  0.0362
   21DOPE  C315 2697   3.216  -0.111   5.301 -0.1516  0.5051  0.5263
   21DOPE  H15X 2698   3.138  -0.191   5.299  0.7090 -0.3509  0.4298
   21DOPE  H15Y 2699   3.317  -0.154   5.283  0.1191  1.2160  0.3214
   21DOPE  C316 2700   3.203  -0.011   5.189  0.0023 -0.2925 -0.0198
   21DOPE  H16X 2701   3.296   0.049   5.200  0.7465 -1.5564  0.9703
   21DOPE  H16Y 2702   3.109   0.045   5.204  1.4169  2.1798  0.1940
   21DOPE  C317 2703   3.207  -0.073   5.047  0.8590  0.4409 -0.3220
   21DOPE  H17X 2704   3.245   0.009   4.983 -0.4337  1.6919  0.4400
   21DOPE  H17Y 2705   3.271  -0.162   5.028  0.0129 -0.1026 -0.7076
   21DOPE  C318 2706   3.066  -0.104   4.990  0.0960  0.2606  0.8853
   21DOPE  H18X 2707   3.023  -0.195   5.037  0.4111 -0.1650  0.3536
   21DOPE  H18Y 2708   2.994  -0.021   5.003  0.1947  0.3699  0.7292
   21DOPE  H18Z 2709   3.065  -0.125   4.881 -1.4261  1.6231  0.6120
   22DOPE     N 2710   7.423   5.470   7.022 -0.6029  0.3427  0.2951
   22DOPE   HN1 2711   7.476   5.438   7.106 -2.2690 -0.6147  1.0260
   22DOPE   HN2 2712   7.440   5.572   7.016 -0.4466  0.3279  0.4424
   22DOPE   HN3 2713   7.323   5.445   7.035 -1.3018  1.7726 -1.9123
   22DOPE   C12 2714   7.481   5.400   6.903  0.5361  0.2688 -0.0313
   22DOPE  H12A 2715   7.587   5.431   6.895  0.9807 -0.5575  2.0233
   22DOPE  H12B 2716   7.421   5.442   6.819 -0.8022 -0.4988  0.5031
   22DOPE   C11 2717   7.463   5.247   6.924  0.3008 -0.1810  0.6182
   22DOPE  H11A 2718   7.495   5.187   6.835  0.6159  1.0886 -0.1559
   22DOPE  H11B 2719   7.355   5.226   6.938  0.3929 -0.4412  0.9437
   22DOPE     P 2720   7.663   5.106   7.031  0.5529 -0.1001  0.0207
   22DOPE   O13 2721   7.685   5.037   7.160  0.5146 -0.7815 -0.2054
   22DOPE   O14 2722   7.769   5.194   6.983 -0.6286  0.1217 -0.3936
   22DOPE   O11 2723   7.623   4.998   6.924 -0.1940 -0.5444  0.0373
   22DOPE   O12 2724   7.527   5.197   7.044 -0.3466  0.4674  0.4669
   22DOPE    C1 2725   7.714   4.946   6.825 -0.1513  0.2580  0.2179
   22DOPE    HA 2726   7.686   4.842   6.798  1.8209  0.0299 -1.1765
   22DOPE    HB 2727   7.818   4.934   6.862  0.1704  1.0377 -0.3983
   22DOPE    C2 2728   7.710   5.024   6.690  0.2912  0.3042  0.2898
   22DOPE    HS 2729   7.743   5.130   6.704  1.2607  0.1397 -0.5551
   22DOPE   O21 2730   7.574   5.021   6.650  0.4686 -0.4616  0.3122
   22DOPE   C21 2731   7.544   5.103   6.543  0.3282  0.3940 -0.1564
   22DOPE   O22 2732   7.615   5.199   6.519  0.3369  0.1076 -0.1638
   22DOPE   C22 2733   7.408   5.059   6.480 -0.2994  0.1564  0.1650
   22DOPE   H2R 2734   7.344   5.140   6.523 -1.7312 -1.7052  1.7068
   22DOPE   H2S 2735   7.379   4.962   6.526 -1.6523  0.9678  1.1091
   22DOPE    C3 2736   7.794   4.952   6.586 -0.3594 -0.2398  0.6354
   22DOPE    HX 2737   7.748   4.851   6.580  1.3356 -1.1019  1.3999
   22DOPE    HY 2738   7.893   4.942   6.637  0.4037  1.2913 -0.4439
   22DOPE   O31 2739   7.805   5.011   6.453  0.4346  0.1768  0.1747
   22DOPE   C31 2740   7.879   5.120   6.455 -0.9202 -0.0121 -0.3283
   22DOPE   O32 2741   7.936   5.161   6.552  0.4770 -0.1319 -0.4594
   22DOPE   C32 2742   7.896   5.182   6.313 -0.5361 -0.0978  0.3691
   22DOPE   H2X 2743   7.948   5.110   6.246 -1.2240 -0.3823  0.1232
   22DOPE   H2Y 2744   7.792   5.195   6.276 -0.6252 -0.2341  0.5685
   22DOPE   C23 2745   7.427   5.051   6.328 -0.7346 -0.2487 -0.2953
   22DOPE   H3R 2746   7.467   5.138   6.273  1.2858 -1.5039 -0.8944
   22DOPE   H3S 2747   7.322   5.033   6.295 -1.2082  3.3605 -1.1921
   22DOPE   C24 2748   7.495   4.909   6.292  0.2624  0.1195 -0.2089
   22DOPE   H4R 2749   7.453   4.838   6.367  1.4837 -0.1449  0.2544
   22DOPE   H4S 2750   7.603   4.906   6.320  0.2291 -0.5738 -0.1383
   22DOPE   C25 2751   7.459   4.862   6.150 -0.5094 -0.1781 -0.3784
   22DOPE   H5R 2752   7.354   4.894   6.132  0.7084  3.2010 -2.3130
   22DOPE   H5S 2753   7.473   4.752   6.153 -0.6071 -0.3720 -3.8371
   22DOPE   C26 2754   7.550   4.916   6.041 -0.0938 -0.7232  0.5603
   22DOPE   H6R 2755   7.658   4.901   6.065 -0.1770 -2.6129 -0.1077
   22DOPE   H6S 2756   7.535   5.025   6.023 -0.6669 -1.0769 -1.2191
   22DOPE   C27 2757   7.532   4.846   5.897 -0.4122 -0.1515 -0.4875
   22DOPE   H7R 2758   7.423   4.859   5.876 -1.1992 -0.3492  2.8313
   22DOPE   H7S 2759   7.546   4.736   5.899 -0.1085 -0.1810 -2.3117
   22DOPE   C28 2760   7.615   4.918   5.786  0.0803 -0.2347  0.1506
   22DOPE   H8R 2761   7.589   5.025   5.801  0.9663  0.0559 -0.3013
   22DOPE   H8S 2762   7.567   4.893   5.689 -1.8443  0.8524  0.7851
   22DOPE   C29 2763   7.770   4.900   5.795  0.5697  0.1336  0.0865
   22DOPE   H9R 2764   7.819   4.918   5.892  1.0579  0.1470 -0.1595
   22DOPE  C210 2765   7.847   4.857   5.693 -0.5928  0.5093 -0.8649
   22DOPE  H10R 2766   7.955   4.846   5.707 -0.5594  1.9832  0.2434
   22DOPE  C211 2767   7.796   4.834   5.558  0.6129 -0.1554  0.5958
   22DOPE  H11R 2768   7.703   4.883   5.524 -0.3787 -1.1757  1.7680
   22DOPE  H11S 2769   7.793   4.730   5.521 -2.3145  0.4756 -1.1816
   22DOPE  C212 2770   7.907   4.893   5.468  0.6095 -0.2131 -0.2867
   22DOPE  H12R 2771   7.997   4.828   5.461  0.0961 -1.0490  0.6050
   22DOPE  H12S 2772   7.955   4.984   5.510 -0.0959  0.0881 -0.1189
   22DOPE  C213 2773   7.853   4.928   5.326 -0.1649 -0.1020 -0.4185
   22DOPE  H13R 2774   7.758   4.985   5.331 -0.4218 -0.4294 -1.3355
   22DOPE  H13S 2775   7.825   4.832   5.276 -2.3567 -0.6074  1.6217
   22DOPE  C214 2776   7.938   5.004   5.227 -0.3231  0.0072 -0.1588
   22DOPE  H14R 2777   7.933   5.111   5.255 -0.6999  0.1100 -0.6026
   22DOPE  H14S 2778   7.888   4.984   5.129  0.0924 -1.0626 -0.1716
   22DOPE  C215 2779   8.086   4.960   5.235  0.3738 -0.6965 -0.8210
   22DOPE  H15R 2780   8.085   4.851   5.256 -0.7442 -0.7321 -0.9602
   22DOPE  H15S 2781   8.143   5.012   5.315  1.1868  0.6644 -2.2209
   22DOPE  C216 2782   8.149   4.972   5.098 -0.9795  0.4947  0.8136
   22DOPE  H16R 2783   8.106   4.886   5.043  0.7554 -0.9538  1.6004
   22DOPE  H16S 2784   8.254   4.936   5.104 -0.8313  0.3216 -1.7290
   22DOPE  C217 2785   8.160   5.102   5.017  0.1761 -0.0691  0.4261
   22DOPE  H17R 2786   8.203   5.181   5.083 -3.2127  0.5844  2.0799
   22DOPE  H17S 2787   8.054   5.125   4.991  0.2060 -1.0654 -0.6217
   22DOPE  C218 2788   8.239   5.090   4.890  0.3798  0.0596  0.1593
   22DOPE  H18R 2789   8.200   5.009   4.824  3.4525 -3.0711  1.8058
   22DOPE  H18S 2790   8.342   5.055   4.912  0.6119  0.9465  0.5230
   22DOPE  H18T 2791   8.238   5.187   4.836 -1.7658  0.0418  0.1029
   22DOPE   C33 2792   7.981   5.312   6.314  0.2270 -0.7046 -0.1610
   22DOPE   H3X 2793   8.079   5.306   6.366  0.6718 -1.0074 -1.0211
   22DOPE   H3Y 2794   7.908   5.380   6.362 -0.9920  0.0748 -2.9220
   22DOPE   C34 2795   7.999   5.359   6.169 -0.1765 -0.5015  0.7604
   22DOPE   H4X 2796   8.026   5.467   6.167 -1.5020 -0.1404  1.3018
   22DOPE   H4Y 2797   8.086   5.303   6.128  0.1064 -0.4231  1.2400
   22DOPE   C35 2798   7.882   5.333   6.071  0.3609  0.3051 -0.0166
   22DOPE   H5X 2799   7.800   5.397   6.110 -0.3040 -0.2709 -0.4509
   22DOPE   H5Y 2800   7.848   5.228   6.067 -0.5761  0.6197 -0.5616
   22DOPE   C36 2801   7.918   5.368   5.920 -0.1806  0.7415 -0.7568
   22DOPE   H6X 2802   7.989   5.296   5.873 -0.9480 -0.0226 -0.7684
   22DOPE   H6Y 2803   7.975   5.464   5.910  0.3803  0.5786  0.6210
   22DOPE   C37 2804   7.793   5.374   5.828  0.2152  0.1200 -0.0252
   22DOPE   H7X 2805   7.743   5.276   5.842  0.2337  0.1319  0.1218
   22DOPE   H7Y 2806   7.725   5.448   5.875  1.1591  2.3698 -1.9226
   22DOPE   C38 2807   7.834   5.418   5.683  0.3061  0.5157 -0.1950
   22DOPE   H8X 2808   7.874   5.521   5.676 -1.2145  1.1028 -0.5790
   22DOPE   H8Y 2809   7.734   5.418   5.635 -0.4951  0.1341  1.3871
   22DOPE   C39 2810   7.919   5.320   5.601  0.5259  0.4588 -0.2220
   22DOPE   H9X 2811   7.920   5.216   5.635 -1.8468 -0.0048 -1.3764
   22DOPE  C310 2812   8.002   5.365   5.503 -0.6580  0.4435 -0.0793
   22DOPE  H10X 2813   8.060   5.290   5.448 -1.1955 -0.2745  0.3256
   22DOPE  C311 2814   8.035   5.500   5.456  0.0943 -0.2006 -0.0910
   22DOPE  H11X 2815   7.991   5.577   5.523 -0.7043  0.2876 -1.1316
   22DOPE  H11Y 2816   8.144   5.514   5.473  0.0297 -0.1421  0.2696
   22DOPE  C312 2817   7.999   5.525   5.310 -0.9905 -0.3991 -0.0370
   22DOPE  H12X 2818   7.970   5.630   5.288  0.7740  0.1879  0.2564
   22DOPE  H12Y 2819   7.903   5.471   5.294 -1.6383  0.0426  1.9821
   22DOPE  C313 2820   8.105   5.481   5.212  0.2673  0.1189 -0.6598
   22DOPE  H13X 2821   8.196   5.534   5.246  1.6683 -2.5222  0.0024
   22DOPE  H13Y 2822   8.123   5.372   5.218 -1.8001 -0.2192  0.0265
   22DOPE  C314 2823   8.088   5.522   5.070 -0.8059  0.5466 -0.1238
   22DOPE  H14X 2824   7.980   5.516   5.042 -1.0374 -1.1763  0.9452
   22DOPE  H14Y 2825   8.123   5.434   5.012 -0.6179  0.3763  0.2442
   22DOPE  C315 2826   8.148   5.656   5.031 -0.4815  0.4289  0.0921
   22DOPE  H15X 2827   8.258   5.647   5.046 -0.4718 -1.2288 -0.7487
   22DOPE  H15Y 2828   8.099   5.746   5.073 -1.1147  0.6911 -1.1310
   22DOPE  C316 2829   8.127   5.681   4.880  0.0547 -0.6161  0.1259
   22DOPE  H16X 2830   8.025   5.645   4.855 -0.2289 -1.2046  2.0224
   22DOPE  H16Y 2831   8.204   5.625   4.823  3.0416  1.7817  1.4769
   22DOPE  C317 2832   8.152   5.830   4.836 -0.4465 -0.2858 -0.4564
   22DOPE  H17X 2833   8.091   5.896   4.900  1.3121  0.2945  0.6792
   22DOPE  H17Y 2834   8.256   5.850   4.871 -0.6608 -0.0784  0.0598
   22DOPE  C318 2835   8.135   5.846   4.688 -0.3095 -0.3688  0.1226
   22DOPE  H18X 2836   8.156   5.953   4.663 -2.8980  0.6123  1.8494
   22DOPE  H18Y 2837   8.201   5.779   4.628  0.2007 -0.2029  0.4924
   22DOPE  H18Z 2838   8.032   5.816   4.658 -0.5208  1.6891 -1.4202
   23DOPE     N 2839   3.801   6.928   7.433 -0.7383  0.2274 -0.4315
   23DOPE   HN1 2840   3.790   6.878   7.523  0.8248  1.1094  0.2769
   23DOPE   HN2 2841   3.710   6.922   7.382 -1.2432  0.5248  0.4127
   23DOPE   HN3 2842   3.872   6.884   7.372  0.4135 -0.8819  1.6077
   23DOPE   C12 2843   3.827   7.070   7.454  0.3346 -0.5839 -0.2493
   23DOPE  H12A 2844   3.919   7.072   7.515  1.8476 -0.1944 -2.4215
   23DOPE  H12B 2845   3.740   7.116   7.506  0.1206 -0.5199 -0.6554
   23DOPE   C11 2846   3.850   7.151   7.329 -0.2038  0.3451  0.6157
   23DOPE  H11A 2847   3.944   7.102   7.295 -0.0892  1.2633 -0.4612
   23DOPE  H11B 2848   3.869   7.258   7.351  0.5524  0.3847 -0.1700
   23DOPE     P 2849   3.641   7.241   7.208 -0.2950 -0.5053 -0.0926
   23DOPE   O13 2850   3.592   7.276   7.343 -0.2797 -0.4072 -0.1978
   23DOPE   O14 2851   3.541   7.181   7.116  0.1149 -0.1428  0.3249
   23DOPE   O11 2852   3.718   7.361   7.150 -0.6202  0.0451  0.0664
   23DOPE   O12 2853   3.752   7.128   7.225  0.6988  0.0903 -0.6251
   23DOPE    C1 2854   3.837   7.353   7.062  0.1268 -0.9302  0.1921
   23DOPE    HA 2855   3.802   7.337   6.958 -1.2322  0.5993  0.3754
   23DOPE    HB 2856   3.909   7.273   7.089  1.7269  0.7942  1.2918
   23DOPE    C2 2857   3.905   7.491   7.058 -0.3070 -0.8929  0.1454
   23DOPE    HS 2858   3.914   7.524   7.164  0.7269 -0.4133 -0.0771
   23DOPE   O21 2859   3.813   7.585   6.989 -0.1940  0.1023 -0.1941
   23DOPE   C21 2860   3.836   7.712   7.010 -0.4723  0.4704  0.3492
   23DOPE   O22 2861   3.911   7.764   7.089 -0.5985  0.2418  0.5188
   23DOPE   C22 2862   3.752   7.804   6.917  0.9755 -0.3229  0.3209
   23DOPE   H2R 2863   3.771   7.904   6.959  0.5187  0.6466 -1.6350
   23DOPE   H2S 2864   3.642   7.786   6.911  0.8783  0.5427 -0.8021
   23DOPE    C3 2865   4.058   7.497   7.004  0.0298 -0.6591 -0.2658
   23DOPE    HX 2866   4.106   7.432   7.079  0.2489  1.1491  1.2519
   23DOPE    HY 2867   4.086   7.604   7.018 -0.5376 -0.3419 -1.3712
   23DOPE   O31 2868   4.066   7.459   6.867 -0.3457  0.8819 -0.2409
   23DOPE   C31 2869   4.193   7.434   6.830  0.2033 -0.9148 -0.2000
   23DOPE   O32 2870   4.286   7.441   6.901  0.2787  0.6466 -0.1345
   23DOPE   C32 2871   4.189   7.391   6.688 -0.1556 -0.6148 -0.8475
   23DOPE   H2X 2872   4.163   7.283   6.690 -0.0867 -0.6684 -2.1900
   23DOPE   H2Y 2873   4.103   7.443   6.641  0.1218  1.9983  1.2778
   23DOPE   C23 2874   3.820   7.806   6.780  0.1054 -0.2244  0.5814
   23DOPE   H3R 2875   3.929   7.789   6.796  0.7596 -0.8124 -3.3634
   23DOPE   H3S 2876   3.816   7.906   6.732  1.8585 -0.2934  0.2148
   23DOPE   C24 2877   3.773   7.700   6.681  0.0090 -0.5736 -0.0482
   23DOPE   H4R 2878   3.663   7.688   6.672  0.0511 -1.0851  0.1102
   23DOPE   H4S 2879   3.822   7.604   6.707  1.4855 -0.1070 -0.9806
   23DOPE   C25 2880   3.830   7.726   6.541 -0.2316  0.1676  0.0174
   23DOPE   H5R 2881   3.941   7.733   6.548  0.0899 -3.4116  0.1659
   23DOPE   H5S 2882   3.791   7.825   6.507  1.5174  1.7287  2.2142
   23DOPE   C26 2883   3.800   7.604   6.444  0.3854  0.3629  0.4421
   23DOPE   H6R 2884   3.694   7.574   6.458  1.1002 -1.9304  1.2928
   23DOPE   H6S 2885   3.864   7.521   6.478  0.2861  0.0773 -0.0650
   23DOPE   C27 2886   3.843   7.640   6.306  0.2061  0.6445  0.2700
   23DOPE   H7R 2887   3.950   7.616   6.288  0.0568  0.3716 -0.2503
   23DOPE   H7S 2888   3.827   7.750   6.298 -1.8223  0.3121 -0.8011
   23DOPE   C28 2889   3.747   7.577   6.203 -0.9215 -0.0907  0.2659
   23DOPE   H8R 2890   3.641   7.602   6.224 -0.1299  2.8301  1.1763
   23DOPE   H8S 2891   3.753   7.466   6.210  0.8487 -0.0118  0.6572
   23DOPE   C29 2892   3.780   7.639   6.064  0.2468 -0.3553 -0.8284
   23DOPE   H9R 2893   3.721   7.728   6.039  0.4000  0.4904  1.5742
   23DOPE  C210 2894   3.868   7.587   5.978 -0.5345 -0.5777  0.1227
   23DOPE  H10R 2895   3.887   7.649   5.889  2.9836  0.3720  1.3775
   23DOPE  C211 2896   3.961   7.466   5.984  0.1615  0.5174  0.6152
   23DOPE  H11R 2897   3.958   7.409   6.079  0.2360  0.8162  0.7938
   23DOPE  H11S 2898   4.063   7.507   5.973  0.6079 -0.9852 -1.6876
   23DOPE  C212 2899   3.915   7.361   5.879  0.3803 -0.8908 -0.7829
   23DOPE  H12R 2900   3.912   7.401   5.775 -0.9574  0.8468 -0.1364
   23DOPE  H12S 2901   3.814   7.321   5.904 -0.1419  1.5516  1.4810
   23DOPE  C213 2902   3.996   7.232   5.873 -0.0236 -0.9506  0.3338
   23DOPE  H13R 2903   4.059   7.229   5.965 -1.8901  0.8722  1.7660
   23DOPE  H13S 2904   4.069   7.245   5.791 -1.3113 -1.3076 -0.8943
   23DOPE  C214 2905   3.910   7.103   5.855 -0.4175 -0.0782  0.2793
   23DOPE  H14R 2906   3.828   7.101   5.930 -1.5876 -1.8832 -0.9792
   23DOPE  H14S 2907   3.980   7.021   5.882 -0.9159 -0.3347  0.8359
   23DOPE  C215 2908   3.866   7.075   5.715  0.2137 -0.1084  0.7224
   23DOPE  H15R 2909   3.961   7.075   5.657 -0.7099 -1.4130 -0.8849
   23DOPE  H15S 2910   3.810   7.161   5.672  2.1647  1.3677  0.9596
   23DOPE  C216 2911   3.792   6.941   5.713  0.1620  0.7538 -0.2519
   23DOPE  H16R 2912   3.699   6.943   5.775  0.3342  3.8084  0.0965
   23DOPE  H16S 2913   3.856   6.858   5.747  0.3770  0.8613 -0.3927
   23DOPE  C217 2914   3.755   6.891   5.572 -0.1080 -0.0704  0.2583
   23DOPE  H17R 2915   3.845   6.890   5.507 -1.7929 -1.4844 -2.1818
   23DOPE  H17S 2916   3.686   6.958   5.517 -1.0670 -0.6418  0.7429
   23DOPE  C218 2917   3.692   6.749   5.559  0.2312  0.0253 -0.4818
   23DOPE  H18R 2918   3.587   6.754   5.595  0.0183 -0.3434 -1.0411
   23DOPE  H18S 2919   3.754   6.675   5.615 -0.8363  1.2481  2.5677
   23DOPE  H18T 2920   3.687   6.705   5.458 -0.7829 -1.1755  0.0621
   23DOPE   C33 2921   4.315   7.420   6.609  0.2222  1.0063 -0.3666
   23DOPE   H3X 2922   4.402   7.362   6.649  0.3614 -0.3075 -2.4207
   23DOPE   H3Y 2923   4.346   7.526   6.617 -0.0517  1.1442 -1.1121
   23DOPE   C34 2924   4.290   7.387   6.464  0.2612 -0.5033  0.0761
   23DOPE   H4X 2925   4.393   7.352   6.440  0.4594 -2.9058  3.5948
   23DOPE   H4Y 2926   4.218   7.303   6.461 -2.4521  1.5281  2.4757
   23DOPE   C35 2927   4.233   7.500   6.384 -0.3964  0.1920 -0.2508
   23DOPE   H5X 2928   4.280   7.598   6.406 -1.6760  0.6588  0.5592
   23DOPE   H5Y 2929   4.127   7.509   6.416 -0.7288 -1.6687 -0.7160
   23DOPE   C36 2930   4.223   7.474   6.236 -0.4490  0.0316  0.1411
   23DOPE   H6X 2931   4.169   7.559   6.187  2.5042  1.4827 -0.8262
   23DOPE   H6Y 2932   4.159   7.385   6.217 -0.6642  0.5541 -1.7573
   23DOPE   C37 2933   4.361   7.466   6.165 -0.4316  0.0967 -0.1334
   23DOPE   H7X 2934   4.422   7.559   6.177 -0.5563  0.5974 -2.7549
   23DOPE   H7Y 2935   4.422   7.381   6.201  1.3673  1.6996  0.8074
   23DOPE   C38 2936   4.352   7.461   6.013  0.1950  0.1247 -0.1943
   23DOPE   H8X 2937   4.288   7.545   5.977 -0.2658 -0.3507 -0.4995
   23DOPE   H8Y 2938   4.300   7.365   5.990  0.6377  0.2413 -1.7909
   23DOPE   C39 2939   4.483   7.464   5.947  0.7838 -0.7610  0.7799
   23DOPE   H9X 2940   4.561   7.514   6.006  1.3289 -1.1078  0.3708
   23DOPE  C310 2941   4.503   7.437   5.813 -0.4201  0.5208  0.2665
   23DOPE  H10X 2942   4.601   7.462   5.770 -0.7640  2.6663  0.5804
   23DOPE  C311 2943   4.395   7.393   5.715 -0.0901  1.5964 -0.3903
   23DOPE  H11X 2944   4.403   7.285   5.687 -2.1208  0.9357  1.3328
   23DOPE  H11Y 2945   4.297   7.402   5.767 -0.7416 -0.5507 -1.1284
   23DOPE  C312 2946   4.395   7.473   5.593  0.3503 -0.0777  0.2710
   23DOPE  H12X 2947   4.472   7.450   5.516 -0.5679  2.9461 -1.7462
   23DOPE  H12Y 2948   4.401   7.580   5.622 -0.4659  0.2223 -0.5905
   23DOPE  C313 2949   4.264   7.448   5.521 -0.1671 -0.5805  0.7888
   23DOPE  H13X 2950   4.232   7.343   5.541 -1.6376 -0.5591 -1.2410
   23DOPE  H13Y 2951   4.187   7.506   5.575 -1.1095 -1.3672  0.3105
   23DOPE  C314 2952   4.260   7.491   5.370  1.0360 -0.0397  0.5069
   23DOPE  H14X 2953   4.343   7.445   5.311  1.0752  0.2656  0.3238
   23DOPE  H14Y 2954   4.269   7.601   5.382 -0.3208  0.2390 -0.8293
   23DOPE  C315 2955   4.125   7.479   5.310  0.5610 -0.6589  0.7238
   23DOPE  H15X 2956   4.054   7.550   5.356 -0.3553 -0.8508 -0.3294
   23DOPE  H15Y 2957   4.079   7.378   5.312 -1.8974  0.3304 -1.0640
   23DOPE  C316 2958   4.129   7.528   5.173  0.5339 -0.7975 -0.1948
   23DOPE  H16X 2959   4.162   7.452   5.098 -0.9261  0.7087 -2.4967
   23DOPE  H16Y 2960   4.192   7.618   5.160  0.0540 -0.1748  1.5259
   23DOPE  C317 2961   3.993   7.586   5.124  0.2845  0.2942  0.5227
   23DOPE  H17X 2962   3.956   7.671   5.185 -0.5779  0.1996  0.1379
   23DOPE  H17Y 2963   4.008   7.629   5.023  1.4083 -1.6445 -0.1777
   23DOPE  C318 2964   3.881   7.481   5.114  0.2481 -0.2670 -0.2468
   23DOPE  H18X 2965   3.898   7.403   5.037 -0.5136  0.1803 -0.8816
   23DOPE  H18Y 2966   3.859   7.428   5.209 -1.0243 -0.7709 -0.7857
   23DOPE  H18Z 2967   3.789   7.535   5.083  0.2778 -0.8824 -1.4468
   24DOPE     N 2968   6.047   6.451   7.133 -0.2766 -0.7252 -0.1396
   24DOPE   HN1 2969   5.957   6.502   7.147  0.2844 -0.1936  2.0178
   24DOPE   HN2 2970   6.042   6.371   7.200  1.8157 -1.5872 -0.9242
   24DOPE   HN3 2971   6.125   6.514   7.162  0.1678 -2.0109  1.6765
   24DOPE   C12 2972   6.075   6.402   6.993 -0.1746 -0.2401  0.3446
   24DOPE  H12A 2973   6.039   6.476   6.918  1.0167  1.3877  1.3197
   24DOPE  H12B 2974   6.013   6.312   6.973  0.1694 -0.0619 -1.8678
   24DOPE   C11 2975   6.222   6.366   6.965 -0.0834 -0.4908 -0.0831
   24DOPE  H11A 2976   6.285   6.455   6.985  1.2298 -1.0358 -1.5867
   24DOPE  H11B 2977   6.240   6.351   6.857  0.6824  1.4624 -0.2596
   24DOPE     P 2978   6.258   6.111   7.020 -0.1172 -0.0590 -0.5447
   24DOPE   O13 2979   6.114   6.059   7.025  0.1700 -0.0583 -0.3077
   24DOPE   O14 2980   6.350   6.057   7.124  0.4221 -0.7564  0.6203
   24DOPE   O11 2981   6.310   6.081   6.871 -0.0408  0.7197 -0.2899
   24DOPE   O12 2982   6.263   6.263   7.050 -0.8612 -0.0503  0.0971
   24DOPE    C1 2983   6.243   6.086   6.740 -0.3150  0.1154 -0.3419
   24DOPE    HA 2984   6.250   6.187   6.693 -1.1509  0.0535 -0.6263
   24DOPE    HB 2985   6.136   6.065   6.759 -0.4733  1.2570  0.1145
   24DOPE    C2 2986   6.299   5.986   6.638 -0.1177  0.2593 -0.2166
   24DOPE    HS 2987   6.286   5.886   6.683 -0.6531  0.8822  1.0692
   24DOPE   O21 2988   6.431   6.032   6.622 -0.2560 -0.1986 -0.2432
   24DOPE   C21 2989   6.510   5.951   6.546 -0.6605  0.3795  0.9216
   24DOPE   O22 2990   6.476   5.838   6.509 -0.1056 -0.2495 -0.3653
   24DOPE   C22 2991   6.647   6.021   6.519 -0.1854  0.2206  0.0254
   24DOPE   H2R 2992   6.697   6.044   6.615 -0.9196  1.4563  0.1340
   24DOPE   H2S 2993   6.624   6.121   6.475  0.7842  0.0699 -0.8489
   24DOPE    C3 2994   6.209   5.984   6.510  0.4099  0.6437 -0.2067
   24DOPE    HX 2995   6.109   5.954   6.548  1.6726 -2.3069  1.1387
   24DOPE    HY 2996   6.234   5.898   6.443  0.4963 -0.7805  1.5580
   24DOPE   O31 2997   6.203   6.116   6.454 -0.4201 -0.1792  0.4264
   24DOPE   C31 2998   6.130   6.122   6.351  0.2674 -0.8633  0.0160
   24DOPE   O32 2999   6.059   6.027   6.307 -0.3486 -0.7277 -0.0644
   24DOPE   C32 3000   6.132   6.256   6.283  0.3634  0.2820 -0.1219
   24DOPE   H2X 3001   6.032   6.303   6.274  0.6517  0.5864 -2.6486
   24DOPE   H2Y 3002   6.185   6.330   6.347  1.0190 -1.7674  1.7939
   24DOPE   C23 3003   6.740   5.935   6.435 -0.2474 -0.1774  0.1213
   24DOPE   H3R 3004   6.749   5.837   6.487 -0.8370  0.1193  0.8043
   24DOPE   H3S 3005   6.839   5.986   6.439  0.8090 -2.1734  1.7846
   24DOPE   C24 3006   6.704   5.914   6.286 -0.7021 -0.0032  0.7305
   24DOPE   H4R 3007   6.614   5.851   6.267  0.5188 -1.5473 -0.1533
   24DOPE   H4S 3008   6.782   5.850   6.240 -1.1341  1.1932 -1.8706
   24DOPE   C25 3009   6.704   6.042   6.202 -0.2121  0.0335  0.3010
   24DOPE   H5R 3010   6.805   6.087   6.195  0.1849 -0.3708  2.4601
   24DOPE   H5S 3011   6.641   6.126   6.238  0.7222  0.5976  0.6561
   24DOPE   C26 3012   6.654   6.005   6.063  0.0607 -0.0017 -0.3792
   24DOPE   H6R 3013   6.553   5.960   6.077 -0.9964  2.8417  2.2880
   24DOPE   H6S 3014   6.722   5.938   6.006 -0.1272  0.4877 -1.1772
   24DOPE   C27 3015   6.634   6.132   5.979  0.0843  0.9045 -0.0008
   24DOPE   H7R 3016   6.717   6.204   5.993 -1.5909  3.3285 -1.7367
   24DOPE   H7S 3017   6.537   6.168   6.020 -0.6897 -0.7192 -0.3187
   24DOPE   C28 3018   6.623   6.106   5.834 -0.1758  0.2243  0.1327
   24DOPE   H8R 3019   6.555   6.019   5.822  2.6055 -1.8953 -1.6373
   24DOPE   H8S 3020   6.713   6.068   5.783 -0.3528 -0.9568  0.6755
   24DOPE   C29 3021   6.555   6.206   5.742  0.8976  0.4722 -0.4137
   24DOPE   H9R 3022   6.476   6.264   5.791 -0.1263  1.3326 -2.9059
   24DOPE  C210 3023   6.586   6.239   5.617 -0.2525  0.2295  0.6641
   24DOPE  H10R 3024   6.534   6.323   5.568 -2.1100 -1.0666  0.3235
   24DOPE  C211 3025   6.694   6.173   5.532  1.1181  0.6226  0.3475
   24DOPE  H11R 3026   6.754   6.097   5.586  3.0187  1.2226 -0.8284
   24DOPE  H11S 3027   6.765   6.253   5.503 -0.8382  2.0815 -0.7209
   24DOPE  C212 3028   6.624   6.114   5.410 -0.0210 -0.2269 -0.0176
   24DOPE  H12R 3029   6.706   6.085   5.341 -0.4634  0.7646 -1.0011
   24DOPE  H12S 3030   6.567   6.186   5.347 -0.5099 -1.3057 -0.8279
   24DOPE  C213 3031   6.551   5.984   5.447 -1.0833  0.9692  0.2767
   24DOPE  H13R 3032   6.476   6.001   5.527 -0.8294  0.6842  0.5784
   24DOPE  H13S 3033   6.634   5.916   5.476 -0.8815  0.3836 -1.5799
   24DOPE  C214 3034   6.499   5.913   5.315 -0.4620 -0.2850 -0.3465
   24DOPE  H14R 3035   6.582   5.895   5.244 -0.3482  1.7818 -0.7906
   24DOPE  H14S 3036   6.420   5.977   5.271  0.9425  1.4638 -0.4447
   24DOPE  C215 3037   6.432   5.780   5.344  0.2045  0.3152  0.0076
   24DOPE  H15R 3038   6.382   5.756   5.248  1.1368  0.1853 -0.4627
   24DOPE  H15S 3039   6.361   5.790   5.429  1.4389  2.3024  0.8729
   24DOPE  C216 3040   6.540   5.672   5.371 -0.2733 -0.4085  0.1360
   24DOPE  H16R 3041   6.590   5.707   5.464  1.2116  2.4086 -1.5888
   24DOPE  H16S 3042   6.611   5.677   5.286  0.4042  1.9232  0.7808
   24DOPE  C217 3043   6.489   5.531   5.394  0.1634  0.1444  0.3196
   24DOPE  H17R 3044   6.574   5.464   5.420 -1.0327 -2.6609 -2.2373
   24DOPE  H17S 3045   6.430   5.499   5.305  1.0550  0.1995 -0.3001
   24DOPE  C218 3046   6.382   5.505   5.511  0.3825 -0.0491  0.0281
   24DOPE  H18R 3047   6.366   5.396   5.526  0.8195 -0.1567 -0.2606
   24DOPE  H18S 3048   6.286   5.550   5.476 -0.2376 -0.4619  1.1426
   24DOPE  H18T 3049   6.412   5.555   5.606  0.9157  1.3257 -0.8289
   24DOPE   C33 3050   6.192   6.260   6.142  0.6179  0.1671 -0.3304
   24DOPE   H3X 3051   6.126   6.202   6.074  0.9083  0.5362 -0.9307
   24DOPE   H3Y 3052   6.288   6.205   6.135 -0.0028 -1.2279  1.3086
   24DOPE   C34 3053   6.202   6.398   6.082 -0.6636  0.2580  0.1983
   24DOPE   H4X 3054   6.103   6.446   6.066 -0.5021  0.3992 -0.3848
   24DOPE   H4Y 3055   6.262   6.463   6.150  0.8032  0.9498 -1.6858
   24DOPE   C35 3056   6.272   6.405   5.948  0.1762  0.3745 -0.2191
   24DOPE   H5X 3057   6.381   6.390   5.967  0.1249  0.6399  0.3016
   24DOPE   H5Y 3058   6.271   6.508   5.906  0.3316  1.0060  1.2927
   24DOPE   C36 3059   6.217   6.315   5.835 -0.8672  0.6524 -0.3190
   24DOPE   H6X 3060   6.231   6.211   5.872 -0.9681  1.0710  0.9658
   24DOPE   H6Y 3061   6.271   6.315   5.738 -0.0830 -1.0416  0.0789
   24DOPE   C37 3062   6.069   6.329   5.801  0.2361  0.3254 -0.5560
   24DOPE   H7X 3063   6.017   6.332   5.899  1.1056  0.8291 -0.0962
   24DOPE   H7Y 3064   6.052   6.425   5.747 -0.6403 -0.3508 -1.5071
   24DOPE   C38 3065   6.016   6.211   5.713 -0.1577 -0.3363 -0.6100
   24DOPE   H8X 3066   5.905   6.219   5.719 -0.0810 -0.3126  1.7340
   24DOPE   H8Y 3067   6.050   6.117   5.763  1.2210  0.5708  0.2065
   24DOPE   C39 3068   6.064   6.197   5.572 -0.6958  0.4382 -1.0932
   24DOPE   H9X 3069   6.154   6.256   5.554  1.2983 -0.9517  3.0600
   24DOPE  C310 3070   5.993   6.156   5.465 -0.2288 -0.0359 -0.3845
   24DOPE  H10X 3071   6.037   6.165   5.365 -0.9470 -0.5113 -0.7568
   24DOPE  C311 3072   5.855   6.092   5.468 -1.0417 -0.2588 -0.6367
   24DOPE  H11X 3073   5.844   6.012   5.545 -0.4131 -0.7043 -1.0003
   24DOPE  H11Y 3074   5.779   6.170   5.485 -0.9345 -0.1586 -0.6164
   24DOPE  C312 3075   5.815   6.029   5.336  0.1759 -0.2289 -0.3805
   24DOPE  H12X 3076   5.709   6.004   5.359  0.5140 -0.3914  1.0820
   24DOPE  H12Y 3077   5.862   5.932   5.309 -2.6164 -1.1989 -2.1900
   24DOPE  C313 3078   5.832   6.131   5.226 -0.5503 -0.4886  0.0328
   24DOPE  H13X 3079   5.815   6.235   5.262 -0.1296 -0.9323  1.5604
   24DOPE  H13Y 3080   5.938   6.130   5.191 -0.6009 -1.0476 -0.1083
   24DOPE  C314 3081   5.749   6.105   5.100 -0.6601 -0.1001  0.0072
   24DOPE  H14X 3082   5.645   6.143   5.116  0.0335  1.1950  1.8509
   24DOPE  H14Y 3083   5.755   5.997   5.075  1.3438  0.3732 -1.7995
   24DOPE  C315 3084   5.808   6.167   4.971 -0.4591  0.3383  0.3442
   24DOPE  H15X 3085   5.745   6.151   4.880 -1.1191  0.1852  0.8238
   24DOPE  H15Y 3086   5.906   6.117   4.959 -2.2129 -3.2133 -0.3750
   24DOPE  C316 3087   5.820   6.318   4.978  0.3026  0.5300  0.4503
   24DOPE  H16X 3088   5.879   6.347   5.068  1.9823 -2.3752  0.4173
   24DOPE  H16Y 3089   5.720   6.362   4.998  1.5215  3.0558  1.5246
   24DOPE  C317 3090   5.881   6.379   4.847 -0.0680  0.2647 -0.4439
   24DOPE  H17X 3091   5.978   6.326   4.834  0.7216  1.4721  0.3163
   24DOPE  H17Y 3092   5.821   6.364   4.754  0.4413  2.1139 -1.1052
   24DOPE  C318 3093   5.916   6.530   4.853 -0.4228 -0.2853  0.3963
   24DOPE  H18X 3094   5.969   6.554   4.758 -0.1288  3.8851  1.4352
   24DOPE  H18Y 3095   5.821   6.587   4.856  0.9023  1.9698  2.1996
   24DOPE  H18Z 3096   5.988   6.549   4.935  3.3533  1.0248 -2.8897
   25DOPE     N 3097   0.107   6.706   7.109 -0.0103 -0.1020 -0.6625
   25DOPE   HN1 3098   0.054   6.700   7.198  0.0624 -0.1609 -0.6228
   25DOPE   HN2 3099   0.204   6.680   7.136 -0.4922 -0.7634  0.5174
   25DOPE   HN3 3100   0.115   6.804   7.076  0.2695  1.3134  3.1289
   25DOPE   C12 3101   0.046   6.614   7.008 -0.1730 -0.2857 -1.3197
   25DOPE  H12A 3102  -0.031   6.675   6.956  0.0910  0.1312 -1.2240
   25DOPE  H12B 3103  -0.002   6.536   7.072  0.1886  0.1537 -0.5030
   25DOPE   C11 3104   0.149   6.561   6.904 -0.0893  0.1248  0.0552
   25DOPE  H11A 3105   0.167   6.655   6.849 -3.6052  0.6772 -0.3475
   25DOPE  H11B 3106   0.092   6.490   6.841 -0.4911 -0.4590  1.0449
   25DOPE     P 3107   0.407   6.561   6.946  0.2203  0.0933 -0.3774
   25DOPE   O13 3108   0.503   6.475   7.010 -0.0155 -0.1763 -0.2745
   25DOPE   O14 3109   0.397   6.703   6.983 -0.1290 -0.0945 -0.0569
   25DOPE   O11 3110   0.432   6.555   6.788 -0.2566  0.3851  0.9142
   25DOPE   O12 3111   0.263   6.502   6.968 -0.4957  0.1913 -0.6061
   25DOPE    C1 3112   0.462   6.421   6.742 -0.2647  0.6020 -0.1763
   25DOPE    HA 3113   0.381   6.346   6.755 -0.5363  0.9813  0.3640
   25DOPE    HB 3114   0.554   6.378   6.788 -1.5346 -2.0462  0.0937
   25DOPE    C2 3115   0.473   6.412   6.592 -0.0373 -0.6100 -0.7153
   25DOPE    HS 3116   0.542   6.492   6.560 -1.0226 -0.7784 -3.6099
   25DOPE   O21 3117   0.348   6.416   6.525 -0.0908  0.0135 -0.7032
   25DOPE   C21 3118   0.313   6.539   6.483  0.8156 -0.0996  0.5258
   25DOPE   O22 3119   0.387   6.635   6.499  0.2213 -0.4378  0.1321
   25DOPE   C22 3120   0.174   6.532   6.414  0.0545  0.5275 -1.0169
   25DOPE   H2R 3121   0.128   6.632   6.396 -1.8035 -0.4937 -2.2339
   25DOPE   H2S 3122   0.124   6.477   6.496  0.4368  1.4659 -0.1380
   25DOPE    C3 3123   0.533   6.278   6.541  0.1199  0.0214  0.2444
   25DOPE    HX 3124   0.469   6.197   6.581  1.4677 -0.0868  2.4159
   25DOPE    HY 3125   0.626   6.254   6.598 -1.1519 -0.5944  2.1809
   25DOPE   O31 3126   0.559   6.278   6.400 -0.0376 -0.3026  0.3732
   25DOPE   C31 3127   0.479   6.207   6.322 -0.3890 -0.1895  0.0176
   25DOPE   O32 3128   0.387   6.131   6.357  0.4235 -0.1070 -0.2216
   25DOPE   C32 3129   0.513   6.225   6.171 -0.0535 -0.7493 -0.0865
   25DOPE   H2X 3130   0.477   6.328   6.151  0.4215 -0.8595 -1.7214
   25DOPE   H2Y 3131   0.623   6.231   6.150  0.3780  0.6999  2.2292
   25DOPE   C23 3132   0.190   6.460   6.277 -0.3206 -0.4623 -1.2094
   25DOPE   H3R 3133   0.085   6.453   6.242 -1.6772  2.8691  1.5814
   25DOPE   H3S 3134   0.225   6.355   6.286 -0.3393 -0.3188  1.8820
   25DOPE   C24 3135   0.279   6.535   6.176  0.2943  0.1891 -0.9565
   25DOPE   H4R 3136   0.379   6.529   6.224 -0.2906 -0.8023  0.1971
   25DOPE   H4S 3137   0.248   6.642   6.171  0.4704  0.3927  1.1575
   25DOPE   C25 3138   0.256   6.479   6.035  0.3722 -0.1012 -0.7546
   25DOPE   H5R 3139   0.161   6.515   5.991 -0.6483  0.4447  1.7150
   25DOPE   H5S 3140   0.256   6.368   6.038 -0.4722 -0.0923  0.8386
   25DOPE   C26 3141   0.364   6.521   5.934 -0.4345  0.6418 -0.0749
   25DOPE   H6R 3142   0.464   6.485   5.966 -0.5745  1.4333  1.3387
   25DOPE   H6S 3143   0.372   6.632   5.943 -0.8694  0.5865  1.0947
   25DOPE   C27 3144   0.335   6.466   5.789  0.3816  0.3647 -0.0095
   25DOPE   H7R 3145   0.245   6.509   5.740  0.9438 -0.8737 -2.3065
   25DOPE   H7S 3146   0.328   6.355   5.778 -1.6978  0.4187  0.4018
   25DOPE   C28 3147   0.431   6.525   5.684 -0.3756 -0.2991 -0.4997
   25DOPE   H8R 3148   0.445   6.632   5.711 -1.5981  0.3119 -2.1140
   25DOPE   H8S 3149   0.388   6.525   5.581  0.8470  3.8449 -1.2257
   25DOPE   C29 3150   0.560   6.453   5.694  0.0803 -0.6327  0.9933
   25DOPE   H9R 3151   0.586   6.410   5.791 -1.1311 -0.9313  1.2016
   25DOPE  C210 3152   0.643   6.405   5.592  0.0214  0.5801  0.0010
   25DOPE  H10R 3153   0.732   6.350   5.625  0.6350  1.2534 -0.5212
   25DOPE  C211 3154   0.622   6.440   5.452 -1.0321  0.0014  0.5631
   25DOPE  H11R 3155   0.579   6.542   5.448  2.1206  1.5364  2.0151
   25DOPE  H11S 3156   0.549   6.362   5.420  0.0814  0.1650 -2.7273
   25DOPE  C212 3157   0.760   6.433   5.377 -0.3259  0.0012 -0.0555
   25DOPE  H12R 3158   0.732   6.451   5.271 -0.5716 -2.5751 -0.4928
   25DOPE  H12S 3159   0.799   6.330   5.394  2.0284  0.7181 -0.7399
   25DOPE  C213 3160   0.862   6.535   5.431  0.5181  0.4515 -0.6529
   25DOPE  H13R 3161   0.955   6.522   5.371  0.0531  0.9591 -1.5128
   25DOPE  H13S 3162   0.898   6.531   5.536  1.7208  1.7417 -0.9779
   25DOPE  C214 3163   0.815   6.677   5.412  0.5841  0.2008  0.4234
   25DOPE  H14R 3164   0.725   6.694   5.474  1.4953  2.7619  1.2088
   25DOPE  H14S 3165   0.788   6.688   5.305  0.6503 -0.6279  0.3162
   25DOPE  C215 3166   0.916   6.783   5.458 -0.2172  0.4823  0.2546
   25DOPE  H15R 3167   1.009   6.775   5.398 -0.8511  0.4255 -0.7399
   25DOPE  H15S 3168   0.932   6.765   5.566  2.7780  0.2794 -0.1340
   25DOPE  C216 3169   0.858   6.922   5.426 -0.5830  0.1575  0.4060
   25DOPE  H16R 3170   0.774   6.955   5.491 -0.2503  0.5449  0.6416
   25DOPE  H16S 3171   0.817   6.932   5.324 -0.4114  1.4021  0.4374
   25DOPE  C217 3172   0.968   7.029   5.422  0.0580  0.0426 -0.3948
   25DOPE  H17R 3173   1.042   7.002   5.344 -0.5703  1.6104 -1.6022
   25DOPE  H17S 3174   1.019   7.028   5.521 -1.5245 -0.4663  0.4518
   25DOPE  C218 3175   0.902   7.159   5.374 -0.1126  0.0104 -0.2562
   25DOPE  H18R 3176   0.812   7.181   5.435 -0.5349 -0.7880 -0.5920
   25DOPE  H18S 3177   0.861   7.146   5.272 -0.5971  0.4768 -0.1273
   25DOPE  H18T 3178   0.976   7.242   5.369 -1.2500  0.9657 -3.4102
   25DOPE   C33 3179   0.433   6.136   6.084  0.1723 -0.5679  0.0598
   25DOPE   H3X 3180   0.325   6.163   6.084  0.0736 -0.9630  0.2291
   25DOPE   H3Y 3181   0.426   6.033   6.126 -2.7038  0.0614  1.3826
   25DOPE   C34 3182   0.476   6.133   5.941 -0.0864  0.1179  0.0104
   25DOPE   H4X 3183   0.446   6.226   5.889 -1.6805 -0.0534  0.5536
   25DOPE   H4Y 3184   0.585   6.112   5.934 -0.1495 -0.0019 -0.8306
   25DOPE   C35 3185   0.404   6.019   5.868  0.7661 -0.3021 -0.4979
   25DOPE   H5X 3186   0.297   6.049   5.862  0.6991  0.0103  1.5807
   25DOPE   H5Y 3187   0.412   5.928   5.931 -2.0419  0.7501  1.5704
   25DOPE   C36 3188   0.456   5.978   5.735  0.0208 -0.2579  0.0723
   25DOPE   H6X 3189   0.416   5.889   5.683  0.7584  0.6644 -2.2193
   25DOPE   H6Y 3190   0.563   5.949   5.747 -0.3252 -1.6039 -0.0085
   25DOPE   C37 3191   0.441   6.086   5.628  0.0913 -1.2016 -0.2555
   25DOPE   H7X 3192   0.337   6.119   5.603  0.6904 -0.4218 -1.8779
   25DOPE   H7Y 3193   0.476   6.183   5.668 -1.5663 -1.5207  2.2556
   25DOPE   C38 3194   0.522   6.039   5.505 -0.2743 -0.1517  0.4995
   25DOPE   H8X 3195   0.617   5.999   5.546  0.4012  1.7185  0.8418
   25DOPE   H8Y 3196   0.548   6.131   5.449 -1.0005  0.9552  1.9244
   25DOPE   C39 3197   0.460   5.927   5.416 -0.3061 -0.4744  0.0640
   25DOPE   H9X 3198   0.351   5.932   5.400 -0.2858  1.1659  0.2081
   25DOPE  C310 3199   0.519   5.813   5.377 -0.7410 -0.4944 -0.7787
   25DOPE  H10X 3200   0.456   5.738   5.327 -0.8172 -1.4429  0.6610
   25DOPE  C311 3201   0.674   5.775   5.390  0.5379 -0.8669 -0.1818
   25DOPE  H11X 3202   0.713   5.741   5.292  1.5737 -1.2534  0.3502
   25DOPE  H11Y 3203   0.738   5.864   5.406 -0.4858 -0.2502  0.6552
   25DOPE  C312 3204   0.703   5.662   5.493  0.3223  0.2062 -0.0075
   25DOPE  H12X 3205   0.812   5.641   5.484 -0.1758 -3.0116  0.3803
   25DOPE  H12Y 3206   0.655   5.563   5.479 -0.8526  0.3888  2.2475
   25DOPE  C313 3207   0.686   5.697   5.645  0.4527 -0.6625 -0.2027
   25DOPE  H13X 3208   0.754   5.782   5.667 -0.1726  0.7636 -3.1945
   25DOPE  H13Y 3209   0.582   5.733   5.662  1.3035  0.9988  1.9658
   25DOPE  C314 3210   0.704   5.584   5.754  0.0012  0.1112  0.6906
   25DOPE  H14X 3211   0.807   5.544   5.752 -0.1628 -0.3421  1.0181
   25DOPE  H14Y 3212   0.628   5.505   5.731 -0.2075  0.3388  0.5918
   25DOPE  C315 3213   0.677   5.632   5.897  0.4906 -0.6941  0.2767
   25DOPE  H15X 3214   0.589   5.699   5.903  0.8201 -0.2153 -0.1912
   25DOPE  H15Y 3215   0.759   5.698   5.932 -1.2900  1.1890  1.0883
   25DOPE  C316 3216   0.669   5.509   5.988  0.2183  1.0224  0.1146
   25DOPE  H16X 3217   0.766   5.456   5.982  0.3585  1.1753  0.8691
   25DOPE  H16Y 3218   0.583   5.454   5.944  0.3815  1.2823 -0.5402
   25DOPE  C317 3219   0.643   5.535   6.136  0.1164  0.5925 -0.8743
   25DOPE  H17X 3220   0.574   5.620   6.155  0.1189  1.0949 -2.8704
   25DOPE  H17Y 3221   0.607   5.441   6.182  0.1040  0.1566 -1.7494
   25DOPE  C318 3222   0.772   5.572   6.209  0.0366 -0.4024 -0.5584
   25DOPE  H18X 3223   0.835   5.638   6.146 -1.4725  0.4000 -1.2824
   25DOPE  H18Y 3224   0.759   5.611   6.312 -1.4780 -4.0077  0.8025
   25DOPE  H18Z 3225   0.839   5.483   6.206  0.6878  0.0928 -0.8610
   26DOPE     N 3226   7.497   7.127   7.159 -0.1770 -0.0231  0.0142
   26DOPE   HN1 3227   7.468   7.204   7.096  1.4818  0.7693  0.1713
   26DOPE   HN2 3228   7.489   7.036   7.110 -2.0069  0.5783 -0.8812
   26DOPE   HN3 3229   7.426   7.119   7.235 -2.7196 -0.6903 -2.2803
   26DOPE   C12 3230   7.634   7.156   7.205  0.2538  0.5397 -0.2681
   26DOPE  H12A 3231   7.685   7.057   7.213 -2.2030 -0.7340  0.7038
   26DOPE  H12B 3232   7.623   7.196   7.308 -2.0953 -1.9668  0.5908
   26DOPE   C11 3233   7.720   7.243   7.111 -0.6581 -0.2548 -0.0635
   26DOPE  H11A 3234   7.821   7.244   7.158 -0.5169  0.0009 -0.3705
   26DOPE  H11B 3235   7.679   7.345   7.104  1.6717  0.7083 -0.6003
   26DOPE     P 3236   7.826   7.072   6.942 -0.1970 -0.0687 -0.0250
   26DOPE   O13 3237   7.789   6.945   7.009  0.0967  0.1238 -0.0926
   26DOPE   O14 3238   7.969   7.113   6.966  0.4060 -0.0466 -0.5045
   26DOPE   O11 3239   7.814   7.076   6.780  0.0974 -0.1867 -0.5213
   26DOPE   O12 3240   7.721   7.177   6.983  0.0613 -0.7331 -0.1577
   26DOPE    C1 3241   7.687   7.081   6.725  0.6872 -0.2324 -0.0982
   26DOPE    HA 3242   7.623   7.152   6.781  2.1266  0.3682  0.8673
   26DOPE    HB 3243   7.644   6.979   6.727  1.2495 -0.4788 -0.2767
   26DOPE    C2 3244   7.693   7.142   6.583 -0.5342  0.1814 -0.0504
   26DOPE    HS 3245   7.591   7.133   6.540 -1.0731 -1.3881  1.4524
   26DOPE   O21 3246   7.795   7.081   6.504 -0.0545 -0.1025  0.0819
   26DOPE   C21 3247   7.751   6.975   6.438 -0.4669  0.1689 -0.2863
   26DOPE   O22 3248   7.635   6.942   6.419 -0.1190  0.0761  0.2857
   26DOPE   C22 3249   7.877   6.909   6.369 -0.2015  0.2674  0.3103
   26DOPE   H2R 3250   7.838   6.827   6.306  2.6847 -1.8388  1.0639
   26DOPE   H2S 3251   7.934   6.861   6.452  0.6501  1.8952  0.7139
   26DOPE    C3 3252   7.732   7.288   6.575 -0.1352 -0.3043  0.0294
   26DOPE    HX 3253   7.840   7.298   6.600  0.1083  0.3609 -1.1850
   26DOPE    HY 3254   7.672   7.339   6.653  2.0568  1.5575  0.5961
   26DOPE   O31 3255   7.695   7.340   6.444  0.5592 -0.1398 -0.4405
   26DOPE   C31 3256   7.775   7.433   6.397  0.8026  0.4254 -0.0255
   26DOPE   O32 3257   7.848   7.505   6.463 -0.6014 -0.6653 -0.3711
   26DOPE   C32 3258   7.763   7.427   6.242 -0.3244  0.0594 -0.2378
   26DOPE   H2X 3259   7.779   7.319   6.221 -0.4829  0.0560 -0.3414
   26DOPE   H2Y 3260   7.660   7.451   6.210 -0.3834 -1.1070 -1.0098
   26DOPE   C23 3261   7.975   7.006   6.304 -0.3442  0.6976  0.8917
   26DOPE   H3R 3262   8.071   6.952   6.289  0.1418  1.4370  1.2902
   26DOPE   H3S 3263   8.002   7.078   6.384 -1.0544  0.5404  1.2774
   26DOPE   C24 3264   7.929   7.058   6.164  0.2218 -0.3576  0.3503
   26DOPE   H4R 3265   7.993   7.142   6.130  1.0616 -0.4808  1.5537
   26DOPE   H4S 3266   7.824   7.092   6.179 -0.4355 -2.0237 -0.2552
   26DOPE   C25 3267   7.932   6.955   6.053  0.0560  0.3098  0.0121
   26DOPE   H5R 3268   7.863   6.878   6.094 -2.4209  1.6760 -1.3569
   26DOPE   H5S 3269   8.035   6.915   6.042 -1.1044 -2.5775 -1.3610
   26DOPE   C26 3270   7.886   6.996   5.916 -0.2599 -0.9905  0.1689
   26DOPE   H6R 3271   7.942   7.087   5.886 -4.0554  2.0471  1.3281
   26DOPE   H6S 3272   7.781   7.033   5.926  0.0890  0.1946 -0.3576
   26DOPE   C27 3273   7.898   6.891   5.808 -0.3728  0.5943 -0.1100
   26DOPE   H7R 3274   7.824   6.809   5.812 -1.8767  1.9051 -0.0620
   26DOPE   H7S 3275   7.991   6.831   5.814  1.0315  2.5063 -1.5114
   26DOPE   C28 3276   7.908   6.953   5.666 -0.4956  0.0455  0.1804
   26DOPE   H8R 3277   7.827   7.027   5.655  0.2846  1.1677  1.6628
   26DOPE   H8S 3278   7.890   6.875   5.588  3.0387 -0.5289 -0.2526
   26DOPE   C29 3279   8.037   7.028   5.644 -0.3300 -0.2896  0.9763
   26DOPE   H9R 3280   8.056   7.113   5.710  1.2279  1.2756 -1.3321
   26DOPE  C210 3281   8.132   6.992   5.550 -0.5480 -0.6070  0.8876
   26DOPE  H10R 3282   8.216   7.063   5.545 -1.0410 -0.0310  0.5754
   26DOPE  C211 3283   8.137   6.877   5.455  0.4499  0.2524 -0.4980
   26DOPE  H11R 3284   8.052   6.806   5.469 -0.4178  1.1513 -1.0470
   26DOPE  H11S 3285   8.225   6.817   5.485  0.2091 -0.4232 -1.1133
   26DOPE  C212 3286   8.164   6.913   5.310 -0.7748  0.0560 -0.0367
   26DOPE  H12R 3287   8.251   6.972   5.274 -0.5449  0.6889  1.4770
   26DOPE  H12S 3288   8.074   6.969   5.276 -0.5882 -0.5312 -1.6152
   26DOPE  C213 3289   8.178   6.777   5.227 -0.6913 -0.8802  0.7774
   26DOPE  H13R 3290   8.090   6.710   5.232 -0.4811 -1.3076 -0.8359
   26DOPE  H13S 3291   8.266   6.716   5.258  0.6518  0.1979 -0.7131
   26DOPE  C214 3292   8.195   6.799   5.075 -0.2290  0.2780  0.2461
   26DOPE  H14R 3293   8.295   6.847   5.068 -0.8914  2.0980  2.3946
   26DOPE  H14S 3294   8.128   6.875   5.030  0.2208  0.5393  0.0112
   26DOPE  C215 3295   8.198   6.668   4.982  0.3747 -0.0670 -0.1063
   26DOPE  H15R 3296   8.110   6.600   4.992  0.4424 -0.0016  1.0717
   26DOPE  H15S 3297   8.286   6.607   5.011 -0.3198 -1.8438 -1.5391
   26DOPE  C216 3298   8.220   6.697   4.830  0.0041  0.5768 -0.5079
   26DOPE  H16R 3299   8.288   6.785   4.826  0.2552  0.5139  1.4402
   26DOPE  H16S 3300   8.119   6.719   4.789  1.0501  0.5228 -3.2758
   26DOPE  C217 3301   8.302   6.586   4.764  0.7969 -0.2219  0.6097
   26DOPE  H17R 3302   8.344   6.515   4.839  0.7227 -1.1611 -0.2130
   26DOPE  H17S 3303   8.386   6.623   4.702 -0.7426  1.2748 -0.6968
   26DOPE  C218 3304   8.207   6.508   4.672  0.2307  0.3198  0.2536
   26DOPE  H18R 3305   8.116   6.483   4.732 -0.6327  0.3827 -0.9826
   26DOPE  H18S 3306   8.256   6.415   4.638 -2.9834 -1.6362  0.5705
   26DOPE  H18T 3307   8.176   6.568   4.584  2.0384 -0.8715 -1.2586
   26DOPE   C33 3308   7.870   7.515   6.166 -0.3461 -0.2738 -0.1764
   26DOPE   H3X 3309   7.967   7.506   6.218 -1.1841  0.4413  1.5750
   26DOPE   H3Y 3310   7.840   7.621   6.176 -1.7192 -0.7775  1.4717
   26DOPE   C34 3311   7.888   7.466   6.020 -0.8763 -0.0347 -0.1610
   26DOPE   H4X 3312   7.970   7.520   5.970  0.0269  0.1841  1.5036
   26DOPE   H4Y 3313   7.935   7.366   6.034 -0.0195  0.6712  2.5564
   26DOPE   C35 3314   7.756   7.478   5.943 -0.9990  0.9140  0.2395
   26DOPE   H5X 3315   7.727   7.585   5.934 -0.7558  1.1732  2.2165
   26DOPE   H5Y 3316   7.672   7.428   5.997 -0.9892  0.5225 -0.1063
   26DOPE   C36 3317   7.755   7.410   5.803 -0.9684 -0.5635  0.1891
   26DOPE   H6X 3318   7.766   7.300   5.816 -0.3743 -0.4826  0.3669
   26DOPE   H6Y 3319   7.850   7.442   5.755 -0.5308 -3.0721 -0.8119
   26DOPE   C37 3320   7.643   7.436   5.706 -0.0234  0.4724  0.0478
   26DOPE   H7X 3321   7.569   7.354   5.721  3.0808 -2.4304  0.7102
   26DOPE   H7Y 3322   7.609   7.542   5.702  1.3323  0.9059 -1.0817
   26DOPE   C38 3323   7.676   7.418   5.554 -0.4366  0.4151  0.2807
   26DOPE   H8X 3324   7.581   7.419   5.496  0.5001  0.2319 -1.3435
   26DOPE   H8Y 3325   7.720   7.317   5.536  0.0911  1.0862 -2.9635
   26DOPE   C39 3326   7.762   7.521   5.485 -0.7657 -0.2908  0.8166
   26DOPE   H9X 3327   7.727   7.626   5.485 -1.8721 -0.6515  1.2134
   26DOPE  C310 3328   7.864   7.496   5.409  0.5129 -0.2419  0.1774
   26DOPE  H10X 3329   7.914   7.580   5.359  0.5438 -1.3229 -1.6982
   26DOPE  C311 3330   7.924   7.362   5.375  0.0222 -0.4974  0.0080
   26DOPE  H11X 3331   7.906   7.291   5.459 -2.2605  2.5964  2.4022
   26DOPE  H11Y 3332   7.881   7.316   5.284 -1.1906 -1.5924  1.0861
   26DOPE  C312 3333   8.073   7.378   5.354  0.5157 -0.0889  0.0404
   26DOPE  H12X 3334   8.098   7.451   5.273  0.2735 -0.9008 -0.7895
   26DOPE  H12Y 3335   8.116   7.283   5.316  2.3590  1.1669 -1.2412
   26DOPE  C313 3336   8.144   7.407   5.487 -0.0019 -0.0585 -0.8557
   26DOPE  H13X 3337   8.105   7.499   5.535  1.9028  0.3276  0.0376
   26DOPE  H13Y 3338   8.124   7.318   5.551  0.3824 -0.0389 -0.7057
   26DOPE  C314 3339   8.288   7.441   5.466  0.0501 -0.7848  0.2552
   26DOPE  H14X 3340   8.296   7.548   5.439  1.6731 -0.9434  0.0040
   26DOPE  H14Y 3341   8.342   7.391   5.382 -2.2073 -1.4049 -0.8977
   26DOPE  C315 3342   8.373   7.430   5.598  0.0495  0.0034  0.2052
   26DOPE  H15X 3343   8.482   7.453   5.591 -0.1158  0.5534 -0.7170
   26DOPE  H15Y 3344   8.359   7.324   5.631 -2.1654 -0.5834 -2.2566
   26DOPE  C316 3345   8.318   7.518   5.710  0.0416 -0.2044  0.2771
   26DOPE  H16X 3346   8.376   7.485   5.798  0.6726  1.4623  0.5262
   26DOPE  H16Y 3347   8.212   7.505   5.741  0.0407  1.9722  1.3692
   26DOPE  C317 3348   8.356   7.666   5.683 -0.2101 -0.6442 -0.3458
   26DOPE  H17X 3349   8.466   7.662   5.670 -0.3146 -0.1244 -1.5245
   26DOPE  H17Y 3350   8.313   7.701   5.586 -0.6613 -0.2350  0.0002
   26DOPE  C318 3351   8.325   7.761   5.796 -1.0189  0.2568  0.6212
   26DOPE  H18X 3352   8.418   7.820   5.815 -2.2631  2.4850  0.1279
   26DOPE  H18Y 3353   8.245   7.835   5.774  0.1722  0.8302 -2.1945
   26DOPE  H18Z 3354   8.299   7.707   5.889 -0.2072  1.3786  1.5346
   27DOPE     N 3355   5.669   0.410   7.587  0.3134 -0.5765 -0.2817
   27DOPE   HN1 3356   5.668   0.438   7.687  1.0776 -0.0182 -0.4201
   27DOPE   HN2 3357   5.731   0.475   7.535  0.9960 -1.6467 -0.8352
   27DOPE   HN3 3358   5.576   0.422   7.541  0.2032 -0.4032 -0.0162
   27DOPE   C12 3359   5.706   0.269   7.565  0.0084  0.2651 -0.1375
   27DOPE  H12A 3360   5.636   0.214   7.631 -1.0170  1.7001  0.0093
   27DOPE  H12B 3361   5.812   0.256   7.596 -0.5161 -1.6605  0.9568
   27DOPE   C11 3362   5.703   0.231   7.419 -0.3248  0.0248  0.1500
   27DOPE  H11A 3363   5.719   0.122   7.408  1.8282  0.3770 -0.8685
   27DOPE  H11B 3364   5.790   0.263   7.357 -0.0307 -0.9756  0.0274
   27DOPE     P 3365   5.458   0.178   7.335 -0.2481 -0.1491  0.1219
   27DOPE   O13 3366   5.333   0.250   7.361 -0.2038  0.0451 -0.0207
   27DOPE   O14 3367   5.482   0.061   7.421 -0.1099  0.2986 -0.1696
   27DOPE   O11 3368   5.454   0.121   7.177 -0.7437  0.0099  0.0498
   27DOPE   O12 3369   5.581   0.283   7.355 -1.0626 -0.1483  0.4845
   27DOPE    C1 3370   5.417   0.220   7.082  0.9438 -0.2399 -0.1714
   27DOPE    HA 3371   5.325   0.279   7.106  1.6155 -0.0574  2.2627
   27DOPE    HB 3372   5.401   0.168   6.985 -0.2109 -2.1540  0.9797
   27DOPE    C2 3373   5.530   0.316   7.042 -0.2178 -0.4787 -0.3333
   27DOPE    HS 3374   5.553   0.372   7.135 -0.6167 -2.6223  1.1437
   27DOPE   O21 3375   5.485   0.405   6.934  0.3743  0.6660 -0.5671
   27DOPE   C21 3376   5.554   0.521   6.927  0.6861  0.1137 -0.3741
   27DOPE   O22 3377   5.645   0.542   7.006 -0.0590  0.0378  0.1216
   27DOPE   C22 3378   5.510   0.606   6.807 -0.2160  0.1658  0.1400
   27DOPE   H2R 3379   5.526   0.712   6.838  0.5775 -0.4140  1.8741
   27DOPE   H2S 3380   5.406   0.590   6.773 -1.2256  2.4981  1.8379
   27DOPE    C3 3381   5.666   0.244   7.023 -0.7993 -0.0599  0.2846
   27DOPE    HX 3382   5.673   0.161   7.098 -0.3439 -0.5639 -0.2998
   27DOPE    HY 3383   5.751   0.315   7.029 -0.0923 -0.5743 -2.5016
   27DOPE   O31 3384   5.683   0.171   6.906 -0.2913  0.5365 -0.1748
   27DOPE   C31 3385   5.772   0.214   6.816  0.1086  0.8495  0.1402
   27DOPE   O32 3386   5.837   0.315   6.815 -0.2042  0.5670 -0.6318
   27DOPE   C32 3387   5.779   0.111   6.699 -0.2423 -0.2952 -0.1224
   27DOPE   H2X 3388   5.832   0.021   6.738  1.1257  0.5499  0.0333
   27DOPE   H2Y 3389   5.673   0.087   6.675 -0.3154 -0.4125  0.3028
   27DOPE   C23 3390   5.621   0.611   6.701 -0.0346 -0.3927 -0.1584
   27DOPE   H3R 3391   5.719   0.623   6.751  0.0540 -2.5775  0.3034
   27DOPE   H3S 3392   5.602   0.694   6.630  0.0262  0.3934  0.7248
   27DOPE   C24 3393   5.620   0.493   6.603 -0.2340 -0.4765 -0.3707
   27DOPE   H4R 3394   5.515   0.476   6.572 -1.3011  2.6888  1.0992
   27DOPE   H4S 3395   5.656   0.399   6.650  0.1202  0.3740  1.1481
   27DOPE   C25 3396   5.705   0.528   6.486  0.5771  0.3827  0.8552
   27DOPE   H5R 3397   5.815   0.521   6.502  0.4908 -0.8313  1.0425
   27DOPE   H5S 3398   5.692   0.632   6.451  3.5122  1.0625  1.5085
   27DOPE   C26 3399   5.667   0.437   6.363 -0.2753 -0.4345 -0.4656
   27DOPE   H6R 3400   5.572   0.481   6.324  0.6435  1.8171 -0.3016
   27DOPE   H6S 3401   5.653   0.331   6.391  0.8341 -1.5049 -3.5455
   27DOPE   C27 3402   5.750   0.448   6.235  0.4645 -0.6270 -0.8987
   27DOPE   H7R 3403   5.837   0.379   6.238  1.5886  0.7779 -0.4509
   27DOPE   H7S 3404   5.780   0.554   6.222 -1.3493  0.2327  1.2285
   27DOPE   C28 3405   5.667   0.407   6.113  0.6946  0.1475  0.1946
   27DOPE   H8R 3406   5.733   0.418   6.025  0.0204  0.1622 -0.3157
   27DOPE   H8S 3407   5.578   0.471   6.098 -0.2576 -1.1821 -0.0421
   27DOPE   C29 3408   5.611   0.265   6.115  0.3723  0.4236  0.4498
   27DOPE   H9R 3409   5.617   0.209   6.209 -0.2838 -1.9560 -0.8140
   27DOPE  C210 3410   5.541   0.208   6.010 -0.0874 -0.0704 -0.3327
   27DOPE  H10R 3411   5.503   0.107   6.029  2.6533 -1.0999  0.2246
   27DOPE  C211 3412   5.520   0.259   5.875  0.1655 -0.6752  0.2054
   27DOPE  H11R 3413   5.559   0.363   5.865 -2.3542  0.2918 -0.5064
   27DOPE  H11S 3414   5.412   0.282   5.865  0.0066 -1.0771  0.9249
   27DOPE  C212 3415   5.584   0.172   5.763 -0.1645  0.6200  0.9743
   27DOPE  H12R 3416   5.538   0.071   5.768  1.8165 -0.2658  2.9154
   27DOPE  H12S 3417   5.692   0.165   5.787  0.0834  0.3370 -0.1602
   27DOPE  C213 3418   5.563   0.222   5.618  0.4820 -0.5982  0.9654
   27DOPE  H13R 3419   5.647   0.289   5.590 -1.5163  1.3373 -0.8160
   27DOPE  H13S 3420   5.467   0.278   5.609  1.0550  0.1314 -1.2450
   27DOPE  C214 3421   5.541   0.114   5.512  0.8338  0.2583 -0.4241
   27DOPE  H14R 3422   5.531   0.168   5.415 -2.4972  0.1581 -0.2467
   27DOPE  H14S 3423   5.440   0.077   5.538  1.4267 -1.4108 -0.3928
   27DOPE  C215 3424   5.637  -0.001   5.505 -0.2029  0.0999 -0.9855
   27DOPE  H15R 3425   5.602  -0.079   5.575  0.7521  0.7650  0.2688
   27DOPE  H15S 3426   5.735   0.033   5.545 -0.5950 -1.0726  1.0696
   27DOPE  C216 3427   5.657  -0.078   5.372  0.2848  0.5830  0.1857
   27DOPE  H16R 3428   5.703  -0.177   5.390 -2.1901 -0.9749 -1.4394
   27DOPE  H16S 3429   5.731  -0.025   5.308 -0.5391 -1.5154 -2.7066
   27DOPE  C217 3430   5.535  -0.103   5.291 -0.3233  0.3672  0.3106
   27DOPE  H17R 3431   5.500  -0.006   5.250 -0.1018  0.0016 -0.8014
   27DOPE  H17S 3432   5.452  -0.153   5.346 -1.2972 -1.1938 -2.3420
   27DOPE  C218 3433   5.564  -0.198   5.173 -0.3335  0.1173 -0.5769
   27DOPE  H18R 3434   5.585  -0.297   5.218 -0.2297  0.9167  1.2296
   27DOPE  H18S 3435   5.653  -0.166   5.115  1.0853 -0.6375  1.0759
   27DOPE  H18T 3436   5.471  -0.213   5.114 -0.3884 -1.5958 -0.0916
   27DOPE   C33 3437   5.860   0.178   6.580 -0.5876 -0.5931  0.5805
   27DOPE   H3X 3438   5.948   0.240   6.609 -0.8313  2.2580 -3.8342
   27DOPE   H3Y 3439   5.796   0.254   6.531  1.0967  0.5478  0.0658
   27DOPE   C34 3440   5.905   0.066   6.481  0.0321 -0.5675  0.6126
   27DOPE   H4X 3441   5.990   0.102   6.418  1.4424 -2.9668  1.0541
   27DOPE   H4Y 3442   5.941  -0.024   6.533  1.0861 -1.2241 -1.1609
   27DOPE   C35 3443   5.790   0.001   6.402 -0.5531 -0.1564  0.4288
   27DOPE   H5X 3444   5.742   0.082   6.343 -0.0223 -0.2910 -0.2062
   27DOPE   H5Y 3445   5.702  -0.043   6.453 -1.9755  0.6694 -1.2004
   27DOPE   C36 3446   5.844  -0.106   6.302 -0.0193 -0.4208 -0.3767
   27DOPE   H6X 3447   5.940  -0.067   6.263 -0.5295  1.1544 -0.1463
   27DOPE   H6Y 3448   5.781  -0.114   6.211  1.9504  0.3836 -1.8712
   27DOPE   C37 3449   5.856  -0.233   6.382  0.3429  0.7390 -0.4174
   27DOPE   H7X 3450   5.930  -0.216   6.463 -0.8273  1.5518  0.5073
   27DOPE   H7Y 3451   5.766  -0.258   6.443  0.4146  1.0985 -0.1668
   27DOPE   C38 3452   5.877  -0.359   6.293 -0.8055  0.1592  0.5577
   27DOPE   H8X 3453   5.937  -0.338   6.203 -1.2657 -0.2130  0.1580
   27DOPE   H8Y 3454   5.778  -0.392   6.255 -0.5795 -0.3944  0.4358
   27DOPE   C39 3455   5.954  -0.468   6.356  0.5508  0.2055 -0.0377
   27DOPE   H9X 3456   6.063  -0.458   6.359  0.8090 -2.0861  0.4125
   27DOPE  C310 3457   5.890  -0.575   6.408 -0.4560  0.5835  0.3796
   27DOPE  H10X 3458   5.947  -0.659   6.451 -0.6918  1.1087  1.7611
   27DOPE  C311 3459   5.745  -0.609   6.426 -0.1947 -0.6214 -0.3760
   27DOPE  H11X 3460   5.729  -0.618   6.535 -0.7394 -0.4099 -0.4359
   27DOPE  H11Y 3461   5.673  -0.533   6.389  2.0763  2.1548  0.5048
   27DOPE  C312 3462   5.722  -0.751   6.377  0.3443  0.3753  0.6615
   27DOPE  H12X 3463   5.620  -0.778   6.410  1.2963 -0.9471  2.7409
   27DOPE  H12Y 3464   5.796  -0.828   6.407  0.4826 -0.6260 -2.0439
   27DOPE  C313 3465   5.718  -0.762   6.217  0.1027  0.2432 -0.8680
   27DOPE  H13X 3466   5.660  -0.677   6.176 -1.5661 -0.2184  0.4017
   27DOPE  H13Y 3467   5.823  -0.756   6.180 -0.1092  2.6006 -1.2638
   27DOPE  C314 3468   5.657  -0.895   6.175 -0.2713 -0.5534 -0.4760
   27DOPE  H14X 3469   5.567  -0.919   6.236  1.2481 -0.0505  2.1079
   27DOPE  H14Y 3470   5.730  -0.973   6.207  1.4419  1.5860  1.0849
   27DOPE  C315 3471   5.620  -0.893   6.030  0.1587  0.4873  0.7007
   27DOPE  H15X 3472   5.713  -0.863   5.977  2.8991  0.7391  5.1406
   27DOPE  H15Y 3473   5.540  -0.824   5.995  0.2885  1.1319  1.6340
   27DOPE  C316 3474   5.568  -1.034   5.984  0.3957 -0.6411 -0.4922
   27DOPE  H16X 3475   5.470  -1.012   5.935  0.1962 -0.2692  0.0712
   27DOPE  H16Y 3476   5.550  -1.102   6.070 -1.8854  1.7058  1.0151
   27DOPE  C317 3477   5.655  -1.090   5.866  0.0220  0.5995  0.2233
   27DOPE  H17X 3478   5.640  -1.016   5.785  0.1205  2.1607  1.5813
   27DOPE  H17Y 3479   5.760  -1.084   5.900  0.2841  0.2903 -0.5196
   27DOPE  C318 3480   5.622  -1.228   5.822  0.3946  0.5917  0.0956
   27DOPE  H18X 3481   5.520  -1.226   5.778  0.4936 -0.0459 -0.1796
   27DOPE  H18Y 3482   5.683  -1.267   5.738  0.2588  1.4709 -0.4164
   27DOPE  H18Z 3483   5.622  -1.285   5.917 -0.6908  0.6906  0.1692
   28DOPE     N 3484   6.814   6.748   6.791  0.3868 -0.0721 -0.0125
   28DOPE   HN1 3485   6.820   6.661   6.735  0.5717  0.5262 -0.9398
   28DOPE   HN2 3486   6.898   6.746   6.853 -0.3352  1.9462  1.1433
   28DOPE   HN3 3487   6.733   6.742   6.856  1.5918 -1.3867  1.4761
   28DOPE   C12 3488   6.808   6.872   6.703 -0.7128 -0.1740 -0.9754
   28DOPE  H12A 3489   6.705   6.871   6.659 -1.4042 -1.0002  0.5712
   28DOPE  H12B 3490   6.889   6.854   6.629 -2.4529 -0.4205 -2.9346
   28DOPE   C11 3491   6.832   7.001   6.781  0.2256  0.2175 -0.8336
   28DOPE  H11A 3492   6.733   7.033   6.820 -0.1565 -0.5900 -1.1126
   28DOPE  H11B 3493   6.864   7.074   6.703  3.0020 -0.9097 -0.8448
   28DOPE     P 3494   7.071   7.033   6.877  0.4098  0.2236 -0.0323
   28DOPE   O13 3495   7.164   6.940   6.941  0.2012  0.0084  1.0122
   28DOPE   O14 3496   7.090   7.172   6.922 -0.4894 -0.0393 -0.6124
   28DOPE   O11 3497   7.097   7.029   6.714  0.3905  0.2901 -0.3583
   28DOPE   O12 3498   6.918   6.987   6.894 -0.2143 -0.6512 -0.4387
   28DOPE    C1 3499   7.215   7.092   6.671 -0.5682 -0.0519 -0.2444
   28DOPE    HA 3500   7.297   7.106   6.744  0.9438  0.7536 -2.0063
   28DOPE    HB 3501   7.186   7.198   6.652 -1.0789  0.1348  1.4335
   28DOPE    C2 3502   7.281   7.019   6.546  0.7838  0.1142  0.2007
   28DOPE    HS 3503   7.390   7.013   6.562  0.9898  1.6803 -0.4165
   28DOPE   O21 3504   7.237   7.095   6.435 -0.1180 -0.2193  0.5384
   28DOPE   C21 3505   7.303   7.199   6.407  0.6951  0.0019  0.0682
   28DOPE   O22 3506   7.390   7.252   6.471 -0.6227 -0.0576 -0.4826
   28DOPE   C22 3507   7.253   7.252   6.271  0.6948  0.1212  0.4352
   28DOPE   H2R 3508   7.207   7.353   6.280 -1.6659 -0.7337 -1.1731
   28DOPE   H2S 3509   7.174   7.186   6.229  1.3192  0.2975 -1.0654
   28DOPE    C3 3510   7.223   6.873   6.532  0.0202 -0.2607  0.0761
   28DOPE    HX 3511   7.114   6.882   6.511  0.4093  1.5624 -1.4626
   28DOPE    HY 3512   7.229   6.824   6.631 -0.6612 -2.4037 -0.8848
   28DOPE   O31 3513   7.300   6.801   6.432  0.1760 -0.2392  0.1510
   28DOPE   C31 3514   7.413   6.738   6.472  0.2388 -0.6125 -0.1382
   28DOPE   O32 3515   7.443   6.733   6.588  0.0809  0.0827 -0.2288
   28DOPE   C32 3516   7.482   6.664   6.352 -0.5959 -0.2097 -0.2490
   28DOPE   H2X 3517   7.592   6.681   6.356 -0.3392 -1.8333  0.4243
   28DOPE   H2Y 3518   7.469   6.558   6.384 -0.6630  0.4821  2.2575
   28DOPE   C23 3519   7.359   7.281   6.163 -0.4346 -0.1880  0.2916
   28DOPE   H3R 3520   7.445   7.342   6.199 -0.3244  0.7702 -1.4466
   28DOPE   H3S 3521   7.317   7.345   6.082 -0.0827 -1.7657 -1.2014
   28DOPE   C24 3522   7.406   7.151   6.094 -0.2626 -0.1888 -0.0735
   28DOPE   H4R 3523   7.317   7.098   6.054  0.3928 -1.3608 -0.0462
   28DOPE   H4S 3524   7.451   7.088   6.174  0.8365 -0.7741 -1.1108
   28DOPE   C25 3525   7.501   7.181   5.973 -0.7825 -0.4234  0.4463
   28DOPE   H5R 3526   7.609   7.167   5.998 -0.5014 -0.4697 -0.7018
   28DOPE   H5S 3527   7.494   7.289   5.946 -0.1864 -0.2593  0.9106
   28DOPE   C26 3528   7.475   7.096   5.853  1.2875 -0.0929  0.3976
   28DOPE   H6R 3529   7.442   6.995   5.888 -0.6240 -0.2333 -1.5904
   28DOPE   H6S 3530   7.563   7.073   5.789  2.5527  4.2989  0.2841
   28DOPE   C27 3531   7.353   7.151   5.775 -0.3908  0.3511  0.0653
   28DOPE   H7R 3532   7.350   7.261   5.762 -1.8188  0.4623  1.0672
   28DOPE   H7S 3533   7.262   7.124   5.834  0.2069 -1.1064  0.3626
   28DOPE   C28 3534   7.342   7.090   5.635  0.0168  0.3872  0.4938
   28DOPE   H8R 3535   7.241   7.106   5.592  0.1279  1.3484  0.5621
   28DOPE   H8S 3536   7.353   6.982   5.656 -0.9208  0.4199  1.2440
   28DOPE   C29 3537   7.449   7.140   5.535 -0.0948 -0.2372  0.2391
   28DOPE   H9R 3538   7.554   7.126   5.563 -0.1401  0.8028  0.9858
   28DOPE  C210 3539   7.429   7.183   5.410  0.1611  0.4493  0.4310
   28DOPE  H10R 3540   7.518   7.210   5.350  0.3614 -0.5195  0.2642
   28DOPE  C211 3541   7.301   7.201   5.337  0.2980 -0.7127 -0.5387
   28DOPE  H11R 3542   7.305   7.280   5.259 -0.3465  0.0522  0.1969
   28DOPE  H11S 3543   7.233   7.234   5.418 -0.1741  0.2211 -1.3016
   28DOPE  C212 3544   7.237   7.071   5.285  0.1118  0.1948 -0.6562
   28DOPE  H12R 3545   7.223   6.995   5.365 -1.2011  1.3748  0.2845
   28DOPE  H12S 3546   7.299   7.027   5.205 -0.0642 -0.6564 -0.3281
   28DOPE  C213 3547   7.102   7.099   5.217  0.1679  0.3973  1.6861
   28DOPE  H13R 3548   7.087   7.201   5.176 -0.2854  0.3029  1.6071
   28DOPE  H13S 3549   7.027   7.092   5.299  0.4297  0.8354  1.9636
   28DOPE  C214 3550   7.071   6.992   5.101 -0.3239 -0.7983 -0.8621
   28DOPE  H14R 3551   7.090   6.888   5.135 -0.7969 -0.4011  0.6994
   28DOPE  H14S 3552   7.150   7.007   5.024  0.2317 -0.0948 -0.1697
   28DOPE  C215 3553   6.939   7.003   5.021 -0.5567  0.0475 -1.1895
   28DOPE  H15R 3554   6.922   7.109   4.993 -1.0421  0.6596  1.2483
   28DOPE  H15S 3555   6.864   6.974   5.097 -0.0548  0.8152 -0.3860
   28DOPE  C216 3556   6.932   6.910   4.896 -0.3322  0.1373  0.1027
   28DOPE  H16R 3557   6.952   6.807   4.932  1.9503  1.0939  1.8272
   28DOPE  H16S 3558   7.021   6.938   4.836 -0.7938 -0.4381 -0.8586
   28DOPE  C217 3559   6.808   6.925   4.814  0.5833  0.5726 -0.0571
   28DOPE  H17R 3560   6.818   6.859   4.725  0.2591  1.4983 -0.8093
   28DOPE  H17S 3561   6.796   7.033   4.788  0.9357  0.6892  0.2447
   28DOPE  C218 3562   6.683   6.879   4.889  0.5663 -0.2977  0.1451
   28DOPE  H18R 3563   6.663   6.931   4.985 -0.3317 -0.9133  0.3122
   28DOPE  H18S 3564   6.676   6.771   4.913 -0.4701 -0.0382  1.0914
   28DOPE  H18T 3565   6.593   6.908   4.830  0.5428  0.6044  0.6056
   28DOPE   C33 3566   7.422   6.685   6.208 -0.5578 -0.2785 -0.3654
   28DOPE   H3X 3567   7.413   6.793   6.187  0.0518 -0.2491 -0.5022
   28DOPE   H3Y 3568   7.316   6.652   6.212 -0.8092  0.6251  1.3854
   28DOPE   C34 3569   7.509   6.610   6.112  0.1108 -0.0903 -0.5755
   28DOPE   H4X 3570   7.615   6.635   6.131 -0.0489  1.5621 -1.6569
   28DOPE   H4Y 3571   7.508   6.499   6.123 -0.1203  0.1263  2.3580
   28DOPE   C35 3572   7.497   6.653   5.965 -0.2019 -0.2893  0.3811
   28DOPE   H5X 3573   7.576   6.602   5.906  0.6751 -1.0772  2.1391
   28DOPE   H5Y 3574   7.515   6.763   5.963 -1.0590 -0.1585 -0.6180
   28DOPE   C36 3575   7.369   6.607   5.900  0.7601  0.6650 -0.3068
   28DOPE   H6X 3576   7.282   6.614   5.969  1.4021 -2.0339  0.8895
   28DOPE   H6Y 3577   7.379   6.498   5.881  0.0428  0.3509  1.0020
   28DOPE   C37 3578   7.352   6.676   5.763  0.4589  0.0814 -0.5382
   28DOPE   H7X 3579   7.248   6.656   5.730  1.2093 -0.8689 -2.4488
   28DOPE   H7Y 3580   7.347   6.786   5.777 -0.7001  0.1985 -1.7058
   28DOPE   C38 3581   7.458   6.626   5.667 -0.0748 -0.2771  0.3701
   28DOPE   H8X 3582   7.403   6.564   5.593  0.6500  2.0094 -2.2412
   28DOPE   H8Y 3583   7.519   6.549   5.719  1.2584  0.1786 -0.4448
   28DOPE   C39 3584   7.535   6.735   5.591  0.0091 -1.0306  0.1872
   28DOPE   H9X 3585   7.521   6.843   5.603  1.6530 -0.8078  0.3070
   28DOPE  C310 3586   7.648   6.701   5.517  0.5719 -0.2052  0.0232
   28DOPE  H10X 3587   7.707   6.773   5.458 -0.2230 -0.7384 -1.4677
   28DOPE  C311 3588   7.677   6.563   5.491 -0.4256  0.0688  0.1218
   28DOPE  H11X 3589   7.710   6.508   5.582 -1.7313 -2.6707 -0.9363
   28DOPE  H11Y 3590   7.589   6.503   5.458 -0.7105 -0.3719  1.6219
   28DOPE  C312 3591   7.796   6.532   5.399  0.1947  0.0426 -0.3354
   28DOPE  H12X 3592   7.892   6.584   5.419  0.7027 -1.8805  3.3246
   28DOPE  H12Y 3593   7.751   6.562   5.303 -0.0197  1.4226  0.1758
   28DOPE  C313 3594   7.831   6.384   5.395  0.3250 -0.1318  0.0427
   28DOPE  H13X 3595   7.827   6.339   5.496 -3.3436 -0.6508 -0.1861
   28DOPE  H13Y 3596   7.738   6.344   5.348 -0.2644  1.6651 -0.3985
   28DOPE  C314 3597   7.954   6.356   5.307 -1.2699 -0.1451  0.6010
   28DOPE  H14X 3598   8.044   6.374   5.371 -1.0804  2.0952 -0.2175
   28DOPE  H14Y 3599   7.953   6.436   5.230  1.4810 -0.5577  0.0131
   28DOPE  C315 3600   7.956   6.219   5.243  0.2881 -0.6285 -0.0145
   28DOPE  H15X 3601   7.862   6.204   5.187  0.1158 -2.9895  0.8223
   28DOPE  H15Y 3602   7.952   6.129   5.308  1.6122 -0.9945 -0.4116
   28DOPE  C316 3603   8.073   6.184   5.152  0.2678  0.0269  0.1827
   28DOPE  H16X 3604   8.056   6.085   5.104 -1.4271  1.1069 -1.5884
   28DOPE  H16Y 3605   8.159   6.165   5.220  0.1095 -2.6981 -0.2439
   28DOPE  C317 3606   8.118   6.283   5.046  0.1996 -0.3666  0.5365
   28DOPE  H17X 3607   8.040   6.328   4.982  1.5842 -0.1191 -1.0367
   28DOPE  H17Y 3608   8.168   6.365   5.101 -0.8617  1.5386 -1.2323
   28DOPE  C318 3609   8.221   6.232   4.945  0.2095  0.6648  0.0850
   28DOPE  H18X 3610   8.168   6.161   4.877  0.0005  1.9915 -1.1976
   28DOPE  H18Y 3611   8.254   6.304   4.867 -0.5832  0.2476 -0.6609
   28DOPE  H18Z 3612   8.308   6.183   4.993 -0.0873 -0.2881 -0.3308
   29DOPE     N 3613   6.933   1.468   6.816  0.0074 -0.4381  0.3121
   29DOPE   HN1 3614   7.017   1.515   6.777 -0.9464 -0.6932 -2.2144
   29DOPE   HN2 3615   6.945   1.365   6.805 -1.5726 -0.6210  0.1029
   29DOPE   HN3 3616   6.850   1.505   6.766 -1.4239 -2.5309  0.9924
   29DOPE   C12 3617   6.910   1.475   6.961 -0.7447  0.3172 -0.1111
   29DOPE  H12A 3618   6.801   1.460   6.977 -0.5624  0.2455  1.1511
   29DOPE  H12B 3619   6.934   1.576   7.002  1.1934  0.6160 -1.8206
   29DOPE   C11 3620   7.005   1.367   7.029 -0.4975  0.2848  0.1517
   29DOPE  H11A 3621   7.015   1.379   7.139  2.0809  1.5508 -0.1192
   29DOPE  H11B 3622   7.105   1.404   6.996 -1.2177  0.5638 -1.8962
   29DOPE     P 3623   6.863   1.148   7.006 -0.0138  0.3321  0.0563
   29DOPE   O13 3624   6.830   1.169   7.149  0.0536  0.2637  0.2295
   29DOPE   O14 3625   6.885   1.009   6.965 -0.0714  0.3057  0.0286
   29DOPE   O11 3626   6.766   1.217   6.915  0.1912 -0.0917 -0.0691
   29DOPE   O12 3627   6.986   1.241   6.968 -0.6775  0.3024  0.4510
   29DOPE    C1 3628   6.623   1.186   6.921 -0.4828  0.5683 -0.2226
   29DOPE    HA 3629   6.574   1.266   6.861  0.6782  0.4817 -1.3292
   29DOPE    HB 3630   6.590   1.180   7.027  1.2310  1.8666  0.4392
   29DOPE    C2 3631   6.582   1.051   6.855  0.1607 -0.3622 -0.7283
   29DOPE    HS 3632   6.625   0.974   6.923  0.7177  0.3282 -0.2831
   29DOPE   O21 3633   6.644   1.044   6.719 -0.4977 -0.2596  0.0295
   29DOPE   C21 3634   6.651   0.925   6.665  0.2383 -0.2644 -0.1248
   29DOPE   O22 3635   6.606   0.827   6.723  0.7720 -0.7240 -0.1199
   29DOPE   C22 3636   6.732   0.938   6.536 -0.0723 -0.1745 -0.4226
   29DOPE   H2R 3637   6.823   0.876   6.545  0.6735  0.9069 -0.2726
   29DOPE   H2S 3638   6.765   1.043   6.522  0.9761 -0.6480 -1.7687
   29DOPE    C3 3639   6.424   1.033   6.841 -0.0809  0.4555 -0.2104
   29DOPE    HX 3640   6.365   1.062   6.931 -1.4706 -4.0051  0.5811
   29DOPE    HY 3641   6.414   0.923   6.838  0.7999  0.3883 -1.6881
   29DOPE   O31 3642   6.382   1.090   6.714  0.2871 -0.3156  0.1314
   29DOPE   C31 3643   6.307   1.206   6.710 -0.4416 -0.0115  0.1819
   29DOPE   O32 3644   6.275   1.268   6.811  0.2195  0.1988  0.4972
   29DOPE   C32 3645   6.274   1.247   6.567 -0.0921  0.0873 -0.0326
   29DOPE   H2X 3646   6.343   1.327   6.532  0.8385 -0.8092 -0.2722
   29DOPE   H2Y 3647   6.282   1.158   6.502 -0.6774  0.2534 -0.3367
   29DOPE   C23 3648   6.666   0.912   6.402  0.0480  0.1555 -0.1801
   29DOPE   H3R 3649   6.612   0.815   6.402 -2.7697  1.5999  0.1219
   29DOPE   H3S 3650   6.747   0.908   6.326  0.5403  3.5288  0.0001
   29DOPE   C24 3651   6.558   1.016   6.365  0.1800 -0.0222  0.4848
   29DOPE   H4R 3652   6.600   1.118   6.377 -0.8913  0.3436  1.2546
   29DOPE   H4S 3653   6.470   0.990   6.428 -0.3908 -2.1778 -1.0898
   29DOPE   C25 3654   6.527   1.024   6.209 -0.1636 -0.2654 -0.0145
   29DOPE   H5R 3655   6.628   1.041   6.165 -0.4510  0.1963 -0.5135
   29DOPE   H5S 3656   6.480   1.124   6.199 -1.1480 -0.3215  3.0266
   29DOPE   C26 3657   6.445   0.919   6.140 -0.4593  0.3221  0.1320
   29DOPE   H6R 3658   6.340   0.931   6.173 -1.4134 -0.4284 -2.4137
   29DOPE   H6S 3659   6.478   0.815   6.160  0.0938  0.6399  0.9460
   29DOPE   C27 3660   6.450   0.929   5.988  0.5019  0.1875  0.0507
   29DOPE   H7R 3661   6.547   0.883   5.960 -0.2836 -0.6188 -1.4517
   29DOPE   H7S 3662   6.434   1.027   5.939 -3.2122 -0.5601 -0.5439
   29DOPE   C28 3663   6.336   0.842   5.923  0.2782  0.5022  0.6171
   29DOPE   H8R 3664   6.244   0.895   5.957 -1.1963 -1.2730 -0.4120
   29DOPE   H8S 3665   6.338   0.743   5.974  0.5475  0.0538 -0.2404
   29DOPE   C29 3666   6.349   0.818   5.773  0.1997 -0.5879  0.5059
   29DOPE   H9R 3667   6.451   0.837   5.739 -0.0827  0.5318  0.2440
   29DOPE  C210 3668   6.246   0.789   5.683 -0.4911  1.0498  0.3572
   29DOPE  H10R 3669   6.261   0.765   5.577 -2.2188 -0.5244  0.4166
   29DOPE  C211 3670   6.106   0.765   5.727 -0.1181  0.1400 -0.1808
   29DOPE  H11R 3671   6.064   0.857   5.680  0.5826  0.9207  0.6711
   29DOPE  H11S 3672   6.094   0.768   5.837 -0.2498 -0.3719 -0.1792
   29DOPE  C212 3673   6.040   0.639   5.669 -0.3071  0.6146 -0.0595
   29DOPE  H12R 3674   6.080   0.542   5.706 -2.1491  0.2963  1.2762
   29DOPE  H12S 3675   6.038   0.648   5.559 -2.5245 -0.2261 -0.1528
   29DOPE  C213 3676   5.885   0.650   5.685 -0.1110  0.1413 -0.4954
   29DOPE  H13R 3677   5.860   0.754   5.657  0.9981  0.6584  0.3446
   29DOPE  H13S 3678   5.852   0.619   5.787 -3.0904  0.7972 -1.1698
   29DOPE  C214 3679   5.805   0.573   5.582  0.3558 -1.1633  0.3284
   29DOPE  H14R 3680   5.829   0.464   5.588  1.1601 -1.1928 -2.2137
   29DOPE  H14S 3681   5.828   0.609   5.479  0.8731 -0.1574  0.7850
   29DOPE  C215 3682   5.653   0.588   5.606 -0.2143  0.2188  0.2529
   29DOPE  H15R 3683   5.636   0.544   5.707  2.2444 -0.0798  0.5996
   29DOPE  H15S 3684   5.601   0.518   5.537  1.5231 -0.5108 -0.3636
   29DOPE  C216 3685   5.594   0.731   5.611  0.2121  0.0207 -0.0201
   29DOPE  H16R 3686   5.616   0.781   5.515  0.4040  0.7585  0.4019
   29DOPE  H16S 3687   5.646   0.787   5.692  2.1544 -0.1839 -1.0698
   29DOPE  C217 3688   5.446   0.739   5.652  0.9022  0.9177  0.3817
   29DOPE  H17R 3689   5.439   0.845   5.683  0.2323  1.6865 -2.1646
   29DOPE  H17S 3690   5.424   0.676   5.741 -4.3717  0.4875 -0.8922
   29DOPE  C218 3691   5.345   0.704   5.539 -0.7692 -0.1189 -0.5499
   29DOPE  H18R 3692   5.334   0.593   5.534 -1.0067 -0.2112  1.2750
   29DOPE  H18S 3693   5.372   0.751   5.443 -0.3707  1.7316  0.4158
   29DOPE  H18T 3694   5.245   0.748   5.560 -1.4232 -1.0429 -1.5977
   29DOPE   C33 3695   6.137   1.314   6.555  0.6956  0.4671 -0.4375
   29DOPE   H3X 3696   6.105   1.396   6.623 -0.7563  0.4057 -1.0181
   29DOPE   H3Y 3697   6.058   1.239   6.572 -0.9127  2.5001  1.7671
   29DOPE   C34 3698   6.121   1.385   6.429  0.0158  0.3541 -0.3959
   29DOPE   H4X 3699   6.013   1.412   6.427 -0.8152 -2.4323  1.0731
   29DOPE   H4Y 3700   6.193   1.469   6.440  0.9103 -0.2444 -1.4846
   29DOPE   C35 3701   6.151   1.297   6.307  0.4093  0.0357  0.3433
   29DOPE   H5X 3702   6.103   1.198   6.318 -0.7698  0.6036  0.5522
   29DOPE   H5Y 3703   6.260   1.280   6.303  0.2596 -0.6963 -1.1857
   29DOPE   C36 3704   6.106   1.370   6.180 -0.1346  0.2565  0.9293
   29DOPE   H6X 3705   6.180   1.450   6.157 -0.0113  0.0215  0.4971
   29DOPE   H6Y 3706   6.018   1.435   6.200 -0.1873  0.7712 -0.7746
   29DOPE   C37 3707   6.069   1.288   6.061 -0.0931 -0.4405  0.5439
   29DOPE   H7X 3708   5.976   1.229   6.080  0.7240 -1.8153  0.3911
   29DOPE   H7Y 3709   6.049   1.365   5.983  2.2132  1.7367  1.9434
   29DOPE   C38 3710   6.178   1.197   6.010  0.1427 -0.2986 -0.0327
   29DOPE   H8X 3711   6.137   1.143   5.922 -0.0861  1.0079 -0.7489
   29DOPE   H8Y 3712   6.206   1.136   6.098  1.2968  0.8692  0.4403
   29DOPE   C39 3713   6.297   1.276   5.960  0.6484  0.1365 -0.6100
   29DOPE   H9X 3714   6.337   1.350   6.032  0.4408 -1.2238  0.9755
   29DOPE  C310 3715   6.351   1.270   5.834 -0.3387  0.1118  0.5276
   29DOPE  H10X 3716   6.434   1.338   5.808  1.0775 -2.2656 -1.6613
   29DOPE  C311 3717   6.307   1.178   5.722 -0.2095  0.5425 -0.3825
   29DOPE  H11X 3718   6.382   1.174   5.640  0.3389  4.4434 -0.2623
   29DOPE  H11Y 3719   6.281   1.078   5.764 -2.0891  1.1783  0.0675
   29DOPE  C312 3720   6.177   1.224   5.650  0.6601  0.0953 -0.7142
   29DOPE  H12X 3721   6.114   1.257   5.736  2.0216  1.2307 -0.1211
   29DOPE  H12Y 3722   6.129   1.136   5.601 -1.1570  2.4010 -3.4409
   29DOPE  C313 3723   6.180   1.344   5.562 -0.5405 -0.6497  0.6192
   29DOPE  H13X 3724   6.222   1.431   5.618  0.1512 -1.2697  1.0805
   29DOPE  H13Y 3725   6.243   1.330   5.471  0.4310  1.2325  0.9507
   29DOPE  C314 3726   6.041   1.376   5.501 -0.3311 -0.0875 -0.1470
   29DOPE  H14X 3727   6.005   1.286   5.447 -0.1944 -0.1017 -0.2137
   29DOPE  H14Y 3728   6.058   1.462   5.433 -0.2881  0.0551  0.0437
   29DOPE  C315 3729   5.934   1.419   5.594  0.5928 -0.5097 -0.6838
   29DOPE  H15X 3730   5.984   1.497   5.655 -0.7000  0.8755 -1.3335
   29DOPE  H15Y 3731   5.911   1.338   5.667  1.9427 -1.3724 -1.1796
   29DOPE  C316 3732   5.815   1.483   5.520 -0.2762  0.6479 -1.2943
   29DOPE  H16X 3733   5.776   1.423   5.436 -1.5698 -0.0020 -0.2709
   29DOPE  H16Y 3734   5.853   1.582   5.488  2.8839  0.9707  2.6027
   29DOPE  C317 3735   5.700   1.508   5.616 -0.1617 -0.6899  0.3159
   29DOPE  H17X 3736   5.659   1.412   5.654  0.1961 -0.1791  2.0686
   29DOPE  H17Y 3737   5.734   1.562   5.707 -1.9690  0.3751  0.4047
   29DOPE  C318 3738   5.588   1.574   5.537 -0.5992 -0.0633 -0.4113
   29DOPE  H18X 3739   5.511   1.615   5.606  1.1508  0.1957  1.4905
   29DOPE  H18Y 3740   5.641   1.662   5.495  0.6723  0.2098  1.6069
   29DOPE  H18Z 3741   5.552   1.507   5.456  2.8831  0.1909 -2.3761
   30DOPE     N 3742   0.042   0.317   7.113  1.1432  0.2483  0.2851
   30DOPE   HN1 3743   0.059   0.243   7.042 -0.4178 -0.1685  0.3078
   30DOPE   HN2 3744   0.106   0.398   7.102  1.1480  0.3682  1.1346
   30DOPE   HN3 3745   0.047   0.278   7.209  0.2021 -1.3950 -0.3024
   30DOPE   C12 3746  -0.098   0.354   7.072 -1.1863  0.3918 -0.5651
   30DOPE  H12A 3747  -0.088   0.392   6.968  0.4563 -0.6917 -0.8319
   30DOPE  H12B 3748  -0.137   0.431   7.143  3.9673  1.2649  1.8286
   30DOPE   C11 3749  -0.191   0.233   7.096  0.1688  0.0506  0.5881
   30DOPE  H11A 3750  -0.286   0.262   7.046  0.3149  1.2127  0.9534
   30DOPE  H11B 3751  -0.209   0.221   7.205  2.0005 -0.1943  0.8874
   30DOPE     P 3752  -0.213  -0.019   7.007  0.6597 -0.0524 -0.4185
   30DOPE   O13 3753  -0.342  -0.024   7.076 -0.0571 -0.1361  0.0677
   30DOPE   O14 3754  -0.111  -0.121   7.026 -0.2687  0.7790 -0.3360
   30DOPE   O11 3755  -0.245  -0.013   6.856  0.1195 -0.5200 -0.1222
   30DOPE   O12 3756  -0.138   0.113   7.038 -0.4233 -0.4633  0.2570
   30DOPE    C1 3757  -0.158   0.044   6.758 -0.5571  0.2421  0.1560
   30DOPE    HA 3758  -0.170  -0.010   6.662  1.5788 -1.4994  0.7688
   30DOPE    HB 3759  -0.050   0.052   6.787 -0.5017  2.8152 -0.5291
   30DOPE    C2 3760  -0.215   0.182   6.722 -0.2723  0.5451  0.0681
   30DOPE    HS 3761  -0.213   0.232   6.821 -2.1881 -0.3296  0.5923
   30DOPE   O21 3762  -0.347   0.154   6.680  0.3928  0.0457 -0.3138
   30DOPE   C21 3763  -0.424   0.257   6.685 -0.0102  0.6595  0.8506
   30DOPE   O22 3764  -0.401   0.357   6.744  0.0083 -1.0436  0.0663
   30DOPE   C22 3765  -0.559   0.210   6.621  0.2836  0.9993 -0.6453
   30DOPE   H2R 3766  -0.637   0.286   6.604 -0.7342 -0.2651 -1.9502
   30DOPE   H2S 3767  -0.591   0.121   6.679  1.2528  0.5153 -0.8241
   30DOPE    C3 3768  -0.141   0.248   6.604 -0.0167 -0.6206  0.4729
   30DOPE    HX 3769  -0.032   0.243   6.626  0.6876  1.4022 -2.0205
   30DOPE    HY 3770  -0.173   0.354   6.595  3.1518  0.2785 -3.0174
   30DOPE   O31 3771  -0.174   0.184   6.483 -0.3418 -0.4402  0.4022
   30DOPE   C31 3772  -0.109   0.242   6.373  0.3136  0.2148  0.1570
   30DOPE   O32 3773  -0.035   0.335   6.381 -0.1983 -0.3114 -0.3888
   30DOPE   C32 3774  -0.133   0.147   6.251  0.4212 -0.2793  0.3172
   30DOPE   H2X 3775  -0.068   0.058   6.266  0.7738 -0.4555 -1.9271
   30DOPE   H2Y 3776  -0.239   0.112   6.257  0.0582  0.9886  2.1034
   30DOPE   C23 3777  -0.518   0.163   6.475  0.8093 -0.3962 -0.1318
   30DOPE   H3R 3778  -0.516   0.052   6.472 -1.2145 -0.4703 -0.5369
   30DOPE   H3S 3779  -0.427   0.217   6.441  0.7623  1.0063  1.7909
   30DOPE   C24 3780  -0.633   0.201   6.375  0.0979 -0.2570  0.2568
   30DOPE   H4R 3781  -0.637   0.312   6.383  2.0962  0.0183 -1.7054
   30DOPE   H4S 3782  -0.734   0.160   6.398 -1.3267  2.5016 -0.6322
   30DOPE   C25 3783  -0.581   0.171   6.232 -0.7733  0.5499  0.6206
   30DOPE   H5R 3784  -0.587   0.061   6.219 -0.0420  0.4574  0.9876
   30DOPE   H5S 3785  -0.477   0.210   6.234 -1.0136  1.1802  1.2628
   30DOPE   C26 3786  -0.647   0.248   6.118  0.3472  0.0998 -0.1084
   30DOPE   H6R 3787  -0.585   0.261   6.026 -0.3190  1.2995 -0.4083
   30DOPE   H6S 3788  -0.667   0.350   6.157  0.1668 -0.2601  0.7553
   30DOPE   C27 3789  -0.789   0.191   6.096 -0.7620 -1.3370 -0.2172
   30DOPE   H7R 3790  -0.852   0.270   6.050 -0.5173  0.1933  1.9375
   30DOPE   H7S 3791  -0.829   0.150   6.191  0.4240  0.8099  1.2903
   30DOPE   C28 3792  -0.793   0.076   6.002 -0.1033  0.6166 -0.2825
   30DOPE   H8R 3793  -0.894   0.029   6.003 -0.1608  0.7306 -0.5405
   30DOPE   H8S 3794  -0.729  -0.005   6.042 -1.3098 -1.8632 -3.0445
   30DOPE   C29 3795  -0.756   0.111   5.855 -0.6214  0.6192  0.0808
   30DOPE   H9R 3796  -0.651   0.141   5.849  0.0227 -1.4280  0.3346
   30DOPE  C210 3797  -0.834   0.141   5.751 -0.0321 -0.1285 -0.1269
   30DOPE  H10R 3798  -0.786   0.176   5.659 -0.4744  1.7455  0.3145
   30DOPE  C211 3799  -0.980   0.108   5.754 -0.3456 -0.6607  0.0577
   30DOPE  H11R 3800  -1.044   0.183   5.703  2.1646  0.4169 -1.7479
   30DOPE  H11S 3801  -1.020   0.098   5.857  0.5808 -1.9429  0.3250
   30DOPE  C212 3802  -0.997  -0.028   5.676 -0.1580 -0.8962 -0.3307
   30DOPE  H12R 3803  -0.985  -0.116   5.743  0.7348  0.0214  0.7477
   30DOPE  H12S 3804  -0.925  -0.040   5.592  3.4940  0.9725  2.3026
   30DOPE  C213 3805  -1.140  -0.055   5.626  0.9890  0.1490 -0.2279
   30DOPE  H13R 3806  -1.170   0.034   5.567  0.8306  1.7269  2.1236
   30DOPE  H13S 3807  -1.202  -0.067   5.717 -2.6721 -1.4932 -2.6923
   30DOPE  C214 3808  -1.153  -0.182   5.536 -0.0295  0.1288  0.3999
   30DOPE  H14R 3809  -1.256  -0.221   5.552 -0.5488  0.7039 -1.3294
   30DOPE  H14S 3810  -1.084  -0.257   5.582 -0.3466 -0.9644 -0.8392
   30DOPE  C215 3811  -1.155  -0.160   5.381  0.0513 -0.1991 -0.1916
   30DOPE  H15R 3812  -1.057  -0.122   5.346  1.2849 -0.2827  2.8860
   30DOPE  H15S 3813  -1.230  -0.081   5.360  1.2684  1.7662  2.3835
   30DOPE  C216 3814  -1.171  -0.294   5.300 -0.1807 -0.3673 -0.2630
   30DOPE  H16R 3815  -1.144  -0.261   5.198 -0.6611  2.5171  0.4584
   30DOPE  H16S 3816  -1.278  -0.323   5.306  0.5679 -3.6862 -0.7134
   30DOPE  C217 3817  -1.078  -0.413   5.340 -0.0650 -0.4444 -0.8495
   30DOPE  H17R 3818  -1.093  -0.429   5.449 -0.2200 -2.3563 -1.1105
   30DOPE  H17S 3819  -0.975  -0.382   5.316  0.0841 -2.3863 -3.0849
   30DOPE  C218 3820  -1.113  -0.531   5.255  0.4628 -0.2414 -0.1349
   30DOPE  H18R 3821  -1.047  -0.619   5.270 -0.9460 -1.1649  0.9434
   30DOPE  H18S 3822  -1.117  -0.521   5.144 -1.9550 -1.1568 -0.1856
   30DOPE  H18T 3823  -1.206  -0.577   5.295 -0.5920  0.7815 -1.3065
   30DOPE   C33 3824  -0.118   0.211   6.103 -0.6374  0.5636  0.5848
   30DOPE   H3X 3825  -0.012   0.232   6.076 -0.5406 -0.0334  0.4817
   30DOPE   H3Y 3826  -0.163   0.312   6.113 -0.3729  0.7965 -0.4897
   30DOPE   C34 3827  -0.190   0.133   5.987  0.1414  0.2254  0.1084
   30DOPE   H4X 3828  -0.113   0.079   5.928  0.0147  0.0724  0.0847
   30DOPE   H4Y 3829  -0.258   0.057   6.031  2.5489 -2.1337  0.0348
   30DOPE   C35 3830  -0.270   0.218   5.889  0.0837 -0.3578 -0.0420
   30DOPE   H5X 3831  -0.198   0.280   5.830 -0.9530  0.2802 -0.6853
   30DOPE   H5Y 3832  -0.339   0.281   5.950 -1.2788 -2.1921  0.3944
   30DOPE   C36 3833  -0.373   0.140   5.800  0.9086  0.4001  0.1490
   30DOPE   H6X 3834  -0.428   0.221   5.748 -0.0288  0.0058  0.5120
   30DOPE   H6Y 3835  -0.446   0.095   5.871 -2.6244 -0.1527 -3.4551
   30DOPE   C37 3836  -0.308   0.041   5.704  0.5786  0.1437  0.3269
   30DOPE   H7X 3837  -0.253  -0.033   5.767 -1.2274 -0.7951  0.8687
   30DOPE   H7Y 3838  -0.398  -0.003   5.657 -0.4960  2.3468  0.2171
   30DOPE   C38 3839  -0.210   0.097   5.603 -0.6127  0.4001 -0.0013
   30DOPE   H8X 3840  -0.185   0.012   5.537  1.6996  0.3644  0.8360
   30DOPE   H8Y 3841  -0.115   0.119   5.657 -0.9130  0.6348  0.4426
   30DOPE   C39 3842  -0.254   0.215   5.521 -0.3996  0.5105 -0.4827
   30DOPE   H9X 3843  -0.344   0.265   5.561 -0.9435 -2.2034  2.0926
   30DOPE  C310 3844  -0.190   0.253   5.406  0.0880 -0.3766 -0.7848
   30DOPE  H10X 3845  -0.230   0.339   5.352 -1.3776 -2.1101 -2.6316
   30DOPE  C311 3846  -0.060   0.211   5.352 -0.5147  0.6239 -0.4882
   30DOPE  H11X 3847   0.022   0.238   5.422 -1.1332  1.2925 -0.0032
   30DOPE  H11Y 3848  -0.064   0.100   5.345  1.8923  0.5021 -0.6503
   30DOPE  C312 3849  -0.019   0.266   5.213  0.5866  0.2075 -0.6109
   30DOPE  H12X 3850  -0.104   0.261   5.142  1.6466 -2.7372 -1.8279
   30DOPE  H12Y 3851   0.060   0.201   5.170 -0.3484  0.4120 -2.8004
   30DOPE  C313 3852   0.048   0.408   5.220  0.0097  0.5850 -0.1855
   30DOPE  H13X 3853  -0.022   0.492   5.240  1.6588  1.2264  3.9833
   30DOPE  H13Y 3854   0.118   0.410   5.307  0.2052  1.3561 -0.3507
   30DOPE  C314 3855   0.131   0.450   5.100  0.1181 -0.2782  0.7255
   30DOPE  H14X 3856   0.066   0.491   5.020 -0.1786 -0.0895  1.0543
   30DOPE  H14Y 3857   0.185   0.363   5.060  0.2314  0.4547 -0.7639
   30DOPE  C315 3858   0.237   0.557   5.134  0.4272 -0.4114 -0.0338
   30DOPE  H15X 3859   0.313   0.511   5.200  1.6845  0.4514 -0.8399
   30DOPE  H15Y 3860   0.189   0.635   5.196  2.3566 -0.2725  1.3891
   30DOPE  C316 3861   0.295   0.619   5.004 -0.3011 -0.1583 -0.4157
   30DOPE  H16X 3862   0.369   0.699   5.025  0.5397 -1.3358  1.3438
   30DOPE  H16Y 3863   0.217   0.671   4.945  2.3056  2.0326 -2.2074
   30DOPE  C317 3864   0.361   0.528   4.907 -0.4419 -0.1313  0.4318
   30DOPE  H17X 3865   0.418   0.453   4.965 -0.9335 -0.7741  0.0966
   30DOPE  H17Y 3866   0.286   0.471   4.849  0.6727 -0.1844 -1.0238
   30DOPE  C318 3867   0.452   0.596   4.804 -0.2555 -0.1141  0.0882
   30DOPE  H18X 3868   0.515   0.668   4.860 -1.3540  0.0379  1.1901
   30DOPE  H18Y 3869   0.530   0.526   4.768  0.0561 -0.4396  1.3344
   30DOPE  H18Z 3870   0.402   0.634   4.713  2.5825  0.5396 -1.2921
   31DOPE     N 3871   1.536   3.076   3.065 -0.6282  0.1995 -0.3979
   31DOPE   HN1 3872   1.513   2.991   3.121  1.3278 -0.3368 -0.3514
   31DOPE   HN2 3873   1.639   3.076   3.049 -0.3628  1.0696  1.1713
   31DOPE   HN3 3874   1.516   3.162   3.119 -0.8074  0.7489 -1.3173
   31DOPE   C12 3875   1.441   3.080   2.947 -0.4772 -0.4758  0.2852
   31DOPE  H12A 3876   1.471   3.000   2.877 -1.0031 -0.2222 -0.2457
   31DOPE  H12B 3877   1.456   3.179   2.897  0.7270 -0.9344 -0.3023
   31DOPE   C11 3878   1.300   3.059   2.996  0.4108  0.5788 -0.6049
   31DOPE  H11A 3879   1.244   3.056   2.900 -1.1685  0.7677  0.2676
   31DOPE  H11B 3880   1.263   3.146   3.054 -1.9934 -0.7885  0.0401
   31DOPE     P 3881   1.136   2.899   3.143 -0.0972 -0.2049  0.1027
   31DOPE   O13 3882   1.107   2.754   3.140  0.2139 -0.4830  0.2883
   31DOPE   O14 3883   1.033   2.981   3.077  0.1380 -0.0482  0.3489
   31DOPE   O11 3884   1.151   2.958   3.288  0.1706 -0.2407  0.3638
   31DOPE   O12 3885   1.275   2.932   3.065  0.1555 -0.7611 -0.0666
   31DOPE    C1 3886   1.226   3.074   3.324 -0.6914 -0.2508 -0.0460
   31DOPE    HA 3887   1.204   3.163   3.261 -2.0489  0.3590  1.2407
   31DOPE    HB 3888   1.332   3.042   3.314 -0.4103 -0.0598  1.9694
   31DOPE    C2 3889   1.200   3.108   3.478  0.1299  0.5415  0.9909
   31DOPE    HS 3890   1.258   3.200   3.500  1.3139  0.2996 -0.9185
   31DOPE   O21 3891   1.233   2.993   3.557  0.0324  0.9120 -0.1413
   31DOPE   C21 3892   1.361   2.948   3.571  0.6464  0.6829 -0.3067
   31DOPE   O22 3893   1.459   3.013   3.538  0.0450 -0.2186  0.6846
   31DOPE   C22 3894   1.354   2.813   3.638 -0.0882 -0.0523 -0.1646
   31DOPE   H2R 3895   1.292   2.752   3.568 -1.5422 -0.9012  1.7898
   31DOPE   H2S 3896   1.290   2.822   3.728 -3.6609 -3.3574 -2.0491
   31DOPE    C3 3897   1.049   3.130   3.504  0.5361  0.0502  0.5127
   31DOPE    HX 3898   1.002   3.030   3.504  0.3862  0.0390 -2.2436
   31DOPE    HY 3899   1.008   3.179   3.414  0.2484 -1.1024 -0.0058
   31DOPE   O31 3900   1.041   3.212   3.617 -0.0095 -0.4096 -0.1123
   31DOPE   C31 3901   0.925   3.193   3.687  0.0183  0.3283 -0.7484
   31DOPE   O32 3902   0.837   3.111   3.658 -0.4982 -0.0210  0.6033
   31DOPE   C32 3903   0.928   3.273   3.817  0.2395 -0.1935 -0.2667
   31DOPE   H2X 3904   1.005   3.226   3.881  0.7328  0.8478 -0.0655
   31DOPE   H2Y 3905   0.962   3.374   3.785  0.1711 -0.9683 -3.0793
   31DOPE   C23 3906   1.486   2.738   3.671 -0.1225 -0.5990 -0.4188
   31DOPE   H3R 3907   1.557   2.736   3.585  0.9350 -0.6828  0.4345
   31DOPE   H3S 3908   1.455   2.636   3.703  1.1816 -1.1518 -0.8523
   31DOPE   C24 3909   1.566   2.806   3.782  0.0214  0.4218 -0.7377
   31DOPE   H4R 3910   1.600   2.908   3.752 -1.0967  1.6751  1.9105
   31DOPE   H4S 3911   1.666   2.759   3.790 -0.4083 -0.3288  0.5040
   31DOPE   C25 3912   1.507   2.808   3.921  0.4698 -0.0396 -1.8382
   31DOPE   H5R 3913   1.437   2.723   3.936  1.0653 -0.0193  2.2319
   31DOPE   H5S 3914   1.441   2.897   3.930  0.1818 -0.4281  0.5906
   31DOPE   C26 3915   1.607   2.796   4.040  0.8077  0.2119  0.4253
   31DOPE   H6R 3916   1.665   2.703   4.024  0.7859  0.0662  1.1586
   31DOPE   H6S 3917   1.545   2.789   4.132 -0.4827  1.7022 -0.2762
   31DOPE   C27 3918   1.696   2.927   4.043  0.0845 -0.4188 -0.3479
   31DOPE   H7R 3919   1.632   3.009   4.005  0.5989  0.0650 -0.1884
   31DOPE   H7S 3920   1.786   2.909   3.980 -0.3179  0.0520 -1.0661
   31DOPE   C28 3921   1.742   2.959   4.177 -0.1015  0.1214  0.8180
   31DOPE   H8R 3922   1.801   2.871   4.210 -1.7363 -2.6525 -2.8893
   31DOPE   H8S 3923   1.665   2.963   4.257  2.1195  0.4320  3.0556
   31DOPE   C29 3924   1.810   3.099   4.178  0.0863 -0.1324 -0.0404
   31DOPE   H9R 3925   1.865   3.128   4.088  0.3729 -1.1839 -0.2173
   31DOPE  C210 3926   1.809   3.190   4.285  0.3157 -0.1862  0.3068
   31DOPE  H10R 3927   1.863   3.284   4.269  0.5292 -0.4254 -0.4332
   31DOPE  C211 3928   1.741   3.176   4.417 -0.4552  0.5157  0.0874
   31DOPE  H11R 3929   1.682   3.083   4.429  0.5212 -0.0395  0.7293
   31DOPE  H11S 3930   1.665   3.257   4.426 -1.7697 -0.6386 -0.2663
   31DOPE  C212 3931   1.835   3.191   4.536  0.4910  0.0202 -0.5649
   31DOPE  H12R 3932   1.775   3.173   4.628  0.0242  1.4730 -0.5547
   31DOPE  H12S 3933   1.879   3.293   4.534  3.1232 -0.9618  1.4580
   31DOPE  C213 3934   1.962   3.103   4.527 -0.3952 -0.3980 -0.5526
   31DOPE  H13R 3935   1.998   3.121   4.423 -1.1038  2.5111 -0.3907
   31DOPE  H13S 3936   1.931   2.997   4.534  0.1265 -0.8175 -3.3248
   31DOPE  C214 3937   2.079   3.150   4.621  0.3028 -0.1229  0.2186
   31DOPE  H14R 3938   2.097   3.256   4.595 -1.9668  0.3749  0.4470
   31DOPE  H14S 3939   2.170   3.089   4.606 -0.8706 -1.3979 -2.5449
   31DOPE  C215 3940   2.043   3.137   4.767 -0.2381 -0.4019 -0.0878
   31DOPE  H15R 3941   2.014   3.034   4.797  2.7406 -1.2062  0.4003
   31DOPE  H15S 3942   1.949   3.192   4.786 -0.8735 -0.7203 -2.0781
   31DOPE  C216 3943   2.152   3.184   4.868  0.0215  0.2001  0.2267
   31DOPE  H16R 3944   2.115   3.189   4.973 -2.4274 -0.8703 -0.5093
   31DOPE  H16S 3945   2.185   3.285   4.835  0.1367 -0.1707 -0.8190
   31DOPE  C217 3946   2.278   3.090   4.875  0.3249  0.1082  0.3441
   31DOPE  H17R 3947   2.355   3.120   4.949  0.8222  0.3259 -0.2535
   31DOPE  H17S 3948   2.320   3.086   4.772 -0.5285  0.9959 -0.0630
   31DOPE  C218 3949   2.232   2.951   4.926  0.3085 -0.3103  0.1211
   31DOPE  H18R 3950   2.152   2.906   4.863  1.7822 -1.7234 -0.8388
   31DOPE  H18S 3951   2.170   2.970   5.017  1.4258  0.8476  0.6828
   31DOPE  H18T 3952   2.317   2.881   4.945  0.4034  0.2631  2.0583
   31DOPE   C33 3953   0.793   3.270   3.886 -0.7422 -0.2709 -0.4042
   31DOPE   H3X 3954   0.750   3.170   3.904 -1.2278  0.2213  1.3937
   31DOPE   H3Y 3955   0.728   3.309   3.805  1.2040  0.0237 -1.8977
   31DOPE   C34 3956   0.786   3.351   4.015  0.8101  0.4713  0.5722
   31DOPE   H4X 3957   0.680   3.382   4.016  0.7894  0.5667 -1.0910
   31DOPE   H4Y 3958   0.801   3.282   4.100  2.3369  0.2604  0.1571
   31DOPE   C35 3959   0.892   3.460   4.043 -0.4748 -0.7085 -0.7445
   31DOPE   H5X 3960   0.891   3.547   3.974  0.5441 -1.1937 -1.3960
   31DOPE   H5Y 3961   0.996   3.421   4.041 -0.4511 -0.6346 -1.0673
   31DOPE   C36 3962   0.873   3.520   4.181 -0.5627 -0.2175  0.3373
   31DOPE   H6X 3963   0.900   3.445   4.258 -0.3265 -0.5628 -0.0775
   31DOPE   H6Y 3964   0.769   3.548   4.209 -1.6819 -1.6035 -2.0918
   31DOPE   C37 3965   0.958   3.650   4.201  0.0090  0.1134  0.3599
   31DOPE   H7X 3966   1.056   3.613   4.165 -0.2671  0.0824 -0.3876
   31DOPE   H7Y 3967   0.925   3.731   4.133  0.8786 -0.4639 -0.7861
   31DOPE   C38 3968   0.962   3.695   4.349  0.2949  0.6255 -0.0139
   31DOPE   H8X 3969   0.860   3.720   4.384 -0.4272 -0.8330 -1.0062
   31DOPE   H8Y 3970   1.021   3.789   4.337  0.2386  0.5280 -1.1230
   31DOPE   C39 3971   1.033   3.609   4.449 -0.1888 -0.4061  0.3076
   31DOPE   H9X 3972   1.141   3.606   4.429 -0.2388  0.2299 -0.0650
   31DOPE  C310 3973   0.983   3.525   4.533  0.1396  0.0221 -0.0087
   31DOPE  H10X 3974   1.058   3.474   4.595 -0.8254 -1.8383 -0.3322
   31DOPE  C311 3975   0.834   3.490   4.548  0.0733  0.1966 -0.4671
   31DOPE  H11X 3976   0.774   3.545   4.473  0.6247 -1.0592 -1.8785
   31DOPE  H11Y 3977   0.819   3.380   4.548  0.0487  0.1977 -0.0437
   31DOPE  C312 3978   0.800   3.553   4.692 -0.3898  0.2916  0.9514
   31DOPE  H12X 3979   0.689   3.558   4.694 -0.4115 -0.3903  2.0614
   31DOPE  H12Y 3980   0.837   3.658   4.701 -0.1058  0.2982 -0.1175
   31DOPE  C313 3981   0.836   3.478   4.818 -0.5008  0.6582  0.2845
   31DOPE  H13X 3982   0.779   3.382   4.817  0.3006  0.1773 -0.2304
   31DOPE  H13Y 3983   0.944   3.455   4.810 -0.5000  0.7199  0.1044
   31DOPE  C314 3984   0.811   3.561   4.946 -0.1480  1.1980 -0.3838
   31DOPE  H14X 3985   0.702   3.581   4.947 -0.7295 -1.0825 -3.3332
   31DOPE  H14Y 3986   0.860   3.661   4.945  1.7746  0.3111 -0.4666
   31DOPE  C315 3987   0.851   3.480   5.078  0.3207 -0.3688 -0.4628
   31DOPE  H15X 3988   0.962   3.485   5.069  0.3139  1.3050  0.0364
   31DOPE  H15Y 3989   0.823   3.376   5.052  0.0650 -0.3247 -0.3653
   31DOPE  C316 3990   0.784   3.534   5.207 -0.2928  0.1620  0.7656
   31DOPE  H16X 3991   0.827   3.476   5.292  0.9670  0.8362  0.6030
   31DOPE  H16Y 3992   0.676   3.509   5.204 -0.2712  0.0820  0.6511
   31DOPE  C317 3993   0.813   3.682   5.235 -0.2313 -0.5961  0.3740
   31DOPE  H17X 3994   0.923   3.699   5.229 -0.6719  2.9184  0.1374
   31DOPE  H17Y 3995   0.753   3.745   5.166  1.3311 -1.6572 -2.1259
   31DOPE  C318 3996   0.779   3.719   5.375 -0.1666 -0.0796 -0.7620
   31DOPE  H18X 3997   0.668   3.721   5.380 -0.2577 -1.5220 -1.5105
   31DOPE  H18Y 3998   0.806   3.637   5.445  0.5737  0.6500 -0.1712
   31DOPE  H18Z 3999   0.825   3.818   5.396 -1.3435  0.6110 -1.3624
   32DOPE     N 4000   3.572   3.235   3.036  0.0615  0.1353  0.5473
   32DOPE   HN1 4001   3.524   3.160   3.090 -2.1076  0.2146 -1.1184
   32DOPE   HN2 4002   3.519   3.230   2.946  0.7110  0.6131  0.1258
   32DOPE   HN3 4003   3.671   3.211   3.018  0.2754  2.2898 -1.6946
   32DOPE   C12 4004   3.559   3.363   3.113  0.1951  0.4416 -0.4683
   32DOPE  H12A 4005   3.451   3.385   3.132  0.3334 -0.3904  1.4904
   32DOPE  H12B 4006   3.603   3.449   3.058  1.5581  1.6534  2.2912
   32DOPE   C11 4007   3.639   3.350   3.244  0.3860 -0.4690  0.2122
   32DOPE  H11A 4008   3.602   3.265   3.306  2.8961 -1.3419  0.6433
   32DOPE  H11B 4009   3.624   3.442   3.303 -1.9009 -0.3507 -0.4365
   32DOPE     P 4010   3.848   3.183   3.267 -0.0244  0.3082  0.0437
   32DOPE   O13 4011   3.996   3.185   3.244  0.1104  0.5291  0.2237
   32DOPE   O14 4012   3.772   3.067   3.211 -0.1249 -0.6464  0.6764
   32DOPE   O11 4013   3.813   3.186   3.425 -0.8128 -0.9048  0.1222
   32DOPE   O12 4014   3.783   3.324   3.220 -0.5191  1.0535 -0.0610
   32DOPE    C1 4015   3.879   3.295   3.497 -0.4442 -0.8125 -0.6560
   32DOPE    HA 4016   3.880   3.389   3.438 -1.1223 -0.7470 -0.5629
   32DOPE    HB 4017   3.985   3.264   3.513 -0.3988  0.0558  1.0612
   32DOPE    C2 4018   3.810   3.325   3.640 -0.2478 -0.1720  0.3563
   32DOPE    HS 4019   3.851   3.423   3.674 -0.8375 -0.7073  2.8401
   32DOPE   O21 4020   3.853   3.227   3.733 -0.3101  0.0482 -0.3774
   32DOPE   C21 4021   3.978   3.240   3.778 -0.0607  0.0223 -0.4614
   32DOPE   O22 4022   4.054   3.326   3.739  0.0520  0.5602  0.0416
   32DOPE   C22 4023   4.007   3.155   3.901  0.2437  0.5399 -0.7358
   32DOPE   H2R 4024   4.115   3.145   3.926 -0.4230  1.6391  3.2219
   32DOPE   H2S 4025   3.971   3.053   3.875 -2.8743  1.6957 -1.4286
   32DOPE    C3 4026   3.652   3.328   3.620  0.6460  0.2041  0.4446
   32DOPE    HX 4027   3.618   3.237   3.566 -2.0475  1.2585  0.2252
   32DOPE    HY 4028   3.633   3.414   3.551  1.4161  1.1584  1.3811
   32DOPE   O31 4029   3.582   3.336   3.750  0.0355 -0.2048  0.2358
   32DOPE   C31 4030   3.460   3.394   3.751  0.0988  0.4462  0.2357
   32DOPE   O32 4031   3.390   3.419   3.650 -0.1072 -0.3892  0.2921
   32DOPE   C32 4032   3.420   3.420   3.899  0.7079  0.0116 -0.5327
   32DOPE   H2X 4033   3.481   3.352   3.962 -1.5265 -0.1500  1.5812
   32DOPE   H2Y 4034   3.449   3.525   3.919  0.5978 -0.1147  0.3208
   32DOPE   C23 4035   3.931   3.213   4.022  0.4561 -0.1052 -0.7500
   32DOPE   H3R 4036   3.824   3.230   3.996  0.6528  0.8366 -0.9724
   32DOPE   H3S 4037   3.969   3.312   4.054 -1.5718  0.0478  1.5517
   32DOPE   C24 4038   3.929   3.131   4.149 -0.4728 -0.1134 -0.1946
   32DOPE   H4R 4039   4.035   3.115   4.180 -0.2900  0.0099 -0.7534
   32DOPE   H4S 4040   3.884   3.030   4.136  0.4877 -0.6063  0.1642
   32DOPE   C25 4041   3.865   3.198   4.269  0.4537 -0.6381  0.4957
   32DOPE   H5R 4042   3.758   3.214   4.245  0.5407  0.1690  0.6224
   32DOPE   H5S 4043   3.904   3.300   4.291 -0.1406 -0.4757  0.8179
   32DOPE   C26 4044   3.881   3.108   4.391  0.6640  0.2245  0.3724
   32DOPE   H6R 4045   3.974   3.048   4.384  1.0452  0.0697  4.4989
   32DOPE   H6S 4046   3.802   3.031   4.376  1.5226 -0.4699 -0.7047
   32DOPE   C27 4047   3.863   3.177   4.528  0.1156 -0.0099 -0.4447
   32DOPE   H7R 4048   3.762   3.225   4.531 -0.2356 -0.7691  1.3615
   32DOPE   H7S 4049   3.947   3.247   4.547 -1.0894  1.1369  0.9162
   32DOPE   C28 4050   3.868   3.076   4.646  0.3044  0.3559 -0.5277
   32DOPE   H8R 4051   3.795   2.995   4.623  1.1309  0.2639 -3.1313
   32DOPE   H8S 4052   3.825   3.125   4.736 -1.4135 -1.1808 -0.4343
   32DOPE   C29 4053   4.012   3.029   4.668  0.4470  0.4340  0.2042
   32DOPE   H9R 4054   4.056   2.976   4.583 -0.1321 -1.1180  0.8432
   32DOPE  C210 4055   4.087   3.061   4.772 -0.0030  0.2106 -0.1974
   32DOPE  H10R 4056   4.191   3.025   4.772 -0.3056 -0.6858 -0.5022
   32DOPE  C211 4057   4.059   3.148   4.895 -0.9039 -0.4567  0.1010
   32DOPE  H11R 4058   4.085   3.090   4.986 -1.7772 -0.1399  0.5626
   32DOPE  H11S 4059   3.954   3.182   4.908 -0.8128 -0.8814  2.3928
   32DOPE  C212 4060   4.137   3.280   4.889  0.1981  0.3814 -0.2615
   32DOPE  H12R 4061   4.096   3.332   4.800  1.0063 -2.6825 -2.6011
   32DOPE  H12S 4062   4.245   3.256   4.882  0.0158 -0.2869 -1.0366
   32DOPE  C213 4063   4.110   3.361   5.017 -1.0061 -0.4463  0.0420
   32DOPE  H13R 4064   4.176   3.315   5.093  1.6009 -0.4094 -2.0479
   32DOPE  H13S 4065   4.006   3.369   5.054 -0.6204  2.8900  0.7317
   32DOPE  C214 4066   4.165   3.507   4.993 -0.1515 -0.2253  0.8494
   32DOPE  H14R 4067   4.272   3.492   4.967 -1.2222 -1.9009 -3.4050
   32DOPE  H14S 4068   4.144   3.557   5.090 -1.1081 -3.6865  2.5848
   32DOPE  C215 4069   4.097   3.595   4.885  0.2508 -0.1862 -0.0268
   32DOPE  H15R 4070   3.989   3.605   4.910 -0.6130 -1.0923 -2.9250
   32DOPE  H15S 4071   4.099   3.555   4.781  0.1044  2.6867 -1.2247
   32DOPE  C216 4072   4.140   3.741   4.866  0.9038 -0.0261 -0.5480
   32DOPE  H16R 4073   4.240   3.724   4.820  0.6839 -1.1170 -0.6491
   32DOPE  H16S 4074   4.129   3.805   4.956 -0.8395 -0.0024 -0.7491
   32DOPE  C217 4075   4.052   3.806   4.763  0.4856  0.6393 -0.6689
   32DOPE  H17R 4076   4.066   3.915   4.772 -0.4250  0.8481 -1.5360
   32DOPE  H17S 4077   3.946   3.790   4.792  0.5165  0.1554 -0.8047
   32DOPE  C218 4078   4.074   3.765   4.617  0.5162 -0.2259  0.4323
   32DOPE  H18R 4079   4.156   3.828   4.576  0.1354  0.5136  0.7930
   32DOPE  H18S 4080   3.990   3.788   4.548  1.7110 -2.3373 -1.9014
   32DOPE  H18T 4081   4.100   3.658   4.601 -1.9262 -0.6393 -1.3761
   32DOPE   C33 4082   3.269   3.415   3.921  0.1179 -0.3246 -0.0589
   32DOPE   H3X 4083   3.243   3.308   3.908  0.4189 -0.1114 -3.0027
   32DOPE   H3Y 4084   3.209   3.475   3.850 -0.4885  1.3341  1.7656
   32DOPE   C34 4085   3.228   3.451   4.068  0.0490  0.1408  0.4754
   32DOPE   H4X 4086   3.288   3.387   4.136 -0.5626 -1.9788 -0.8783
   32DOPE   H4Y 4087   3.240   3.562   4.076  0.5668  0.3614 -2.3769
   32DOPE   C35 4088   3.080   3.433   4.088 -0.3674  0.0465 -0.7334
   32DOPE   H5X 4089   3.055   3.325   4.086  1.1660 -0.3465 -0.3023
   32DOPE   H5Y 4090   3.014   3.487   4.016 -0.4566 -1.0032 -1.4575
   32DOPE   C36 4091   3.041   3.476   4.232 -0.9081 -0.0460  0.2173
   32DOPE   H6X 4092   3.059   3.586   4.235 -1.3259  0.0061  1.1277
   32DOPE   H6Y 4093   3.108   3.433   4.310 -0.0681 -0.7696 -0.8826
   32DOPE   C37 4094   2.895   3.465   4.249 -1.2184  0.3104 -0.5151
   32DOPE   H7X 4095   2.855   3.534   4.172  2.0527  2.1885 -0.7454
   32DOPE   H7Y 4096   2.858   3.361   4.246 -1.0657  0.2651 -0.9818
   32DOPE   C38 4097   2.861   3.538   4.383 -1.1287  0.4187 -0.0247
   32DOPE   H8X 4098   2.751   3.556   4.379 -1.0775  0.7844  0.1839
   32DOPE   H8Y 4099   2.895   3.643   4.391 -3.0258  1.2995 -2.1596
   32DOPE   C39 4100   2.895   3.459   4.511 -0.0395  0.0803  0.3735
   32DOPE   H9X 4101   2.837   3.367   4.530  0.6947 -0.5542 -0.4234
   32DOPE  C310 4102   2.987   3.498   4.603  0.2253 -0.2657  0.3993
   32DOPE  H10X 4103   3.008   3.434   4.690  0.2866 -0.5695  0.1611
   32DOPE  C311 4104   3.075   3.625   4.604  0.4799  0.4332 -0.3429
   32DOPE  H11X 4105   3.177   3.602   4.566  0.0232 -0.4296 -1.0799
   32DOPE  H11Y 4106   3.032   3.706   4.541 -0.4449  0.5744  0.4394
   32DOPE  C312 4107   3.103   3.656   4.754 -0.7760 -0.8092  0.9230
   32DOPE  H12X 4108   3.147   3.570   4.807 -1.0134 -0.7728  1.1806
   32DOPE  H12Y 4109   3.009   3.687   4.805 -1.3525 -0.4527 -0.3138
   32DOPE  C313 4110   3.205   3.767   4.770 -0.0612 -0.0215 -0.2882
   32DOPE  H13X 4111   3.292   3.749   4.703  1.9527  3.6835  1.0207
   32DOPE  H13Y 4112   3.157   3.864   4.744 -0.6553  0.5508  2.6551
   32DOPE  C314 4113   3.259   3.771   4.919  0.0960  0.8738  1.0038
   32DOPE  H14X 4114   3.344   3.843   4.929  1.9221 -1.1503  0.7464
   32DOPE  H14Y 4115   3.301   3.670   4.940  1.6862  1.6757  1.8760
   32DOPE  C315 4116   3.155   3.818   5.023 -0.5243  0.3749  0.0167
   32DOPE  H15X 4117   3.068   3.750   5.012 -0.2397 -0.3910  2.0156
   32DOPE  H15Y 4118   3.109   3.917   5.003  1.3437  1.2433 -0.2396
   32DOPE  C316 4119   3.215   3.806   5.163 -0.3648  0.7128  0.0964
   32DOPE  H16X 4120   3.296   3.882   5.168 -0.5060  1.1804 -2.7360
   32DOPE  H16Y 4121   3.255   3.704   5.182 -1.8224  0.3965  1.6258
   32DOPE  C317 4122   3.110   3.840   5.278 -0.3552 -0.7291  0.1133
   32DOPE  H17X 4123   3.020   3.777   5.261 -0.3351 -0.9684  0.8420
   32DOPE  H17Y 4124   3.151   3.819   5.379  0.2660 -3.0341 -0.5475
   32DOPE  C318 4125   3.069   3.995   5.273 -0.3787  0.1195 -0.1055
   32DOPE  H18X 4126   2.998   4.008   5.189 -0.4731  1.7329  0.1841
   32DOPE  H18Y 4127   3.027   4.026   5.371 -0.9961 -0.6217 -0.1222
   32DOPE  H18Z 4128   3.163   4.052   5.257 -0.5034  0.5866  0.7373
   33DOPE     N 4129   2.429   2.869   3.124  0.1597  0.3819 -0.2144
   33DOPE   HN1 4130   2.458   2.769   3.116  0.0731  0.4257 -1.2165
   33DOPE   HN2 4131   2.342   2.871   3.180 -0.5398  0.6986 -1.2682
   33DOPE   HN3 4132   2.398   2.895   3.028  3.2488 -1.6088 -1.9068
   33DOPE   C12 4133   2.523   2.968   3.190 -0.5079  0.2216  0.1111
   33DOPE  H12A 4134   2.475   3.068   3.197  4.1622  2.7064  1.2531
   33DOPE  H12B 4135   2.603   2.990   3.115 -0.5331  2.4953  0.6697
   33DOPE   C11 4136   2.577   2.920   3.314 -0.4437  0.4341 -0.5041
   33DOPE  H11A 4137   2.491   2.908   3.384 -0.6452 -0.2643 -0.8557
   33DOPE  H11B 4138   2.645   2.994   3.362 -1.9050  0.7563  1.1836
   33DOPE     P 4139   2.779   2.780   3.235  0.1948  0.8638  0.1100
   33DOPE   O13 4140   2.776   2.821   3.093 -0.3813 -0.0642 -0.1352
   33DOPE   O14 4141   2.820   2.639   3.257  0.2409 -0.2944  0.3481
   33DOPE   O11 4142   2.877   2.875   3.321 -0.1663  0.1474  0.4328
   33DOPE   O12 4143   2.634   2.790   3.308  0.2518 -0.0611  0.1909
   33DOPE    C1 4144   2.936   2.824   3.441  0.3321 -0.2741 -0.0269
   33DOPE    HA 4145   3.026   2.882   3.470 -0.0881 -0.6019  2.1244
   33DOPE    HB 4146   2.960   2.717   3.421  1.1250  0.1228 -1.3171
   33DOPE    C2 4147   2.843   2.819   3.563 -0.1073  0.0285 -0.0809
   33DOPE    HS 4148   2.751   2.768   3.529 -0.7756  1.5422 -0.6466
   33DOPE   O21 4149   2.813   2.954   3.592 -0.1789 -0.0112  0.1493
   33DOPE   C21 4150   2.693   2.983   3.635  0.6024 -0.0971 -0.3320
   33DOPE   O22 4151   2.598   2.906   3.643  0.1890  0.4778  0.0564
   33DOPE   C22 4152   2.681   3.127   3.688  0.3145  0.2403 -0.1979
   33DOPE   H2R 4153   2.661   3.196   3.604 -1.2777 -1.7091 -1.5181
   33DOPE   H2S 4154   2.774   3.161   3.739 -0.0259  2.2198 -0.8087
   33DOPE    C3 4155   2.917   2.744   3.679 -0.1498 -0.0188 -0.2440
   33DOPE    HX 4156   3.007   2.806   3.697  0.0496  0.8261 -3.5102
   33DOPE    HY 4157   2.951   2.645   3.643  0.0476  0.7344 -2.2341
   33DOPE   O31 4158   2.839   2.738   3.804  0.5271  0.0404  0.1565
   33DOPE   C31 4159   2.742   2.639   3.792  0.1594  0.3107 -0.2713
   33DOPE   O32 4160   2.718   2.575   3.695  0.1444  0.4699  0.8841
   33DOPE   C32 4161   2.670   2.632   3.923 -0.2627 -0.2347  0.0353
   33DOPE   H2X 4162   2.735   2.664   4.007 -0.2949 -0.3262  0.0950
   33DOPE   H2Y 4163   2.585   2.703   3.911  0.2723  0.6043  1.0661
   33DOPE   C23 4164   2.561   3.138   3.782  0.1283  0.4941 -0.5782
   33DOPE   H3R 4165   2.560   3.068   3.868 -1.5044  1.0433 -0.0958
   33DOPE   H3S 4166   2.468   3.100   3.735  0.4400  0.2694 -1.0260
   33DOPE   C24 4167   2.547   3.280   3.826 -0.2647  0.1688 -0.2166
   33DOPE   H4R 4168   2.446   3.296   3.869 -0.8731  0.9298 -1.8324
   33DOPE   H4S 4169   2.553   3.345   3.736  0.5932  1.6083  0.8554
   33DOPE   C25 4170   2.650   3.337   3.928 -0.2069 -0.7615  0.3852
   33DOPE   H5R 4171   2.751   3.335   3.882 -0.0781  1.5771  0.4521
   33DOPE   H5S 4172   2.640   3.282   4.024  0.5024 -0.0908  0.8485
   33DOPE   C26 4173   2.632   3.486   3.953 -0.3347  0.9272  0.1836
   33DOPE   H6R 4174   2.645   3.558   3.869 -1.7404  1.4578  0.3876
   33DOPE   H6S 4175   2.720   3.512   4.016 -0.5325 -0.0131  0.8621
   33DOPE   C27 4176   2.507   3.527   4.028 -0.0643 -0.4813  0.2059
   33DOPE   H7R 4177   2.502   3.477   4.127 -0.8493 -0.7191  0.0514
   33DOPE   H7S 4178   2.426   3.486   3.965  0.5368 -0.2036 -0.7688
   33DOPE   C28 4179   2.489   3.671   4.065 -0.1820 -0.0349 -0.3388
   33DOPE   H8R 4180   2.491   3.737   3.976  0.0019  1.4358  0.7224
   33DOPE   H8S 4181   2.575   3.702   4.129  1.1826 -1.7420 -1.2551
   33DOPE   C29 4182   2.361   3.689   4.141 -0.0170 -0.2329 -0.0958
   33DOPE   H9R 4183   2.274   3.630   4.108  0.1139  0.4519 -1.7717
   33DOPE  C210 4184   2.337   3.790   4.226  0.1169 -0.4922 -0.5621
   33DOPE  H10R 4185   2.232   3.801   4.259 -0.9344 -4.4733 -1.9966
   33DOPE  C211 4186   2.434   3.897   4.267 -0.3962  0.3502 -0.1455
   33DOPE  H11R 4187   2.391   3.999   4.279  0.2352  0.3084  3.5130
   33DOPE  H11S 4188   2.525   3.906   4.205 -0.4126 -1.6477 -0.5112
   33DOPE  C212 4189   2.500   3.850   4.405  0.1029 -0.2441 -0.4614
   33DOPE  H12R 4190   2.579   3.925   4.425 -0.1122 -0.0177 -0.4581
   33DOPE  H12S 4191   2.544   3.748   4.402  1.3637 -0.1136  4.4266
   33DOPE  C213 4192   2.398   3.867   4.514 -0.1126  0.0721 -0.4182
   33DOPE  H13R 4193   2.329   3.780   4.511 -0.9795  0.7390 -0.3072
   33DOPE  H13S 4194   2.329   3.950   4.488 -0.0101  0.3824  0.2684
   33DOPE  C214 4195   2.454   3.905   4.655 -0.2894 -0.2213 -0.4169
   33DOPE  H14R 4196   2.512   3.822   4.700  0.6457 -1.1783 -3.1737
   33DOPE  H14S 4197   2.361   3.913   4.716 -1.1838 -0.3181 -1.7319
   33DOPE  C215 4198   2.524   4.036   4.673 -0.1030 -0.0946  0.5301
   33DOPE  H15R 4199   2.475   4.133   4.648 -2.9394 -1.6566 -0.3716
   33DOPE  H15S 4200   2.615   4.030   4.608 -2.0178  1.7808 -2.5731
   33DOPE  C216 4201   2.553   4.063   4.822 -0.1166 -0.4083 -0.0917
   33DOPE  H16R 4202   2.460   4.097   4.871  2.1314  1.0870  3.6129
   33DOPE  H16S 4203   2.628   4.144   4.833 -1.9732  1.3905 -0.2346
   33DOPE  C217 4204   2.624   3.953   4.900  0.8868  0.3499 -0.3539
   33DOPE  H17R 4205   2.556   3.865   4.901  0.5661  0.5952 -0.3552
   33DOPE  H17S 4206   2.641   3.989   5.003 -1.4715  0.0685  0.1917
   33DOPE  C218 4207   2.755   3.903   4.842 -0.3907  0.1726 -0.7024
   33DOPE  H18R 4208   2.768   3.798   4.876 -3.0961  0.7110  2.5283
   33DOPE  H18S 4209   2.844   3.958   4.878 -0.1488 -0.1673 -0.7808
   33DOPE  H18T 4210   2.748   3.891   4.732  1.0761 -1.3883 -0.6703
   33DOPE   C33 4211   2.605   2.495   3.947  0.6953  0.4093  0.4799
   33DOPE   H3X 4212   2.688   2.422   3.952  1.2365  0.7013 -2.2528
   33DOPE   H3Y 4213   2.544   2.460   3.861 -0.0583  0.6534  0.9065
   33DOPE   C34 4214   2.524   2.481   4.078  0.1675 -0.3301  0.2492
   33DOPE   H4X 4215   2.423   2.528   4.081  1.0681  1.6015  2.3016
   33DOPE   H4Y 4216   2.499   2.372   4.085 -0.2294 -0.4352 -2.0454
   33DOPE   C35 4217   2.593   2.526   4.206 -0.9869 -0.3643 -0.1367
   33DOPE   H5X 4218   2.594   2.636   4.222  1.1220 -0.3861  0.1829
   33DOPE   H5Y 4219   2.695   2.485   4.188 -0.9324  0.7542 -3.0178
   33DOPE   C36 4220   2.529   2.461   4.330 -0.0026 -0.2511  0.4030
   33DOPE   H6X 4221   2.527   2.351   4.315 -0.8695  0.0409 -2.1076
   33DOPE   H6Y 4222   2.430   2.508   4.348 -0.1142 -0.2846 -0.1195
   33DOPE   C37 4223   2.611   2.491   4.454  0.1071  0.9337 -0.3620
   33DOPE   H7X 4224   2.708   2.448   4.420  0.0459 -0.7144  1.3681
   33DOPE   H7Y 4225   2.622   2.600   4.470 -1.9012  0.9596  1.2522
   33DOPE   C38 4226   2.559   2.422   4.585 -0.0720 -0.2113  0.9136
   33DOPE   H8X 4227   2.539   2.315   4.562  1.0372  0.2035 -2.7428
   33DOPE   H8Y 4228   2.459   2.463   4.609 -0.0997  0.5288 -0.3442
   33DOPE   C39 4229   2.650   2.437   4.701  0.2495  0.2346 -0.1441
   33DOPE   H9X 4230   2.698   2.535   4.711 -2.9890  1.7850  2.0136
   33DOPE  C310 4231   2.675   2.344   4.791 -0.2360 -0.1615 -0.3368
   33DOPE  H10X 4232   2.736   2.373   4.878  1.2782  1.3585 -1.8274
   33DOPE  C311 4233   2.625   2.205   4.792  0.0585  0.0542  0.7147
   33DOPE  H11X 4234   2.520   2.204   4.755 -0.3073 -1.0850  1.7042
   33DOPE  H11Y 4235   2.684   2.139   4.725 -0.4780  0.1413  0.1449
   33DOPE  C312 4236   2.632   2.138   4.931 -0.1239 -0.3139  0.7801
   33DOPE  H12X 4237   2.576   2.043   4.923  0.6876 -0.6802 -1.1960
   33DOPE  H12Y 4238   2.590   2.206   5.008  0.2396 -0.4595  1.1103
   33DOPE  C313 4239   2.777   2.100   4.974 -0.9157 -0.4202  0.4080
   33DOPE  H13X 4240   2.836   2.046   4.897 -0.4215 -0.3928  0.7580
   33DOPE  H13Y 4241   2.824   2.198   4.994  0.6893 -0.9666 -0.4741
   33DOPE  C314 4242   2.773   2.014   5.101  0.2901  0.6780 -1.1111
   33DOPE  H14X 4243   2.874   1.971   5.118  0.0309  0.3555 -0.3549
   33DOPE  H14Y 4244   2.713   1.923   5.081 -0.6307  0.7353  1.1033
   33DOPE  C315 4245   2.732   2.070   5.233  0.4218 -0.2535 -0.4982
   33DOPE  H15X 4246   2.630   2.115   5.235 -0.5232 -2.2691  1.1704
   33DOPE  H15Y 4247   2.797   2.154   5.266 -2.0075  1.4003  0.3656
   33DOPE  C316 4248   2.732   1.950   5.334  0.6536 -0.0475 -0.3567
   33DOPE  H16X 4249   2.837   1.919   5.348  0.4663 -0.1858  0.9127
   33DOPE  H16Y 4250   2.667   1.871   5.292 -0.6549 -1.2400  3.5251
   33DOPE  C317 4251   2.682   1.999   5.478  0.0405 -0.5964  0.9447
   33DOPE  H17X 4252   2.754   2.071   5.522  0.7500 -0.0632 -0.9707
   33DOPE  H17Y 4253   2.588   2.052   5.453  0.5556  0.3853  1.0685
   33DOPE  C318 4254   2.645   1.880   5.557  0.1203 -0.4300 -0.0232
   33DOPE  H18X 4255   2.738   1.832   5.595  1.8161  2.0116 -0.8257
   33DOPE  H18Y 4256   2.578   1.913   5.639 -0.6262  0.6065 -1.0360
   33DOPE  H18Z 4257   2.594   1.808   5.490  1.4946 -0.7067 -0.8201
   34DOPE     N 4258   0.874   4.054   2.690 -0.1236 -0.4306 -0.2832
   34DOPE   HN1 4259   0.901   4.154   2.692 -2.0888  0.1661 -1.1372
   34DOPE   HN2 4260   0.934   4.023   2.610  0.7462 -0.4563  0.3748
   34DOPE   HN3 4261   0.776   4.048   2.654  0.1568 -3.1077 -0.8694
   34DOPE   C12 4262   0.912   3.970   2.811  0.2914  0.8026  1.1488
   34DOPE  H12A 4263   1.023   3.969   2.812  0.3726 -0.3821 -1.2623
   34DOPE  H12B 4264   0.884   3.867   2.779 -0.3013  1.3549 -0.2450
   34DOPE   C11 4265   0.853   4.018   2.950  0.0078 -0.2244 -0.2055
   34DOPE  H11A 4266   0.920   4.097   2.991 -0.1420 -0.4333  0.4589
   34DOPE  H11B 4267   0.875   3.933   3.019 -0.4359  1.4151  2.1038
   34DOPE     P 4268   0.611   4.003   3.043 -0.0145 -0.2780  0.2365
   34DOPE   O13 4269   0.600   3.853   3.027 -0.1683  0.0347  0.4937
   34DOPE   O14 4270   0.487   4.088   3.022 -0.2839  0.3456  0.0832
   34DOPE   O11 4271   0.676   4.041   3.177 -0.0770  0.1596  0.0129
   34DOPE   O12 4272   0.716   4.064   2.943  0.1232  0.0929  0.2237
   34DOPE    C1 4273   0.661   3.956   3.292 -0.0111 -0.0132 -0.2311
   34DOPE    HA 4274   0.725   3.865   3.287  0.8517  0.5837 -0.4524
   34DOPE    HB 4275   0.556   3.925   3.307  0.4881 -1.5751  0.1772
   34DOPE    C2 4276   0.701   4.019   3.430  0.1241  0.1432  0.2578
   34DOPE    HS 4277   0.612   4.079   3.459 -0.8218 -1.3475  0.5610
   34DOPE   O21 4278   0.820   4.099   3.404  0.7528  0.2140  0.0707
   34DOPE   C21 4279   0.816   4.217   3.451  0.9864  0.0530  0.4477
   34DOPE   O22 4280   0.723   4.267   3.514  0.1470 -0.0787 -0.4667
   34DOPE   C22 4281   0.951   4.291   3.412 -0.0628  0.1077 -0.5593
   34DOPE   H2R 4282   0.910   4.369   3.345 -2.2117  0.7559  1.3875
   34DOPE   H2S 4283   1.010   4.221   3.348  0.7189 -0.2315  0.4999
   34DOPE    C3 4284   0.737   3.910   3.528  0.4079  0.0905 -0.8609
   34DOPE    HX 4285   0.826   3.855   3.492  2.4832  1.3355  1.9763
   34DOPE    HY 4286   0.643   3.850   3.530 -0.0488  0.8033 -0.3872
   34DOPE   O31 4287   0.771   3.974   3.656 -0.7972 -0.1046 -0.7120
   34DOPE   C31 4288   0.750   3.889   3.759  0.4784  0.4503 -0.0658
   34DOPE   O32 4289   0.723   3.772   3.754  0.2208 -0.0187  0.3954
   34DOPE   C32 4290   0.785   3.957   3.894 -0.2315 -0.2545 -0.0913
   34DOPE   H2X 4291   0.896   3.959   3.904 -0.3046  1.8979  0.7394
   34DOPE   H2Y 4292   0.764   4.065   3.879  0.8767  0.3589  2.3705
   34DOPE   C23 4293   1.022   4.343   3.536  0.0024  0.2446  0.2675
   34DOPE   H3R 4294   0.950   4.395   3.602 -0.3314 -0.4193  0.4421
   34DOPE   H3S 4295   1.089   4.429   3.513 -0.9508  1.3203  1.3895
   34DOPE   C24 4296   1.099   4.231   3.603 -0.1850  0.3893 -1.1011
   34DOPE   H4R 4297   1.161   4.172   3.532  0.3132 -1.2614  0.6202
   34DOPE   H4S 4298   1.025   4.163   3.651 -1.2038  1.6025 -0.8842
   34DOPE   C25 4299   1.210   4.269   3.703 -0.6597  0.6208  0.2773
   34DOPE   H5R 4300   1.291   4.335   3.664 -2.3230  2.2126 -0.6625
   34DOPE   H5S 4301   1.258   4.178   3.744 -0.4821  1.6993  2.6208
   34DOPE   C26 4302   1.146   4.329   3.834  0.4414  0.5070 -1.2101
   34DOPE   H6R 4303   1.094   4.243   3.880 -0.2752  1.2713 -0.5689
   34DOPE   H6S 4304   1.072   4.409   3.813  3.3329  3.6530 -0.3209
   34DOPE   C27 4305   1.242   4.386   3.931 -0.0238 -0.8101 -1.3467
   34DOPE   H7R 4306   1.335   4.328   3.947 -1.0787 -1.9104  1.3809
   34DOPE   H7S 4307   1.202   4.391   4.034 -2.5942 -0.8485 -2.2607
   34DOPE   C28 4308   1.279   4.536   3.893  0.4157  0.0430 -1.2729
   34DOPE   H8R 4309   1.316   4.532   3.789 -3.5420  1.8949 -2.9499
   34DOPE   H8S 4310   1.361   4.561   3.964 -1.4774  2.1625  0.3249
   34DOPE   C29 4311   1.171   4.641   3.905 -0.0598  0.0927  0.4705
   34DOPE   H9R 4312   1.096   4.648   3.826 -0.2846 -0.6192  0.6075
   34DOPE  C210 4313   1.168   4.736   3.993 -0.1443 -0.6247 -0.8550
   34DOPE  H10R 4314   1.099   4.821   3.998  2.5401  1.5924  0.9182
   34DOPE  C211 4315   1.269   4.744   4.108 -0.0460  1.1890  0.0835
   34DOPE  H11R 4316   1.370   4.772   4.073 -0.1860  0.1706 -1.2114
   34DOPE  H11S 4317   1.288   4.642   4.149 -0.4418  1.2368  0.3931
   34DOPE  C212 4318   1.229   4.843   4.223 -0.5576 -0.3901 -0.4866
   34DOPE  H12R 4319   1.307   4.823   4.300  0.9726  2.5318 -1.1470
   34DOPE  H12S 4320   1.136   4.801   4.269  0.9599 -0.3796  2.8615
   34DOPE  C213 4321   1.219   4.987   4.182  0.2619 -0.3417 -0.8407
   34DOPE  H13R 4322   1.118   4.997   4.136 -1.8021 -1.4642  2.9731
   34DOPE  H13S 4323   1.296   5.005   4.105 -0.8206 -0.2929 -1.9424
   34DOPE  C214 4324   1.229   5.088   4.297  0.1247 -0.3103 -0.4125
   34DOPE  H14R 4325   1.253   5.191   4.263  3.0285 -0.3440  1.1918
   34DOPE  H14S 4326   1.316   5.065   4.362 -0.4204  0.8766  0.7812
   34DOPE  C215 4327   1.106   5.091   4.386  0.1656 -0.1107  0.5167
   34DOPE  H15R 4328   1.097   5.000   4.450 -1.2658 -1.3463 -1.3234
   34DOPE  H15S 4329   1.016   5.079   4.322 -0.0446 -1.4539  1.0284
   34DOPE  C216 4330   1.095   5.208   4.480 -0.1110 -0.4635 -0.0781
   34DOPE  H16R 4331   1.180   5.199   4.551 -1.2740 -1.6214  1.2238
   34DOPE  H16S 4332   1.000   5.201   4.538 -0.5795  1.6032 -0.5288
   34DOPE  C217 4333   1.104   5.341   4.409 -0.1536  0.2123  0.0497
   34DOPE  H17R 4334   1.034   5.339   4.322 -0.8762  2.7970  0.4681
   34DOPE  H17S 4335   1.204   5.357   4.364  0.1049  0.3934  0.6875
   34DOPE  C218 4336   1.063   5.451   4.501 -0.0105  0.6394  0.1616
   34DOPE  H18R 4337   1.118   5.447   4.597  3.0883 -0.5239 -1.5271
   34DOPE  H18S 4338   0.956   5.436   4.528  0.0527  1.3786  0.8460
   34DOPE  H18T 4339   1.078   5.554   4.463 -1.2694  0.4722 -0.8996
   34DOPE   C33 4340   0.702   3.909   4.010  0.4528 -0.0928  0.0580
   34DOPE   H3X 4341   0.717   3.801   4.034  0.2563 -0.3555 -0.9504
   34DOPE   H3Y 4342   0.592   3.919   3.992  0.2773  2.9188  2.0609
   34DOPE   C34 4343   0.729   3.985   4.138 -0.2197  0.7080  0.1670
   34DOPE   H4X 4344   0.836   3.960   4.153  0.4800  3.0378 -0.5503
   34DOPE   H4Y 4345   0.723   4.095   4.125 -0.0955  1.0212  2.3412
   34DOPE   C35 4346   0.644   3.938   4.250 -0.1849 -0.1400 -0.3519
   34DOPE   H5X 4347   0.674   3.833   4.268  0.9273  0.0705 -0.8792
   34DOPE   H5Y 4348   0.536   3.946   4.223 -0.6382 -2.5202  0.5225
   34DOPE   C36 4349   0.657   4.016   4.381  0.3608 -0.2986  0.0804
   34DOPE   H6X 4350   0.653   4.124   4.359 -0.4394 -0.6708 -1.8871
   34DOPE   H6Y 4351   0.754   3.993   4.430  0.3340 -0.2614  0.1497
   34DOPE   C37 4352   0.544   3.991   4.476  0.7658  0.7148 -0.1832
   34DOPE   H7X 4353   0.448   4.028   4.435 -0.2447  0.1292  1.5967
   34DOPE   H7Y 4354   0.527   3.884   4.503  0.2210  1.5737  3.1809
   34DOPE   C38 4355   0.593   4.037   4.617  0.1008  0.5138  0.3037
   34DOPE   H8X 4356   0.505   4.034   4.684 -1.2190 -0.1489 -1.3756
   34DOPE   H8Y 4357   0.625   4.143   4.612  0.1279  0.5334  0.8778
   34DOPE   C39 4358   0.686   3.953   4.691 -0.2846 -0.1055  0.0217
   34DOPE   H9X 4359   0.701   3.852   4.648 -1.8772 -0.2495 -0.2625
   34DOPE  C310 4360   0.769   3.988   4.793 -1.0735  0.4101  0.3221
   34DOPE  H10X 4361   0.822   3.911   4.850  0.6473  1.4760  0.2441
   34DOPE  C311 4362   0.758   4.119   4.863  0.2013 -0.3776 -1.0533
   34DOPE  H11X 4363   0.838   4.183   4.819  2.2499 -2.5781 -0.7039
   34DOPE  H11Y 4364   0.655   4.162   4.858  0.5050  0.7859  1.2612
   34DOPE  C312 4365   0.777   4.092   5.011 -0.0609  0.2193 -0.5184
   34DOPE  H12X 4366   0.879   4.076   5.051 -0.8731 -1.0979  1.1708
   34DOPE  H12Y 4367   0.721   4.000   5.038  1.1122 -0.5078 -0.4855
   34DOPE  C313 4368   0.712   4.201   5.101  0.4772 -0.8015 -0.4199
   34DOPE  H13X 4369   0.759   4.295   5.065  0.9911 -0.1233  1.8896
   34DOPE  H13Y 4370   0.602   4.188   5.087  0.5078 -0.0487 -1.5205
   34DOPE  C314 4371   0.765   4.196   5.243  0.0794  0.7301  0.2182
   34DOPE  H14X 4372   0.722   4.283   5.298 -1.0813  0.0793  0.3819
   34DOPE  H14Y 4373   0.875   4.204   5.253  0.4511 -3.0795  0.6428
   34DOPE  C315 4374   0.735   4.059   5.309  0.2748  0.1737  0.2526
   34DOPE  H15X 4375   0.772   4.084   5.411 -0.1509  2.4833 -0.1084
   34DOPE  H15Y 4376   0.791   3.978   5.257 -0.2362  0.9704 -1.6124
   34DOPE  C316 4377   0.582   4.013   5.318  0.0224 -0.1495  0.3360
   34DOPE  H16X 4378   0.566   3.925   5.384 -0.1431  0.1401  0.6900
   34DOPE  H16Y 4379   0.553   3.990   5.214 -0.2300  0.1164  0.3472
   34DOPE  C317 4380   0.477   4.120   5.364  0.7832  0.2033 -0.6890
   34DOPE  H17X 4381   0.504   4.163   5.463  0.7656 -2.9407  0.7780
   34DOPE  H17Y 4382   0.473   4.202   5.288 -1.4074  0.1113 -0.7227
   34DOPE  C318 4383   0.337   4.065   5.387  0.3304  0.8409  0.3084
   34DOPE  H18X 4384   0.306   4.037   5.285 -1.8189  1.1526  0.8252
   34DOPE  H18Y 4385   0.341   3.978   5.457  0.0905 -0.2304 -0.9577
   34DOPE  H18Z 4386   0.268   4.149   5.411 -1.2179  0.9951 -3.9843
   35DOPE     N 4387   5.663   3.211   3.003 -0.0908 -0.1779 -0.2945
   35DOPE   HN1 4388   5.744   3.249   2.951 -0.6576 -0.6984 -1.6006
   35DOPE   HN2 4389   5.609   3.148   2.940 -0.7851 -0.2166  0.3268
   35DOPE   HN3 4390   5.601   3.290   3.031 -0.7824 -1.0929  0.8579
   35DOPE   C12 4391   5.712   3.129   3.118  0.1123  0.6292 -0.8349
   35DOPE  H12A 4392   5.760   3.198   3.191 -0.8435 -1.6671  2.1952
   35DOPE  H12B 4393   5.788   3.060   3.076 -0.2764  0.4649 -1.2783
   35DOPE   C11 4394   5.594   3.056   3.181 -0.5117  0.3360 -0.2471
   35DOPE  H11A 4395   5.534   3.130   3.237 -0.0933  1.3970 -1.1605
   35DOPE  H11B 4396   5.635   2.996   3.265 -1.5331  2.5046  1.8970
   35DOPE     P 4397   5.471   2.832   3.119 -0.1102 -0.1414 -0.0005
   35DOPE   O13 4398   5.517   2.759   2.999  0.4316 -0.2056 -0.4443
   35DOPE   O14 4399   5.320   2.834   3.142  0.4445  0.4556 -0.2382
   35DOPE   O11 4400   5.537   2.773   3.250 -0.0800  0.2337 -0.1660
   35DOPE   O12 4401   5.520   2.984   3.091 -0.0811  0.5010  0.2725
   35DOPE    C1 4402   5.575   2.635   3.266 -0.3114  0.0341 -0.1234
   35DOPE    HA 4403   5.595   2.581   3.171  1.9304 -0.3932  0.5456
   35DOPE    HB 4404   5.492   2.583   3.318  0.5030  0.3991  1.6315
   35DOPE    C2 4405   5.708   2.612   3.356  0.6654  0.0668  0.2999
   35DOPE    HS 4406   5.746   2.515   3.317 -2.7038 -0.9646 -0.8032
   35DOPE   O21 4407   5.666   2.602   3.495  0.5462  0.4571 -0.1740
   35DOPE   C21 4408   5.595   2.496   3.524  0.4057  0.3064  0.6136
   35DOPE   O22 4409   5.597   2.394   3.456 -0.2170  0.2271 -0.5843
   35DOPE   C22 4410   5.497   2.523   3.639  0.3632 -0.4770  0.0924
   35DOPE   H2R 4411   5.396   2.548   3.602  0.2359 -1.8801 -0.5247
   35DOPE   H2S 4412   5.521   2.615   3.697 -1.4042  0.1496 -0.1120
   35DOPE    C3 4413   5.800   2.725   3.342 -0.5940 -0.3113 -0.2263
   35DOPE    HX 4414   5.764   2.806   3.408 -0.0866 -0.4839  0.2708
   35DOPE    HY 4415   5.796   2.767   3.239 -2.1135  0.7105  0.2272
   35DOPE   O31 4416   5.928   2.684   3.382 -0.0672  0.3283 -0.3718
   35DOPE   C31 4417   6.032   2.765   3.384 -0.5346 -0.3081  0.1353
   35DOPE   O32 4418   6.035   2.873   3.324  0.3133 -0.6020  0.5264
   35DOPE   C32 4419   6.157   2.706   3.448  0.2567 -0.4008  0.6365
   35DOPE   H2X 4420   6.121   2.661   3.543 -1.3471  0.6589  0.5682
   35DOPE   H2Y 4421   6.197   2.627   3.381  0.3155  0.2096 -0.0652
   35DOPE   C23 4422   5.490   2.408   3.742  0.1652  0.0942  0.7973
   35DOPE   H3R 4423   5.486   2.314   3.683  0.8099 -0.5887  1.8045
   35DOPE   H3S 4424   5.392   2.412   3.794 -0.0359 -1.3524  0.5879
   35DOPE   C24 4425   5.595   2.417   3.850 -0.2150 -0.0142  0.7402
   35DOPE   H4R 4426   5.589   2.506   3.916  0.6353 -0.0722  0.9070
   35DOPE   H4S 4427   5.694   2.431   3.802 -0.1025 -0.8794  0.7079
   35DOPE   C25 4428   5.604   2.297   3.940 -0.3438  0.3327  0.6413
   35DOPE   H5R 4429   5.612   2.202   3.883  0.6510  0.4283  0.5933
   35DOPE   H5S 4430   5.512   2.289   4.002 -0.2936  0.0077  0.6776
   35DOPE   C26 4431   5.724   2.298   4.037 -0.1928 -0.7104  0.1186
   35DOPE   H6R 4432   5.820   2.283   3.984  1.0476 -1.5004  2.4606
   35DOPE   H6S 4433   5.721   2.218   4.114  1.4695  0.0044  0.9702
   35DOPE   C27 4434   5.730   2.429   4.117 -0.6104 -0.0568 -0.0656
   35DOPE   H7R 4435   5.634   2.431   4.173 -1.4560 -1.1675 -1.4117
   35DOPE   H7S 4436   5.734   2.512   4.044  1.2839 -0.8660 -0.9760
   35DOPE   C28 4437   5.848   2.440   4.218  0.1766 -0.0907 -0.6057
   35DOPE   H8R 4438   5.845   2.546   4.251 -1.6721 -0.0312 -0.8616
   35DOPE   H8S 4439   5.940   2.420   4.159  1.4853 -0.4145  1.4454
   35DOPE   C29 4440   5.833   2.349   4.336  0.2405 -0.4683  0.0553
   35DOPE   H9R 4441   5.741   2.356   4.397  0.6915 -1.0490  0.8160
   35DOPE  C210 4442   5.943   2.269   4.374  0.9248  0.8229  0.2268
   35DOPE  H10R 4443   5.931   2.198   4.457  0.4113  1.1585  0.4430
   35DOPE  C211 4444   6.079   2.259   4.307  0.5570 -0.4155  0.1025
   35DOPE  H11R 4445   6.070   2.286   4.200 -1.2223  0.7021  0.4979
   35DOPE  H11S 4446   6.127   2.160   4.297 -0.3317 -0.6953 -1.8484
   35DOPE  C212 4447   6.175   2.367   4.360  0.1585 -0.6416  0.2169
   35DOPE  H12R 4448   6.191   2.331   4.464 -1.6346 -0.6832  0.5163
   35DOPE  H12S 4449   6.133   2.470   4.360  1.1076 -0.2390 -0.1794
   35DOPE  C213 4450   6.298   2.363   4.281 -0.6756 -0.1745 -0.6894
   35DOPE  H13R 4451   6.282   2.406   4.180  3.6583  1.0440 -1.0940
   35DOPE  H13S 4452   6.327   2.256   4.281 -1.5270 -0.4662  1.7821
   35DOPE  C214 4453   6.418   2.442   4.343  0.1912  0.5555  0.3457
   35DOPE  H14R 4454   6.414   2.440   4.454 -1.6975 -0.2699  0.2957
   35DOPE  H14S 4455   6.406   2.546   4.307 -1.4692 -0.2425 -1.5963
   35DOPE  C215 4456   6.554   2.386   4.291 -0.4542 -1.3535 -0.0693
   35DOPE  H15R 4457   6.565   2.399   4.182 -3.0547  1.2342 -0.1450
   35DOPE  H15S 4458   6.568   2.278   4.317 -0.6073 -1.0319  1.4877
   35DOPE  C216 4459   6.658   2.466   4.375  0.3200 -0.1615 -0.1362
   35DOPE  H16R 4460   6.758   2.428   4.346  0.3518  1.2704 -2.1128
   35DOPE  H16S 4461   6.638   2.458   4.484 -1.0835 -1.0189 -0.4330
   35DOPE  C217 4462   6.670   2.623   4.347 -0.3273  0.3481 -0.5146
   35DOPE  H17R 4463   6.746   2.663   4.418  0.5407  0.4730 -1.4956
   35DOPE  H17S 4464   6.573   2.673   4.366 -0.6911 -0.9091  1.3108
   35DOPE  C218 4465   6.730   2.652   4.204  0.0318 -0.3443  0.6662
   35DOPE  H18R 4466   6.668   2.611   4.121  0.7194 -5.2874  2.2669
   35DOPE  H18S 4467   6.832   2.611   4.192 -0.5390 -1.0614 -3.0320
   35DOPE  H18T 4468   6.729   2.763   4.199 -3.3494 -0.3126 -1.3272
   35DOPE   C33 4469   6.267   2.805   3.494  0.6147 -0.1069 -0.6393
   35DOPE   H3X 4470   6.303   2.870   3.412 -0.0445 -1.1834 -1.8150
   35DOPE   H3Y 4471   6.357   2.749   3.529  1.1689  0.9497 -0.3434
   35DOPE   C34 4472   6.209   2.894   3.602 -0.0132 -0.0185  0.4916
   35DOPE   H4X 4473   6.131   2.952   3.549  0.0437  0.1954  0.6365
   35DOPE   H4Y 4474   6.145   2.836   3.672  0.1423 -1.0911 -0.2398
   35DOPE   C35 4475   6.303   2.992   3.665  0.0346 -0.1946 -0.3501
   35DOPE   H5X 4476   6.260   3.091   3.690 -0.7210 -0.5805 -0.0974
   35DOPE   H5Y 4477   6.386   3.011   3.593  1.3723  2.1540  1.6813
   35DOPE   C36 4478   6.362   2.942   3.798 -0.2508  0.2726  0.2644
   35DOPE   H6X 4479   6.399   2.839   3.777 -0.0650  0.2980  0.4637
   35DOPE   H6Y 4480   6.286   2.937   3.878  0.5887 -0.4216  1.0478
   35DOPE   C37 4481   6.475   3.024   3.850 -0.8553 -0.8598 -0.3807
   35DOPE   H7X 4482   6.557   3.006   3.776  0.3927 -0.0232  0.7541
   35DOPE   H7Y 4483   6.451   3.132   3.849  1.4747 -0.2455  1.0140
   35DOPE   C38 4484   6.517   2.971   3.987  0.0130  0.1539  0.0897
   35DOPE   H8X 4485   6.532   2.861   3.978 -1.1551 -0.0104 -0.0238
   35DOPE   H8Y 4486   6.425   2.978   4.049 -0.3272 -0.4803 -0.3223
   35DOPE   C39 4487   6.640   3.047   4.037  0.6216  0.3055  0.0570
   35DOPE   H9X 4488   6.703   3.094   3.960 -0.1628  2.0900  0.4677
   35DOPE  C310 4489   6.679   3.061   4.163 -0.1729 -0.2998  0.4167
   35DOPE  H10X 4490   6.766   3.125   4.183 -1.1610  1.1806  0.1186
   35DOPE  C311 4491   6.623   3.005   4.286  0.5452  0.0371 -0.1413
   35DOPE  H11X 4492   6.531   2.946   4.263  0.5534  0.3639 -1.0636
   35DOPE  H11Y 4493   6.693   2.933   4.333  1.3475 -0.0404 -1.4000
   35DOPE  C312 4494   6.599   3.104   4.395  0.1161 -0.0013 -0.8247
   35DOPE  H12X 4495   6.683   3.174   4.412 -0.8345  0.2592  4.5370
   35DOPE  H12Y 4496   6.592   3.044   4.489 -0.8832 -1.9024 -2.0421
   35DOPE  C313 4497   6.468   3.186   4.389  0.0644 -0.1169  0.2263
   35DOPE  H13X 4498   6.451   3.217   4.284 -0.2215  0.8141  0.5362
   35DOPE  H13Y 4499   6.382   3.121   4.414  0.8443 -1.3188 -0.1707
   35DOPE  C314 4500   6.464   3.304   4.492 -0.0303 -0.4174  0.0636
   35DOPE  H14X 4501   6.556   3.365   4.475 -0.0363 -0.4855 -0.2311
   35DOPE  H14Y 4502   6.453   3.259   4.592 -0.4728 -0.9387 -0.2153
   35DOPE  C315 4503   6.346   3.393   4.469  0.3555  0.1150 -0.1729
   35DOPE  H15X 4504   6.331   3.398   4.360 -2.1007 -0.5975  0.0822
   35DOPE  H15Y 4505   6.357   3.493   4.516  2.0418  0.4233 -1.1428
   35DOPE  C316 4506   6.209   3.329   4.517 -0.1599 -0.1446  0.3561
   35DOPE  H16X 4507   6.200   3.229   4.470  2.2026 -0.8877  1.3380
   35DOPE  H16Y 4508   6.127   3.393   4.479  0.4607  1.6575  1.9036
   35DOPE  C317 4509   6.194   3.306   4.664  0.1589  0.5632 -0.0550
   35DOPE  H17X 4510   6.258   3.224   4.701  0.2620  0.4208 -0.5351
   35DOPE  H17Y 4511   6.223   3.402   4.712  0.7213  1.1893 -1.5640
   35DOPE  C318 4512   6.055   3.264   4.711 -0.2819  0.7727 -0.2170
   35DOPE  H18X 4513   5.983   3.348   4.706 -0.7720  0.3821  0.1887
   35DOPE  H18Y 4514   6.018   3.175   4.655 -1.8842  0.1428  1.7378
   35DOPE  H18Z 4515   6.057   3.229   4.817  3.6986 -0.0269 -0.3921
   36DOPE     N 4516   5.144   3.006   3.190  0.1325  0.4705  0.7172
   36DOPE   HN1 4517   5.058   2.971   3.238 -0.1658  0.6626  0.3238
   36DOPE   HN2 4518   5.130   3.030   3.090  0.8810 -0.6470  0.3217
   36DOPE   HN3 4519   5.214   2.929   3.194 -1.6901 -1.3582 -0.2470
   36DOPE   C12 4520   5.185   3.122   3.277  0.1679  0.1552  0.1783
   36DOPE  H12A 4521   5.164   3.213   3.216 -1.6536  0.1914  0.8062
   36DOPE  H12B 4522   5.293   3.112   3.301  0.2731 -0.2547 -0.4511
   36DOPE   C11 4523   5.115   3.123   3.415 -0.1536  0.1343 -0.2473
   36DOPE  H11A 4524   5.183   3.163   3.493 -2.0489 -0.6122  1.9088
   36DOPE  H11B 4525   5.087   3.020   3.446  1.0234 -0.3424 -0.7216
   36DOPE     P 4526   4.999   3.350   3.438  0.1345 -0.0064  0.1041
   36DOPE   O13 4527   4.898   3.404   3.338  0.2466  0.3438 -0.5188
   36DOPE   O14 4528   5.135   3.412   3.438  0.1045 -0.3956  0.5809
   36DOPE   O11 4529   4.944   3.369   3.582  0.2031  0.5275  0.2456
   36DOPE   O12 4530   4.995   3.193   3.417 -0.2029 -0.6961  0.0825
   36DOPE    C1 4531   4.953   3.256   3.670  0.0107 -0.2022 -0.0207
   36DOPE    HA 4532   5.054   3.221   3.699  0.7566  1.5350 -0.3813
   36DOPE    HB 4533   4.892   3.174   3.627 -1.5664  1.6941 -1.5888
   36DOPE    C2 4534   4.873   3.287   3.796  0.2729  0.1552 -0.2106
   36DOPE    HS 4535   4.880   3.191   3.853 -2.3515  0.6785  1.1463
   36DOPE   O21 4536   4.740   3.336   3.770  0.5711 -0.7558  0.2244
   36DOPE   C21 4537   4.654   3.235   3.762  0.0191  0.0237  0.0644
   36DOPE   O22 4538   4.681   3.119   3.751  0.9405  0.2459 -0.3385
   36DOPE   C22 4539   4.504   3.278   3.750 -0.7377 -0.6660 -0.2131
   36DOPE   H2R 4540   4.465   3.233   3.656 -2.0995  0.6044 -0.2822
   36DOPE   H2S 4541   4.493   3.387   3.736 -1.2529 -0.6436  0.3630
   36DOPE    C3 4542   4.940   3.395   3.878  0.8657 -0.1618  0.7251
   36DOPE    HX 4543   4.924   3.484   3.812  0.2133 -1.8673 -1.5769
   36DOPE    HY 4544   5.049   3.379   3.892  0.5882 -0.0959  3.4132
   36DOPE   O31 4545   4.870   3.404   4.001 -0.0662 -0.0716 -0.1284
   36DOPE   C31 4546   4.889   3.517   4.071  0.2601 -0.1654 -0.2390
   36DOPE   O32 4547   4.955   3.614   4.027  0.1307  0.0498 -0.7903
   36DOPE   C32 4548   4.813   3.517   4.207 -0.2372 -0.7075 -0.6638
   36DOPE   H2X 4549   4.766   3.617   4.221  0.7087 -0.4543  0.9666
   36DOPE   H2Y 4550   4.731   3.442   4.201 -0.7315 -0.3566  1.2297
   36DOPE   C23 4551   4.432   3.229   3.870 -0.0825  0.0400 -0.2991
   36DOPE   H3R 4552   4.437   3.119   3.879  0.0247 -0.2086 -2.7412
   36DOPE   H3S 4553   4.325   3.251   3.850 -0.1944  2.7982  2.5778
   36DOPE   C24 4554   4.470   3.298   4.005 -0.5318  0.0151  0.5908
   36DOPE   H4R 4555   4.420   3.397   4.012  0.2944  0.4457  0.4684
   36DOPE   H4S 4556   4.574   3.335   4.010 -0.4519 -0.2834  3.8293
   36DOPE   C25 4557   4.464   3.202   4.119 -0.2743  0.0271 -0.7495
   36DOPE   H5R 4558   4.550   3.132   4.114 -0.1933 -0.0627  1.1738
   36DOPE   H5S 4559   4.372   3.140   4.108 -0.8097  0.0832  2.3886
   36DOPE   C26 4560   4.458   3.280   4.259 -0.1450  0.0330 -1.0463
   36DOPE   H6R 4561   4.519   3.372   4.266 -0.4065  0.1389 -0.0648
   36DOPE   H6S 4562   4.474   3.206   4.340 -0.3630 -0.7365 -1.6812
   36DOPE   C27 4563   4.310   3.327   4.278 -0.3550  0.0580  0.5788
   36DOPE   H7R 4564   4.236   3.245   4.294 -0.3258 -0.1041 -0.0817
   36DOPE   H7S 4565   4.278   3.387   4.191 -1.2283  0.0471  0.8788
   36DOPE   C28 4566   4.301   3.421   4.402 -0.2292  0.4373  0.7797
   36DOPE   H8R 4567   4.211   3.485   4.406  0.2291  1.2270 -0.7230
   36DOPE   H8S 4568   4.383   3.496   4.387 -1.5558  1.7061 -0.4008
   36DOPE   C29 4569   4.313   3.356   4.532 -0.2761  0.2476  0.1100
   36DOPE   H9R 4570   4.246   3.273   4.561 -3.0950  1.7345 -1.6034
   36DOPE  C210 4571   4.388   3.408   4.634 -0.1767  0.2031 -0.2767
   36DOPE  H10R 4572   4.398   3.351   4.727  2.7518  1.4802  0.3187
   36DOPE  C211 4573   4.484   3.530   4.616 -0.0168 -0.3576 -0.3173
   36DOPE  H11R 4574   4.423   3.621   4.630 -2.0644 -1.3382 -2.2636
   36DOPE  H11S 4575   4.525   3.548   4.514  0.5279  0.3133  0.0093
   36DOPE  C212 4576   4.606   3.528   4.713 -0.2477  0.0593 -0.3219
   36DOPE  H12R 4577   4.669   3.619   4.704  0.5582 -0.0033  3.2041
   36DOPE  H12S 4578   4.673   3.444   4.686  2.2718  0.7894  2.9682
   36DOPE  C213 4579   4.571   3.507   4.864 -0.6016 -0.1173 -0.0551
   36DOPE  H13R 4580   4.545   3.401   4.884  3.3650 -1.1461  0.2858
   36DOPE  H13S 4581   4.488   3.575   4.896  0.6399  1.5487 -0.2682
   36DOPE  C214 4582   4.686   3.557   4.960  0.2137 -0.8713 -0.8699
   36DOPE  H14R 4583   4.705   3.664   4.938  0.9008 -0.7466  0.2400
   36DOPE  H14S 4584   4.777   3.494   4.956  0.0902 -0.9865 -2.4636
   36DOPE  C215 4585   4.631   3.555   5.105  0.1441  0.4707  0.4646
   36DOPE  H15R 4586   4.570   3.465   5.130 -0.1479  0.3389 -0.6877
   36DOPE  H15S 4587   4.551   3.632   5.106 -3.1705 -2.6268 -0.5799
   36DOPE  C216 4588   4.728   3.582   5.214  0.5918 -0.3746 -0.4977
   36DOPE  H16R 4589   4.790   3.673   5.206  1.3422 -0.6924  1.1196
   36DOPE  H16S 4590   4.806   3.504   5.201  1.6592  0.9849 -2.7571
   36DOPE  C217 4591   4.668   3.556   5.352 -0.2662 -0.4473  0.0808
   36DOPE  H17R 4592   4.644   3.449   5.368  1.2049 -0.9432 -0.7452
   36DOPE  H17S 4593   4.569   3.607   5.357 -1.7496 -3.1300 -0.1207
   36DOPE  C218 4594   4.752   3.598   5.470  0.2744  0.1438 -0.0169
   36DOPE  H18R 4595   4.844   3.536   5.471  2.0554  2.6504  1.0903
   36DOPE  H18S 4596   4.696   3.582   5.565  2.6600 -2.9279  1.0463
   36DOPE  H18T 4597   4.781   3.704   5.457  2.2911 -0.4856 -1.0657
   36DOPE   C33 4598   4.900   3.490   4.334  0.1400 -0.0794  0.0109
   36DOPE   H3X 4599   4.899   3.381   4.360  0.5351  0.5019  2.8735
   36DOPE   H3Y 4600   4.851   3.542   4.419  0.9505 -0.1772  0.5530
   36DOPE   C34 4601   5.037   3.543   4.325 -0.0728 -0.3727 -0.0314
   36DOPE   H4X 4602   5.085   3.492   4.239  1.4010  1.7507 -0.5468
   36DOPE   H4Y 4603   5.024   3.651   4.302 -0.0225 -0.1325  1.0487
   36DOPE   C35 4604   5.114   3.554   4.457  0.2427  0.0797  0.4434
   36DOPE   H5X 4605   5.219   3.578   4.430 -0.0423 -1.3251 -2.2425
   36DOPE   H5Y 4606   5.122   3.457   4.512  0.6403  0.1993  0.5974
   36DOPE   C36 4607   5.065   3.663   4.554 -0.1798  0.3677 -0.4328
   36DOPE   H6X 4608   5.138   3.662   4.638  1.5841  0.0221 -1.9191
   36DOPE   H6Y 4609   4.968   3.641   4.603  0.0408  1.3458  0.4898
   36DOPE   C37 4610   5.066   3.809   4.497  0.6158  0.0949 -0.6998
   36DOPE   H7X 4611   5.133   3.813   4.409  1.7420  2.0553  0.1829
   36DOPE   H7Y 4612   4.968   3.840   4.455  0.5216 -0.0529 -0.5885
   36DOPE   C38 4613   5.110   3.915   4.605 -0.0320  0.2448  0.3563
   36DOPE   H8X 4614   5.167   3.991   4.546  2.4331 -2.4262 -0.9328
   36DOPE   H8Y 4615   5.184   3.871   4.674 -0.2924 -2.7343 -1.1169
   36DOPE   C39 4616   4.996   3.982   4.677  0.1754  0.1334 -0.6846
   36DOPE   H9X 4617   4.896   3.977   4.631  0.3255 -0.5486 -0.9581
   36DOPE  C310 4618   5.004   4.029   4.807 -0.0670  0.3002  0.4394
   36DOPE  H10X 4619   4.909   4.070   4.847 -0.7449  0.5331 -1.2937
   36DOPE  C311 4620   5.126   4.020   4.896 -0.0459 -0.0346 -0.1712
   36DOPE  H11X 4621   5.091   3.991   4.997  0.8134 -0.0049  0.1402
   36DOPE  H11Y 4622   5.183   3.925   4.888  1.7124  0.8420  1.2226
   36DOPE  C312 4623   5.219   4.139   4.901 -0.1764  0.0835  0.2827
   36DOPE  H12X 4624   5.309   4.118   4.962 -0.8464  0.0077  1.2789
   36DOPE  H12Y 4625   5.161   4.223   4.944 -1.9059 -2.4772  3.3637
   36DOPE  C313 4626   5.278   4.182   4.770  0.4963  0.3586  0.8595
   36DOPE  H13X 4627   5.311   4.095   4.710  0.4169  0.3563  0.8199
   36DOPE  H13Y 4628   5.201   4.231   4.706  0.0045 -1.1583  0.2495
   36DOPE  C314 4629   5.387   4.289   4.800 -0.4021 -0.1702  0.7540
   36DOPE  H14X 4630   5.354   4.353   4.885  1.8262  0.5730  1.1212
   36DOPE  H14Y 4631   5.404   4.345   4.706  1.2523 -1.7201  0.0573
   36DOPE  C315 4632   5.525   4.218   4.829  0.1703  0.1677  0.0993
   36DOPE  H15X 4633   5.532   4.140   4.750 -0.6741  0.4125 -0.2272
   36DOPE  H15Y 4634   5.524   4.178   4.933 -0.9056 -1.7045 -0.5808
   36DOPE  C316 4635   5.647   4.305   4.810  0.3008  0.2025 -0.3058
   36DOPE  H16X 4636   5.670   4.368   4.899  0.9181  0.3304 -0.5508
   36DOPE  H16Y 4637   5.630   4.365   4.718 -2.1920  1.6424  0.9935
   36DOPE  C317 4638   5.771   4.214   4.781 -0.2138  0.7943  0.4277
   36DOPE  H17X 4639   5.779   4.142   4.865 -1.8361 -0.5266 -0.4989
   36DOPE  H17Y 4640   5.766   4.144   4.695 -0.2722 -0.8345  1.6999
   36DOPE  C318 4641   5.895   4.299   4.760 -0.4469 -0.3263  0.2382
   36DOPE  H18X 4642   5.988   4.243   4.739 -1.9992 -3.1662  0.5002
   36DOPE  H18Y 4643   5.880   4.364   4.671  3.0953 -1.2993 -1.2333
   36DOPE  H18Z 4644   5.907   4.365   4.849  1.7693 -0.6448  0.2244
   37DOPE     N 4645   1.394   2.387   3.241 -0.1052  0.1422  0.2238
   37DOPE   HN1 4646   1.486   2.343   3.262 -0.2079 -0.1195  0.1223
   37DOPE   HN2 4647   1.353   2.436   3.323  0.3535 -1.9146  1.7807
   37DOPE   HN3 4648   1.331   2.307   3.221 -1.2595  1.1915 -0.4685
   37DOPE   C12 4649   1.406   2.471   3.113 -0.8301  0.5057 -0.7861
   37DOPE  H12A 4650   1.309   2.467   3.059 -1.6316  0.8420  0.6058
   37DOPE  H12B 4651   1.475   2.418   3.043 -2.1722 -2.2238 -0.1570
   37DOPE   C11 4652   1.445   2.621   3.144 -0.5253  0.3247  0.5362
   37DOPE  H11A 4653   1.370   2.651   3.221  0.5283 -0.2976  1.8568
   37DOPE  H11B 4654   1.450   2.683   3.052 -1.0119 -0.3996  0.0080
   37DOPE     P 4655   1.662   2.740   3.224 -0.5989 -0.5954 -0.2657
   37DOPE   O13 4656   1.576   2.864   3.220  0.3867 -0.2120  0.1140
   37DOPE   O14 4657   1.776   2.736   3.130 -0.2031  0.3944 -0.2433
   37DOPE   O11 4658   1.720   2.716   3.368  0.2246 -0.8613 -0.1404
   37DOPE   O12 4659   1.578   2.615   3.195 -0.3574 -0.2334  0.1900
   37DOPE    C1 4660   1.815   2.607   3.388  1.0249  0.5055 -0.4498
   37DOPE    HA 4661   1.905   2.619   3.323  0.6887  1.1973 -0.7939
   37DOPE    HB 4662   1.761   2.511   3.374  0.1613  1.1258 -1.4968
   37DOPE    C2 4663   1.863   2.607   3.539  0.5301 -0.1557 -0.1090
   37DOPE    HS 4664   1.957   2.549   3.552 -1.1429 -3.0103  0.0677
   37DOPE   O21 4665   1.760   2.556   3.632  0.4330 -0.7202 -1.0706
   37DOPE   C21 4666   1.727   2.435   3.618  0.3681  0.0273 -0.4272
   37DOPE   O22 4667   1.789   2.356   3.550  0.1034 -0.4285 -0.0924
   37DOPE   C22 4668   1.586   2.399   3.673  0.6205 -0.3876  0.8989
   37DOPE   H2R 4669   1.518   2.398   3.586  1.2737  0.7828  0.3431
   37DOPE   H2S 4670   1.548   2.470   3.749  0.7929  1.6325 -0.7972
   37DOPE    C3 4671   1.892   2.754   3.576 -0.2285 -0.2842  0.5315
   37DOPE    HX 4672   1.798   2.812   3.566 -0.3612 -0.6245 -0.2779
   37DOPE    HY 4673   1.968   2.799   3.508  0.9264  0.2785  2.1288
   37DOPE   O31 4674   1.925   2.778   3.714  0.2111 -0.2680 -0.4809
   37DOPE   C31 4675   2.046   2.736   3.756  0.1123 -0.8965  0.8068
   37DOPE   O32 4676   2.132   2.694   3.681 -0.3375  0.1019 -0.4859
   37DOPE   C32 4677   2.069   2.764   3.905  0.5285  0.5323  0.0100
   37DOPE   H2X 4678   2.179   2.762   3.924  0.0732 -0.8411  3.2037
   37DOPE   H2Y 4679   2.022   2.863   3.924 -0.0699  0.2101  0.2405
   37DOPE   C23 4680   1.583   2.256   3.734  0.1376 -0.0531  0.0443
   37DOPE   H3R 4681   1.631   2.180   3.668  1.0726  1.6235 -1.2739
   37DOPE   H3S 4682   1.475   2.227   3.736  0.0461  0.3049  1.8635
   37DOPE   C24 4683   1.636   2.236   3.871  0.5201 -0.0962  0.4245
   37DOPE   H4R 4684   1.607   2.324   3.932 -0.5745 -0.7189  0.8290
   37DOPE   H4S 4685   1.747   2.231   3.865  0.7262 -0.2950  3.2780
   37DOPE   C25 4686   1.594   2.110   3.942 -0.3587  0.7907  0.0419
   37DOPE   H5R 4687   1.483   2.110   3.953 -0.4164 -3.1267  0.6491
   37DOPE   H5S 4688   1.642   2.112   4.042  0.2641 -0.5055 -0.2186
   37DOPE   C26 4689   1.636   1.981   3.867  0.1091  0.6436 -0.1300
   37DOPE   H6R 4690   1.596   1.990   3.763 -0.0482  0.7496 -0.0616
   37DOPE   H6S 4691   1.574   1.896   3.904  0.6413  0.2226 -0.2070
   37DOPE   C27 4692   1.780   1.954   3.861 -0.4091  0.2704 -0.3744
   37DOPE   H7R 4693   1.843   2.039   3.828  0.6053 -0.1927  0.3182
   37DOPE   H7S 4694   1.797   1.882   3.778 -0.3729  3.2152 -3.1302
   37DOPE   C28 4695   1.843   1.894   3.991 -0.5287 -0.8239 -0.6526
   37DOPE   H8R 4696   1.781   1.808   4.025 -0.3862 -0.4327  0.6862
   37DOPE   H8S 4697   1.844   1.977   4.066  0.4183 -0.3545 -1.1673
   37DOPE   C29 4698   1.986   1.858   3.977  0.1500 -0.5152  0.3548
   37DOPE   H9R 4699   2.028   1.868   3.876  0.8577  0.8918  0.7624
   37DOPE  C210 4700   2.047   1.792   4.074 -0.7966  0.1781  0.3039
   37DOPE  H10R 4701   2.152   1.761   4.068 -0.6778  0.5251  0.6203
   37DOPE  C211 4702   1.978   1.743   4.205 -0.1579  0.2078 -0.0296
   37DOPE  H11R 4703   1.906   1.658   4.195  0.4734 -0.3882  0.3638
   37DOPE  H11S 4704   1.912   1.824   4.242  0.2643  0.3570  0.4081
   37DOPE  C212 4705   2.082   1.697   4.308 -0.0319 -0.3464  0.1690
   37DOPE  H12R 4706   2.156   1.776   4.334  0.2697  0.2573 -2.2444
   37DOPE  H12S 4707   2.137   1.614   4.259 -1.0758 -1.7567  1.3074
   37DOPE  C213 4708   2.011   1.645   4.436 -0.4798 -0.1563 -0.1580
   37DOPE  H13R 4709   1.935   1.572   4.403 -0.5663 -0.8355  1.4591
   37DOPE  H13S 4710   1.950   1.730   4.475 -2.4985 -0.5860 -2.1475
   37DOPE  C214 4711   2.102   1.590   4.541  0.3231 -0.1757 -0.2818
   37DOPE  H14R 4712   2.181   1.667   4.559  0.1455 -0.1594  0.4932
   37DOPE  H14S 4713   2.162   1.503   4.508  0.4606 -0.1743 -0.0432
   37DOPE  C215 4714   2.019   1.552   4.671  0.1701 -0.2894  0.5889
   37DOPE  H15R 4715   2.089   1.501   4.740  0.4253 -1.3850 -0.4508
   37DOPE  H15S 4716   1.934   1.491   4.635 -1.2807  1.7369  0.4217
   37DOPE  C216 4717   1.959   1.671   4.743 -0.0794 -0.0243 -0.1717
   37DOPE  H16R 4718   1.884   1.713   4.673 -0.8156 -2.5343 -1.0194
   37DOPE  H16S 4719   2.038   1.744   4.769  0.9137 -0.9613 -0.4478
   37DOPE  C217 4720   1.876   1.642   4.863 -0.3494 -0.0593 -0.4023
   37DOPE  H17R 4721   1.780   1.598   4.830 -0.4520  0.2575 -0.5318
   37DOPE  H17S 4722   1.845   1.742   4.900 -0.1787 -0.9154  2.2998
   37DOPE  C218 4723   1.946   1.579   4.982 -0.1570  0.3851 -0.2662
   37DOPE  H18R 4724   1.989   1.479   4.958 -2.4367 -0.6545 -0.2439
   37DOPE  H18S 4725   1.869   1.553   5.057  0.6375  0.9543  0.7741
   37DOPE  H18T 4726   2.030   1.640   5.021 -0.7710  1.1049 -0.0594
   37DOPE   C33 4727   1.996   2.666   3.998  0.2335  0.4648  0.2192
   37DOPE   H3X 4728   1.888   2.659   3.971  0.4557  0.1947 -0.6395
   37DOPE   H3Y 4729   1.999   2.697   4.104 -1.0814  0.1652  0.3574
   37DOPE   C34 4730   2.061   2.532   3.974 -0.4821  0.3323  0.0013
   37DOPE   H4X 4731   2.057   2.502   3.867 -1.7947  1.2581 -0.2295
   37DOPE   H4Y 4732   2.165   2.541   4.012  0.5318 -1.5877 -2.0981
   37DOPE   C35 4733   1.980   2.430   4.050  0.3145  0.5915 -0.1191
   37DOPE   H5X 4734   1.886   2.413   3.993  0.2183  1.9658 -0.4106
   37DOPE   H5Y 4735   1.946   2.466   4.149 -2.0781  1.0250 -1.0367
   37DOPE   C36 4736   2.060   2.301   4.090  0.1630 -0.2793 -0.2701
   37DOPE   H6X 4737   2.163   2.327   4.121 -0.3160  2.3756 -0.7155
   37DOPE   H6Y 4738   2.073   2.240   3.998  0.2449  1.7248 -1.6587
   37DOPE   C37 4739   1.996   2.208   4.201  0.6612  0.1382 -0.0425
   37DOPE   H7X 4740   1.891   2.182   4.176  1.4631 -2.1740 -1.2290
   37DOPE   H7Y 4741   2.043   2.108   4.197  0.2509 -0.0369 -0.6075
   37DOPE   C38 4742   2.000   2.274   4.340 -0.0691  0.2124  0.2150
   37DOPE   H8X 4743   1.945   2.224   4.422  0.6577 -0.3529  0.3669
   37DOPE   H8Y 4744   1.948   2.372   4.336  0.4465  0.4481 -0.9251
   37DOPE   C39 4745   2.140   2.301   4.398  0.0504 -0.3211  0.6361
   37DOPE   H9X 4746   2.156   2.409   4.414  1.6057 -0.1366 -1.6378
   37DOPE  C310 4747   2.226   2.213   4.448  0.1797 -0.1383 -0.3722
   37DOPE  H10X 4748   2.321   2.250   4.491  0.2908 -1.3379  0.4580
   37DOPE  C311 4749   2.218   2.065   4.446 -0.6113 -0.0500 -0.4203
   37DOPE  H11X 4750   2.144   2.039   4.368 -1.6697 -1.0229  0.8611
   37DOPE  H11Y 4751   2.321   2.028   4.427  0.5363  2.6244  0.2402
   37DOPE  C312 4752   2.175   1.995   4.580 -0.1964  0.1001  0.4516
   37DOPE  H12X 4753   2.165   1.885   4.568 -1.3332  0.2591 -0.1735
   37DOPE  H12Y 4754   2.073   2.036   4.594  0.5298  2.2516 -0.1411
   37DOPE  C313 4755   2.257   2.031   4.711  0.3418 -0.0621  0.4213
   37DOPE  H13X 4756   2.365   2.005   4.704  0.4151  0.3441 -0.0210
   37DOPE  H13Y 4757   2.247   2.141   4.723 -1.0695  0.0534 -1.4450
   37DOPE  C314 4758   2.216   1.952   4.841  0.3278  0.2335  0.5061
   37DOPE  H14X 4759   2.233   1.843   4.822 -0.5180  0.1709  0.0564
   37DOPE  H14Y 4760   2.107   1.958   4.865  0.0385  0.6536 -0.8336
   37DOPE  C315 4761   2.303   1.974   4.960 -0.2056 -0.0297  0.3826
   37DOPE  H15X 4762   2.323   2.083   4.954 -0.2417 -0.0888 -3.7499
   37DOPE  H15Y 4763   2.401   1.923   4.945 -0.0755 -0.1341  1.5094
   37DOPE  C316 4764   2.244   1.922   5.090  0.1909 -0.1441 -0.0493
   37DOPE  H16X 4765   2.200   1.821   5.078 -2.9534  1.1419 -0.4205
   37DOPE  H16Y 4766   2.154   1.985   5.107  0.8781  2.0867 -3.5066
   37DOPE  C317 4767   2.343   1.914   5.206  0.3443 -0.2180  0.4398
   37DOPE  H17X 4768   2.432   1.854   5.173 -0.0084 -0.8309  0.5804
   37DOPE  H17Y 4769   2.379   2.017   5.226  0.5085  0.3275 -2.2792
   37DOPE  C318 4770   2.264   1.853   5.320 -0.1916  0.1799 -0.4098
   37DOPE  H18X 4771   2.195   1.926   5.368 -0.7994 -0.4453 -0.3143
   37DOPE  H18Y 4772   2.204   1.761   5.301  0.8949 -0.9646  1.3824
   37DOPE  H18Z 4773   2.335   1.821   5.399  1.6286 -0.1178 -2.0750
   38DOPE     N 4774   3.158   5.193   3.113  0.1942 -0.0174 -0.4499
   38DOPE   HN1 4775   3.197   5.288   3.125 -1.4350  0.4888  1.4843
   38DOPE   HN2 4776   3.125   5.198   3.014  0.1783  1.1074 -0.3950
   38DOPE   HN3 4777   3.077   5.199   3.178  0.9881  2.8578  0.3797
   38DOPE   C12 4778   3.249   5.076   3.143 -0.3014 -0.5164 -0.5630
   38DOPE  H12A 4779   3.298   5.096   3.241 -0.6687 -0.9507 -0.2846
   38DOPE  H12B 4780   3.321   5.070   3.060  1.5296 -2.3656  1.0569
   38DOPE   C11 4781   3.175   4.944   3.151  0.4145  0.3739 -0.1556
   38DOPE  H11A 4782   3.109   4.949   3.241  1.9611  0.3181  1.0241
   38DOPE  H11B 4783   3.253   4.865   3.161  0.7547  0.6622 -0.5422
   38DOPE     P 4784   3.017   4.788   3.010  0.1214  0.3669 -0.0546
   38DOPE   O13 4785   3.113   4.681   3.040 -0.2236 -0.0723 -0.5584
   38DOPE   O14 4786   2.945   4.781   2.879 -0.6067 -0.8140 -0.3857
   38DOPE   O11 4787   2.908   4.793   3.122 -0.6482 -0.1441 -0.2570
   38DOPE   O12 4788   3.093   4.920   3.042  0.1349  0.2005  1.2448
   38DOPE    C1 4789   2.849   4.691   3.200  0.2757 -0.9073  0.3539
   38DOPE    HA 4790   2.873   4.594   3.152 -1.0674  0.0033 -2.3670
   38DOPE    HB 4791   2.741   4.717   3.204  0.8148  1.5047  1.4374
   38DOPE    C2 4792   2.892   4.698   3.345  0.6351  0.1366 -0.5318
   38DOPE    HS 4793   2.814   4.640   3.399  0.1752 -0.3385 -1.6813
   38DOPE   O21 4794   2.890   4.839   3.397  0.2050 -0.0532  0.3953
   38DOPE   C21 4795   2.776   4.876   3.442  0.2983  0.7683 -0.6842
   38DOPE   O22 4796   2.677   4.806   3.437  0.1900 -0.2455  0.1874
   38DOPE   C22 4797   2.792   5.006   3.515  0.0913 -0.6316 -0.0203
   38DOPE   H2R 4798   2.783   5.079   3.432 -4.1465 -2.4939 -1.4429
   38DOPE   H2S 4799   2.892   4.997   3.562  0.0460 -3.3475 -0.2906
   38DOPE    C3 4800   3.036   4.636   3.357  0.1030 -0.1039 -0.4002
   38DOPE    HX 4801   3.104   4.694   3.290  1.7499  0.0359  1.3072
   38DOPE    HY 4802   3.029   4.531   3.321 -1.6095 -0.1364 -0.0334
   38DOPE   O31 4803   3.083   4.638   3.493  0.4461 -0.6787 -0.4129
   38DOPE   C31 4804   3.170   4.727   3.519 -0.4621 -0.9733 -0.0060
   38DOPE   O32 4805   3.207   4.819   3.444  0.3073  0.1984 -0.1294
   38DOPE   C32 4806   3.234   4.704   3.659  0.1113  0.1084  0.4568
   38DOPE   H2X 4807   3.178   4.624   3.711  1.0155  0.1375  1.5285
   38DOPE   H2Y 4808   3.335   4.660   3.649 -0.1406 -0.4007  0.1613
   38DOPE   C23 4809   2.688   5.021   3.628  0.5976  0.1814 -0.1472
   38DOPE   H3R 4810   2.590   4.982   3.595  0.7333 -0.5534  0.2968
   38DOPE   H3S 4811   2.680   5.127   3.660  2.3712  0.1985  0.3714
   38DOPE   C24 4812   2.720   4.936   3.754  0.5208 -0.2577  0.0107
   38DOPE   H4R 4813   2.816   4.975   3.792 -0.1107  0.5742  0.7978
   38DOPE   H4S 4814   2.736   4.827   3.736 -0.7220 -0.3757 -0.5506
   38DOPE   C25 4815   2.625   4.946   3.874  0.3943  0.1649  0.1149
   38DOPE   H5R 4816   2.525   4.916   3.836  0.7379 -0.2829 -0.4530
   38DOPE   H5S 4817   2.621   5.048   3.917  1.2000 -1.0909  3.5101
   38DOPE   C26 4818   2.674   4.860   3.996 -0.1127  0.8048  0.5189
   38DOPE   H6R 4819   2.770   4.914   4.009 -0.3543  1.2635  0.4296
   38DOPE   H6S 4820   2.689   4.757   3.958 -1.0379 -0.8405  4.1034
   38DOPE   C27 4821   2.606   4.872   4.132  0.2310  0.4489 -0.4421
   38DOPE   H7R 4822   2.539   4.783   4.141  1.1237 -0.0182  2.8690
   38DOPE   H7S 4823   2.536   4.957   4.142  0.7657  0.9162 -0.6081
   38DOPE   C28 4824   2.701   4.867   4.250 -0.8706 -0.7237  0.0639
   38DOPE   H8R 4825   2.780   4.788   4.247  0.2383 -0.0330  4.3784
   38DOPE   H8S 4826   2.646   4.846   4.344 -0.4723 -2.0006  0.0297
   38DOPE   C29 4827   2.771   4.997   4.272  0.3105  0.4047 -0.3012
   38DOPE   H9R 4828   2.790   5.058   4.181 -0.2117  1.8794  0.5368
   38DOPE  C210 4829   2.835   5.038   4.384 -0.3194  0.0151  0.5633
   38DOPE  H10R 4830   2.885   5.136   4.392 -2.0966  0.8633  2.0904
   38DOPE  C211 4831   2.843   4.959   4.514 -0.2861 -0.6957  0.0303
   38DOPE  H11R 4832   2.936   4.994   4.564 -0.7024 -0.7762  0.8737
   38DOPE  H11S 4833   2.865   4.852   4.492  0.1584 -0.7263  0.6125
   38DOPE  C212 4834   2.718   4.973   4.596 -0.3834  0.3065 -1.1547
   38DOPE  H12R 4835   2.738   4.916   4.689  1.8489  0.3658 -1.5423
   38DOPE  H12S 4836   2.626   4.941   4.543 -0.2305 -0.3726 -1.0108
   38DOPE  C213 4837   2.699   5.114   4.639  0.7934  0.4904  1.0490
   38DOPE  H13R 4838   2.691   5.175   4.546  1.4887  1.5356  1.6557
   38DOPE  H13S 4839   2.790   5.152   4.690  0.8260  1.4546  0.3046
   38DOPE  C214 4840   2.586   5.126   4.729 -0.4585  0.6958 -0.2901
   38DOPE  H14R 4841   2.493   5.069   4.709  1.6725 -2.0235 -3.2881
   38DOPE  H14S 4842   2.558   5.234   4.733 -1.4379  0.4387  0.1944
   38DOPE  C215 4843   2.626   5.091   4.873  0.1788  0.3571 -0.0760
   38DOPE  H15R 4844   2.708   5.165   4.889  0.5508 -0.0645 -0.0130
   38DOPE  H15S 4845   2.669   4.989   4.877  1.6421  0.9316 -0.5262
   38DOPE  C216 4846   2.520   5.114   4.990 -0.0635  1.0954 -0.4737
   38DOPE  H16R 4847   2.434   5.046   4.970 -0.8227  1.6487  0.7613
   38DOPE  H16S 4848   2.483   5.218   4.984  0.1130  1.1429 -0.7904
   38DOPE  C217 4849   2.577   5.097   5.128  0.6498  0.0177 -0.1302
   38DOPE  H17R 4850   2.654   5.176   5.144  0.7963  0.2801 -1.9336
   38DOPE  H17S 4851   2.624   4.996   5.132  0.7913  0.0715 -0.3737
   38DOPE  C218 4852   2.485   5.108   5.245  0.0014 -0.0982  0.1677
   38DOPE  H18R 4853   2.407   5.028   5.243 -1.5258  1.3364 -0.1263
   38DOPE  H18S 4854   2.435   5.207   5.242 -1.5506 -0.7990  1.2933
   38DOPE  H18T 4855   2.541   5.103   5.341  0.3983  0.0601 -0.0544
   38DOPE   C33 4856   3.234   4.838   3.737 -0.3878  0.1185 -0.3116
   38DOPE   H3X 4857   3.240   4.924   3.668  2.8983 -0.7348 -1.2776
   38DOPE   H3Y 4858   3.326   4.848   3.799 -0.6919 -0.3845  0.2327
   38DOPE   C34 4859   3.122   4.852   3.843  0.3723  0.3847  0.5818
   38DOPE   H4X 4860   3.031   4.814   3.793  1.4887 -2.0564  0.2806
   38DOPE   H4Y 4861   3.133   4.779   3.926  0.7917 -0.2781 -0.0532
   38DOPE   C35 4862   3.095   4.993   3.896 -0.8527  0.1600 -0.2375
   38DOPE   H5X 4863   2.991   5.005   3.934 -2.3521 -2.3143 -3.0982
   38DOPE   H5Y 4864   3.121   5.073   3.823 -1.9466  0.1764 -0.6303
   38DOPE   C36 4865   3.176   5.013   4.026 -0.3906  0.0731 -0.6006
   38DOPE   H6X 4866   3.279   4.991   3.992  0.1913 -1.1649  1.7265
   38DOPE   H6Y 4867   3.167   4.943   4.112  1.6538  0.9328  0.3859
   38DOPE   C37 4868   3.172   5.156   4.077 -0.7866  0.1251  0.7946
   38DOPE   H7X 4869   3.198   5.231   3.999 -2.6165  0.2511  0.2757
   38DOPE   H7Y 4870   3.075   5.188   4.119 -1.1272  0.2286 -0.0551
   38DOPE   C38 4871   3.288   5.162   4.181 -0.5562  0.0849 -0.0857
   38DOPE   H8X 4872   3.372   5.092   4.160 -0.4963  0.1057  0.0815
   38DOPE   H8Y 4873   3.270   5.117   4.281  0.4980 -0.5644 -0.1720
   38DOPE   C39 4874   3.345   5.303   4.212 -0.1810 -0.3283 -0.3455
   38DOPE   H9X 4875   3.400   5.354   4.133  1.8331  2.2756  2.4862
   38DOPE  C310 4876   3.318   5.383   4.321 -0.4993 -0.9186 -0.4027
   38DOPE  H10X 4877   3.376   5.476   4.331 -1.9231  0.0679 -0.9607
   38DOPE  C311 4878   3.225   5.352   4.446 -0.5463  0.1298  0.0103
   38DOPE  H11X 4879   3.150   5.431   4.468 -1.4709 -0.7008 -0.0995
   38DOPE  H11Y 4880   3.164   5.262   4.425 -1.8209  1.0926 -0.5286
   38DOPE  C312 4881   3.289   5.326   4.586 -0.2198  0.5107  0.5026
   38DOPE  H12X 4882   3.337   5.421   4.617  0.0933  0.0948  1.3075
   38DOPE  H12Y 4883   3.361   5.244   4.564 -1.8548 -0.9040  0.2109
   38DOPE  C313 4884   3.176   5.282   4.680  0.1345  0.0002  0.3160
   38DOPE  H13X 4885   3.124   5.190   4.646  1.9703 -0.3215 -1.8877
   38DOPE  H13Y 4886   3.218   5.261   4.781 -1.3299  0.7323  1.1027
   38DOPE  C314 4887   3.069   5.393   4.717  0.4653  0.0468  0.1647
   38DOPE  H14X 4888   2.982   5.395   4.649  0.4026 -0.2559  0.2336
   38DOPE  H14Y 4889   3.130   5.485   4.711 -1.0731  1.1416  0.8262
   38DOPE  C315 4890   3.002   5.385   4.855  0.4438  0.0016  0.1862
   38DOPE  H15X 4891   3.085   5.399   4.928 -0.4958 -1.5763  1.6370
   38DOPE  H15Y 4892   2.954   5.290   4.887  0.9597 -0.4844 -0.4533
   38DOPE  C316 4893   2.913   5.515   4.876 -0.0502  0.4004  0.2036
   38DOPE  H16X 4894   2.818   5.499   4.820  0.3795  0.4041 -0.5379
   38DOPE  H16Y 4895   2.942   5.615   4.837 -3.0739  1.2973 -0.0665
   38DOPE  C317 4896   2.881   5.531   5.023 -1.0145 -0.5242  0.2441
   38DOPE  H17X 4897   2.969   5.563   5.082 -1.1950 -1.4609  1.0399
   38DOPE  H17Y 4898   2.801   5.608   5.029  0.0459  0.8112 -1.7638
   38DOPE  C318 4899   2.834   5.396   5.086  0.2227  0.1312 -0.8111
   38DOPE  H18X 4900   2.776   5.405   5.180 -0.0137 -4.6905 -0.2850
   38DOPE  H18Y 4901   2.769   5.343   5.013  0.0740 -0.5568 -0.1860
   38DOPE  H18Z 4902   2.924   5.334   5.103 -0.0663 -0.3211 -0.9189
   39DOPE     N 4903   1.029   1.830   2.915  0.2920 -0.3864  0.1654
   39DOPE   HN1 4904   1.093   1.754   2.948 -0.3518 -1.5951 -1.2195
   39DOPE   HN2 4905   0.987   1.785   2.831  2.2466 -1.2017 -0.4563
   39DOPE   HN3 4906   1.074   1.913   2.873 -1.9649 -0.3330 -2.3871
   39DOPE   C12 4907   0.931   1.856   3.026 -0.6218 -0.5775 -0.7098
   39DOPE  H12A 4908   0.870   1.767   3.050  1.3341 -1.3780  1.5895
   39DOPE  H12B 4909   0.879   1.949   2.994  1.5746  0.6433 -0.9124
   39DOPE   C11 4910   1.012   1.892   3.152  0.2858 -0.2485  0.7854
   39DOPE  H11A 4911   1.069   1.808   3.196  0.0199  0.8880  3.4599
   39DOPE  H11B 4912   0.941   1.922   3.232 -2.0478 -1.9520 -0.5320
   39DOPE     P 4913   1.219   2.034   3.222  0.1274 -0.4127  0.3203
   39DOPE   O13 4914   1.260   2.173   3.188  0.1501  0.3396 -0.0976
   39DOPE   O14 4915   1.315   1.927   3.206 -0.2577  0.1184 -0.1194
   39DOPE   O11 4916   1.146   2.028   3.360  0.0649  0.3042 -0.0484
   39DOPE   O12 4917   1.106   1.999   3.124  0.0476 -0.3003 -0.0335
   39DOPE    C1 4918   1.089   2.135   3.433 -0.3764  0.5782 -0.2800
   39DOPE    HA 4919   0.979   2.123   3.437 -0.4188  1.2174  0.9059
   39DOPE    HB 4920   1.110   2.238   3.396  1.2050  1.1340  1.9576
   39DOPE    C2 4921   1.144   2.147   3.583  0.5545 -0.0157 -0.2639
   39DOPE    HS 4922   1.248   2.187   3.579  0.5955 -0.0215  0.5479
   39DOPE   O21 4923   1.130   2.021   3.646 -0.0970 -0.0350 -0.1154
   39DOPE   C21 4924   1.236   1.945   3.642 -0.3951 -0.3714 -0.4389
   39DOPE   O22 4925   1.350   1.981   3.606 -0.0499  0.2870 -0.4546
   39DOPE   C22 4926   1.204   1.807   3.698 -0.2936  0.6714  0.2404
   39DOPE   H2R 4927   1.274   1.736   3.648 -1.0851 -1.3953  1.9353
   39DOPE   H2S 4928   1.099   1.784   3.671 -1.2845  3.5221  1.2360
   39DOPE    C3 4929   1.062   2.262   3.655  0.2691 -0.2380 -0.2908
   39DOPE    HX 4930   0.954   2.237   3.656  0.4985 -1.3244  1.1913
   39DOPE    HY 4931   1.067   2.356   3.597 -0.0861  0.9101  1.4647
   39DOPE   O31 4932   1.111   2.279   3.792  0.0274  0.4670 -0.0868
   39DOPE   C31 4933   1.194   2.374   3.826 -0.0757  0.6245 -0.3998
   39DOPE   O32 4934   1.236   2.470   3.766  0.8449 -0.5591 -0.0437
   39DOPE   C32 4935   1.243   2.333   3.968  0.1232  0.5201 -0.1970
   39DOPE   H2X 4936   1.157   2.326   4.037  0.9209  1.4204  0.9401
   39DOPE   H2Y 4937   1.298   2.237   3.966  0.3162  0.5847  1.2213
   39DOPE   C23 4938   1.257   1.803   3.854  0.0295 -0.4814  0.4936
   39DOPE   H3R 4939   1.365   1.827   3.863 -0.3343  1.4855 -0.0685
   39DOPE   H3S 4940   1.253   1.696   3.886 -0.2721 -0.6402 -0.0720
   39DOPE   C24 4941   1.179   1.893   3.949 -0.0652 -0.4435 -0.6379
   39DOPE   H4R 4942   1.085   1.840   3.974  0.4596 -0.9222  0.3650
   39DOPE   H4S 4943   1.159   1.994   3.905  1.6929  0.6319  0.8620
   39DOPE   C25 4944   1.252   1.925   4.086 -0.4091 -0.0228  0.3542
   39DOPE   H5R 4945   1.339   1.994   4.074  0.9575 -1.5151  1.3263
   39DOPE   H5S 4946   1.270   1.825   4.131  0.5959 -0.4687 -0.9855
   39DOPE   C26 4947   1.159   2.016   4.180  0.0260  0.6503 -0.0975
   39DOPE   H6R 4948   1.060   1.967   4.191  0.2298 -0.5752 -2.8090
   39DOPE   H6S 4949   1.137   2.112   4.127  3.0127  0.8642 -1.1246
   39DOPE   C27 4950   1.234   2.040   4.316 -0.4354 -0.3794 -0.0183
   39DOPE   H7R 4951   1.323   2.107   4.316 -0.7156  0.0027  0.7714
   39DOPE   H7S 4952   1.270   1.943   4.357  0.8049  0.2016  0.3237
   39DOPE   C28 4953   1.144   2.101   4.424  0.5671 -0.2050 -0.0842
   39DOPE   H8R 4954   1.050   2.044   4.410 -0.4215  1.6985 -1.6007
   39DOPE   H8S 4955   1.127   2.206   4.390 -0.4829 -0.0206  0.9096
   39DOPE   C29 4956   1.191   2.086   4.565 -1.0064 -0.1435  0.7617
   39DOPE   H9R 4957   1.227   1.983   4.583 -0.3040  0.0355  0.4294
   39DOPE  C210 4958   1.183   2.182   4.661  0.2057  0.9631 -0.5250
   39DOPE  H10R 4959   1.206   2.157   4.766 -1.7457 -1.1673 -0.5292
   39DOPE  C211 4960   1.127   2.321   4.641 -0.5576 -0.2443  0.1208
   39DOPE  H11R 4961   1.049   2.339   4.718  0.7959 -1.7933  1.9452
   39DOPE  H11S 4962   1.088   2.338   4.538  1.6781  1.2559 -0.5595
   39DOPE  C212 4963   1.238   2.436   4.645  0.2172 -1.0888 -0.2086
   39DOPE  H12R 4964   1.203   2.522   4.584  0.3110 -0.1756  0.9893
   39DOPE  H12S 4965   1.328   2.410   4.585  0.7521  2.7944 -1.3554
   39DOPE  C213 4966   1.271   2.482   4.788  0.2017 -0.1761  0.3570
   39DOPE  H13R 4967   1.175   2.493   4.841 -0.6505 -0.6906 -1.0367
   39DOPE  H13S 4968   1.317   2.583   4.778  0.0309 -0.2168 -0.9797
   39DOPE  C214 4969   1.377   2.402   4.868  0.1951 -1.5936  0.4169
   39DOPE  H14R 4970   1.474   2.414   4.815 -0.8383 -1.6798 -1.5968
   39DOPE  H14S 4971   1.348   2.296   4.852 -0.8870 -0.9046 -3.4038
   39DOPE  C215 4972   1.391   2.455   5.011 -0.2716  0.4290  0.0067
   39DOPE  H15R 4973   1.293   2.444   5.061  0.3023 -3.2176  0.6413
   39DOPE  H15S 4974   1.416   2.563   5.012 -0.9257  0.5894 -0.6512
   39DOPE  C216 4975   1.488   2.368   5.101  0.0329 -0.5101  0.0042
   39DOPE  H16R 4976   1.584   2.355   5.047 -0.9096 -1.9381 -1.4287
   39DOPE  H16S 4977   1.444   2.268   5.121 -1.3468 -0.0801 -0.7314
   39DOPE  C217 4978   1.527   2.436   5.238  0.4013 -0.1653 -0.0812
   39DOPE  H17R 4979   1.567   2.537   5.214  0.4973 -0.1454  0.1619
   39DOPE  H17S 4980   1.608   2.379   5.288 -0.4336  0.1500  1.7167
   39DOPE  C218 4981   1.404   2.466   5.325 -0.4350  0.1218 -0.0182
   39DOPE  H18R 4982   1.336   2.379   5.334  0.0162 -0.2600 -0.2199
   39DOPE  H18S 4983   1.348   2.548   5.277 -1.9610 -1.1933 -0.5796
   39DOPE  H18T 4984   1.433   2.498   5.427 -0.0992 -0.6550  0.1433
   39DOPE   C33 4985   1.343   2.439   4.037  0.1363 -0.6196  0.4411
   39DOPE   H3X 4986   1.287   2.534   4.050  1.5109  0.5545 -1.6031
   39DOPE   H3Y 4987   1.430   2.461   3.971  0.0444 -2.5590 -0.4100
   39DOPE   C34 4988   1.402   2.389   4.173  0.3179 -0.4024  0.1655
   39DOPE   H4X 4989   1.320   2.369   4.245  0.2905 -0.7952  0.0260
   39DOPE   H4Y 4990   1.447   2.291   4.146 -1.1023 -1.0392  0.0337
   39DOPE   C35 4991   1.518   2.475   4.232 -0.0604  0.4822 -0.4876
   39DOPE   H5X 4992   1.482   2.580   4.242  1.5514  1.1087 -0.9370
   39DOPE   H5Y 4993   1.602   2.478   4.159  2.3609 -2.3375  1.9264
   39DOPE   C36 4994   1.569   2.422   4.371 -0.3173 -0.0286 -0.4625
   39DOPE   H6X 4995   1.605   2.318   4.359 -0.4231  0.2125 -3.6809
   39DOPE   H6Y 4996   1.478   2.432   4.435 -1.0816  1.4646 -1.7152
   39DOPE   C37 4997   1.678   2.512   4.433  0.0271  0.3128  0.2937
   39DOPE   H7X 4998   1.774   2.507   4.378 -0.2666  0.2621 -0.2134
   39DOPE   H7Y 4999   1.644   2.617   4.422  1.8840  0.9430  0.3409
   39DOPE   C38 5000   1.700   2.477   4.583  0.1060  0.2832 -0.1107
   39DOPE   H8X 5001   1.766   2.389   4.568  0.0350  0.2500 -0.2342
   39DOPE   H8Y 5002   1.608   2.445   4.637  0.2569  0.3113  0.1582
   39DOPE   C39 5003   1.764   2.585   4.657 -0.1054 -0.4889 -0.3726
   39DOPE   H9X 5004   1.870   2.574   4.684 -0.0141 -0.4329 -0.6947
   39DOPE  C310 5005   1.707   2.691   4.716  1.1677 -0.5058  0.1882
   39DOPE  H10X 5006   1.765   2.771   4.763  0.4714  0.5819 -0.7458
   39DOPE  C311 5007   1.556   2.710   4.699  0.3890 -0.0700  0.0197
   39DOPE  H11X 5008   1.511   2.650   4.617 -1.1172 -1.7625  1.9655
   39DOPE  H11Y 5009   1.500   2.690   4.793  0.3293  1.0209  0.2274
   39DOPE  C312 5010   1.541   2.857   4.656  0.1093  0.4274 -0.6157
   39DOPE  H12X 5011   1.436   2.870   4.621  1.0090 -0.2815 -3.9847
   39DOPE  H12Y 5012   1.602   2.880   4.566  0.2627 -0.0746 -0.6455
   39DOPE  C313 5013   1.573   2.967   4.757  0.0804 -0.0833  0.2707
   39DOPE  H13X 5014   1.541   2.936   4.858  0.4189 -1.0045  0.1064
   39DOPE  H13Y 5015   1.680   2.995   4.769  0.1112 -0.3284  0.5525
   39DOPE  C314 5016   1.490   3.080   4.708 -0.7632 -0.7687  0.0568
   39DOPE  H14X 5017   1.384   3.062   4.682 -0.4061 -0.6049 -1.6387
   39DOPE  H14Y 5018   1.543   3.108   4.614 -0.4537 -0.8812  0.1944
   39DOPE  C315 5019   1.488   3.199   4.804  0.0470 -0.4601 -0.0248
   39DOPE  H15X 5020   1.592   3.221   4.834 -0.3723  1.0869  0.3785
   39DOPE  H15Y 5021   1.440   3.159   4.896 -2.0780 -0.2555 -0.9871
   39DOPE  C316 5022   1.417   3.321   4.737  0.8043 -0.1477 -0.1386
   39DOPE  H16X 5023   1.309   3.306   4.714  0.5033  1.3966  0.1896
   39DOPE  H16Y 5024   1.468   3.341   4.640 -1.3146 -0.7403 -1.4291
   39DOPE  C317 5025   1.426   3.449   4.826 -0.0456 -0.2000 -0.6615
   39DOPE  H17X 5026   1.402   3.430   4.933 -0.7757 -0.5806 -0.8887
   39DOPE  H17Y 5027   1.529   3.490   4.836 -0.4671  0.4588  1.9540
   39DOPE  C318 5028   1.335   3.560   4.776  0.5040 -0.0958 -0.3746
   39DOPE  H18X 5029   1.356   3.581   4.669 -0.1871 -0.7364 -0.6384
   39DOPE  H18Y 5030   1.229   3.538   4.799  0.7338  0.0705  0.9056
   39DOPE  H18Z 5031   1.357   3.655   4.830 -0.5677  0.3101 -0.6192
   40DOPE     N 5032   3.446   5.966   3.376  0.0354  0.4959  1.2927
   40DOPE   HN1 5033   3.417   5.881   3.324  0.8849  1.9551 -1.7782
   40DOPE   HN2 5034   3.378   6.044   3.364  0.5919  0.6140 -1.9525
   40DOPE   HN3 5035   3.536   5.994   3.332 -0.7850 -3.4402 -3.9533
   40DOPE   C12 5036   3.454   5.928   3.521  0.2548 -0.4953  0.6954
   40DOPE  H12A 5037   3.349   5.905   3.552 -0.5268  2.6266  0.6707
   40DOPE  H12B 5038   3.478   6.017   3.582 -1.3506 -1.2850  2.5926
   40DOPE   C11 5039   3.560   5.825   3.546 -0.1551  0.1019 -0.2078
   40DOPE  H11A 5040   3.518   5.722   3.535  0.9519 -0.3237 -0.6603
   40DOPE  H11B 5041   3.586   5.811   3.653  1.1815 -0.2541 -0.5598
   40DOPE     P 5042   3.753   5.738   3.378  0.1580  0.1694 -0.1695
   40DOPE   O13 5043   3.810   5.809   3.260  0.1961 -0.5167 -0.2117
   40DOPE   O14 5044   3.660   5.633   3.328 -0.0144 -0.3373  0.4821
   40DOPE   O11 5045   3.863   5.681   3.474 -0.6043 -0.2473 -0.1404
   40DOPE   O12 5046   3.678   5.851   3.461  0.2512  0.1696  0.0244
   40DOPE    C1 5047   3.840   5.576   3.571  0.2584  0.1113 -0.4669
   40DOPE    HA 5048   3.853   5.479   3.517 -0.5683 -0.6184  0.5955
   40DOPE    HB 5049   3.739   5.581   3.617  0.7518 -0.9752  0.8320
   40DOPE    C2 5050   3.938   5.576   3.693 -0.3678  0.0719  0.1699
   40DOPE    HS 5051   3.900   5.500   3.765 -2.5891 -2.2022 -3.0868
   40DOPE   O21 5052   3.941   5.702   3.754  0.1279 -0.8973  0.3801
   40DOPE   C21 5053   3.835   5.741   3.825  0.5921 -0.3526 -0.3370
   40DOPE   O22 5054   3.737   5.674   3.855 -0.3751 -0.4106 -0.2930
   40DOPE   C22 5055   3.842   5.889   3.857 -0.8646 -0.2377 -0.6343
   40DOPE   H2R 5056   3.817   5.934   3.758  1.0781 -0.1153 -1.1300
   40DOPE   H2S 5057   3.940   5.930   3.890 -1.7683  1.4125  0.0989
   40DOPE    C3 5058   4.076   5.534   3.656 -0.6663 -0.6794  0.0673
   40DOPE    HX 5059   4.107   5.607   3.578 -0.9403 -1.5595 -0.8944
   40DOPE    HY 5060   4.086   5.429   3.620 -0.7875  0.1116 -2.4793
   40DOPE   O31 5061   4.155   5.537   3.775  0.4996  0.3215  0.1472
   40DOPE   C31 5062   4.275   5.587   3.758  0.3789  0.1851 -0.0914
   40DOPE   O32 5063   4.335   5.612   3.651  0.9022  0.1707  0.0449
   40DOPE   C32 5064   4.336   5.602   3.901  0.1689  0.9936  0.4455
   40DOPE   H2X 5065   4.270   5.549   3.973 -1.3578  0.4661 -1.2423
   40DOPE   H2Y 5066   4.442   5.569   3.892  0.3461  1.7549 -0.3687
   40DOPE   C23 5067   3.747   5.932   3.979 -0.5131 -0.7449 -0.0127
   40DOPE   H3R 5068   3.801   6.011   4.035 -1.1570 -0.0638 -0.3374
   40DOPE   H3S 5069   3.724   5.843   4.042 -0.4839 -2.7229 -2.6038
   40DOPE   C24 5070   3.613   5.998   3.940 -0.8344  0.4095 -0.1905
   40DOPE   H4R 5071   3.556   5.908   3.906  0.6311 -1.3089  1.6587
   40DOPE   H4S 5072   3.634   6.073   3.860  0.6495  0.9447  0.6581
   40DOPE   C25 5073   3.546   6.056   4.063 -0.3961  0.4285  0.3302
   40DOPE   H5R 5074   3.447   6.096   4.031  0.4866  1.6137 -1.0924
   40DOPE   H5S 5075   3.604   6.144   4.099 -1.2261  0.7667  0.8530
   40DOPE   C26 5076   3.526   5.958   4.184  0.2499 -0.0089 -0.5048
   40DOPE   H6R 5077   3.623   5.958   4.237 -0.0131 -1.7324  0.0368
   40DOPE   H6S 5078   3.504   5.853   4.153  2.1061 -0.9910  1.2477
   40DOPE   C27 5079   3.411   6.013   4.277 -0.5344 -0.0517  0.6226
   40DOPE   H7R 5080   3.319   6.015   4.215  0.0950  1.3175 -0.2984
   40DOPE   H7S 5081   3.440   6.120   4.280  1.7317 -0.6261  1.6911
   40DOPE   C28 5082   3.419   5.942   4.411  0.3979  0.0409 -0.2812
   40DOPE   H8R 5083   3.355   6.006   4.475 -1.0133  1.1452 -2.6446
   40DOPE   H8S 5084   3.522   5.938   4.451  1.1407 -2.4782 -2.1757
   40DOPE   C29 5085   3.373   5.796   4.387  1.6905 -0.5442  0.5479
   40DOPE   H9R 5086   3.431   5.732   4.318  2.2958 -0.7516  1.2423
   40DOPE  C210 5087   3.246   5.749   4.412 -0.0698  0.8907  0.6737
   40DOPE  H10R 5088   3.238   5.640   4.397 -2.8271  1.4159 -2.8885
   40DOPE  C211 5089   3.126   5.818   4.489  0.5283  0.1727  0.0596
   40DOPE  H11R 5090   3.041   5.750   4.471  0.4829 -0.2195  1.6610
   40DOPE  H11S 5091   3.108   5.914   4.436 -0.2720 -1.2345 -2.4021
   40DOPE  C212 5092   3.143   5.827   4.640  0.0921  0.2689  0.0472
   40DOPE  H12R 5093   3.244   5.862   4.669 -0.6387  1.1265  1.7123
   40DOPE  H12S 5094   3.127   5.730   4.691 -2.9460  1.1468  1.0252
   40DOPE  C213 5095   3.055   5.927   4.716  0.3370 -0.4085 -0.1791
   40DOPE  H13R 5096   2.956   5.885   4.745 -0.0506  1.1496  0.8556
   40DOPE  H13S 5097   3.039   6.021   4.660 -0.3327 -0.1767  0.3793
   40DOPE  C214 5098   3.128   5.959   4.845 -0.3160 -0.1721 -0.3014
   40DOPE  H14R 5099   3.203   6.041   4.832  0.3753 -0.5141  1.2336
   40DOPE  H14S 5100   3.184   5.870   4.881 -0.5103  0.3965  1.5531
   40DOPE  C215 5101   3.034   6.002   4.953 -0.1105  0.8636  0.0664
   40DOPE  H15R 5102   2.962   5.919   4.964  0.0670  0.5150 -1.1974
   40DOPE  H15S 5103   2.972   6.083   4.910 -0.8143 -0.6227 -1.8818
   40DOPE  C216 5104   3.072   6.054   5.088 -0.0643  0.4890  0.2373
   40DOPE  H16R 5105   2.980   6.074   5.146 -0.0733  0.6667  0.1632
   40DOPE  H16S 5106   3.123   6.153   5.089 -0.2343  0.5999 -0.7173
   40DOPE  C217 5107   3.174   5.959   5.160 -0.2015  0.0206  0.6908
   40DOPE  H17R 5108   3.273   5.974   5.111 -0.5688 -0.8747 -0.3453
   40DOPE  H17S 5109   3.151   5.852   5.143  2.0652 -0.7294  1.8492
   40DOPE  C218 5110   3.189   5.974   5.311  0.2434  0.1558 -0.7423
   40DOPE  H18R 5111   3.092   6.001   5.359  0.3934  0.3705 -0.5602
   40DOPE  H18S 5112   3.249   6.066   5.324 -0.1917  0.5037 -1.1763
   40DOPE  H18T 5113   3.238   5.884   5.354  0.4568 -0.1184 -1.5566
   40DOPE   C33 5114   4.336   5.751   3.932 -0.3696  0.0009 -0.0954
   40DOPE   H3X 5115   4.365   5.817   3.848 -0.2256 -0.9792 -0.8263
   40DOPE   H3Y 5116   4.413   5.751   4.012 -0.5383 -2.2837  0.1458
   40DOPE   C34 5117   4.197   5.808   3.980 -0.2228 -0.6464 -1.1315
   40DOPE   H4X 5118   4.189   5.917   3.963  3.8723  0.3471  1.8663
   40DOPE   H4Y 5119   4.119   5.756   3.920  1.0371 -1.8521 -1.7696
   40DOPE   C35 5120   4.186   5.782   4.126  0.0035  0.0721 -0.0003
   40DOPE   H5X 5121   4.254   5.849   4.185 -1.3166  0.8194  0.7147
   40DOPE   H5Y 5122   4.212   5.676   4.144  0.8232  0.1187 -0.8354
   40DOPE   C36 5123   4.050   5.807   4.188 -0.3043  0.6520 -0.0274
   40DOPE   H6X 5124   3.979   5.742   4.133 -1.5614  2.2309 -0.3114
   40DOPE   H6Y 5125   4.009   5.908   4.166 -0.7636  0.7059  1.0093
   40DOPE   C37 5126   4.043   5.788   4.339  0.4093 -0.4779 -0.2977
   40DOPE   H7X 5127   4.091   5.692   4.368 -1.2600 -0.7489  1.7877
   40DOPE   H7Y 5128   4.099   5.877   4.373 -0.2906 -0.1511  0.0264
   40DOPE   C38 5129   3.892   5.800   4.390 -0.2263  0.8765  0.5055
   40DOPE   H8X 5130   3.850   5.885   4.332 -2.2590 -0.5798 -0.2783
   40DOPE   H8Y 5131   3.892   5.817   4.500  1.5120  0.3793  0.6228
   40DOPE   C39 5132   3.807   5.686   4.354  0.7016 -0.0227 -0.5568
   40DOPE   H9X 5133   3.788   5.676   4.246  1.8789  0.4487 -0.8345
   40DOPE  C310 5134   3.754   5.600   4.440  0.2250  0.5986 -0.1919
   40DOPE  H10X 5135   3.679   5.528   4.402 -1.5587  2.0241  0.4982
   40DOPE  C311 5136   3.785   5.591   4.585  0.2516 -0.8143 -0.3167
   40DOPE  H11X 5137   3.826   5.677   4.643 -3.8007 -0.2601  2.0686
   40DOPE  H11Y 5138   3.684   5.593   4.630  0.3030 -1.9810 -0.1025
   40DOPE  C312 5139   3.853   5.467   4.626  0.1011 -0.2945  0.5282
   40DOPE  H12X 5140   3.954   5.456   4.583  0.8258 -4.3013  2.7660
   40DOPE  H12Y 5141   3.799   5.374   4.598 -0.3050  0.1389 -0.1576
   40DOPE  C313 5142   3.877   5.467   4.774  0.6487 -0.0081 -0.1308
   40DOPE  H13X 5143   3.889   5.572   4.809 -2.0227  0.0066  0.9891
   40DOPE  H13Y 5144   3.779   5.439   4.818 -0.4448  2.1164 -1.0582
   40DOPE  C314 5145   3.986   5.383   4.836  0.0748  0.3221 -0.1759
   40DOPE  H14X 5146   4.014   5.422   4.936  0.6473 -0.4717 -0.0196
   40DOPE  H14Y 5147   4.074   5.413   4.775  0.0120 -0.3367 -0.6008
   40DOPE  C315 5148   3.960   5.244   4.838  0.3146  0.9454 -0.2099
   40DOPE  H15X 5149   3.898   5.197   4.759 -0.7415 -1.1983  1.7346
   40DOPE  H15Y 5150   3.907   5.212   4.930 -0.2371  0.6344 -0.6307
   40DOPE  C316 5151   4.092   5.163   4.811 -0.4104 -0.2894  0.6940
   40DOPE  H16X 5152   4.160   5.195   4.893 -0.9765  0.6227  0.8167
   40DOPE  H16Y 5153   4.128   5.193   4.710  0.0172 -1.4962  0.4728
   40DOPE  C317 5154   4.077   5.008   4.805  0.3343  0.1013 -0.0504
   40DOPE  H17X 5155   4.182   4.972   4.804  1.7189  3.6472  1.4450
   40DOPE  H17Y 5156   4.040   4.963   4.900  0.4081 -2.0720 -0.9802
   40DOPE  C318 5157   4.003   4.950   4.692  0.3787 -0.3645  0.8181
   40DOPE  H18X 5158   4.062   4.956   4.598  0.7269 -0.7865  1.0067
   40DOPE  H18Y 5159   3.972   4.846   4.715 -0.8331 -0.5259 -1.2596
   40DOPE  H18Z 5160   3.918   5.016   4.661  1.7395  0.5577 -1.2212
   41DOPE     N 5161   0.228   4.659   3.131 -0.1549  0.5113  0.4839
   41DOPE   HN1 5162   0.127   4.663   3.155 -0.3423  0.4458 -0.2810
   41DOPE   HN2 5163   0.275   4.566   3.128  0.3073  0.7688 -1.4913
   41DOPE   HN3 5164   0.266   4.721   3.205  1.3975  0.2033 -0.0153
   41DOPE   C12 5165   0.253   4.722   2.996  0.5014  0.7518 -0.8778
   41DOPE  H12A 5166   0.165   4.700   2.931  0.8776  0.9893 -1.4754
   41DOPE  H12B 5167   0.348   4.684   2.953  1.3483  0.3908  1.1880
   41DOPE   C11 5168   0.272   4.868   3.021  0.1706 -0.4410 -0.4531
   41DOPE  H11A 5169   0.272   4.912   2.919  2.2194  0.4289 -0.1372
   41DOPE  H11B 5170   0.377   4.883   3.053  0.4508  1.4492 -2.1271
   41DOPE     P 5171   0.040   4.978   3.087  0.1914  0.3922 -0.1672
   41DOPE   O13 5172  -0.037   4.857   3.051 -0.7017 -0.3034  0.3488
   41DOPE   O14 5173   0.039   5.084   2.989 -0.2940  0.3795  0.8687
   41DOPE   O11 5174  -0.010   5.020   3.228  0.2490  0.1091 -0.6576
   41DOPE   O12 5175   0.186   4.935   3.111 -0.1813 -0.2145 -0.7941
   41DOPE    C1 5176   0.060   4.980   3.346 -0.0824  0.0536  0.1770
   41DOPE    HA 5177   0.042   5.054   3.427 -1.1806  0.9393 -0.8327
   41DOPE    HB 5178   0.170   4.966   3.341 -0.1161 -0.2747  0.3031
   41DOPE    C2 5179   0.015   4.851   3.407 -0.0879  0.3527  0.4172
   41DOPE    HS 5180   0.017   4.778   3.323 -1.3972  1.7020 -0.8329
   41DOPE   O21 5181  -0.114   4.871   3.460  0.6583  0.1635 -0.0970
   41DOPE   C21 5182  -0.202   4.780   3.445  0.1242  0.5618  0.7242
   41DOPE   O22 5183  -0.186   4.671   3.391  0.0364  0.0595 -0.2834
   41DOPE   C22 5184  -0.335   4.833   3.502 -0.3391  0.1106  0.4861
   41DOPE   H2R 5185  -0.412   4.811   3.425 -0.1803  1.2557 -0.0108
   41DOPE   H2S 5186  -0.338   4.942   3.521  0.0955  0.3509 -0.7551
   41DOPE    C3 5187   0.113   4.790   3.510  0.3338 -0.3674 -0.0237
   41DOPE    HX 5188   0.125   4.866   3.591 -0.0125 -1.9501  1.5816
   41DOPE    HY 5189   0.215   4.769   3.472  0.4490 -1.7744  0.9798
   41DOPE   O31 5190   0.054   4.675   3.576  0.0377 -0.6080  0.3863
   41DOPE   C31 5191   0.088   4.563   3.512  0.4289  0.5979 -0.4737
   41DOPE   O32 5192   0.164   4.551   3.417  0.5680  0.8253 -0.1012
   41DOPE   C32 5193   0.040   4.441   3.604  0.3898 -0.3212  0.5079
   41DOPE   H2X 5194   0.096   4.354   3.562  0.3783  1.3612 -3.4148
   41DOPE   H2Y 5195   0.072   4.443   3.710  1.6625  0.0572  0.1335
   41DOPE   C23 5196  -0.363   4.773   3.637  0.1955 -0.1336  0.1017
   41DOPE   H3R 5197  -0.343   4.665   3.621  1.0013 -0.0710  0.6773
   41DOPE   H3S 5198  -0.467   4.784   3.675  0.7313  0.8517  1.3089
   41DOPE   C24 5199  -0.272   4.827   3.751  0.2136  0.2647 -0.9136
   41DOPE   H4R 5200  -0.291   4.936   3.759 -2.1348 -0.2236  1.3349
   41DOPE   H4S 5201  -0.164   4.827   3.722 -0.2324 -0.1157 -2.7305
   41DOPE   C25 5202  -0.287   4.745   3.874  0.0723  0.2188  0.0744
   41DOPE   H5R 5203  -0.225   4.653   3.867  0.5163  0.4757  0.5533
   41DOPE   H5S 5204  -0.392   4.723   3.902 -0.2489 -0.5762 -1.6555
   41DOPE   C26 5205  -0.228   4.826   3.993 -0.2205  0.2811 -0.4571
   41DOPE   H6R 5206  -0.271   4.782   4.086 -1.9010 -0.2413 -1.4409
   41DOPE   H6S 5207  -0.270   4.928   3.983 -1.8328 -0.3488 -0.3646
   41DOPE   C27 5208  -0.073   4.822   4.006  0.0599 -0.2494 -0.0699
   41DOPE   H7R 5209  -0.057   4.909   4.074  0.1348 -1.8873  2.1055
   41DOPE   H7S 5210  -0.039   4.842   3.902  3.2232 -0.5082  0.8078
   41DOPE   C28 5211  -0.010   4.690   4.059  0.1703  0.2119 -0.3636
   41DOPE   H8R 5212   0.100   4.685   4.049  0.3830  0.0213  1.7562
   41DOPE   H8S 5213  -0.042   4.610   3.988  0.2183  0.3983 -0.5973
   41DOPE   C29 5214  -0.049   4.681   4.203  0.2303  0.2487 -0.4219
   41DOPE   H9R 5215  -0.157   4.666   4.223  0.3254 -1.9207 -1.2161
   41DOPE  C210 5216   0.027   4.701   4.310 -0.1239 -0.0379  0.0147
   41DOPE  H10R 5217  -0.021   4.691   4.408 -1.8334  1.1610 -0.6701
   41DOPE  C211 5218   0.180   4.731   4.313 -0.2000 -0.3641 -0.4069
   41DOPE  H11R 5219   0.226   4.646   4.258  0.4568 -1.6617  1.9822
   41DOPE  H11S 5220   0.216   4.721   4.418 -1.4713 -0.1682  0.0664
   41DOPE  C212 5221   0.228   4.862   4.256  0.0065  0.2328 -0.3193
   41DOPE  H12R 5222   0.187   4.943   4.319  0.5236 -2.2049  3.4662
   41DOPE  H12S 5223   0.181   4.865   4.155 -0.6613 -1.0800 -0.0680
   41DOPE  C213 5224   0.383   4.866   4.246  0.5792 -0.7561 -0.6496
   41DOPE  H13R 5225   0.401   4.938   4.163 -2.1162 -0.5437 -1.1429
   41DOPE  H13S 5226   0.425   4.767   4.221 -0.9790 -1.9707  1.1640
   41DOPE  C214 5227   0.441   4.905   4.385 -0.1320 -0.0697  0.1097
   41DOPE  H14R 5228   0.395   4.836   4.459  1.2021 -1.0717  0.0351
   41DOPE  H14S 5229   0.435   5.013   4.408  1.9693 -0.1640  1.3464
   41DOPE  C215 5230   0.592   4.876   4.400  0.1785  0.4898  0.1384
   41DOPE  H15R 5231   0.644   4.931   4.319  3.1334 -0.5952  1.1488
   41DOPE  H15S 5232   0.622   4.775   4.363 -1.7181  0.6677 -2.1382
   41DOPE  C216 5233   0.642   4.905   4.541  0.8464 -0.1987  0.2288
   41DOPE  H16R 5234   0.575   4.857   4.615  0.7523 -0.0850  0.2172
   41DOPE  H16S 5235   0.634   5.015   4.551  2.4811  0.0854 -1.0404
   41DOPE  C217 5236   0.785   4.852   4.558  0.0577  0.2636 -0.3476
   41DOPE  H17R 5237   0.829   4.910   4.474 -3.3015  2.3808 -0.8512
   41DOPE  H17S 5238   0.792   4.743   4.536 -1.1836  0.3842 -1.4507
   41DOPE  C218 5239   0.869   4.875   4.694  0.1702  0.2196  1.0158
   41DOPE  H18R 5240   0.808   4.869   4.787  0.5372  1.4580  1.3547
   41DOPE  H18S 5241   0.913   4.977   4.691  0.6404 -0.0085 -0.5353
   41DOPE  H18T 5242   0.947   4.798   4.710  0.6426  0.9647  2.4513
   41DOPE   C33 5243  -0.111   4.412   3.587 -0.3156  0.4611 -0.0813
   41DOPE   H3X 5244  -0.134   4.429   3.480  2.9069 -2.2868 -1.3867
   41DOPE   H3Y 5245  -0.174   4.477   3.652 -0.9688  0.4364 -0.6770
   41DOPE   C34 5246  -0.138   4.258   3.599  0.1086 -0.4704  0.5607
   41DOPE   H4X 5247  -0.057   4.219   3.534  2.0023  2.9346  0.6557
   41DOPE   H4Y 5248  -0.114   4.236   3.705 -0.2053  0.2054  0.7833
   41DOPE   C35 5249  -0.274   4.212   3.581  0.4243  0.0596  0.5200
   41DOPE   H5X 5250  -0.275   4.101   3.578  0.2833 -0.0156  2.3422
   41DOPE   H5Y 5251  -0.317   4.246   3.485  0.1120 -1.2350  0.1777
   41DOPE   C36 5252  -0.366   4.255   3.690 -0.4596  0.6712 -0.2854
   41DOPE   H6X 5253  -0.362   4.366   3.692  1.6930  0.6237  1.8162
   41DOPE   H6Y 5254  -0.325   4.227   3.789 -0.4250  0.0517 -0.4696
   41DOPE   C37 5255  -0.509   4.206   3.684  0.6584  0.0017 -0.1664
   41DOPE   H7X 5256  -0.546   4.221   3.580 -2.8529 -1.1284  0.7558
   41DOPE   H7Y 5257  -0.520   4.097   3.705 -1.1009  0.6479  2.9215
   41DOPE   C38 5258  -0.613   4.272   3.772  0.0770 -0.3585  0.7257
   41DOPE   H8X 5259  -0.715   4.233   3.749  0.3257 -0.9798  0.6442
   41DOPE   H8Y 5260  -0.614   4.381   3.750  1.5285 -0.4125  0.2748
   41DOPE   C39 5261  -0.581   4.234   3.918  0.7330 -0.0206 -0.2100
   41DOPE   H9X 5262  -0.630   4.143   3.954  1.0693  0.4315  1.4478
   41DOPE  C310 5263  -0.521   4.305   4.011  0.2153  0.1312 -0.3810
   41DOPE  H10X 5264  -0.501   4.262   4.110  0.3447  1.9134  0.3925
   41DOPE  C311 5265  -0.448   4.438   4.001  0.8235 -0.0827 -0.0585
   41DOPE  H11X 5266  -0.469   4.487   3.903  1.8972 -1.1221 -0.8337
   41DOPE  H11Y 5267  -0.504   4.502   4.073  0.7182 -0.9134  0.6117
   41DOPE  C312 5268  -0.300   4.431   4.021  0.4379  0.2970  0.9584
   41DOPE  H12X 5269  -0.254   4.529   4.044  2.8066 -0.3768 -0.5046
   41DOPE  H12Y 5270  -0.255   4.397   3.925 -1.2724 -1.0884  0.5903
   41DOPE  C313 5271  -0.247   4.350   4.140  0.4122 -0.2754  0.0578
   41DOPE  H13X 5272  -0.275   4.242   4.139 -2.1284  0.3068 -1.1706
   41DOPE  H13Y 5273  -0.137   4.363   4.130  0.6562 -2.9816 -2.4289
   41DOPE  C314 5274  -0.295   4.409   4.274  0.5963  0.3906  0.7064
   41DOPE  H14X 5275  -0.399   4.371   4.286  0.4134  0.7804  0.3948
   41DOPE  H14Y 5276  -0.300   4.520   4.268 -2.4015  0.2566 -1.6286
   41DOPE  C315 5277  -0.210   4.346   4.382 -0.3293 -0.5609  0.6442
   41DOPE  H15X 5278  -0.105   4.323   4.354  0.0042  1.8601 -0.3755
   41DOPE  H15Y 5279  -0.255   4.247   4.406  0.2681 -1.4608 -1.6735
   41DOPE  C316 5280  -0.205   4.436   4.505 -0.2332  0.0090 -0.2081
   41DOPE  H16X 5281  -0.301   4.482   4.538 -0.2970 -0.1626 -0.1496
   41DOPE  H16Y 5282  -0.136   4.514   4.466 -0.8453  0.1505 -1.0459
   41DOPE  C317 5283  -0.152   4.375   4.636  0.3993  0.8270  0.4796
   41DOPE  H17X 5284  -0.220   4.289   4.657 -1.7284  1.6801 -2.3153
   41DOPE  H17Y 5285  -0.051   4.333   4.616 -1.3224 -2.6164 -2.1584
   41DOPE  C318 5286  -0.135   4.465   4.753 -0.2192  0.2660  0.0886
   41DOPE  H18X 5287  -0.102   4.417   4.847  1.5669 -0.8797 -1.0664
   41DOPE  H18Y 5288  -0.071   4.552   4.725 -0.3542  1.0220  1.9876
   41DOPE  H18Z 5289  -0.230   4.515   4.783  0.3924 -0.5842  3.8706
   42DOPE     N 5290   0.750   3.405   3.091 -0.3158 -0.0776  0.1402
   42DOPE   HN1 5291   0.786   3.463   3.169 -0.3262  0.1937 -0.0526
   42DOPE   HN2 5292   0.666   3.349   3.116  1.6812 -2.1227  2.8536
   42DOPE   HN3 5293   0.830   3.340   3.080  1.0248  1.3394  1.0595
   42DOPE   C12 5294   0.745   3.471   2.960 -0.6699  0.2740  0.0926
   42DOPE  H12A 5295   0.642   3.508   2.940 -1.7759 -2.2430  0.8346
   42DOPE  H12B 5296   0.762   3.392   2.883  1.5163  0.7843 -0.0165
   42DOPE   C11 5297   0.847   3.586   2.944 -0.1548  0.5696  0.7549
   42DOPE  H11A 5298   0.809   3.664   3.013 -0.8101  0.3968  0.5978
   42DOPE  H11B 5299   0.826   3.625   2.843  1.8215 -0.0413  0.0476
   42DOPE     P 5300   1.110   3.644   2.946  0.1229  0.8357 -0.0256
   42DOPE   O13 5301   1.100   3.689   2.808 -0.0397 -0.5214  0.2509
   42DOPE   O14 5302   1.231   3.571   2.989 -0.2908 -0.2739 -0.1527
   42DOPE   O11 5303   1.078   3.763   3.043  0.2476 -0.2455 -0.0539
   42DOPE   O12 5304   0.984   3.554   2.971  0.3472 -0.4643 -0.0984
   42DOPE    C1 5305   1.031   3.751   3.179 -0.0108  0.2977  0.2311
   42DOPE    HA 5306   1.017   3.645   3.209 -1.2860  0.3946  0.0323
   42DOPE    HB 5307   0.934   3.804   3.183  0.0825  0.4737  0.2076
   42DOPE    C2 5308   1.144   3.806   3.272  0.4120 -0.0770  0.4333
   42DOPE    HS 5309   1.233   3.751   3.236 -1.0107 -2.8440  0.8162
   42DOPE   O21 5310   1.119   3.778   3.412  0.0839  0.2969  0.0334
   42DOPE   C21 5311   1.142   3.652   3.458  0.6677  0.0002 -0.2883
   42DOPE   O22 5312   1.172   3.559   3.386 -0.3432 -0.7769  0.1003
   42DOPE   C22 5313   1.103   3.644   3.602 -0.9320 -0.0640 -0.2024
   42DOPE   H2R 5314   1.120   3.538   3.627  0.5591  0.1561 -0.2258
   42DOPE   H2S 5315   0.996   3.675   3.610 -0.0044  2.8572  4.0506
   42DOPE    C3 5316   1.167   3.959   3.265  0.4331 -0.3185 -0.8189
   42DOPE    HX 5317   1.069   4.007   3.285  1.5663  0.6439  3.4685
   42DOPE    HY 5318   1.195   3.985   3.160  1.0370 -1.0627 -0.8559
   42DOPE   O31 5319   1.269   4.005   3.359 -0.2445 -0.0409 -0.0871
   42DOPE   C31 5320   1.396   3.958   3.356  0.0313  0.2288  0.5031
   42DOPE   O32 5321   1.429   3.873   3.270 -0.7130  0.3933 -0.3541
   42DOPE   C32 5322   1.476   4.020   3.468 -0.5958 -0.1730 -0.5813
   42DOPE   H2X 5323   1.481   4.130   3.458  1.3357 -0.0884  0.7327
   42DOPE   H2Y 5324   1.418   4.005   3.562  1.6348 -1.1488  0.7282
   42DOPE   C23 5325   1.184   3.737   3.701 -0.0909 -0.3167  0.0173
   42DOPE   H3R 5326   1.144   3.840   3.693  1.0223  0.5551  3.8486
   42DOPE   H3S 5327   1.292   3.743   3.677  0.1285  0.5771  1.1367
   42DOPE   C24 5328   1.160   3.697   3.850  0.1948 -0.2143  0.2468
   42DOPE   H4R 5329   1.204   3.596   3.866  0.3145  0.0788  1.9423
   42DOPE   H4S 5330   1.054   3.682   3.879  0.2828  0.5670  1.0210
   42DOPE   C25 5331   1.225   3.786   3.958  0.2626 -0.0382 -0.6811
   42DOPE   H5R 5332   1.244   3.721   4.046 -2.9102 -0.4615 -0.2109
   42DOPE   H5S 5333   1.155   3.867   3.988  1.6373  0.5680  1.1198
   42DOPE   C26 5334   1.350   3.863   3.907  0.3804 -0.3316 -0.6362
   42DOPE   H6R 5335   1.328   3.932   3.823 -2.2687  1.3087  1.2433
   42DOPE   H6S 5336   1.428   3.788   3.881  0.0975 -0.6221 -0.6531
   42DOPE   C27 5337   1.419   3.940   4.029 -0.8948 -0.1606 -0.4747
   42DOPE   H7R 5338   1.353   4.014   4.080 -0.4299  0.6148 -0.9874
   42DOPE   H7S 5339   1.496   4.001   3.977 -2.8408  3.2825  0.3909
   42DOPE   C28 5340   1.486   3.848   4.131 -0.0875 -0.2810  0.6110
   42DOPE   H8R 5341   1.572   3.796   4.083  0.3842  0.5854  0.4955
   42DOPE   H8S 5342   1.421   3.769   4.173 -0.2483 -0.1718  0.5668
   42DOPE   C29 5343   1.544   3.935   4.237  0.0699 -0.6999  0.6717
   42DOPE   H9R 5344   1.634   3.991   4.207  0.1669  0.2954  2.6410
   42DOPE  C210 5345   1.489   3.950   4.359 -0.0182  0.8165 -0.5433
   42DOPE  H10R 5346   1.539   4.019   4.428  1.7183  0.3731 -1.2872
   42DOPE  C211 5347   1.366   3.882   4.411  0.4649  0.2105 -0.2300
   42DOPE  H11R 5348   1.387   3.825   4.504 -1.6262 -0.6157 -0.2041
   42DOPE  H11S 5349   1.337   3.802   4.339 -0.4358  0.7165 -0.4498
   42DOPE  C212 5350   1.250   3.974   4.439  0.5230 -0.4914 -0.6565
   42DOPE  H12R 5351   1.265   4.044   4.524  0.1575 -0.4065 -0.6618
   42DOPE  H12S 5352   1.163   3.912   4.469  0.1822 -0.0991 -0.8280
   42DOPE  C213 5353   1.209   4.058   4.313  0.1833 -0.5679  0.1457
   42DOPE  H13R 5354   1.201   4.001   4.218 -1.7960  0.9167 -0.6668
   42DOPE  H13S 5355   1.289   4.133   4.297 -1.9461  1.9117  0.4115
   42DOPE  C214 5356   1.075   4.132   4.326 -0.2298  0.9396 -0.4628
   42DOPE  H14R 5357   1.084   4.179   4.426  0.4014 -0.1292  0.0015
   42DOPE  H14S 5358   0.993   4.060   4.345 -0.2614  0.9137 -0.6949
   42DOPE  C215 5359   1.048   4.218   4.213  0.8791 -0.4303 -0.0766
   42DOPE  H15R 5360   1.038   4.151   4.125  0.9245 -0.1244 -0.3158
   42DOPE  H15S 5361   1.138   4.279   4.193 -0.1368  0.7539 -1.1543
   42DOPE  C216 5362   0.933   4.325   4.231  0.8317  0.2099 -0.1424
   42DOPE  H16R 5363   0.970   4.392   4.312  0.1838  0.6844 -0.2329
   42DOPE  H16S 5364   0.840   4.281   4.275  1.5234  0.8372  2.0574
   42DOPE  C217 5365   0.903   4.407   4.108 -0.2001  0.3253  0.4826
   42DOPE  H17R 5366   0.837   4.347   4.041 -0.1271 -1.9839  2.3712
   42DOPE  H17S 5367   0.992   4.447   4.055  0.3016 -1.2149  0.1349
   42DOPE  C218 5368   0.819   4.537   4.149  0.3012  1.0264  0.4661
   42DOPE  H18R 5369   0.726   4.500   4.199  0.8053  0.3169  0.9049
   42DOPE  H18S 5370   0.781   4.608   4.073 -1.9447  1.3945  1.8298
   42DOPE  H18T 5371   0.882   4.592   4.222  0.7742  2.7154 -1.1530
   42DOPE   C33 5372   1.617   3.958   3.478 -0.4347 -0.0052 -1.0184
   42DOPE   H3X 5373   1.670   3.990   3.386  0.5115 -0.5308 -0.6677
   42DOPE   H3Y 5374   1.629   3.850   3.497  0.6501  0.4118  0.9933
   42DOPE   C34 5375   1.686   4.020   3.600 -0.2773 -0.1437  0.7532
   42DOPE   H4X 5376   1.685   4.131   3.593  0.2212 -0.1341  0.8290
   42DOPE   H4Y 5377   1.626   3.995   3.690 -0.5175 -0.3298  0.5426
   42DOPE   C35 5378   1.827   3.966   3.619 -0.2518  0.1060 -0.2112
   42DOPE   H5X 5379   1.884   4.010   3.534  0.1198 -0.3642 -0.2125
   42DOPE   H5Y 5380   1.843   3.857   3.600 -0.7887 -0.1395  0.7241
   42DOPE   C36 5381   1.889   4.005   3.759  0.9168  0.4932 -0.2501
   42DOPE   H6X 5382   1.888   4.116   3.763 -1.4933  0.5598 -0.8590
   42DOPE   H6Y 5383   1.997   3.981   3.760  0.8649  0.0586 -1.9510
   42DOPE   C37 5384   1.808   3.961   3.884 -0.7474 -0.8792  0.1735
   42DOPE   H7X 5385   1.706   4.003   3.898 -0.6057 -1.0323  1.9269
   42DOPE   H7Y 5386   1.785   3.853   3.869 -0.3491 -0.8691 -0.5396
   42DOPE   C38 5387   1.895   3.970   4.009  0.6888 -0.1313 -0.3611
   42DOPE   H8X 5388   1.993   3.928   3.978  0.1236 -2.0833  0.3257
   42DOPE   H8Y 5389   1.862   3.893   4.082 -1.7120  0.6400 -0.5488
   42DOPE   C39 5390   1.912   4.111   4.063  0.0505 -0.0927  0.8272
   42DOPE   H9X 5391   1.938   4.187   3.989 -1.8616  1.7292  1.8934
   42DOPE  C310 5392   1.901   4.162   4.185  0.1614 -0.5238 -0.7424
   42DOPE  H10X 5393   1.934   4.265   4.205  1.4694 -1.4499  2.4628
   42DOPE  C311 5394   1.874   4.090   4.314 -0.2305  0.3383 -0.0332
   42DOPE  H11X 5395   1.782   4.128   4.363 -0.1055 -0.4377  0.8461
   42DOPE  H11Y 5396   1.841   3.987   4.286  1.0201  0.5318 -2.4788
   42DOPE  C312 5397   1.992   4.094   4.414  0.2996  0.0725 -0.2967
   42DOPE  H12X 5398   2.011   4.202   4.430 -1.3506  0.2436  0.6884
   42DOPE  H12Y 5399   2.088   4.047   4.384  2.0635  2.0391  1.8538
   42DOPE  C313 5400   1.955   4.029   4.547 -0.3982  0.4725  0.0488
   42DOPE  H13X 5401   1.937   4.104   4.627 -0.9119 -0.7645  1.1377
   42DOPE  H13Y 5402   1.860   3.973   4.534 -1.0277  1.7175 -0.9769
   42DOPE  C314 5403   2.049   3.913   4.604 -0.4167  0.4420 -0.0752
   42DOPE  H14X 5404   2.148   3.959   4.624  0.5781 -1.6491  0.0512
   42DOPE  H14Y 5405   2.049   3.838   4.522  1.3934  0.7658 -0.4159
   42DOPE  C315 5406   1.994   3.856   4.734 -0.6254  0.0764  0.4464
   42DOPE  H15X 5407   1.898   3.801   4.728 -1.8967  2.0752  1.3306
   42DOPE  H15Y 5408   1.979   3.944   4.801 -0.5958 -0.7017  1.5095
   42DOPE  C316 5409   2.094   3.771   4.807 -0.1199  0.0905 -0.2451
   42DOPE  H16X 5410   2.049   3.728   4.899 -1.2937  1.3562 -0.2050
   42DOPE  H16Y 5411   2.172   3.843   4.838 -1.0549 -0.0803  2.7296
   42DOPE  C317 5412   2.170   3.655   4.731 -0.0744  0.2456  0.1567
   42DOPE  H17X 5413   2.207   3.685   4.631  0.2604 -4.1631 -1.2958
   42DOPE  H17Y 5414   2.254   3.624   4.797  0.1799  3.3412  1.4090
   42DOPE  C318 5415   2.076   3.538   4.705  0.3421  0.4392 -0.0508
   42DOPE  H18X 5416   2.025   3.504   4.797 -0.3126 -1.2675 -0.9987
   42DOPE  H18Y 5417   1.999   3.566   4.630 -0.2472  0.5760  0.6032
   42DOPE  H18Z 5418   2.133   3.457   4.654 -0.2226  0.7390 -1.1931
   43DOPE     N 5419   0.668   2.291   2.867  0.1850  0.3965 -0.0236
   43DOPE   HN1 5420   0.600   2.352   2.916  0.0378 -1.0137  1.5945
   43DOPE   HN2 5421   0.684   2.321   2.768 -3.6876  3.0835 -0.0688
   43DOPE   HN3 5422   0.615   2.204   2.846  0.1516  0.6707 -1.1349
   43DOPE   C12 5423   0.781   2.249   2.955 -0.2125 -0.6159 -0.2523
   43DOPE  H12A 5424   0.845   2.338   2.973  0.4182 -0.5342 -2.5334
   43DOPE  H12B 5425   0.838   2.185   2.885 -0.0687 -0.0319 -0.6767
   43DOPE   C11 5426   0.737   2.169   3.086 -0.7705 -0.2909  0.4090
   43DOPE  H11A 5427   0.683   2.235   3.158 -0.1617  1.2833 -0.5219
   43DOPE  H11B 5428   0.842   2.144   3.113  0.7349  2.3492 -2.3487
   43DOPE     P 5429   0.574   1.972   3.137  0.4555 -0.4981  0.0882
   43DOPE   O13 5430   0.513   1.863   3.053 -0.0390 -0.0544 -0.0617
   43DOPE   O14 5431   0.481   2.069   3.206 -0.0156 -0.2029  0.4221
   43DOPE   O11 5432   0.674   1.915   3.239 -0.0498  0.2134  0.2156
   43DOPE   O12 5433   0.670   2.054   3.043 -0.1958  0.0168  0.6533
   43DOPE    C1 5434   0.678   1.779   3.291  0.8390 -0.6114  0.2484
   43DOPE    HA 5435   0.767   1.726   3.250 -0.7622 -1.3418 -2.5132
   43DOPE    HB 5436   0.588   1.719   3.264 -0.7036  1.0754  1.4201
   43DOPE    C2 5437   0.681   1.785   3.453  0.1015 -0.0918  0.1286
   43DOPE    HS 5438   0.686   1.679   3.486  1.3024 -0.2383 -0.4583
   43DOPE   O21 5439   0.568   1.851   3.512 -0.0072 -0.4919  0.2240
   43DOPE   C21 5440   0.448   1.814   3.464  1.1149  0.4735 -0.6311
   43DOPE   O22 5441   0.425   1.706   3.411 -0.6829  0.0777 -0.2120
   43DOPE   C22 5442   0.346   1.931   3.497  0.0403 -0.0011  0.2465
   43DOPE   H2R 5443   0.246   1.887   3.481  0.8376 -1.7401 -0.2389
   43DOPE   H2S 5444   0.358   2.007   3.417 -1.9932  1.6675  1.4378
   43DOPE    C3 5445   0.822   1.853   3.484  0.4014  0.2484  0.0970
   43DOPE    HX 5446   0.828   1.954   3.439  0.3253  0.6466  0.9569
   43DOPE    HY 5447   0.903   1.794   3.437  1.6161  0.9382  1.2577
   43DOPE   O31 5448   0.854   1.845   3.627 -0.0926 -0.2496  0.2059
   43DOPE   C31 5449   0.795   1.943   3.698 -0.0878 -0.0518  0.4887
   43DOPE   O32 5450   0.748   2.046   3.650 -0.3294 -0.0848 -0.3640
   43DOPE   C32 5451   0.802   1.910   3.847 -0.4980 -0.2380 -0.5169
   43DOPE   H2X 5452   0.734   1.823   3.864 -4.1998  2.2841 -1.1726
   43DOPE   H2Y 5453   0.910   1.904   3.872  0.1913  1.3676 -2.7998
   43DOPE   C23 5454   0.356   2.006   3.634  0.8327 -0.0852 -0.1019
   43DOPE   H3R 5455   0.286   2.092   3.622  1.3327  0.1073 -1.9794
   43DOPE   H3S 5456   0.460   2.040   3.655  1.5397 -0.6893 -2.3507
   43DOPE   C24 5457   0.307   1.928   3.767  0.0254 -0.3789  0.5054
   43DOPE   H4R 5458   0.373   1.839   3.778  0.0935 -0.6532 -1.7431
   43DOPE   H4S 5459   0.203   1.891   3.769  0.4551 -1.6067  1.0517
   43DOPE   C25 5460   0.317   2.021   3.897 -0.3992  0.3747  1.0868
   43DOPE   H5R 5461   0.241   2.100   3.879 -1.2191 -0.9075 -1.7651
   43DOPE   H5S 5462   0.418   2.066   3.901 -0.8058  1.6179 -0.9102
   43DOPE   C26 5463   0.296   1.944   4.019 -0.1477 -0.1190  0.0120
   43DOPE   H6R 5464   0.372   1.865   4.040 -1.0242 -0.7848  0.7670
   43DOPE   H6S 5465   0.198   1.892   4.017 -2.5400  3.9087  0.7864
   43DOPE   C27 5466   0.317   2.031   4.141 -0.2000 -0.2009  0.2842
   43DOPE   H7R 5467   0.248   2.118   4.150 -1.0055 -0.8191  0.3022
   43DOPE   H7S 5468   0.421   2.067   4.129  0.1723 -1.0050  0.9438
   43DOPE   C28 5469   0.314   1.964   4.277  0.2707 -0.3452 -0.2840
   43DOPE   H8R 5470   0.327   2.040   4.357 -3.8468 -0.2755  0.5612
   43DOPE   H8S 5471   0.402   1.896   4.283 -0.0280 -0.6117  2.2277
   43DOPE   C29 5472   0.201   1.877   4.312  0.1218  0.0050  0.1885
   43DOPE   H9R 5473   0.185   1.798   4.238  0.9074 -0.4008  0.4439
   43DOPE  C210 5474   0.135   1.866   4.426 -0.3686 -0.1347  0.2409
   43DOPE  H10R 5475   0.043   1.805   4.422 -0.8424  0.5315  0.6656
   43DOPE  C211 5476   0.143   1.955   4.545  0.6173  0.3592  0.6652
   43DOPE  H11R 5477   0.042   1.959   4.591  0.4506 -0.9259  0.4597
   43DOPE  H11S 5478   0.156   2.061   4.513 -0.9108  0.2921 -0.2879
   43DOPE  C212 5479   0.252   1.908   4.645  0.0613  0.3871  0.0721
   43DOPE  H12R 5480   0.265   1.985   4.723  0.0071  2.4214 -1.8318
   43DOPE  H12S 5481   0.352   1.906   4.596 -1.0848  1.4955 -2.5000
   43DOPE  C213 5482   0.218   1.777   4.706  0.0435  0.5237  0.2447
   43DOPE  H13R 5483   0.162   1.706   4.641  1.3363  0.3390 -0.6910
   43DOPE  H13S 5484   0.158   1.796   4.798  1.0658 -0.3137  1.1156
   43DOPE  C214 5485   0.341   1.697   4.742 -0.6277  0.2287  0.5518
   43DOPE  H14R 5486   0.400   1.770   4.802 -2.4906  2.0619  0.2761
   43DOPE  H14S 5487   0.400   1.661   4.654 -0.3587  1.3361  0.2636
   43DOPE  C215 5488   0.325   1.589   4.840  0.6361  0.2468 -0.0227
   43DOPE  H15R 5489   0.418   1.529   4.846 -0.5167 -1.6896 -0.3472
   43DOPE  H15S 5490   0.247   1.515   4.810 -0.6143  1.5935 -0.2172
   43DOPE  C216 5491   0.289   1.639   4.983 -0.4190 -0.2204  0.1780
   43DOPE  H16R 5492   0.183   1.670   4.975 -0.1585  0.5394 -0.5908
   43DOPE  H16S 5493   0.351   1.725   5.017 -1.1351  1.4930 -2.4670
   43DOPE  C217 5494   0.277   1.539   5.096 -0.0962  0.5254 -0.1574
   43DOPE  H17R 5495   0.379   1.500   5.116 -0.6266 -1.7714 -1.5637
   43DOPE  H17S 5496   0.210   1.457   5.064 -0.1350 -0.4521  2.2291
   43DOPE  C218 5497   0.219   1.599   5.223 -0.3180  0.2584  0.0508
   43DOPE  H18R 5498   0.110   1.608   5.205 -0.1878  2.0022 -0.0815
   43DOPE  H18S 5499   0.267   1.697   5.247 -3.1682  1.4381  1.3567
   43DOPE  H18T 5500   0.234   1.534   5.312 -0.7953 -0.2395 -0.2286
   43DOPE   C33 5501   0.748   2.019   3.949 -0.2403 -0.0608  0.6820
   43DOPE   H3X 5502   0.644   2.046   3.919 -0.0917  0.5158  0.6726
   43DOPE   H3Y 5503   0.805   2.112   3.927 -0.0294 -0.3781 -0.1180
   43DOPE   C34 5504   0.730   1.983   4.094  0.6354 -0.0817 -0.2588
   43DOPE   H4X 5505   0.646   1.913   4.112  1.0325  0.2114  3.4906
   43DOPE   H4Y 5506   0.815   1.935   4.147 -0.4145  0.7716  2.3377
   43DOPE   C35 5507   0.694   2.118   4.162 -0.1327  0.3990 -0.2486
   43DOPE   H5X 5508   0.603   2.149   4.106 -0.1318  2.0025  0.5797
   43DOPE   H5Y 5509   0.779   2.190   4.154 -0.1060  0.5357  1.0371
   43DOPE   C36 5510   0.651   2.089   4.306  0.4812 -0.1336  0.3565
   43DOPE   H6X 5511   0.576   2.007   4.316 -0.0515  0.3129  0.0392
   43DOPE   H6Y 5512   0.603   2.185   4.332  3.0325  0.3780  3.9604
   43DOPE   C37 5513   0.759   2.053   4.408  0.8238 -0.0978 -0.8295
   43DOPE   H7X 5514   0.796   1.950   4.388 -2.4358 -1.5197 -0.1988
   43DOPE   H7Y 5515   0.842   2.126   4.395  1.0928 -0.0636  0.8589
   43DOPE   C38 5516   0.703   2.060   4.560 -0.1465 -0.0376  0.4351
   43DOPE   H8X 5517   0.787   2.012   4.614  0.7406 -2.4987 -2.8123
   43DOPE   H8Y 5518   0.612   1.997   4.569  0.4309 -0.5982  2.8802
   43DOPE   C39 5519   0.668   2.199   4.610 -0.5007 -0.0202 -1.1398
   43DOPE   H9X 5520   0.613   2.257   4.534  1.2637  0.4916 -2.0846
   43DOPE  C310 5521   0.704   2.259   4.725 -0.1245 -0.2085  0.2547
   43DOPE  H10X 5522   0.657   2.357   4.745 -0.5172 -0.2046 -0.6403
   43DOPE  C311 5523   0.775   2.194   4.834 -0.4623  0.1021  0.3122
   43DOPE  H11X 5524   0.827   2.108   4.787 -0.3280  0.5543 -0.3768
   43DOPE  H11Y 5525   0.845   2.268   4.878  0.3627  0.1596 -1.0448
   43DOPE  C312 5526   0.684   2.143   4.957 -0.8391 -0.3001  0.4670
   43DOPE  H12X 5527   0.649   2.230   5.017 -1.6089  0.2493 -0.7292
   43DOPE  H12Y 5528   0.741   2.090   5.036 -3.8237 -2.6668  1.2563
   43DOPE  C313 5529   0.562   2.060   4.918  0.6433  0.1143  0.4177
   43DOPE  H13X 5530   0.486   2.140   4.901  1.5116  1.2372  1.6585
   43DOPE  H13Y 5531   0.570   1.993   4.830  2.2078  0.7728  0.0355
   43DOPE  C314 5532   0.492   1.983   5.031 -0.2058  0.3469  0.2535
   43DOPE  H14X 5533   0.568   1.905   5.055 -1.8398 -0.8162  1.9868
   43DOPE  H14Y 5534   0.402   1.926   5.000 -0.9889  0.9874  1.2767
   43DOPE  C315 5535   0.461   2.080   5.146  0.0031 -0.0081  0.0778
   43DOPE  H15X 5536   0.378   2.142   5.106  0.2304 -0.6843 -1.5082
   43DOPE  H15Y 5537   0.541   2.155   5.164  1.8636 -0.9323 -3.4007
   43DOPE  C316 5538   0.410   1.997   5.265  0.6306 -0.0871 -0.0184
   43DOPE  H16X 5539   0.487   1.924   5.299 -0.1806 -1.5020 -1.1571
   43DOPE  H16Y 5540   0.329   1.932   5.228  0.6872 -0.4346  0.4582
   43DOPE  C317 5541   0.363   2.077   5.393 -0.1011  0.1641 -0.0695
   43DOPE  H17X 5542   0.455   2.129   5.427  0.8821 -1.5495 -0.0332
   43DOPE  H17Y 5543   0.286   2.146   5.352  0.3343  0.2204 -0.7997
   43DOPE  C318 5544   0.302   1.994   5.511 -0.5830  0.2382 -1.1156
   43DOPE  H18X 5545   0.257   2.065   5.583 -1.4425 -0.7759 -0.6326
   43DOPE  H18Y 5546   0.215   1.941   5.468 -0.5515 -0.0022 -0.8767
   43DOPE  H18Z 5547   0.369   1.927   5.567  0.6129  2.2455 -0.0104
   44DOPE     N 5548   2.331   0.862   3.525  0.6582  0.5613 -0.7248
   44DOPE   HN1 5549   2.390   0.777   3.542  0.0186  0.1463 -0.5429
   44DOPE   HN2 5550   2.235   0.822   3.528 -0.0165  2.1596  0.3963
   44DOPE   HN3 5551   2.347   0.909   3.434 -3.0589  0.7866 -1.3979
   44DOPE   C12 5552   2.344   0.966   3.634  0.2225  0.5498  0.9074
   44DOPE  H12A 5553   2.343   0.908   3.729  0.3190  1.2452  1.3353
   44DOPE  H12B 5554   2.261   1.040   3.634  0.5950  0.9868 -0.2289
   44DOPE   C11 5555   2.483   1.035   3.615  0.4435  0.2457  0.1153
   44DOPE  H11A 5556   2.497   1.117   3.687 -0.6738  1.4722 -1.0009
   44DOPE  H11B 5557   2.468   1.084   3.516  1.5994  1.1555  0.3768
   44DOPE     P 5558   2.672   0.941   3.771  0.2834 -0.0910 -0.2943
   44DOPE   O13 5559   2.696   1.067   3.839 -0.2262 -0.0608 -0.4931
   44DOPE   O14 5560   2.788   0.854   3.751  0.4013 -0.1170  0.0092
   44DOPE   O11 5561   2.561   0.867   3.850  0.5137 -0.2039 -0.5021
   44DOPE   O12 5562   2.594   0.953   3.633 -0.0512  0.4067 -0.1464
   44DOPE    C1 5563   2.591   0.743   3.926  0.1625  0.1585  0.5402
   44DOPE    HA 5564   2.671   0.689   3.873  0.0196  0.7583 -0.3083
   44DOPE    HB 5565   2.496   0.685   3.930  0.9593 -1.1168  1.8659
   44DOPE    C2 5566   2.630   0.758   4.079  0.4491 -0.3812 -0.7206
   44DOPE    HS 5567   2.642   0.659   4.128  3.6623 -0.3144 -1.1280
   44DOPE   O21 5568   2.534   0.848   4.139 -0.0308 -0.0817 -0.1590
   44DOPE   C21 5569   2.505   0.831   4.265  0.4931  0.1591  0.2980
   44DOPE   O22 5570   2.524   0.729   4.333 -0.4876  0.1693  0.0269
   44DOPE   C22 5571   2.419   0.946   4.322 -0.1944  0.5355  0.1985
   44DOPE   H2R 5572   2.319   0.922   4.278 -0.2912  0.2696  0.5592
   44DOPE   H2S 5573   2.460   1.040   4.280  0.7256 -0.3188 -0.8966
   44DOPE    C3 5574   2.773   0.816   4.094 -0.1021  0.2545  0.0544
   44DOPE    HX 5575   2.765   0.923   4.063  0.2179  0.7236  1.4853
   44DOPE    HY 5576   2.838   0.766   4.020  0.0765  1.1781 -0.4326
   44DOPE   O31 5577   2.827   0.807   4.230 -0.2600 -0.2902  0.4583
   44DOPE   C31 5578   2.902   0.705   4.251  0.0175 -0.1842 -0.6956
   44DOPE   O32 5579   2.939   0.622   4.170  0.0682 -0.2537  0.4803
   44DOPE   C32 5580   2.946   0.700   4.396 -0.1084 -0.3051 -0.0102
   44DOPE   H2X 5581   2.957   0.801   4.441  0.0867 -0.3642  0.0777
   44DOPE   H2Y 5582   2.873   0.643   4.457 -0.8150 -0.8534 -1.3440
   44DOPE   C23 5583   2.410   0.943   4.473 -0.2985 -0.3238  0.3899
   44DOPE   H3R 5584   2.513   0.940   4.514  0.0732  0.5194 -0.4492
   44DOPE   H3S 5585   2.362   0.848   4.505  1.1655 -0.5581  2.0819
   44DOPE   C24 5586   2.332   1.052   4.543  0.7284  0.0434  0.5323
   44DOPE   H4R 5587   2.223   1.034   4.526  1.1804 -0.6867 -2.1066
   44DOPE   H4S 5588   2.348   1.153   4.499 -1.4834 -0.7140 -2.3586
   44DOPE   C25 5589   2.364   1.053   4.696  0.2701  0.2933  0.3101
   44DOPE   H5R 5590   2.474   1.048   4.706  0.3634  2.0012  0.4488
   44DOPE   H5S 5591   2.317   0.962   4.739 -1.0790 -0.0456 -1.7102
   44DOPE   C26 5592   2.322   1.184   4.769 -0.1547  0.4480 -0.4073
   44DOPE   H6R 5593   2.340   1.274   4.708 -2.3543  2.0142  1.0955
   44DOPE   H6S 5594   2.389   1.182   4.857  1.1026  1.6131 -1.2968
   44DOPE   C27 5595   2.183   1.199   4.821  0.8265 -0.1091  0.3809
   44DOPE   H7R 5596   2.116   1.175   4.736 -0.1949  1.5894  0.6613
   44DOPE   H7S 5597   2.154   1.305   4.839  0.8744 -0.2223  1.1545
   44DOPE   C28 5598   2.144   1.107   4.940 -0.2058 -0.3783 -0.7655
   44DOPE   H8R 5599   2.191   1.135   5.037 -0.3476 -0.0100 -0.8032
   44DOPE   H8S 5600   2.168   1.001   4.919 -1.0213 -0.2913 -2.2263
   44DOPE   C29 5601   1.997   1.110   4.971  0.6310 -0.1636 -0.2288
   44DOPE   H9R 5602   1.953   1.210   4.983 -2.3207 -1.3272 -0.4875
   44DOPE  C210 5603   1.911   1.008   5.003 -0.1205 -0.1082  1.1570
   44DOPE  H10R 5604   1.803   1.023   5.015 -0.4722 -2.5454  1.6147
   44DOPE  C211 5605   1.947   0.864   4.992 -0.1027  0.4377 -0.0651
   44DOPE  H11R 5606   2.042   0.838   5.042  0.1936  1.1185 -0.2641
   44DOPE  H11S 5607   1.973   0.849   4.885  0.0909 -1.6703  0.2321
   44DOPE  C212 5608   1.828   0.775   5.039 -0.3095  0.3200  0.5759
   44DOPE  H12R 5609   1.834   0.681   4.979 -0.0886 -0.0050  1.0928
   44DOPE  H12S 5610   1.727   0.814   5.018 -1.3808 -1.7128  1.6602
   44DOPE  C213 5611   1.831   0.751   5.191  0.6603 -0.2005  0.2248
   44DOPE  H13R 5612   1.840   0.849   5.244  1.1475 -0.1816  0.1159
   44DOPE  H13S 5613   1.924   0.693   5.209 -0.5238 -2.5649 -0.8297
   44DOPE  C214 5614   1.699   0.681   5.234  0.0919  0.1233  0.5670
   44DOPE  H14R 5615   1.678   0.601   5.160  1.5586  1.0509 -0.9309
   44DOPE  H14S 5616   1.617   0.756   5.243 -1.0317 -1.0305  0.2421
   44DOPE  C215 5617   1.711   0.608   5.369 -0.2650 -1.5428 -0.5771
   44DOPE  H15R 5618   1.745   0.681   5.446  2.5404 -2.1430 -1.1132
   44DOPE  H15S 5619   1.796   0.537   5.356  0.6300 -0.3448 -1.5785
   44DOPE  C216 5620   1.593   0.521   5.412  0.5760  0.0074  0.1282
   44DOPE  H16R 5621   1.548   0.493   5.314  2.2221  2.4953 -1.4378
   44DOPE  H16S 5622   1.518   0.585   5.462  1.1050  0.2514  0.6243
   44DOPE  C217 5623   1.614   0.391   5.493 -0.1629 -0.4689  0.4363
   44DOPE  H17R 5624   1.665   0.410   5.590 -1.6422 -0.9624  1.3368
   44DOPE  H17S 5625   1.685   0.333   5.430 -0.0214 -2.6604  2.4483
   44DOPE  C218 5626   1.477   0.327   5.497  0.0910 -0.3809  0.2064
   44DOPE  H18R 5627   1.459   0.246   5.571  0.0207 -0.5527  0.0040
   44DOPE  H18S 5628   1.461   0.282   5.397 -0.3369 -0.2722  0.2252
   44DOPE  H18T 5629   1.393   0.398   5.513 -0.3965 -1.0376  0.6850
   44DOPE   C33 5630   3.085   0.629   4.409  0.6695 -0.3294 -0.2055
   44DOPE   H3X 5631   3.154   0.702   4.362 -1.1258  0.2497 -2.0852
   44DOPE   H3Y 5632   3.087   0.537   4.348  0.1572 -0.6368  0.2353
   44DOPE   C34 5633   3.129   0.605   4.555 -0.1139 -0.1964 -0.5013
   44DOPE   H4X 5634   3.147   0.706   4.597  1.5978  1.2301 -4.3203
   44DOPE   H4Y 5635   3.053   0.545   4.612  1.4061  0.2086  2.1410
   44DOPE   C35 5636   3.264   0.529   4.550 -0.1325 -0.4725 -0.2766
   44DOPE   H5X 5637   3.327   0.603   4.496 -0.3699 -0.5252 -0.6309
   44DOPE   H5Y 5638   3.259   0.435   4.492 -1.1353 -0.5461 -0.0952
   44DOPE   C36 5639   3.324   0.513   4.692  0.3264  0.0090  0.2454
   44DOPE   H6X 5640   3.279   0.428   4.747 -0.4334 -1.8468 -2.9915
   44DOPE   H6Y 5641   3.294   0.605   4.747 -0.2123 -0.9442  1.6131
   44DOPE   C37 5642   3.472   0.498   4.694 -0.3496  0.1541 -0.7789
   44DOPE   H7X 5643   3.513   0.460   4.790  0.5646 -0.2611 -1.3236
   44DOPE   H7Y 5644   3.505   0.433   4.611  0.9617 -0.3393  0.0995
   44DOPE   C38 5645   3.538   0.637   4.684  0.0827 -0.4497  0.1907
   44DOPE   H8X 5646   3.479   0.691   4.607  1.9051 -1.0242 -1.6724
   44DOPE   H8Y 5647   3.643   0.627   4.651  0.4233  1.9346  0.3883
   44DOPE   C39 5648   3.537   0.717   4.817  0.5361  0.4061 -1.1899
   44DOPE   H9X 5649   3.533   0.657   4.909 -0.6750  2.7584  0.3792
   44DOPE  C310 5650   3.528   0.852   4.830  0.1695  0.1242 -0.9269
   44DOPE  H10X 5651   3.523   0.884   4.935  0.5424 -3.7394  0.4388
   44DOPE  C311 5652   3.520   0.961   4.717  0.3863 -0.2720 -0.4171
   44DOPE  H11X 5653   3.556   1.054   4.766  0.3124 -1.6172  2.3796
   44DOPE  H11Y 5654   3.588   0.929   4.635  0.1120  1.9140 -1.5647
   44DOPE  C312 5655   3.373   0.981   4.666  0.4702 -0.1209 -0.1346
   44DOPE  H12X 5656   3.340   0.887   4.616  1.2089 -0.2076 -0.4703
   44DOPE  H12Y 5657   3.371   1.067   4.596 -0.3363  0.8023  0.9784
   44DOPE  C313 5658   3.272   1.012   4.787  0.2921  0.1288  0.8104
   44DOPE  H13X 5659   3.166   1.020   4.754  0.1703 -1.0371  0.8620
   44DOPE  H13Y 5660   3.271   0.923   4.854  1.6263  0.3350  1.1241
   44DOPE  C314 5661   3.308   1.127   4.877  0.5290  0.0194 -0.0418
   44DOPE  H14X 5662   3.350   1.209   4.815  0.7031  0.8065  1.0734
   44DOPE  H14Y 5663   3.384   1.090   4.950  0.5735 -1.1468 -0.6622
   44DOPE  C315 5664   3.188   1.195   4.944  0.3945  0.0411 -0.4369
   44DOPE  H15X 5665   3.151   1.127   5.023 -0.2844  0.5856 -0.2740
   44DOPE  H15Y 5666   3.104   1.200   4.871 -0.1651  0.0911  0.2039
   44DOPE  C316 5667   3.210   1.333   5.003 -0.0961 -0.9077  0.3651
   44DOPE  H16X 5668   3.116   1.370   5.048  2.0051  1.7654  2.9639
   44DOPE  H16Y 5669   3.248   1.405   4.927  0.6072 -1.6929 -0.0495
   44DOPE  C317 5670   3.323   1.349   5.107 -0.0461 -0.3649  0.0074
   44DOPE  H17X 5671   3.419   1.362   5.052 -0.6550 -2.4942 -1.6837
   44DOPE  H17Y 5672   3.293   1.446   5.152 -1.7333  2.0365 -5.5095
   44DOPE  C318 5673   3.339   1.234   5.204 -0.6236  0.1569 -0.0153
   44DOPE  H18X 5674   3.249   1.230   5.268  0.3061 -0.2118  1.3080
   44DOPE  H18Y 5675   3.349   1.140   5.145 -0.6734 -0.5285  1.0307
   44DOPE  H18Z 5676   3.429   1.248   5.267  0.2432  3.4684 -1.7754
   45DOPE     N 5677   3.175   0.255   3.584  0.0278  0.0569  0.1586
   45DOPE   HN1 5678   3.145   0.156   3.598  2.0550 -0.3068  2.5007
   45DOPE   HN2 5679   3.279   0.259   3.579  0.0468 -0.3491  0.1628
   45DOPE   HN3 5680   3.135   0.308   3.664 -1.2155 -1.9972  0.9825
   45DOPE   C12 5681   3.121   0.301   3.450  0.6133 -0.6459 -0.1398
   45DOPE  H12A 5682   3.012   0.313   3.469  1.0894  1.8966  1.3811
   45DOPE  H12B 5683   3.143   0.228   3.369  0.7632 -0.2996 -0.4163
   45DOPE   C11 5684   3.188   0.434   3.406  0.4678  0.8305 -1.0314
   45DOPE  H11A 5685   3.129   0.461   3.316  0.1604 -2.6276 -2.0295
   45DOPE  H11B 5686   3.293   0.409   3.379  0.4533 -0.9587  0.3593
   45DOPE     P 5687   3.170   0.684   3.494 -0.2832 -0.4062 -0.2366
   45DOPE   O13 5688   3.087   0.750   3.593 -0.0890 -0.0169 -0.5115
   45DOPE   O14 5689   3.134   0.713   3.352 -0.0365  0.1254  0.1234
   45DOPE   O11 5690   3.321   0.735   3.511  0.6858  0.0967 -0.3141
   45DOPE   O12 5691   3.173   0.532   3.510  0.1480 -0.0434 -0.7211
   45DOPE    C1 5692   3.423   0.659   3.579  0.8907  0.4060  0.1434
   45DOPE    HA 5693   3.521   0.708   3.563  1.0759 -0.0395 -0.1278
   45DOPE    HB 5694   3.440   0.555   3.542 -1.1809  0.9747 -2.7415
   45DOPE    C2 5695   3.413   0.652   3.738  0.1153 -0.3361 -0.4019
   45DOPE    HS 5696   3.324   0.586   3.746 -0.2411 -0.0289 -1.5708
   45DOPE   O21 5697   3.389   0.785   3.781  0.4419  0.5263  0.6526
   45DOPE   C21 5698   3.325   0.790   3.902 -0.3226  0.1962 -0.3630
   45DOPE   O22 5699   3.288   0.694   3.969  0.3180  0.8567  0.0137
   45DOPE   C22 5700   3.315   0.935   3.948  0.1536 -0.2401 -0.2060
   45DOPE   H2R 5701   3.280   0.998   3.864  0.9577  1.5342  0.7377
   45DOPE   H2S 5702   3.421   0.968   3.956 -0.4781  2.3970 -1.5446
   45DOPE    C3 5703   3.550   0.612   3.793 -0.0778 -0.7094  0.2217
   45DOPE    HX 5704   3.622   0.694   3.774  0.1225 -0.9508 -0.0585
   45DOPE    HY 5705   3.591   0.526   3.736  2.5015 -0.1187  1.0521
   45DOPE   O31 5706   3.549   0.585   3.937 -0.1999 -0.0878 -0.9898
   45DOPE   C31 5707   3.489   0.470   3.966 -0.1044 -0.0557  0.5707
   45DOPE   O32 5708   3.455   0.389   3.879  0.5500 -0.1399  0.4347
   45DOPE   C32 5709   3.477   0.450   4.115  0.1682 -1.0502 -0.3729
   45DOPE   H2X 5710   3.376   0.486   4.141  1.1360  1.1174  0.5956
   45DOPE   H2Y 5711   3.492   0.341   4.133  1.7345 -0.5804  1.4732
   45DOPE   C23 5712   3.221   0.959   4.079 -0.8240  1.3894  0.6394
   45DOPE   H3R 5713   3.142   0.882   4.096  0.8407 -0.8118 -1.0353
   45DOPE   H3S 5714   3.184   1.062   4.062 -0.5760  1.3054 -0.4519
   45DOPE   C24 5715   3.303   0.972   4.210  0.0062  0.3934  0.0290
   45DOPE   H4R 5716   3.375   1.057   4.205  0.6930 -0.2228 -1.0198
   45DOPE   H4S 5717   3.361   0.879   4.227  1.2598  1.2932  0.9022
   45DOPE   C25 5718   3.200   1.001   4.327 -0.1340 -0.7769 -0.1427
   45DOPE   H5R 5719   3.217   0.938   4.417  0.2278 -2.5022 -1.3612
   45DOPE   H5S 5720   3.105   0.971   4.278 -0.4911  0.3893 -0.1978
   45DOPE   C26 5721   3.198   1.148   4.358  0.3473 -0.7003 -0.0789
   45DOPE   H6R 5722   3.201   1.207   4.264 -0.8240 -0.7427 -0.1515
   45DOPE   H6S 5723   3.286   1.180   4.417  0.1473  0.4532 -0.3817
   45DOPE   C27 5724   3.070   1.198   4.428 -0.3042  0.5606 -0.4079
   45DOPE   H7R 5725   3.071   1.157   4.531 -3.6400  0.4102 -0.3230
   45DOPE   H7S 5726   2.979   1.153   4.383  1.8957 -4.1319 -0.7198
   45DOPE   C28 5727   3.047   1.352   4.432  0.0219 -0.1076  0.1429
   45DOPE   H8R 5728   3.065   1.381   4.326  0.1128 -0.0752  0.1668
   45DOPE   H8S 5729   3.113   1.416   4.496 -0.3826  0.3746  0.0845
   45DOPE   C29 5730   2.907   1.384   4.475 -0.2881 -0.7577  0.3575
   45DOPE   H9R 5731   2.850   1.424   4.391  0.3000  1.9990  1.1690
   45DOPE  C210 5732   2.838   1.378   4.591 -0.1166 -0.2202 -0.0246
   45DOPE  H10R 5733   2.734   1.413   4.600  0.1685  0.4294  1.0864
   45DOPE  C211 5734   2.893   1.342   4.729  0.2427 -0.0542  0.2412
   45DOPE  H11R 5735   2.889   1.433   4.792 -0.1947 -0.2238  0.4620
   45DOPE  H11S 5736   3.000   1.317   4.715  0.1207  0.5870 -2.3845
   45DOPE  C212 5737   2.808   1.230   4.796 -0.4584 -0.3982 -0.2433
   45DOPE  H12R 5738   2.700   1.255   4.795 -0.3570  0.1047  0.2881
   45DOPE  H12S 5739   2.837   1.226   4.904 -0.1524  1.0660 -0.2495
   45DOPE  C213 5740   2.836   1.099   4.726 -0.6665 -1.6435 -0.3250
   45DOPE  H13R 5741   2.946   1.088   4.733 -0.7127 -1.8583  0.0953
   45DOPE  H13S 5742   2.808   1.110   4.619 -0.0503 -0.0517 -0.3554
   45DOPE  C214 5743   2.776   0.976   4.788 -0.1705 -0.0558 -0.2117
   45DOPE  H14R 5744   2.670   1.002   4.806  0.7444  3.2254  1.1121
   45DOPE  H14S 5745   2.820   0.947   4.886 -1.8814 -0.7061  0.3975
   45DOPE  C215 5746   2.787   0.855   4.696  0.0728  0.6367  1.1361
   45DOPE  H15R 5747   2.896   0.841   4.675 -0.4619  0.1202 -1.7569
   45DOPE  H15S 5748   2.753   0.888   4.595 -0.1504 -0.5555  0.7982
   45DOPE  C216 5749   2.724   0.715   4.734  0.1374  0.1425 -0.3728
   45DOPE  H16R 5750   2.732   0.650   4.644  2.8984 -1.8664  1.1788
   45DOPE  H16S 5751   2.618   0.730   4.761  0.9779 -1.1046  4.5473
   45DOPE  C217 5752   2.786   0.643   4.847  0.2550  0.1975  0.5154
   45DOPE  H17R 5753   2.787   0.713   4.934 -1.6836  1.7251 -0.5921
   45DOPE  H17S 5754   2.893   0.624   4.825  0.0613  0.6871 -0.9156
   45DOPE  C218 5755   2.705   0.518   4.886  0.2729 -0.5565  0.1093
   45DOPE  H18R 5756   2.595   0.535   4.876 -0.4185 -3.1681  2.0367
   45DOPE  H18S 5757   2.725   0.481   4.989  0.8833  2.0891  1.0146
   45DOPE  H18T 5758   2.717   0.439   4.809 -2.7458 -1.0125 -0.0260
   45DOPE   C33 5759   3.573   0.529   4.200  0.2551  0.0433  0.8859
   45DOPE   H3X 5760   3.553   0.518   4.309  0.6623 -0.1559  0.9424
   45DOPE   H3Y 5761   3.580   0.638   4.178  1.9955 -0.2866 -0.3647
   45DOPE   C34 5762   3.710   0.466   4.193  1.0061  0.1964  0.4242
   45DOPE   H4X 5763   3.701   0.357   4.176  2.8177  0.1252 -0.2256
   45DOPE   H4Y 5764   3.757   0.508   4.102  1.4281  2.2205  1.5026
   45DOPE   C35 5765   3.809   0.495   4.306 -1.0467  0.0959  0.0949
   45DOPE   H5X 5766   3.812   0.605   4.316 -0.5256  0.3954 -2.5905
   45DOPE   H5Y 5767   3.908   0.461   4.269 -1.3966 -1.2083  0.2988
   45DOPE   C36 5768   3.781   0.438   4.439  1.0996  0.6308  0.3259
   45DOPE   H6X 5769   3.772   0.328   4.424  1.3679  0.6379  0.1185
   45DOPE   H6Y 5770   3.689   0.472   4.491 -0.1921 -3.1616  0.8792
   45DOPE   C37 5771   3.906   0.457   4.533 -0.1770  0.7651  0.4211
   45DOPE   H7X 5772   3.986   0.404   4.476 -1.5236 -1.5287  0.5266
   45DOPE   H7Y 5773   3.928   0.565   4.548  0.0853  0.7048  0.4771
   45DOPE   C38 5774   3.892   0.378   4.662  0.8660 -0.4344  0.2302
   45DOPE   H8X 5775   3.903   0.270   4.638 -0.6364 -0.0957 -2.2708
   45DOPE   H8Y 5776   3.788   0.390   4.701  0.6131  0.6226 -0.7160
   45DOPE   C39 5777   3.986   0.423   4.771  0.8990  0.2068  0.4910
   45DOPE   H9X 5778   3.994   0.532   4.779  0.0061  0.4315 -1.1636
   45DOPE  C310 5779   4.069   0.353   4.850 -0.2576  0.3200 -0.3434
   45DOPE  H10X 5780   4.131   0.412   4.920  0.5445  1.2277 -1.7601
   45DOPE  C311 5781   4.102   0.213   4.863 -0.0819  0.6017 -1.0901
   45DOPE  H11X 5782   4.146   0.200   4.964 -0.1695  2.8997 -0.6884
   45DOPE  H11Y 5783   4.011   0.151   4.866 -2.2495  3.4865  3.1832
   45DOPE  C312 5784   4.199   0.162   4.756  0.0234  0.1098 -0.2777
   45DOPE  H12X 5785   4.286   0.230   4.752 -1.6323  2.5324  1.7594
   45DOPE  H12Y 5786   4.146   0.153   4.658 -2.1340 -1.5986  0.9401
   45DOPE  C313 5787   4.267   0.027   4.793 -0.2566 -0.5068 -1.0154
   45DOPE  H13X 5788   4.309   0.037   4.895  1.4761  1.6929 -1.8588
   45DOPE  H13Y 5789   4.183  -0.044   4.809 -1.2593  0.9790  0.6279
   45DOPE  C314 5790   4.377  -0.016   4.701 -0.1130  0.5118 -0.0187
   45DOPE  H14X 5791   4.414  -0.120   4.716 -0.9249  0.3396  0.7971
   45DOPE  H14Y 5792   4.466   0.048   4.719 -0.0509  0.1277  1.1005
   45DOPE  C315 5793   4.336  -0.015   4.554 -0.0897  0.0528  0.1448
   45DOPE  H15X 5794   4.228  -0.041   4.549  0.2950 -1.4632 -0.9575
   45DOPE  H15Y 5795   4.403  -0.091   4.510 -0.1033  0.4927 -0.6729
   45DOPE  C316 5796   4.368   0.110   4.478  0.3164  0.2617 -0.3395
   45DOPE  H16X 5797   4.431   0.174   4.543 -1.3889  1.1543  0.4883
   45DOPE  H16Y 5798   4.275   0.169   4.462  1.3274  1.9064 -0.2684
   45DOPE  C317 5799   4.439   0.083   4.346  0.1216 -0.2204  0.3639
   45DOPE  H17X 5800   4.525   0.018   4.373  0.3950 -0.5539 -1.2433
   45DOPE  H17Y 5801   4.365   0.030   4.282 -1.5375  0.7057  1.4106
   45DOPE  C318 5802   4.495   0.204   4.282 -0.1241  0.2563  0.7010
   45DOPE  H18X 5803   4.418   0.251   4.217  1.2810  1.1204 -0.4193
   45DOPE  H18Y 5804   4.522   0.288   4.350 -0.7061 -0.6824  2.1293
   45DOPE  H18Z 5805   4.580   0.166   4.221 -1.5490  0.6859 -1.7136
   46DOPE     N 5806   3.192   7.096   3.497 -0.4327 -0.0450 -0.0316
   46DOPE   HN1 5807   3.282   7.050   3.474  0.1489  0.9338  0.2426
   46DOPE   HN2 5808   3.132   7.100   3.412  0.5784  0.1857 -0.7524
   46DOPE   HN3 5809   3.210   7.195   3.523 -1.8181  0.0261  0.7571
   46DOPE   C12 5810   3.121   7.024   3.597  0.4519  1.0441 -0.0543
   46DOPE  H12A 5811   3.156   7.045   3.700 -2.1708  1.8519  0.7645
   46DOPE  H12B 5812   3.139   6.917   3.573 -1.0228  0.8106 -0.2700
   46DOPE   C11 5813   2.972   7.052   3.595 -0.0320 -0.2797 -0.5505
   46DOPE  H11A 5814   2.954   7.155   3.633 -2.0300 -1.1296  0.9862
   46DOPE  H11B 5815   2.930   6.980   3.668  1.1286 -0.2002  0.2344
   46DOPE     P 5816   2.866   6.903   3.402 -0.6578  0.3137  0.5860
   46DOPE   O13 5817   2.982   6.812   3.387 -0.4002  0.4765  0.8421
   46DOPE   O14 5818   2.795   6.938   3.279 -0.2341 -0.6325  0.0662
   46DOPE   O11 5819   2.765   6.834   3.508  0.2079  0.0720  0.7446
   46DOPE   O12 5820   2.919   7.038   3.462 -0.6945  0.0613 -0.0584
   46DOPE    C1 5821   2.649   6.914   3.545  0.0326 -0.4654 -0.3259
   46DOPE    HA 5822   2.562   6.847   3.532 -0.6878  0.2102  0.8617
   46DOPE    HB 5823   2.626   6.997   3.476  0.2674 -1.8370 -2.1227
   46DOPE    C2 5824   2.636   6.943   3.697  0.3691  0.0994  0.5424
   46DOPE    HS 5825   2.719   7.010   3.730  0.7098  0.4513 -0.9797
   46DOPE   O21 5826   2.622   6.814   3.760  0.2439  0.6373 -1.0021
   46DOPE   C21 5827   2.679   6.805   3.885  0.6769 -0.4940  0.3008
   46DOPE   O22 5828   2.727   6.897   3.945  0.1856  0.3221  0.1104
   46DOPE   C22 5829   2.662   6.660   3.939 -0.3414  0.2739  0.6959
   46DOPE   H2R 5830   2.642   6.592   3.854 -2.4578  0.9773  0.5712
   46DOPE   H2S 5831   2.573   6.675   4.003 -0.1791  3.9561  0.3159
   46DOPE    C3 5832   2.502   7.023   3.723  0.4962  0.0167  0.8912
   46DOPE    HX 5833   2.418   6.976   3.668  0.4202 -0.1891  1.1832
   46DOPE    HY 5834   2.511   7.117   3.665  0.1737  0.5186  1.6614
   46DOPE   O31 5835   2.475   7.029   3.865 -0.6812 -0.4295 -0.3725
   46DOPE   C31 5836   2.524   7.144   3.922  0.2768 -0.3713  0.2424
   46DOPE   O32 5837   2.581   7.228   3.857 -0.2279  0.3693  0.2407
   46DOPE   C32 5838   2.509   7.146   4.071 -0.6080 -0.5683 -0.4614
   46DOPE   H2X 5839   2.402   7.139   4.099 -0.1601 -0.2072  1.4786
   46DOPE   H2Y 5840   2.542   7.046   4.106 -2.3334 -1.2573 -0.7101
   46DOPE   C23 5841   2.792   6.610   4.011 -0.0629 -0.2819  0.4339
   46DOPE   H3R 5842   2.889   6.628   3.959  1.9482 -3.0248  2.8830
   46DOPE   H3S 5843   2.795   6.499   4.007 -1.0334 -0.2757 -1.9645
   46DOPE   C24 5844   2.818   6.664   4.154 -0.1421  0.0571 -0.0322
   46DOPE   H4R 5845   2.856   6.768   4.157  1.3117 -0.4623  2.3295
   46DOPE   H4S 5846   2.905   6.604   4.189 -1.1919 -1.8922 -0.6067
   46DOPE   C25 5847   2.694   6.644   4.248  0.8856  0.5380 -0.5335
   46DOPE   H5R 5848   2.721   6.590   4.341 -0.1184  0.6954 -0.1442
   46DOPE   H5S 5849   2.622   6.580   4.193  0.7430  0.8861 -0.7479
   46DOPE   C26 5850   2.633   6.778   4.288  0.0753 -0.3435  0.0791
   46DOPE   H6R 5851   2.593   6.830   4.199  1.6895  1.2163  0.2244
   46DOPE   H6S 5852   2.715   6.842   4.327 -0.2654  0.3147 -0.2726
   46DOPE   C27 5853   2.529   6.767   4.395 -0.1175 -0.9314 -0.0182
   46DOPE   H7R 5854   2.464   6.683   4.363 -0.3029  0.0504 -2.4443
   46DOPE   H7S 5855   2.469   6.860   4.398  1.4829  0.2002 -1.0532
   46DOPE   C28 5856   2.594   6.739   4.531  0.1498 -0.2492 -0.3983
   46DOPE   H8R 5857   2.674   6.815   4.542  1.6852 -1.8750  0.1336
   46DOPE   H8S 5858   2.647   6.642   4.521  0.8653  0.1322 -0.3381
   46DOPE   C29 5859   2.499   6.740   4.646 -0.4946 -0.5022 -0.2160
   46DOPE   H9R 5860   2.417   6.813   4.650  0.4690  0.6560 -1.0372
   46DOPE  C210 5861   2.518   6.667   4.750  0.1602  0.2693 -1.0910
   46DOPE  H10R 5862   2.447   6.662   4.833  3.3459  0.5813  1.8448
   46DOPE  C211 5863   2.625   6.564   4.778  0.2619 -0.7607 -0.1415
   46DOPE  H11R 5864   2.717   6.582   4.719  1.4771  0.6018  2.0451
   46DOPE  H11S 5865   2.591   6.460   4.755  0.7498 -1.0376  0.3612
   46DOPE  C212 5866   2.658   6.562   4.925 -0.0188  0.5506  0.0617
   46DOPE  H12R 5867   2.589   6.503   4.989  0.5207  0.2155  0.3526
   46DOPE  H12S 5868   2.663   6.666   4.964  0.7646  1.6745 -2.7939
   46DOPE  C213 5869   2.803   6.507   4.943  0.1747  0.1735  0.5838
   46DOPE  H13R 5870   2.875   6.567   4.883  0.4022  0.2771  0.9574
   46DOPE  H13S 5871   2.794   6.405   4.901 -3.0414  0.3133  0.6391
   46DOPE  C214 5872   2.850   6.505   5.087 -0.6695  0.1598 -0.6158
   46DOPE  H14R 5873   2.783   6.457   5.161  2.6399  0.2510  2.7373
   46DOPE  H14S 5874   2.845   6.612   5.119  1.4336 -0.2426  1.2768
   46DOPE  C215 5875   2.991   6.448   5.109 -0.1253 -0.3012 -0.1455
   46DOPE  H15R 5876   3.058   6.492   5.032 -1.6789  5.0518  1.1521
   46DOPE  H15S 5877   2.988   6.337   5.114 -1.6471 -0.2351  1.6403
   46DOPE  C216 5878   3.056   6.484   5.248 -0.2595 -0.0026 -0.4861
   46DOPE  H16R 5879   2.974   6.485   5.322 -2.6404  0.2350 -2.9425
   46DOPE  H16S 5880   3.099   6.587   5.245 -0.4387  0.0601 -1.7498
   46DOPE  C217 5881   3.175   6.394   5.298 -0.1258 -0.8412  0.6399
   46DOPE  H17R 5882   3.264   6.414   5.235 -1.3952  3.3407 -0.1378
   46DOPE  H17S 5883   3.153   6.287   5.279 -1.8127 -0.3221 -0.6201
   46DOPE  C218 5884   3.219   6.407   5.445 -0.1799  1.1499 -0.6421
   46DOPE  H18R 5885   3.134   6.371   5.508  1.8436 -0.9801  1.0910
   46DOPE  H18S 5886   3.231   6.513   5.477  1.3558 -0.0043  3.1993
   46DOPE  H18T 5887   3.296   6.334   5.478  1.5100  3.7131  1.5261
   46DOPE   C33 5888   2.576   7.277   4.136  1.0238  0.1138  0.1168
   46DOPE   H3X 5889   2.537   7.367   4.085  0.5755  0.6219  1.3182
   46DOPE   H3Y 5890   2.686   7.261   4.131  1.2730  0.7736  2.2544
   46DOPE   C34 5891   2.528   7.306   4.282 -0.3761 -0.0593 -0.0865
   46DOPE   H4X 5892   2.578   7.398   4.318 -0.1048  0.8039 -2.4588
   46DOPE   H4Y 5893   2.417   7.306   4.271 -0.2282 -1.9424 -2.5234
   46DOPE   C35 5894   2.558   7.186   4.367  0.3828 -0.2626 -0.8025
   46DOPE   H5X 5895   2.667   7.164   4.361  0.3856  0.0126 -1.9329
   46DOPE   H5Y 5896   2.500   7.101   4.326 -0.4290 -0.5319  0.8401
   46DOPE   C36 5897   2.519   7.223   4.509  0.4554 -0.4341  0.3537
   46DOPE   H6X 5898   2.411   7.246   4.513  0.1197 -1.8711  0.1704
   46DOPE   H6Y 5899   2.566   7.315   4.551 -1.5930 -0.2170  2.3484
   46DOPE   C37 5900   2.542   7.115   4.612  0.4348 -0.1881 -0.3341
   46DOPE   H7X 5901   2.470   7.139   4.693 -0.4079  0.0827 -1.1488
   46DOPE   H7Y 5902   2.515   7.018   4.565  2.9328 -0.3247 -1.6523
   46DOPE   C38 5903   2.687   7.109   4.655  0.4390 -1.0233  0.5900
   46DOPE   H8X 5904   2.740   7.207   4.655 -1.7308  0.2355 -1.1491
   46DOPE   H8Y 5905   2.743   7.054   4.576  0.1225 -0.7987  0.2093
   46DOPE   C39 5906   2.710   7.029   4.782 -0.0952  0.4114 -0.0034
   46DOPE   H9X 5907   2.650   6.937   4.783  0.7296 -0.1746 -1.3282
   46DOPE  C310 5908   2.800   7.053   4.878  0.3188  0.2529 -0.1282
   46DOPE  H10X 5909   2.813   6.976   4.956  2.3295 -1.1730 -1.7325
   46DOPE  C311 5910   2.872   7.176   4.902 -0.1093  0.0677  0.0166
   46DOPE  H11X 5911   2.977   7.164   4.866  0.3402 -1.0040  1.6032
   46DOPE  H11Y 5912   2.831   7.264   4.846  1.0492  1.6081  1.5089
   46DOPE  C312 5913   2.871   7.215   5.053 -0.0993 -0.0102 -0.1430
   46DOPE  H12X 5914   2.776   7.194   5.106 -0.1067  0.4466  0.0269
   46DOPE  H12Y 5915   2.887   7.325   5.055 -0.6752  0.1032 -1.3054
   46DOPE  C313 5916   2.968   7.142   5.154 -0.1808  0.2806 -0.0514
   46DOPE  H13X 5917   2.947   7.033   5.149  2.1326 -0.1705 -0.8154
   46DOPE  H13Y 5918   3.070   7.153   5.111  0.2283  0.8626  1.0484
   46DOPE  C314 5919   2.966   7.202   5.293 -0.1819  0.8527  0.4164
   46DOPE  H14X 5920   2.859   7.193   5.320  0.0916 -1.5544  0.8683
   46DOPE  H14Y 5921   2.979   7.312   5.299  0.2883  0.8259 -0.0261
   46DOPE  C315 5922   3.036   7.109   5.395  0.2712  0.9554 -1.0927
   46DOPE  H15X 5923   3.147   7.114   5.387  0.5799  0.0095  1.5601
   46DOPE  H15Y 5924   3.002   7.009   5.359 -0.2999  0.2415  1.2583
   46DOPE  C316 5925   2.980   7.140   5.538  0.1517  0.4074 -0.3227
   46DOPE  H16X 5926   3.002   7.049   5.598  1.3385  1.2649  0.5731
   46DOPE  H16Y 5927   2.871   7.157   5.524 -0.0886  0.3171  1.2444
   46DOPE  C317 5928   3.045   7.263   5.602  0.4801  0.0346 -0.9722
   46DOPE  H17X 5929   3.139   7.227   5.648 -0.1309 -1.4813 -0.8431
   46DOPE  H17Y 5930   3.068   7.344   5.531 -3.2319  1.1219 -1.1453
   46DOPE  C318 5931   2.965   7.326   5.720 -0.2402 -0.1244  0.0700
   46DOPE  H18X 5932   2.960   7.256   5.806 -1.7179 -2.6326 -1.9216
   46DOPE  H18Y 5933   3.012   7.425   5.740  1.6018 -1.0195  0.3736
   46DOPE  H18Z 5934   2.857   7.337   5.693 -0.0531 -2.1842 -1.7312
   47DOPE     N 5935   6.341   5.206   2.631 -0.0763 -0.1746 -0.1138
   47DOPE   HN1 5936   6.312   5.202   2.531  1.1868 -0.0318 -0.4946
   47DOPE   HN2 5937   6.264   5.244   2.690  0.5863 -1.5496  1.7293
   47DOPE   HN3 5938   6.425   5.267   2.634  0.0590 -0.3156 -0.9031
   47DOPE   C12 5939   6.379   5.076   2.693  0.1962 -0.2338 -0.3524
   47DOPE  H12A 5940   6.490   5.074   2.681  0.3936 -2.0281  1.2457
   47DOPE  H12B 5941   6.324   4.992   2.646 -1.8751  0.7212  0.2677
   47DOPE   C11 5942   6.345   5.080   2.842 -0.5192  0.4052 -0.5718
   47DOPE  H11A 5943   6.396   4.996   2.894 -2.6293 -0.2919  0.4816
   47DOPE  H11B 5944   6.237   5.061   2.862 -0.4398  1.2906  0.9099
   47DOPE     P 5945   6.497   5.233   2.987  0.0715 -0.2880 -0.0263
   47DOPE   O13 5946   6.512   5.375   3.019  0.2949 -0.5034 -0.4451
   47DOPE   O14 5947   6.606   5.165   2.915  0.3044 -0.0352  0.4370
   47DOPE   O11 5948   6.454   5.154   3.119  0.7938  0.0206  0.1366
   47DOPE   O12 5949   6.370   5.213   2.901  0.0898  0.1669  0.2020
   47DOPE    C1 5950   6.530   5.049   3.175 -0.2646  0.6504 -0.0138
   47DOPE    HA 5951   6.611   5.011   3.109  0.3819  1.4971  0.2646
   47DOPE    HB 5952   6.457   4.965   3.180  0.9346 -0.3420  1.9601
   47DOPE    C2 5953   6.582   5.082   3.321  0.3140  0.5058 -0.1230
   47DOPE    HS 5954   6.655   5.006   3.354 -2.2560 -0.4488  4.0757
   47DOPE   O21 5955   6.478   5.096   3.415  0.2018  0.1453 -0.5084
   47DOPE   C21 5956   6.506   5.052   3.538 -0.3537 -0.1477  0.4004
   47DOPE   O22 5957   6.599   4.974   3.563 -0.1604 -0.0322 -0.0774
   47DOPE   C22 5958   6.393   5.083   3.636 -0.1001 -0.2050  1.0256
   47DOPE   H2R 5959   6.299   5.052   3.585 -0.4621 -0.3093  1.7529
   47DOPE   H2S 5960   6.394   5.194   3.645  2.4163  0.2271 -2.3851
   47DOPE    C3 5961   6.660   5.215   3.320 -0.2828  0.3792 -0.0586
   47DOPE    HX 5962   6.576   5.288   3.319 -1.4849 -0.4580  5.2261
   47DOPE    HY 5963   6.723   5.228   3.230 -0.3029  0.2279 -0.0936
   47DOPE   O31 5964   6.730   5.236   3.449 -0.6020  0.3400  0.4972
   47DOPE   C31 5965   6.846   5.167   3.453  0.1695 -0.3230 -0.4590
   47DOPE   O32 5966   6.900   5.111   3.357  0.6707 -0.0320  0.1045
   47DOPE   C32 5967   6.894   5.184   3.590 -0.7086 -0.0613  0.0945
   47DOPE   H2X 5968   6.950   5.280   3.597  0.1739 -0.5790  0.2993
   47DOPE   H2Y 5969   6.806   5.205   3.655 -1.2382 -0.2550 -0.5540
   47DOPE   C23 5970   6.410   5.022   3.773 -0.0934 -0.5527  0.2496
   47DOPE   H3R 5971   6.436   4.914   3.770  3.1419  0.1656 -1.3464
   47DOPE   H3S 5972   6.311   5.033   3.823 -1.0926 -0.9502 -1.5764
   47DOPE   C24 5973   6.522   5.092   3.856 -0.9633  0.2048  0.6399
   47DOPE   H4R 5974   6.492   5.198   3.872 -0.0943  0.5587 -0.0168
   47DOPE   H4S 5975   6.621   5.086   3.806  0.6763  1.1570  3.5502
   47DOPE   C25 5976   6.531   5.038   3.997  0.3974 -0.4458 -0.4568
   47DOPE   H5R 5977   6.428   5.030   4.040  0.0044 -1.0233 -1.4698
   47DOPE   H5S 5978   6.589   5.116   4.050 -0.5743 -0.8909  1.3716
   47DOPE   C26 5979   6.610   4.904   4.015  0.8266 -0.5718  0.5372
   47DOPE   H6R 5980   6.711   4.900   3.970  0.2458 -1.6621 -0.7462
   47DOPE   H6S 5981   6.557   4.824   3.959  1.7674 -1.8931  1.4538
   47DOPE   C27 5982   6.619   4.875   4.167 -0.3477 -0.5802  0.4529
   47DOPE   H7R 5983   6.672   4.961   4.214  0.3347 -0.4414 -0.5455
   47DOPE   H7S 5984   6.682   4.784   4.178 -0.3406 -0.4880  1.2556
   47DOPE   C28 5985   6.489   4.850   4.244  0.2550 -0.1617 -0.3202
   47DOPE   H8R 5986   6.437   4.765   4.194 -0.3126 -0.5759  0.9236
   47DOPE   H8S 5987   6.429   4.943   4.251 -1.0662 -1.0219  0.3164
   47DOPE   C29 5988   6.504   4.793   4.386  0.0543 -0.2940  0.2037
   47DOPE   H9R 5989   6.584   4.842   4.444 -0.6701  1.2542 -0.0477
   47DOPE  C210 5990   6.448   4.686   4.444 -0.3885  1.0038  0.2869
   47DOPE  H10R 5991   6.475   4.670   4.549  0.6602 -3.4273 -0.4856
   47DOPE  C211 5992   6.330   4.608   4.393 -0.2443 -0.4187 -0.0796
   47DOPE  H11R 5993   6.362   4.514   4.342  0.3483  1.0078 -2.5158
   47DOPE  H11S 5994   6.280   4.665   4.312  1.0088 -2.6427 -2.6148
   47DOPE  C212 5995   6.220   4.579   4.511 -0.3134  0.1166  0.1091
   47DOPE  H12R 5996   6.196   4.672   4.567  0.0792  0.3318 -0.0741
   47DOPE  H12S 5997   6.260   4.507   4.585 -1.4090  0.9387  1.5606
   47DOPE  C213 5998   6.081   4.530   4.464 -0.6394 -0.2889  0.0570
   47DOPE  H13R 5999   6.036   4.600   4.391  0.5935  0.0520 -0.3881
   47DOPE  H13S 6000   6.012   4.533   4.552 -0.0395 -1.5749  0.6014
   47DOPE  C214 6001   6.088   4.390   4.400 -0.6353 -0.2328 -0.0327
   47DOPE  H14R 6002   6.086   4.320   4.486  0.1652  1.0386  1.0598
   47DOPE  H14S 6003   6.181   4.386   4.340 -0.9707  0.7115 -0.6517
   47DOPE  C215 6004   5.962   4.365   4.310 -0.2030 -0.1640 -0.0252
   47DOPE  H15R 6005   5.971   4.428   4.219 -0.7817 -0.6956 -0.4489
   47DOPE  H15S 6006   5.871   4.400   4.364  0.0773 -0.3620  0.5952
   47DOPE  C216 6007   5.951   4.219   4.272 -0.4326  0.8470 -0.2077
   47DOPE  H16R 6008   5.874   4.207   4.193 -1.7169  0.9394  0.9963
   47DOPE  H16S 6009   5.930   4.145   4.352 -1.0744  0.0226 -1.1199
   47DOPE  C217 6010   6.080   4.166   4.205  0.1298 -0.7793  0.1642
   47DOPE  H17R 6011   6.055   4.063   4.173 -1.7765 -0.8760  1.7753
   47DOPE  H17S 6012   6.163   4.158   4.279  1.1656  1.1354 -0.7166
   47DOPE  C218 6013   6.136   4.230   4.078 -0.2719 -0.1294 -0.7832
   47DOPE  H18R 6014   6.232   4.179   4.054 -1.1179 -1.2942 -1.8565
   47DOPE  H18S 6015   6.162   4.337   4.093 -2.1994  0.3118 -0.3424
   47DOPE  H18T 6016   6.071   4.216   3.989  0.8020 -1.1530 -1.4512
   47DOPE   C33 6017   6.986   5.067   3.628 -0.4692 -0.2937  0.4344
   47DOPE   H3X 6018   7.073   5.065   3.559 -0.6838 -2.8497  0.1493
   47DOPE   H3Y 6019   6.938   4.967   3.630  0.8183 -0.9367  0.1706
   47DOPE   C34 6020   7.051   5.094   3.764  0.3580  0.7072  0.5167
   47DOPE   H4X 6021   7.117   5.006   3.786 -0.1975  0.3812  0.9035
   47DOPE   H4Y 6022   7.116   5.183   3.779  3.2406 -0.7812 -1.9352
   47DOPE   C35 6023   6.938   5.098   3.868 -1.1564  0.4200 -0.2105
   47DOPE   H5X 6024   6.892   4.997   3.854  1.5296 -0.9406  0.0594
   47DOPE   H5Y 6025   6.866   5.181   3.855 -0.6286  0.9421  0.1308
   47DOPE   C36 6026   6.992   5.110   4.012  0.3422  0.0966  0.3584
   47DOPE   H6X 6027   6.910   5.125   4.085 -1.3695 -1.0259 -1.2318
   47DOPE   H6Y 6028   7.057   5.199   4.027 -0.9030  1.1776 -0.4331
   47DOPE   C37 6029   7.076   4.993   4.064 -0.2681 -1.0017  0.0543
   47DOPE   H7X 6030   7.025   4.896   4.044 -0.4158 -1.2336  1.4797
   47DOPE   H7Y 6031   7.182   4.993   4.030  0.0360  2.6107  0.5592
   47DOPE   C38 6032   7.082   4.991   4.219 -0.3492 -0.8129 -0.6022
   47DOPE   H8X 6033   6.982   4.954   4.251 -1.4260  1.6908 -0.8462
   47DOPE   H8Y 6034   7.096   5.095   4.257  2.9641 -0.7417 -1.6693
   47DOPE   C39 6035   7.197   4.905   4.277  0.0039  0.4555 -0.4992
   47DOPE   H9X 6036   7.300   4.943   4.281  0.4695 -0.7133 -1.0472
   47DOPE  C310 6037   7.173   4.782   4.329  0.2299  0.5441 -0.2070
   47DOPE  H10X 6038   7.255   4.728   4.378  1.0017  0.8132 -1.1801
   47DOPE  C311 6039   7.042   4.717   4.340  0.0767  0.6275 -0.5081
   47DOPE  H11X 6040   6.995   4.740   4.242  0.8554  0.4529 -0.9319
   47DOPE  H11Y 6041   7.068   4.609   4.340  3.2448  1.2667  1.0749
   47DOPE  C312 6042   6.944   4.752   4.451 -0.7372  0.0993  0.7129
   47DOPE  H12X 6043   6.845   4.704   4.435 -0.6744  0.0966  0.3291
   47DOPE  H12Y 6044   6.935   4.862   4.461  0.5804  0.0395  3.4898
   47DOPE  C313 6045   6.992   4.704   4.585 -0.4282 -0.0758 -0.2864
   47DOPE  H13X 6046   7.019   4.596   4.580 -1.0901 -0.4066  1.9980
   47DOPE  H13Y 6047   7.091   4.750   4.604 -0.4631  0.3422 -1.1045
   47DOPE  C314 6048   6.886   4.714   4.692 -0.6345  0.1167 -0.2821
   47DOPE  H14X 6049   6.801   4.644   4.677 -0.4089 -0.1782 -0.1951
   47DOPE  H14Y 6050   6.849   4.817   4.709 -0.4157  0.1748 -0.1592
   47DOPE  C315 6051   6.947   4.672   4.822  0.8606 -0.1070  0.0088
   47DOPE  H15X 6052   7.039   4.732   4.836  0.9489 -0.2367 -0.0141
   47DOPE  H15Y 6053   6.973   4.565   4.819 -2.6584 -1.1631  1.7994
   47DOPE  C316 6054   6.852   4.692   4.945 -0.3072 -0.3415 -0.0761
   47DOPE  H16X 6055   6.794   4.607   4.987 -3.0684  1.9280  1.1213
   47DOPE  H16Y 6056   6.771   4.761   4.913 -0.2265 -0.1484  0.1345
   47DOPE  C317 6057   6.921   4.776   5.057 -0.3837  0.0953  0.1139
   47DOPE  H17X 6058   7.006   4.733   5.113 -0.1834  1.1260  0.6263
   47DOPE  H17Y 6059   6.965   4.862   5.002 -0.3097  0.4525  0.7228
   47DOPE  C318 6060   6.823   4.821   5.161  0.0080 -0.8821  0.2005
   47DOPE  H18X 6061   6.748   4.883   5.107  1.0366  0.7745  0.6121
   47DOPE  H18Y 6062   6.778   4.731   5.208  0.9227 -0.7319  1.4107
   47DOPE  H18Z 6063   6.874   4.879   5.240  2.8295 -1.0984 -1.3195
   48DOPE     N 6064   4.846   0.601   2.903  0.1188  0.0932  0.2502
   48DOPE   HN1 6065   4.793   0.676   2.951  0.5932  0.3848  0.3128
   48DOPE   HN2 6066   4.849   0.622   2.801  0.4654 -2.8067 -0.4374
   48DOPE   HN3 6067   4.794   0.510   2.899  0.1554  0.1116 -1.5766
   48DOPE   C12 6068   4.987   0.592   2.942 -0.4489  0.0174 -0.1952
   48DOPE  H12A 6069   4.988   0.562   3.049 -2.0314  0.9701  0.1205
   48DOPE  H12B 6070   5.030   0.695   2.945  0.3287 -0.2931  2.7651
   48DOPE   C11 6071   5.074   0.501   2.856  0.6605  0.4340 -0.6693
   48DOPE  H11A 6072   5.170   0.499   2.913 -0.3555 -1.5506  1.0780
   48DOPE  H11B 6073   5.088   0.540   2.753  0.2539  1.7467 -0.2506
   48DOPE     P 6074   5.053   0.245   2.921 -0.2818  0.1702  0.0807
   48DOPE   O13 6075   5.192   0.224   2.877 -0.7231  0.6185 -0.1724
   48DOPE   O14 6076   4.956   0.139   2.901 -0.0924 -0.0099  0.3836
   48DOPE   O11 6077   5.048   0.292   3.074  0.3983 -0.2475  0.1226
   48DOPE   O12 6078   5.001   0.378   2.847 -0.2994  0.2756  0.3667
   48DOPE    C1 6079   4.933   0.271   3.163  0.8192 -0.0735  0.4500
   48DOPE    HA 6080   4.845   0.292   3.099  1.0712  1.7438  0.6254
   48DOPE    HB 6081   4.940   0.342   3.248 -0.9752  0.3537  0.2789
   48DOPE    C2 6082   4.925   0.128   3.228  0.3872  0.6315  0.7676
   48DOPE    HS 6083   4.944   0.058   3.145 -0.7980  1.0622  0.1171
   48DOPE   O21 6084   4.792   0.121   3.276 -0.0097 -0.0815 -0.2385
   48DOPE   C21 6085   4.744  -0.002   3.279  0.1995  0.5909  0.4475
   48DOPE   O22 6086   4.786  -0.098   3.216 -0.2186 -0.6284  0.3260
   48DOPE   C22 6087   4.622   0.001   3.350  0.8186  0.5323 -0.1404
   48DOPE   H2R 6088   4.553  -0.010   3.264  0.4738  0.3160  0.1623
   48DOPE   H2S 6089   4.591   0.098   3.394  0.5241  0.0657  0.7074
   48DOPE    C3 6090   5.034   0.100   3.334 -0.6353 -0.1111 -0.7143
   48DOPE    HX 6091   5.130   0.087   3.280 -0.1799 -0.9566  0.2549
   48DOPE    HY 6092   5.007   0.003   3.382 -0.9698  0.0515 -0.5706
   48DOPE   O31 6093   5.042   0.194   3.438  0.0590 -0.1705  0.3525
   48DOPE   C31 6094   5.145   0.274   3.469  0.3898 -0.0658 -0.1962
   48DOPE   O32 6095   5.253   0.257   3.423  0.0941  0.2447 -0.2107
   48DOPE   C32 6096   5.116   0.368   3.586  0.4132 -0.2009  0.4423
   48DOPE   H2X 6097   5.136   0.471   3.550 -0.9198  0.0184  0.2983
   48DOPE   H2Y 6098   5.007   0.369   3.610 -0.0885  0.6130 -1.6966
   48DOPE   C23 6099   4.612  -0.111   3.458 -0.1282  0.4191  0.2661
   48DOPE   H3R 6100   4.639  -0.209   3.412  1.1977 -0.6196  3.0504
   48DOPE   H3S 6101   4.513  -0.134   3.502  0.3852 -3.1859 -0.1483
   48DOPE   C24 6102   4.702  -0.092   3.578 -0.3190 -0.1571  0.3087
   48DOPE   H4R 6103   4.808  -0.105   3.548 -0.1320 -0.9552  1.2680
   48DOPE   H4S 6104   4.683  -0.172   3.653  0.1254  0.1786  0.7870
   48DOPE   C25 6105   4.701   0.051   3.640  0.4769  1.1392 -0.1050
   48DOPE   H5R 6106   4.599   0.073   3.677 -0.0362  2.1160 -1.9617
   48DOPE   H5S 6107   4.729   0.122   3.559  2.2273  0.7190  0.0769
   48DOPE   C26 6108   4.802   0.070   3.763 -0.7552 -0.4563 -0.5528
   48DOPE   H6R 6109   4.823   0.180   3.763 -1.5110 -0.2992 -1.4083
   48DOPE   H6S 6110   4.897   0.021   3.734  0.4312  2.0959 -1.3382
   48DOPE   C27 6111   4.746   0.013   3.895  0.0438  0.1092  0.0241
   48DOPE   H7R 6112   4.718  -0.091   3.870  1.5376 -0.4170  0.4942
   48DOPE   H7S 6113   4.653   0.068   3.922 -0.6174  0.5892 -2.8816
   48DOPE   C28 6114   4.836   0.021   4.024  0.1112 -0.0049  0.7264
   48DOPE   H8R 6115   4.935  -0.017   3.992 -0.0839  0.3290 -0.2918
   48DOPE   H8S 6116   4.798  -0.048   4.103  0.0521  0.6731  1.3037
   48DOPE   C29 6117   4.837   0.164   4.073 -0.1735  0.3325  0.0911
   48DOPE   H9R 6118   4.802   0.244   4.007 -0.9675 -0.5370 -0.5776
   48DOPE  C210 6119   4.856   0.199   4.199 -0.4710 -0.4410  0.0247
   48DOPE  H10R 6120   4.857   0.308   4.215 -1.1508 -0.3443 -0.5277
   48DOPE  C211 6121   4.907   0.121   4.312 -0.2796  0.6193 -0.2413
   48DOPE  H11R 6122   4.927   0.192   4.395 -1.5346  1.0905 -0.3106
   48DOPE  H11S 6123   5.001   0.071   4.281  1.4480  1.4667  3.1705
   48DOPE  C212 6124   4.819   0.013   4.381  0.1561  0.2119 -0.6429
   48DOPE  H12R 6125   4.820  -0.082   4.324  2.4901 -0.1927 -0.0487
   48DOPE  H12S 6126   4.719   0.052   4.408  0.1668  0.2036 -0.5900
   48DOPE  C213 6127   4.882  -0.025   4.516 -0.1596  0.1194 -0.1903
   48DOPE  H13R 6128   4.895   0.064   4.581  1.0503  0.4923 -0.8981
   48DOPE  H13S 6129   4.986  -0.063   4.503  0.8740  2.5138  0.5411
   48DOPE  C214 6130   4.793  -0.129   4.590 -0.1193 -0.1273  0.3799
   48DOPE  H14R 6131   4.809  -0.232   4.551 -0.0062 -0.5777  1.5716
   48DOPE  H14S 6132   4.688  -0.094   4.587 -0.4555 -0.9526  1.7266
   48DOPE  C215 6133   4.830  -0.142   4.742 -0.2588  0.2537  0.1729
   48DOPE  H15R 6134   4.808  -0.042   4.785 -1.3732  0.5403 -0.9861
   48DOPE  H15S 6135   4.940  -0.151   4.752 -0.4123 -0.5983  1.2481
   48DOPE  C216 6136   4.749  -0.257   4.807 -0.1662 -0.2546 -0.4923
   48DOPE  H16R 6137   4.775  -0.358   4.769  0.9859 -0.5596  1.0329
   48DOPE  H16S 6138   4.644  -0.241   4.776 -1.1748 -0.7304  2.4259
   48DOPE  C217 6139   4.757  -0.247   4.959 -0.3076  0.7243  0.5998
   48DOPE  H17R 6140   4.738  -0.139   4.975  1.2292  1.1822 -0.3786
   48DOPE  H17S 6141   4.861  -0.265   4.995  0.5705 -0.6312 -2.2968
   48DOPE  C218 6142   4.645  -0.321   5.037  0.0122 -0.5045  0.1775
   48DOPE  H18R 6143   4.677  -0.427   5.041  0.5260 -0.3156  2.5854
   48DOPE  H18S 6144   4.540  -0.315   5.002 -0.2817 -0.1886  1.0820
   48DOPE  H18T 6145   4.647  -0.282   5.141 -1.1647  1.9094 -0.6215
   48DOPE   C33 6146   5.190   0.327   3.720  0.1622 -0.3250 -0.0565
   48DOPE   H3X 6147   5.298   0.341   3.699  0.1186  2.6546  1.1849
   48DOPE   H3Y 6148   5.168   0.219   3.731 -1.5207 -0.0047  0.0256
   48DOPE   C34 6149   5.139   0.412   3.835  0.4569 -0.6296  0.3367
   48DOPE   H4X 6150   5.148   0.517   3.800  0.2279  0.0025  2.0691
   48DOPE   H4Y 6151   5.036   0.373   3.852  0.2233  0.6516  2.0738
   48DOPE   C35 6152   5.221   0.410   3.966 -0.3130  0.4051 -0.5108
   48DOPE   H5X 6153   5.322   0.456   3.952  0.2502 -0.4092  0.6858
   48DOPE   H5Y 6154   5.247   0.304   3.987 -1.0814 -0.7923 -4.7250
   48DOPE   C36 6155   5.152   0.480   4.080  0.5009 -1.0747 -0.6463
   48DOPE   H6X 6156   5.072   0.414   4.121 -0.6585  0.7765  0.2002
   48DOPE   H6Y 6157   5.097   0.562   4.030 -0.5485 -2.0409 -1.1527
   48DOPE   C37 6158   5.249   0.510   4.204  0.4557 -0.4964  0.2701
   48DOPE   H7X 6159   5.181   0.517   4.291 -0.0089 -0.6815 -0.0733
   48DOPE   H7Y 6160   5.322   0.427   4.214  0.5537 -0.8131 -2.3507
   48DOPE   C38 6161   5.322   0.647   4.185 -0.8784  0.2282 -0.5389
   48DOPE   H8X 6162   5.241   0.716   4.216 -1.7969 -2.0096  2.4857
   48DOPE   H8Y 6163   5.363   0.673   4.085  0.6969 -0.2254 -0.0476
   48DOPE   C39 6164   5.429   0.686   4.284 -0.4870  1.0462 -0.5212
   48DOPE   H9X 6165   5.526   0.689   4.233 -0.0336  0.6917  0.3016
   48DOPE  C310 6166   5.424   0.704   4.415  1.1733 -0.5980  0.0116
   48DOPE  H10X 6167   5.516   0.738   4.465  1.7948 -1.2017 -0.6925
   48DOPE  C311 6168   5.296   0.686   4.496  0.0284 -0.0760  0.1343
   48DOPE  H11X 6169   5.250   0.784   4.520 -1.7235 -0.0362 -2.8174
   48DOPE  H11Y 6170   5.218   0.637   4.434 -0.3438 -0.1177  0.6283
   48DOPE  C312 6171   5.308   0.602   4.627 -0.6315 -0.0590 -0.2333
   48DOPE  H12X 6172   5.386   0.525   4.604  0.6118  1.0472  0.1685
   48DOPE  H12Y 6173   5.205   0.563   4.640 -1.5390  1.6043 -1.9876
   48DOPE  C313 6174   5.341   0.688   4.744 -0.7851 -0.0335  0.2468
   48DOPE  H13X 6175   5.442   0.733   4.730 -0.2971 -0.9278  0.8622
   48DOPE  H13Y 6176   5.266   0.769   4.758 -2.8860 -1.7594 -0.4248
   48DOPE  C314 6177   5.344   0.617   4.878  0.2586 -0.1146 -0.2696
   48DOPE  H14X 6178   5.380   0.688   4.955  1.3352 -0.4425 -0.4569
   48DOPE  H14Y 6179   5.421   0.538   4.879 -0.8902 -1.2632  1.2419
   48DOPE  C315 6180   5.204   0.569   4.922  0.3043 -0.1169  0.0277
   48DOPE  H15X 6181   5.213   0.517   5.020 -0.3935  2.1067  1.3463
   48DOPE  H15Y 6182   5.162   0.486   4.861  0.7814  0.8138 -1.6180
   48DOPE  C316 6183   5.096   0.684   4.944  0.7976  0.2555  0.2986
   48DOPE  H16X 6184   5.080   0.738   4.849 -0.7501  2.2466  1.6080
   48DOPE  H16Y 6185   5.127   0.755   5.024  0.4977 -0.4304  1.0346
   48DOPE  C317 6186   4.965   0.623   4.983 -0.6795  0.3741 -0.0924
   48DOPE  H17X 6187   4.925   0.555   4.905 -2.1256 -0.9696  1.7340
   48DOPE  H17Y 6188   4.991   0.565   5.074 -2.1247 -0.4624 -0.1789
   48DOPE  C318 6189   4.854   0.722   5.013  0.6583 -0.0652 -0.2281
   48DOPE  H18X 6190   4.769   0.657   5.046  1.2453 -0.0875  1.3206
   48DOPE  H18Y 6191   4.882   0.783   5.102 -1.9472  0.4412  0.3233
   48DOPE  H18Z 6192   4.822   0.788   4.930 -0.8647  1.9724  1.8700
   49DOPE     N 6193   0.603   4.554   3.298  0.3947 -0.2542 -0.2688
   49DOPE   HN1 6194   0.541   4.635   3.276 -0.1419  0.7449  3.9887
   49DOPE   HN2 6195   0.664   4.531   3.217  0.2136  0.1928 -0.5363
   49DOPE   HN3 6196   0.536   4.478   3.322 -0.1828  0.6787  1.2420
   49DOPE   C12 6197   0.682   4.601   3.416 -0.0898 -0.0676  0.6750
   49DOPE  H12A 6198   0.781   4.637   3.381 -0.1194  0.8775  1.5240
   49DOPE  H12B 6199   0.717   4.516   3.478  0.6959 -0.4637 -0.2860
   49DOPE   C11 6200   0.621   4.710   3.496  0.7336 -0.4508 -0.3565
   49DOPE  H11A 6201   0.675   4.707   3.593 -1.1047 -2.6750  0.7075
   49DOPE  H11B 6202   0.520   4.678   3.528 -0.8986  2.8063 -1.7772
   49DOPE     P 6203   0.494   4.883   3.357  0.3299  0.1800 -0.1716
   49DOPE   O13 6204   0.423   4.763   3.304  0.7857 -0.7343  0.5307
   49DOPE   O14 6205   0.532   4.986   3.260  0.5757  0.1434 -0.2484
   49DOPE   O11 6206   0.415   4.943   3.480 -0.1156  0.0614 -0.1948
   49DOPE   O12 6207   0.622   4.836   3.423 -0.4121 -0.5001  0.4989
   49DOPE    C1 6208   0.469   5.060   3.539 -0.8054 -0.0963 -0.2467
   49DOPE    HA 6209   0.392   5.139   3.533  0.2073  1.2133  2.2943
   49DOPE    HB 6210   0.557   5.100   3.486 -0.2974 -3.5118 -2.2960
   49DOPE    C2 6211   0.513   5.040   3.687  0.4848  0.4708 -0.2247
   49DOPE    HS 6212   0.613   4.992   3.684  0.0423 -0.5132  0.2682
   49DOPE   O21 6213   0.412   4.953   3.736 -0.0414 -0.6385  0.1135
   49DOPE   C21 6214   0.446   4.880   3.835  0.5337 -0.4780  0.8995
   49DOPE   O22 6215   0.557   4.872   3.884  0.2391 -0.8180 -0.1490
   49DOPE   C22 6216   0.314   4.810   3.876 -0.6414  0.0303 -0.0564
   49DOPE   H2R 6217   0.239   4.826   3.795  0.2196 -2.5710 -1.4859
   49DOPE   H2S 6218   0.271   4.862   3.964  1.0505 -0.2782  0.9981
   49DOPE    C3 6219   0.516   5.176   3.768 -0.3872  0.6312  0.6487
   49DOPE    HX 6220   0.605   5.230   3.730 -2.1535  0.8430 -3.8559
   49DOPE    HY 6221   0.535   5.153   3.875 -0.0558  1.3832  0.7560
   49DOPE   O31 6222   0.401   5.254   3.739 -0.4035  0.4799 -0.0067
   49DOPE   C31 6223   0.284   5.228   3.814  0.0847  0.8895  0.3851
   49DOPE   O32 6224   0.265   5.142   3.892 -0.2392  0.5896 -0.6630
   49DOPE   C32 6225   0.186   5.337   3.786  0.1856  0.2815 -0.7112
   49DOPE   H2X 6226   0.180   5.362   3.677 -0.9151  1.3235 -0.4419
   49DOPE   H2Y 6227   0.091   5.287   3.813  0.7264  0.2963  1.3305
   49DOPE   C23 6228   0.336   4.660   3.902  0.4476  0.3291 -0.5114
   49DOPE   H3R 6229   0.236   4.611   3.908  0.9722 -0.6410  0.9565
   49DOPE   H3S 6230   0.385   4.642   4.000  0.7949 -0.4485 -0.8230
   49DOPE   C24 6231   0.410   4.590   3.791  0.0589 -0.0929  0.1498
   49DOPE   H4R 6232   0.520   4.600   3.804  0.2607 -0.4926 -1.0976
   49DOPE   H4S 6233   0.373   4.638   3.697 -0.3160  1.3644  1.0054
   49DOPE   C25 6234   0.388   4.440   3.786 -0.3861  0.5732 -0.1070
   49DOPE   H5R 6235   0.399   4.401   3.682 -0.7763  1.4997 -0.5068
   49DOPE   H5S 6236   0.283   4.420   3.817 -0.2524  0.9686  0.6145
   49DOPE   C26 6237   0.477   4.353   3.875  0.0231  0.6154 -0.4462
   49DOPE   H6R 6238   0.445   4.364   3.981 -2.6385  1.4323 -1.2550
   49DOPE   H6S 6239   0.574   4.409   3.871 -0.7598  2.0413 -0.1902
   49DOPE   C27 6240   0.485   4.207   3.832  0.4417  0.5782 -0.0629
   49DOPE   H7R 6241   0.569   4.144   3.866 -0.5458 -1.8838 -1.9217
   49DOPE   H7S 6242   0.483   4.211   3.721 -0.3007 -0.6060 -0.1108
   49DOPE   C28 6243   0.352   4.132   3.867  0.3052 -0.1778 -0.2593
   49DOPE   H8R 6244   0.263   4.193   3.841  0.6484  0.4222 -0.0394
   49DOPE   H8S 6245   0.347   4.132   3.978 -0.9761  0.0947 -0.3003
   49DOPE   C29 6246   0.343   3.994   3.812  0.3809 -0.1349  0.2945
   49DOPE   H9R 6247   0.378   3.990   3.708  0.5331 -1.9470  0.3814
   49DOPE  C210 6248   0.306   3.881   3.877 -1.0587 -0.2327  0.1529
   49DOPE  H10R 6249   0.283   3.792   3.817 -0.3777  1.1472 -2.2975
   49DOPE  C211 6250   0.278   3.882   4.026 -0.4536 -0.1362 -0.0367
   49DOPE  H11R 6251   0.192   3.950   4.048  0.9660  1.3128  1.4043
   49DOPE  H11S 6252   0.357   3.933   4.086 -0.2905  0.6399 -0.8858
   49DOPE  C212 6253   0.252   3.736   4.075 -0.1224  0.1104  0.1023
   49DOPE  H12R 6254   0.328   3.666   4.036 -1.4340 -0.7833 -0.9407
   49DOPE  H12S 6255   0.159   3.693   4.032  0.0750 -1.3738  1.0965
   49DOPE  C213 6256   0.246   3.728   4.226  0.4514  0.0079  0.0427
   49DOPE  H13R 6257   0.138   3.729   4.255 -0.1564 -0.2406 -2.0597
   49DOPE  H13S 6258   0.308   3.802   4.281  0.9693  0.2115 -0.8014
   49DOPE  C214 6259   0.278   3.584   4.282  0.9560  0.6901 -0.3375
   49DOPE  H14R 6260   0.239   3.503   4.216 -0.7383 -0.7206  2.2433
   49DOPE  H14S 6261   0.224   3.577   4.378  1.2137 -0.3297 -0.2470
   49DOPE  C215 6262   0.423   3.570   4.317  0.1077  0.8905  0.1659
   49DOPE  H15R 6263   0.432   3.635   4.407 -2.6771  1.6505 -0.0278
   49DOPE  H15S 6264   0.475   3.608   4.227 -2.9575 -0.0985 -2.1933
   49DOPE  C216 6265   0.471   3.433   4.341  0.3152  0.0504  0.6037
   49DOPE  H16R 6266   0.580   3.451   4.356  0.3122 -0.5930  1.5038
   49DOPE  H16S 6267   0.467   3.380   4.244 -0.9954  2.1690 -0.5613
   49DOPE  C217 6268   0.402   3.347   4.449 -0.1791  0.3983 -0.2539
   49DOPE  H17R 6269   0.379   3.244   4.416  0.2350 -0.1748  1.1965
   49DOPE  H17S 6270   0.310   3.400   4.482  0.4714  1.6197 -0.3241
   49DOPE  C218 6271   0.492   3.326   4.574 -0.4046 -0.3825 -0.2585
   49DOPE  H18R 6272   0.578   3.256   4.564  0.6041  1.0181 -1.9709
   49DOPE  H18S 6273   0.432   3.293   4.661 -2.7565  0.3439 -1.5376
   49DOPE  H18T 6274   0.527   3.429   4.598  0.8449 -0.5242 -1.3646
   49DOPE   C33 6275   0.209   5.462   3.880 -0.3048  0.1101  1.0833
   49DOPE   H3X 6276   0.284   5.519   3.822 -0.8211 -1.2852 -1.0486
   49DOPE   H3Y 6277   0.250   5.434   3.980 -0.4025  1.5727  1.5614
   49DOPE   C34 6278   0.086   5.556   3.916 -0.5258  0.0759  0.7909
   49DOPE   H4X 6279   0.003   5.498   3.962 -1.3762  1.2790  0.8032
   49DOPE   H4Y 6280   0.134   5.630   3.983  1.7724 -1.7019  1.2611
   49DOPE   C35 6281   0.040   5.631   3.797 -0.0445 -0.5854 -0.0064
   49DOPE   H5X 6282   0.010   5.552   3.725  1.8439  0.1090 -1.6415
   49DOPE   H5Y 6283   0.130   5.687   3.763 -0.7569  0.4940 -0.1750
   49DOPE   C36 6284  -0.077   5.728   3.818  0.1300 -0.6249  0.1087
   49DOPE   H6X 6285  -0.165   5.663   3.841 -1.0421  0.2102 -1.7661
   49DOPE   H6Y 6286  -0.091   5.783   3.723 -1.3977  2.9079  2.2133
   49DOPE   C37 6287  -0.044   5.838   3.919 -0.7573 -0.2294  0.6132
   49DOPE   H7X 6288  -0.006   5.789   4.012 -0.9094 -0.7736  0.3911
   49DOPE   H7Y 6289   0.034   5.912   3.890 -1.8827  0.8985  0.3856
   49DOPE   C38 6290  -0.167   5.921   3.943  0.0393 -0.3154 -0.7088
   49DOPE   H8X 6291  -0.258   5.859   3.958 -0.6534  0.8539  0.0672
   49DOPE   H8Y 6292  -0.193   5.984   3.855  1.8409  0.3152 -0.8393
   49DOPE   C39 6293  -0.157   6.016   4.066  0.3727  0.1632  0.0803
   49DOPE   H9X 6294  -0.182   5.963   4.159  0.6373 -1.5003 -0.7605
   49DOPE  C310 6295  -0.113   6.142   4.063 -0.6302  0.0975 -0.3197
   49DOPE  H10X 6296  -0.129   6.208   4.149  0.0609 -1.0818  0.7459
   49DOPE  C311 6297  -0.056   6.210   3.936  0.6608  0.2501 -0.4347
   49DOPE  H11X 6298  -0.033   6.142   3.852 -1.1704  0.7137 -1.3685
   49DOPE  H11Y 6299  -0.127   6.283   3.892 -0.4505 -0.2713  0.4337
   49DOPE  C312 6300   0.073   6.281   3.986 -0.2150  0.2689 -0.4364
   49DOPE  H12X 6301   0.056   6.353   4.068  0.6094 -0.1436  0.1075
   49DOPE  H12Y 6302   0.101   6.341   3.897  0.4129 -0.6179 -0.8587
   49DOPE  C313 6303   0.172   6.171   4.023  0.3423  0.6003  0.0679
   49DOPE  H13X 6304   0.145   6.115   4.115 -1.4964  0.1420 -0.7080
   49DOPE  H13Y 6305   0.182   6.104   3.935  1.5543 -0.0884  0.6938
   49DOPE  C314 6306   0.314   6.218   4.044  0.2637 -0.3184 -0.2209
   49DOPE  H14X 6307   0.374   6.130   4.078  0.5075  0.2537  0.8675
   49DOPE  H14Y 6308   0.318   6.296   4.122  2.0184 -1.7315  1.1858
   49DOPE  C315 6309   0.384   6.271   3.913  0.3068  0.3210 -0.3999
   49DOPE  H15X 6310   0.342   6.372   3.894  2.1391  1.2322  0.2031
   49DOPE  H15Y 6311   0.364   6.202   3.828  0.5958 -0.1540 -0.0864
   49DOPE  C316 6312   0.531   6.286   3.926  0.4462 -0.1015 -0.1377
   49DOPE  H16X 6313   0.560   6.345   4.015 -2.1533 -1.0450  1.4512
   49DOPE  H16Y 6314   0.562   6.350   3.840  1.4394  0.2926  0.5095
   49DOPE  C317 6315   0.611   6.157   3.932 -0.0876  0.3886 -0.0026
   49DOPE  H17X 6316   0.584   6.099   4.022  0.9807  0.2343  0.2342
   49DOPE  H17Y 6317   0.589   6.092   3.845  0.1254  0.7507 -0.3332
   49DOPE  C318 6318   0.761   6.171   3.930  0.0657  0.2969 -0.3911
   49DOPE  H18X 6319   0.815   6.074   3.929  2.2553  1.4565 -0.4277
   49DOPE  H18Y 6320   0.785   6.223   3.834  3.7283  2.9240  1.7081
   49DOPE  H18Z 6321   0.808   6.240   4.003 -0.3126 -1.2200  1.3386
   50DOPE     N 6322   7.524   3.459   3.298 -0.3815  0.5370  0.9939
   50DOPE   HN1 6323   7.552   3.370   3.252  0.4061  0.9508  0.6373
   50DOPE   HN2 6324   7.422   3.457   3.317 -0.6285 -1.1723 -0.2379
   50DOPE   HN3 6325   7.531   3.533   3.225 -0.6795  1.0943  1.5249
   50DOPE   C12 6326   7.614   3.508   3.405 -0.2578 -0.8980 -1.3287
   50DOPE  H12A 6327   7.553   3.573   3.472 -0.1614 -2.8249  0.7444
   50DOPE  H12B 6328   7.695   3.573   3.365 -0.9897  0.5181 -0.5822
   50DOPE   C11 6329   7.672   3.390   3.478  0.5229  0.0574 -0.3501
   50DOPE  H11A 6330   7.585   3.325   3.502  0.2371  1.1047  1.7069
   50DOPE  H11B 6331   7.726   3.422   3.569  0.8179  0.1901 -0.5678
   50DOPE     P 6332   7.896   3.283   3.377  0.0390  0.6426 -0.2326
   50DOPE   O13 6333   7.977   3.404   3.394  0.2697 -0.4110 -0.8022
   50DOPE   O14 6334   7.919   3.218   3.249 -0.4160 -0.4818  0.0009
   50DOPE   O11 6335   7.913   3.179   3.498 -0.2143 -0.0291  0.4435
   50DOPE   O12 6336   7.747   3.317   3.385 -0.5526  0.2327 -0.0017
   50DOPE    C1 6337   7.844   3.055   3.494  0.3466  0.3954  0.3186
   50DOPE    HA 6338   7.916   2.973   3.514 -0.9754 -0.8695  0.1314
   50DOPE    HB 6339   7.794   3.020   3.400  2.0720 -0.7627 -0.2118
   50DOPE    C2 6340   7.748   3.054   3.617 -0.4807 -0.6327  0.1516
   50DOPE    HS 6341   7.694   3.151   3.612  1.4492  0.4367 -1.8759
   50DOPE   O21 6342   7.821   3.045   3.741 -0.6208  0.0066  0.7042
   50DOPE   C21 6343   7.764   3.108   3.840  0.1153 -0.4228 -0.0078
   50DOPE   O22 6344   7.667   3.185   3.829 -0.0768  0.3356  0.3972
   50DOPE   C22 6345   7.839   3.063   3.963  0.1184 -0.9275  0.0291
   50DOPE   H2R 6346   7.946   3.071   3.937  0.4210 -3.1456  0.4661
   50DOPE   H2S 6347   7.829   2.953   3.971  1.8806 -1.0597  0.7475
   50DOPE    C3 6348   7.650   2.937   3.611 -0.1246  0.1837 -0.7221
   50DOPE    HX 6349   7.703   2.840   3.600  0.7723  0.5708  0.0571
   50DOPE    HY 6350   7.590   2.959   3.519  0.4629  1.2386 -0.8686
   50DOPE   O31 6351   7.563   2.925   3.728  0.2347  0.7709  0.1630
   50DOPE   C31 6352   7.448   2.991   3.726 -0.2146  0.0004 -0.0462
   50DOPE   O32 6353   7.400   3.039   3.625  0.3189 -0.9549 -0.0494
   50DOPE   C32 6354   7.373   2.976   3.860  0.0355 -0.0743 -0.3208
   50DOPE   H2X 6355   7.346   2.868   3.870  1.0268 -0.3679 -0.5988
   50DOPE   H2Y 6356   7.441   2.985   3.948 -1.9138 -0.3750  1.3013
   50DOPE   C23 6357   7.794   3.119   4.099  0.0370 -0.1672  0.4144
   50DOPE   H3R 6358   7.684   3.104   4.107 -0.0793 -0.0851 -0.8147
   50DOPE   H3S 6359   7.810   3.229   4.103 -2.7189  0.4477 -2.0437
   50DOPE   C24 6360   7.866   3.034   4.208 -0.5923  0.5106  0.1685
   50DOPE   H4R 6361   7.972   3.060   4.189 -0.8380  4.2722  2.8487
   50DOPE   H4S 6362   7.840   2.926   4.198  0.3981  0.1907  0.9131
   50DOPE   C25 6363   7.829   3.084   4.351 -0.0019  0.2674  0.2260
   50DOPE   H5R 6364   7.845   3.194   4.350  0.2035  0.2395  0.2779
   50DOPE   H5S 6365   7.898   3.042   4.428 -0.8093  0.5330  1.1140
   50DOPE   C26 6366   7.682   3.062   4.384  0.4200 -0.4814 -0.7785
   50DOPE   H6R 6367   7.645   2.962   4.353  0.8795 -0.9595  0.1463
   50DOPE   H6S 6368   7.615   3.116   4.315 -0.9156 -1.0529  0.0154
   50DOPE   C27 6369   7.646   3.067   4.532  0.4650 -0.1455  0.0620
   50DOPE   H7R 6370   7.603   3.163   4.569  0.1322 -0.3443  0.2016
   50DOPE   H7S 6371   7.732   3.045   4.598  0.2014 -0.6410  0.2475
   50DOPE   C28 6372   7.541   2.958   4.570  0.4517 -0.1550  0.1385
   50DOPE   H8R 6373   7.468   2.953   4.486  2.6243 -0.9992 -1.7902
   50DOPE   H8S 6374   7.472   2.993   4.650 -1.1226  1.1451 -1.6931
   50DOPE   C29 6375   7.598   2.819   4.603  0.7449 -0.3661 -0.3412
   50DOPE   H9R 6376   7.664   2.812   4.690  0.2509 -0.5777  0.0233
   50DOPE  C210 6377   7.579   2.708   4.534  0.5072 -0.1704  0.5614
   50DOPE  H10R 6378   7.625   2.612   4.562 -0.4344 -0.8130 -0.0416
   50DOPE  C211 6379   7.508   2.699   4.399  0.5132 -0.0056 -0.3052
   50DOPE  H11R 6380   7.476   2.798   4.359 -1.7394  0.0072  1.3216
   50DOPE  H11S 6381   7.418   2.636   4.413 -0.3323  1.5677  2.0416
   50DOPE  C212 6382   7.618   2.663   4.296 -0.6271  0.2120 -0.4489
   50DOPE  H12R 6383   7.649   2.558   4.315 -0.5229  0.3550  0.1993
   50DOPE  H12S 6384   7.705   2.729   4.312 -0.4407 -0.4355  1.4630
   50DOPE  C213 6385   7.570   2.679   4.152  0.0618 -0.5260 -0.6043
   50DOPE  H13R 6386   7.584   2.786   4.127  0.1737  0.4800  3.2373
   50DOPE  H13S 6387   7.470   2.631   4.138 -0.3481 -0.4026  1.5430
   50DOPE  C214 6388   7.651   2.601   4.050 -0.5101  0.4543  0.4098
   50DOPE  H14R 6389   7.619   2.495   4.044  0.2916  0.2696 -2.8272
   50DOPE  H14S 6390   7.761   2.594   4.066 -0.0850 -1.0438 -2.4974
   50DOPE  C215 6391   7.615   2.648   3.909  0.5761 -0.1512  0.4614
   50DOPE  H15R 6392   7.648   2.753   3.895  0.8482 -0.1348  1.2126
   50DOPE  H15S 6393   7.505   2.646   3.894  0.4705 -2.2303  1.2027
   50DOPE  C216 6394   7.682   2.561   3.803  0.2965  0.2052  0.2454
   50DOPE  H16R 6395   7.657   2.612   3.708  1.0309  1.3220  0.6334
   50DOPE  H16S 6396   7.642   2.457   3.796  0.9282  0.0619 -2.2054
   50DOPE  C217 6397   7.836   2.557   3.792  1.0047 -0.2793 -0.7603
   50DOPE  H17R 6398   7.879   2.504   3.880  1.7002 -1.2125 -1.6455
   50DOPE  H17S 6399   7.874   2.661   3.789 -1.5899  0.8125  0.4347
   50DOPE  C218 6400   7.883   2.480   3.670  0.1924 -1.1200  0.4394
   50DOPE  H18R 6401   7.853   2.374   3.680  1.4045 -1.5912 -0.6831
   50DOPE  H18S 6402   7.992   2.487   3.649 -0.1094  2.0010 -0.5836
   50DOPE  H18T 6403   7.843   2.523   3.576  1.3576 -1.8217 -0.4002
   50DOPE   C33 6404   7.264   3.083   3.891 -0.2210  0.3663 -0.2954
   50DOPE   H3X 6405   7.178   3.065   3.823  0.7520  0.0623 -1.4962
   50DOPE   H3Y 6406   7.305   3.184   3.867  0.3176  0.4709  1.0024
   50DOPE   C34 6407   7.194   3.064   4.030  0.3551  0.6200  0.2108
   50DOPE   H4X 6408   7.102   3.126   4.020 -1.9980 -2.9597 -4.9538
   50DOPE   H4Y 6409   7.151   2.965   4.055  3.5821 -0.3465  2.6166
   50DOPE   C35 6410   7.287   3.111   4.142 -0.2505 -0.3097 -0.1230
   50DOPE   H5X 6411   7.377   3.046   4.133  0.3357  0.7338 -2.7674
   50DOPE   H5Y 6412   7.256   3.111   4.248 -0.2523 -0.1336 -0.1244
   50DOPE   C36 6413   7.336   3.261   4.124 -0.3137  0.2229  0.0007
   50DOPE   H6X 6414   7.386   3.271   4.026  2.4957  2.5756  1.5438
   50DOPE   H6Y 6415   7.410   3.280   4.204  0.3447 -3.0194  0.3318
   50DOPE   C37 6416   7.222   3.356   4.140 -0.2448 -0.2534 -0.3203
   50DOPE   H7X 6417   7.183   3.414   4.053 -1.0488  1.6875  1.2512
   50DOPE   H7Y 6418   7.130   3.298   4.161 -0.5729  0.0568 -0.8657
   50DOPE   C38 6419   7.249   3.473   4.238  0.3016  1.0685 -0.8208
   50DOPE   H8X 6420   7.248   3.436   4.342  1.6943  0.2998 -1.0565
   50DOPE   H8Y 6421   7.158   3.538   4.236 -1.0438 -0.6825  0.7033
   50DOPE   C39 6422   7.358   3.577   4.212  0.2157 -0.0138  0.3248
   50DOPE   H9X 6423   7.341   3.623   4.114 -0.4968 -0.7994  0.0726
   50DOPE  C310 6424   7.466   3.606   4.289  0.7243  0.0431 -0.4486
   50DOPE  H10X 6425   7.523   3.694   4.256  0.2024  0.0177 -1.4647
   50DOPE  C311 6426   7.510   3.519   4.409 -0.1088 -0.4315  0.4241
   50DOPE  H11X 6427   7.458   3.423   4.387  0.4866 -0.6018 -0.2525
   50DOPE  H11Y 6428   7.618   3.492   4.408  0.7598  2.4837  2.9386
   50DOPE  C312 6429   7.483   3.579   4.543  0.6927  0.1571  0.6501
   50DOPE  H12X 6430   7.377   3.613   4.543  1.0999  1.4999 -0.4581
   50DOPE  H12Y 6431   7.551   3.666   4.554  0.9406  0.1258 -0.5598
   50DOPE  C313 6432   7.510   3.478   4.662 -0.1496 -0.5269  0.3856
   50DOPE  H13X 6433   7.415   3.425   4.683  0.8336 -3.1642 -1.4176
   50DOPE  H13Y 6434   7.591   3.408   4.634  0.8355  0.8090 -0.2403
   50DOPE  C314 6435   7.558   3.545   4.791 -0.4715 -0.1191 -1.1009
   50DOPE  H14X 6436   7.485   3.624   4.821  0.3338  0.9424 -1.8448
   50DOPE  H14Y 6437   7.650   3.607   4.787 -2.6651  3.3549 -1.6206
   50DOPE  C315 6438   7.574   3.438   4.906 -0.9568 -0.3079 -1.1988
   50DOPE  H15X 6439   7.493   3.362   4.909 -1.0783 -0.1485 -0.1040
   50DOPE  H15Y 6440   7.568   3.494   5.002 -1.1806  0.9392 -1.9185
   50DOPE  C316 6441   7.695   3.350   4.906 -0.0255  0.0458  0.2006
   50DOPE  H16X 6442   7.697   3.290   4.812  1.0717  0.2838  0.0615
   50DOPE  H16Y 6443   7.679   3.275   4.986 -2.5761  0.3669  0.0679
   50DOPE  C317 6444   7.832   3.422   4.914 -0.3078  0.5256 -0.1571
   50DOPE  H17X 6445   7.862   3.459   4.814 -0.4784  1.8178  0.2476
   50DOPE  H17Y 6446   7.810   3.504   4.985  0.6642  0.4791  0.2035
   50DOPE  C318 6447   7.948   3.335   4.963  0.4835  0.0240  0.8562
   50DOPE  H18X 6448   8.025   3.403   5.004 -1.2007  0.5810  3.3451
   50DOPE  H18Y 6449   7.917   3.257   5.037  0.0475  0.1275  0.7840
   50DOPE  H18Z 6450   7.977   3.278   4.872  0.4307  0.9813  0.2317
   51DOPE     N 6451   1.613   7.163   2.693 -0.0171 -0.1791  0.5390
   51DOPE   HN1 6452   1.522   7.129   2.656  1.0092 -0.4112 -1.9168
   51DOPE   HN2 6453   1.612   7.267   2.691 -0.1948 -0.1897  0.0931
   51DOPE   HN3 6454   1.693   7.123   2.641  0.1063  1.6325 -0.7547
   51DOPE   C12 6455   1.624   7.128   2.836 -0.6690  0.5401  0.1440
   51DOPE  H12A 6456   1.726   7.164   2.859 -0.2729 -0.9048  0.7521
   51DOPE  H12B 6457   1.617   7.018   2.848 -1.3059  0.6450  0.8597
   51DOPE   C11 6458   1.518   7.196   2.915  0.6137 -0.2683 -0.1330
   51DOPE  H11A 6459   1.512   7.307   2.904  1.3879 -0.1958  0.1554
   51DOPE  H11B 6460   1.526   7.166   3.022  1.2509  0.6508  0.0864
   51DOPE     P 6461   1.254   7.191   2.941 -0.0352  1.0047 -0.0302
   51DOPE   O13 6462   1.140   7.160   2.847 -0.1833  0.1889  0.4826
   51DOPE   O14 6463   1.267   7.331   2.984 -0.0351 -0.5138 -0.1095
   51DOPE   O11 6464   1.252   7.094   3.073 -0.2146  0.4938 -0.1710
   51DOPE   O12 6465   1.386   7.151   2.865 -0.2599 -0.1806 -0.0215
   51DOPE    C1 6466   1.294   6.961   3.065 -0.0881 -0.3588  0.5551
   51DOPE    HA 6467   1.391   6.957   3.011 -1.6497 -1.2991 -2.4375
   51DOPE    HB 6468   1.229   6.896   3.002 -0.7931  0.4579  0.4340
   51DOPE    C2 6469   1.296   6.887   3.207  0.0342  0.4472  0.0045
   51DOPE    HS 6470   1.321   6.781   3.186 -0.9215  0.1553  0.2995
   51DOPE   O21 6471   1.166   6.900   3.266 -0.4578 -0.2314  0.3463
   51DOPE   C21 6472   1.070   6.818   3.230 -0.1623 -0.1629  0.1674
   51DOPE   O22 6473   1.077   6.740   3.137 -0.0006  0.3168  0.1902
   51DOPE   C22 6474   0.955   6.832   3.329  0.4048 -0.0808  0.4257
   51DOPE   H2R 6475   0.883   6.757   3.289  2.1064 -1.2594 -0.5705
   51DOPE   H2S 6476   0.908   6.933   3.322 -1.0149 -0.7240  0.1909
   51DOPE    C3 6477   1.405   6.954   3.291 -0.2665 -0.1643 -0.3325
   51DOPE    HX 6478   1.368   7.058   3.310  3.1161  1.0841  0.1212
   51DOPE    HY 6479   1.495   6.956   3.226 -0.0971  0.1383 -0.0921
   51DOPE   O31 6480   1.419   6.892   3.421  0.3242  0.2922 -0.1634
   51DOPE   C31 6481   1.516   6.804   3.433  0.2712  0.6326 -0.0271
   51DOPE   O32 6482   1.599   6.776   3.347 -0.0703 -0.2231 -0.0518
   51DOPE   C32 6483   1.509   6.734   3.572  0.3507 -0.3997  0.4920
   51DOPE   H2X 6484   1.405   6.719   3.609  0.3555 -0.3147  0.5410
   51DOPE   H2Y 6485   1.560   6.636   3.558  1.0955 -0.3583  2.5954
   51DOPE   C23 6486   0.964   6.767   3.470  0.1182 -0.1396 -0.4230
   51DOPE   H3R 6487   1.013   6.667   3.465  0.6519  0.1594 -1.4044
   51DOPE   H3S 6488   0.865   6.745   3.514  0.6734  0.8796  1.4624
   51DOPE   C24 6489   1.038   6.846   3.574  0.6432  0.0018  0.1534
   51DOPE   H4R 6490   0.986   6.942   3.594 -0.1059 -0.4950  0.6531
   51DOPE   H4S 6491   1.138   6.879   3.539  0.8293  1.5539  1.9645
   51DOPE   C25 6492   1.072   6.768   3.706  0.5627 -0.1844  0.6069
   51DOPE   H5R 6493   1.139   6.684   3.680  2.1944  1.2015  0.1896
   51DOPE   H5S 6494   0.974   6.724   3.734  0.0606 -1.1257 -2.3136
   51DOPE   C26 6495   1.129   6.853   3.820  0.2480  0.6657 -0.9904
   51DOPE   H6R 6496   1.060   6.934   3.852 -1.5856 -0.5247 -1.7800
   51DOPE   H6S 6497   1.213   6.912   3.777  1.0854  1.0685  1.0520
   51DOPE   C27 6498   1.175   6.763   3.941 -0.0144  0.2533  0.3447
   51DOPE   H7R 6499   1.241   6.681   3.904 -2.7054 -1.7668 -0.2912
   51DOPE   H7S 6500   1.082   6.716   3.978 -0.6033 -0.3232 -1.7322
   51DOPE   C28 6501   1.237   6.853   4.053  0.4129 -0.1035  0.2213
   51DOPE   H8R 6502   1.156   6.911   4.103  0.6314 -0.6271  1.2069
   51DOPE   H8S 6503   1.318   6.915   4.008  1.2734 -2.0112 -1.0033
   51DOPE   C29 6504   1.291   6.771   4.168 -0.0266 -0.0861 -0.3680
   51DOPE   H9R 6505   1.270   6.664   4.164 -1.2230  0.1416 -0.4560
   51DOPE  C210 6506   1.335   6.832   4.288 -0.0870  0.0414 -0.2087
   51DOPE  H10R 6507   1.385   6.775   4.368 -3.0150 -1.2688  0.8449
   51DOPE  C211 6508   1.336   6.978   4.322  0.7337 -0.8242  0.5409
   51DOPE  H11R 6509   1.282   7.004   4.416 -0.6551 -0.3774 -0.3424
   51DOPE  H11S 6510   1.287   7.041   4.244 -0.0171 -0.7718  1.0356
   51DOPE  C212 6511   1.470   7.048   4.323  0.0258  0.6264 -0.0741
   51DOPE  H12R 6512   1.446   7.153   4.351  1.2489  1.4068 -1.7574
   51DOPE  H12S 6513   1.507   7.040   4.219 -0.7202 -1.0052 -0.2415
   51DOPE  C213 6514   1.567   6.993   4.426  0.1815 -0.0478  0.0486
   51DOPE  H13R 6515   1.659   7.055   4.419  0.1799  0.0169  0.5630
   51DOPE  H13S 6516   1.592   6.888   4.401 -0.9081 -0.1502 -0.6766
   51DOPE  C214 6517   1.523   6.997   4.579 -0.0445 -0.4615 -0.2732
   51DOPE  H14R 6518   1.612   6.948   4.625 -0.4828 -0.1886  0.9030
   51DOPE  H14S 6519   1.429   6.942   4.598 -0.8301  0.9155 -0.0557
   51DOPE  C215 6520   1.502   7.136   4.634  0.2819  0.0406  0.5651
   51DOPE  H15R 6521   1.405   7.169   4.592  0.6197  0.8182  0.3899
   51DOPE  H15S 6522   1.585   7.203   4.605 -0.9769  1.0047 -0.9906
   51DOPE  C216 6523   1.501   7.136   4.789 -0.2210  0.1781  0.3949
   51DOPE  H16R 6524   1.456   7.041   4.826  2.8308 -1.9141 -0.8281
   51DOPE  H16S 6525   1.429   7.215   4.817  2.4105  2.4253  1.3271
   51DOPE  C217 6526   1.631   7.175   4.860 -0.8013 -0.7306 -0.2941
   51DOPE  H17R 6527   1.661   7.276   4.825 -0.7938 -1.1250 -1.4437
   51DOPE  H17S 6528   1.713   7.105   4.835  0.1541 -0.6956  2.3671
   51DOPE  C218 6529   1.601   7.178   5.013 -1.0212  0.3367 -0.2658
   51DOPE  H18R 6530   1.660   7.259   5.060 -1.3833 -0.5926  1.9090
   51DOPE  H18S 6531   1.651   7.093   5.064 -0.7287  1.2792  1.0565
   51DOPE  H18T 6532   1.495   7.187   5.047 -0.9212  1.2252 -0.1719
   51DOPE   C33 6533   1.581   6.821   3.681  0.0787 -0.5719  0.3063
   51DOPE   H3X 6534   1.534   6.922   3.675  0.4808 -0.4394 -0.9322
   51DOPE   H3Y 6535   1.685   6.827   3.643  0.7318  0.7930  2.1528
   51DOPE   C34 6536   1.592   6.744   3.815 -0.0080  0.5420  0.1200
   51DOPE   H4X 6537   1.584   6.814   3.901  3.5577 -0.5516  1.5060
   51DOPE   H4Y 6538   1.506   6.676   3.833  0.0724  0.4655  0.2134
   51DOPE   C35 6539   1.719   6.660   3.851  0.7268  0.3003  1.5296
   51DOPE   H5X 6540   1.804   6.731   3.848 -0.5235  1.8244  0.9062
   51DOPE   H5Y 6541   1.725   6.585   3.769  0.1974  1.0663  0.7742
   51DOPE   C36 6542   1.712   6.580   3.983 -0.4812  0.2757  0.2414
   51DOPE   H6X 6543   1.798   6.512   3.966 -0.0045  1.0410 -0.4537
   51DOPE   H6Y 6544   1.623   6.513   3.992  1.3939 -2.2588  0.8800
   51DOPE   C37 6545   1.714   6.663   4.115 -0.2767  0.3738  0.4580
   51DOPE   H7X 6546   1.780   6.747   4.086 -2.8987  1.6782 -2.2680
   51DOPE   H7Y 6547   1.611   6.692   4.144 -1.2175 -1.2514 -1.0439
   51DOPE   C38 6548   1.795   6.590   4.232  0.4989 -1.1276  0.3434
   51DOPE   H8X 6549   1.813   6.664   4.313 -0.8981 -0.4597  0.0651
   51DOPE   H8Y 6550   1.892   6.558   4.189  0.5651  1.8329 -2.0409
   51DOPE   C39 6551   1.710   6.480   4.300 -0.6049  0.0710 -0.2588
   51DOPE   H9X 6552   1.701   6.387   4.242 -1.0959  0.3906 -0.6999
   51DOPE  C310 6553   1.658   6.479   4.420 -0.4102  0.2765 -0.4276
   51DOPE  H10X 6554   1.600   6.393   4.457  1.8434 -0.5676  1.4014
   51DOPE  C311 6555   1.653   6.590   4.521 -0.5845  0.5107 -0.3555
   51DOPE  H11X 6556   1.665   6.691   4.475  0.2937 -0.4904 -2.4620
   51DOPE  H11Y 6557   1.549   6.586   4.559 -0.2275  0.0183  0.5883
   51DOPE  C312 6558   1.767   6.577   4.625  0.9325  0.4964  0.6132
   51DOPE  H12X 6559   1.863   6.591   4.572  0.5307 -0.7933 -0.5151
   51DOPE  H12Y 6560   1.778   6.480   4.679  0.8449 -0.6491 -1.3254
   51DOPE  C313 6561   1.749   6.680   4.735  0.1674 -0.0765 -0.1175
   51DOPE  H13X 6562   1.842   6.666   4.796 -1.4408 -2.4245  2.0095
   51DOPE  H13Y 6563   1.753   6.787   4.707 -2.0464 -0.3007 -1.4809
   51DOPE  C314 6564   1.620   6.680   4.817 -0.2406  0.0963 -0.0828
   51DOPE  H14X 6565   1.586   6.578   4.846 -0.6169 -0.1974 -1.4704
   51DOPE  H14Y 6566   1.530   6.711   4.759 -0.6832 -1.9535 -0.5839
   51DOPE  C315 6567   1.617   6.762   4.952  0.4047  0.4480  0.4924
   51DOPE  H15X 6568   1.651   6.865   4.929  0.8168 -0.0184 -1.0560
   51DOPE  H15Y 6569   1.691   6.725   5.026 -1.1334  0.0301  1.8735
   51DOPE  C316 6570   1.472   6.773   5.000 -0.5732 -0.2095 -0.4924
   51DOPE  H16X 6571   1.419   6.676   5.016 -1.5121  0.3811  0.0959
   51DOPE  H16Y 6572   1.406   6.815   4.921 -0.3192  0.8340 -0.1612
   51DOPE  C317 6573   1.459   6.855   5.129 -0.1223 -0.1818  1.5344
   51DOPE  H17X 6574   1.482   6.784   5.211 -0.3667  0.7274  2.4137
   51DOPE  H17Y 6575   1.536   6.935   5.121 -0.7946  0.3316 -0.5422
   51DOPE  C318 6576   1.315   6.911   5.153 -0.7071  0.2488 -0.0422
   51DOPE  H18X 6577   1.331   6.954   5.254  4.8214  1.9924 -1.3258
   51DOPE  H18Y 6578   1.294   6.995   5.083 -1.7130  2.1428  2.3804
   51DOPE  H18Z 6579   1.237   6.832   5.156  0.0757 -0.5034  1.8417
   52DOPE     N 6580   0.252   2.157   3.102 -0.0796  0.3613 -0.8353
   52DOPE   HN1 6581   0.353   2.132   3.112 -0.6132 -3.1709 -2.8754
   52DOPE   HN2 6582   0.205   2.065   3.108  1.0479 -0.2005 -0.2102
   52DOPE   HN3 6583   0.232   2.199   3.009 -1.2122  1.4732 -0.1121
   52DOPE   C12 6584   0.194   2.244   3.217  0.7260  0.0740 -0.0384
   52DOPE  H12A 6585   0.168   2.170   3.295  1.2169 -0.2166 -0.1473
   52DOPE  H12B 6586   0.092   2.272   3.180  0.4224  1.0912  1.4978
   52DOPE   C11 6587   0.283   2.357   3.272  0.2592  0.5213  0.2624
   52DOPE  H11A 6588   0.383   2.330   3.310  0.1318  1.3429  1.2170
   52DOPE  H11B 6589   0.214   2.381   3.356 -3.3843  1.8807 -2.8001
   52DOPE     P 6590   0.412   2.492   3.097  0.0794  0.0855 -0.0258
   52DOPE   O13 6591   0.402   2.621   3.030 -0.6199 -0.1374 -0.0238
   52DOPE   O14 6592   0.446   2.384   3.003 -0.0337  0.3908  0.1973
   52DOPE   O11 6593   0.512   2.504   3.218  0.2214 -0.1625  0.1356
   52DOPE   O12 6594   0.277   2.462   3.173  0.1160  0.2534  0.1683
   52DOPE    C1 6595   0.489   2.620   3.300  0.1193 -0.3584  0.1738
   52DOPE    HA 6596   0.381   2.633   3.323 -0.1020 -0.2947 -0.8373
   52DOPE    HB 6597   0.521   2.708   3.241  1.2233 -1.7656 -1.4281
   52DOPE    C2 6598   0.570   2.625   3.427  0.1858  0.2858 -0.4240
   52DOPE    HS 6599   0.677   2.605   3.403  0.6283  1.1705  0.7600
   52DOPE   O21 6600   0.524   2.521   3.522 -0.5481 -0.2757  0.0189
   52DOPE   C21 6601   0.618   2.442   3.568  0.0331 -0.4204 -0.4013
   52DOPE   O22 6602   0.730   2.428   3.524 -0.5682 -0.2876  0.0583
   52DOPE   C22 6603   0.568   2.362   3.687 -0.0772  0.4699  0.0459
   52DOPE   H2R 6604   0.629   2.270   3.697  0.5039  0.7806 -0.5555
   52DOPE   H2S 6605   0.461   2.336   3.676 -0.2887  1.9826 -2.1081
   52DOPE    C3 6606   0.559   2.769   3.490 -0.3682 -0.1942  0.1742
   52DOPE    HX 6607   0.451   2.790   3.505 -0.5564  0.5903 -1.9092
   52DOPE    HY 6608   0.605   2.839   3.416 -0.2683 -1.6379 -1.1891
   52DOPE   O31 6609   0.629   2.767   3.619 -0.2143  0.3459  0.2114
   52DOPE   C31 6610   0.767   2.787   3.614  0.4411 -1.0004  0.5343
   52DOPE   O32 6611   0.842   2.789   3.516  0.3932  0.3515 -0.4098
   52DOPE   C32 6612   0.826   2.801   3.752  0.4914 -0.0748  0.4902
   52DOPE   H2X 6613   0.793   2.897   3.796  0.4701  0.2342 -0.1968
   52DOPE   H2Y 6614   0.785   2.724   3.821  2.3727 -2.2145 -0.6202
   52DOPE   C23 6615   0.579   2.447   3.824  0.7878  0.3556  0.0998
   52DOPE   H3R 6616   0.524   2.541   3.801 -1.1076 -0.7525 -0.1054
   52DOPE   H3S 6617   0.682   2.470   3.857  1.3438 -0.8224 -0.7411
   52DOPE   C24 6618   0.489   2.389   3.943  0.6512  0.5704  0.4737
   52DOPE   H4R 6619   0.527   2.294   3.987 -2.9332 -1.0417  0.4237
   52DOPE   H4S 6620   0.396   2.362   3.891  1.4693  0.4448 -0.9658
   52DOPE   C25 6621   0.435   2.487   4.054 -0.4093  0.7199 -0.7350
   52DOPE   H5R 6622   0.420   2.581   3.998  4.5160  2.9588  1.1636
   52DOPE   H5S 6623   0.521   2.507   4.122  0.9089 -1.6089 -1.5987
   52DOPE   C26 6624   0.314   2.440   4.131  0.1557  0.2762  0.3663
   52DOPE   H6R 6625   0.246   2.380   4.067  0.3572  0.7397 -0.2922
   52DOPE   H6S 6626   0.250   2.528   4.154 -0.3520  0.0215 -0.0611
   52DOPE   C27 6627   0.340   2.362   4.259 -0.2486 -0.3813 -0.1994
   52DOPE   H7R 6628   0.404   2.277   4.229  1.0322  0.7898 -0.9413
   52DOPE   H7S 6629   0.249   2.315   4.303 -0.3611 -0.2035 -0.2381
   52DOPE   C28 6630   0.405   2.447   4.368 -0.0265 -0.9112  0.0247
   52DOPE   H8R 6631   0.502   2.483   4.328  0.1562 -1.2861  0.1217
   52DOPE   H8S 6632   0.429   2.382   4.454 -0.5047 -1.6889 -0.4156
   52DOPE   C29 6633   0.327   2.568   4.412 -0.2777  0.1390  0.6501
   52DOPE   H9R 6634   0.315   2.642   4.331 -0.0821 -2.1800 -1.6482
   52DOPE  C210 6635   0.283   2.588   4.536 -0.0217  0.1227  0.5868
   52DOPE  H10R 6636   0.208   2.667   4.548 -0.4870  0.0432 -1.3943
   52DOPE  C211 6637   0.290   2.490   4.650  1.3338  0.4801 -0.5690
   52DOPE  H11R 6638   0.310   2.543   4.746  0.8814 -1.4191  0.6460
   52DOPE  H11S 6639   0.371   2.414   4.644  1.3084  0.1913  1.7894
   52DOPE  C212 6640   0.156   2.421   4.673  0.2485  0.1412 -0.2595
   52DOPE  H12R 6641   0.115   2.382   4.577  2.2321 -0.7316 -0.8015
   52DOPE  H12S 6642   0.078   2.494   4.701 -1.2515 -1.1867 -0.7924
   52DOPE  C213 6643   0.163   2.298   4.768 -0.0982  0.1458  0.5003
   52DOPE  H13R 6644   0.270   2.280   4.791 -0.2561 -0.3198  0.8889
   52DOPE  H13S 6645   0.117   2.208   4.722  2.1481 -1.1711  0.7064
   52DOPE  C214 6646   0.097   2.322   4.903  0.8083  0.1014 -0.3935
   52DOPE  H14R 6647   0.082   2.231   4.965 -2.6949  0.0661 -1.1032
   52DOPE  H14S 6648  -0.005   2.362   4.889  0.1929 -0.9809  0.7815
   52DOPE  C215 6649   0.170   2.440   4.985  0.0563  0.6934  0.1355
   52DOPE  H15R 6650   0.184   2.529   4.920  0.3523  1.6731  1.4806
   52DOPE  H15S 6651   0.265   2.386   5.001 -0.6076 -0.5819 -0.1458
   52DOPE  C216 6652   0.107   2.476   5.117  0.3135 -0.0177 -0.0101
   52DOPE  H16R 6653   0.178   2.546   5.166 -0.4168  0.3913  0.4997
   52DOPE  H16S 6654   0.103   2.390   5.187 -0.2172  0.7021  0.8768
   52DOPE  C217 6655  -0.031   2.550   5.089 -0.3461 -0.3495  0.0119
   52DOPE  H17R 6656  -0.101   2.478   5.041 -0.2542 -0.6531  0.3335
   52DOPE  H17S 6657  -0.015   2.643   5.029 -1.4567  1.8376  2.8810
   52DOPE  C218 6658  -0.105   2.606   5.214 -0.0467 -0.1659  0.4717
   52DOPE  H18R 6659  -0.204   2.646   5.183  0.9915  0.1927 -2.7212
   52DOPE  H18S 6660  -0.098   2.538   5.302 -2.8983  1.0017  1.7556
   52DOPE  H18T 6661  -0.035   2.690   5.234 -1.6288  1.2117  0.4475
   52DOPE   C33 6662   0.976   2.781   3.761 -1.0755 -0.1030 -0.4909
   52DOPE   H3X 6663   1.040   2.825   3.681  1.7245  0.7737  2.0494
   52DOPE   H3Y 6664   1.012   2.677   3.778 -0.8854 -0.1303 -1.0056
   52DOPE   C34 6665   1.025   2.874   3.882  0.1712 -0.7659  0.6163
   52DOPE   H4X 6666   1.136   2.872   3.883  0.2358  1.1340  0.3731
   52DOPE   H4Y 6667   0.991   2.979   3.870 -0.1458 -0.6839  2.1439
   52DOPE   C35 6668   0.980   2.831   4.025 -0.1228 -0.2746 -0.4176
   52DOPE   H5X 6669   0.869   2.834   4.020 -0.1484 -1.4295 -0.8108
   52DOPE   H5Y 6670   1.008   2.914   4.094 -1.7894 -0.7619  0.9068
   52DOPE   C36 6671   1.034   2.705   4.079  0.2752  0.0451  0.1034
   52DOPE   H6X 6672   1.141   2.708   4.048  0.1808  0.2034 -0.2138
   52DOPE   H6Y 6673   0.986   2.623   4.021  0.0790  0.6884 -0.6696
   52DOPE   C37 6674   1.018   2.684   4.232 -0.0879 -0.2583 -0.3120
   52DOPE   H7X 6675   1.111   2.631   4.262  1.6360  3.0163  0.5709
   52DOPE   H7Y 6676   1.018   2.780   4.287 -0.9492 -0.1016 -0.5776
   52DOPE   C38 6677   0.889   2.617   4.264 -0.0187 -0.1684  0.1676
   52DOPE   H8X 6678   0.882   2.541   4.183 -0.0900  1.0095 -0.9769
   52DOPE   H8Y 6679   0.800   2.679   4.238  0.8927  1.8399  1.5435
   52DOPE   C39 6680   0.881   2.565   4.403 -0.1324 -0.3981 -0.1931
   52DOPE   H9X 6681   0.943   2.476   4.422 -0.0734 -1.0402 -2.9473
   52DOPE  C310 6682   0.788   2.598   4.498  0.7758 -0.1463 -0.0885
   52DOPE  H10X 6683   0.804   2.568   4.603 -0.3351  1.3160  0.5318
   52DOPE  C311 6684   0.679   2.700   4.479 -0.6294  0.6324  0.4805
   52DOPE  H11X 6685   0.646   2.694   4.373  0.8859 -1.4322  0.0711
   52DOPE  H11Y 6686   0.586   2.675   4.534 -0.4576 -0.5269  0.2605
   52DOPE  C312 6687   0.724   2.837   4.522 -0.3209 -0.1603  0.8209
   52DOPE  H12X 6688   0.817   2.862   4.466  1.1003  0.2518  3.1821
   52DOPE  H12Y 6689   0.756   2.832   4.629  1.1195 -4.2469  0.3831
   52DOPE  C313 6690   0.635   2.956   4.498 -0.1835  0.5659  0.0351
   52DOPE  H13X 6691   0.545   2.952   4.563 -0.5767  3.9095 -0.0886
   52DOPE  H13Y 6692   0.700   3.043   4.522  0.8001  0.8087 -3.0482
   52DOPE  C314 6693   0.566   2.955   4.362  0.5858 -0.0484  0.1225
   52DOPE  H14X 6694   0.503   3.046   4.353 -0.7680 -0.9837 -0.1181
   52DOPE  H14Y 6695   0.501   2.866   4.347 -1.1570  1.1850  0.0934
   52DOPE  C315 6696   0.672   2.971   4.253 -0.5035 -0.8008  0.6293
   52DOPE  H15X 6697   0.747   2.890   4.252 -1.7331 -1.9740  0.9135
   52DOPE  H15Y 6698   0.731   3.065   4.260 -0.6736 -0.4612 -1.7093
   52DOPE  C316 6699   0.615   2.985   4.115  0.0279 -0.3620  0.7394
   52DOPE  H16X 6700   0.697   2.996   4.041  0.8748 -6.2663  0.2917
   52DOPE  H16Y 6701   0.543   3.069   4.107 -1.0933 -1.3666 -0.1501
   52DOPE  C317 6702   0.546   2.857   4.062  0.0029 -0.3018 -0.8010
   52DOPE  H17X 6703   0.610   2.769   4.081  1.0437  0.3946 -0.9874
   52DOPE  H17Y 6704   0.461   2.835   4.129  0.2690 -0.4745 -0.5198
   52DOPE  C318 6705   0.493   2.860   3.919  0.1223 -0.8631  0.5765
   52DOPE  H18X 6706   0.417   2.940   3.920  1.0572  0.0475  1.1266
   52DOPE  H18Y 6707   0.581   2.895   3.861 -0.3464  1.4536  1.1884
   52DOPE  H18Z 6708   0.457   2.771   3.864  1.9360 -0.0397 -2.1086
   53DOPE     N 6709   3.922   4.073   3.145 -1.2532  0.4466 -0.2794
   53DOPE   HN1 6710   3.939   4.010   3.226  0.4361  1.0330 -0.1413
   53DOPE   HN2 6711   3.852   4.145   3.174 -1.4330 -0.3170  1.3267
   53DOPE   HN3 6712   3.887   4.013   3.068  0.4978  1.3508 -1.8385
   53DOPE   C12 6713   4.046   4.151   3.104 -0.4279  0.5693  0.1297
   53DOPE  H12A 6714   4.119   4.081   3.056 -1.2632  0.7064 -1.4120
   53DOPE  H12B 6715   4.096   4.186   3.197 -0.2458  1.6841 -0.3681
   53DOPE   C11 6716   4.012   4.269   3.008 -0.0816  0.5051 -0.9440
   53DOPE  H11A 6717   3.952   4.240   2.919 -0.6425  1.2598 -0.8283
   53DOPE  H11B 6718   4.107   4.314   2.973 -0.3190  0.2782 -1.9208
   53DOPE     P 6719   3.979   4.486   3.152  0.2674 -0.0166  0.0691
   53DOPE   O13 6720   3.866   4.559   3.217  0.0481 -0.0099 -0.0584
   53DOPE   O14 6721   4.064   4.563   3.059  0.0945  0.0820  0.1739
   53DOPE   O11 6722   4.075   4.412   3.252  0.2720 -0.3341 -0.9101
   53DOPE   O12 6723   3.924   4.366   3.067 -0.4623  0.1281 -0.0840
   53DOPE    C1 6724   4.050   4.439   3.393 -0.7054 -0.4994 -0.1403
   53DOPE    HA 6725   4.111   4.374   3.459 -0.9618 -0.3806  0.2167
   53DOPE    HB 6726   3.945   4.412   3.415  0.0365 -1.5170  2.4783
   53DOPE    C2 6727   4.083   4.580   3.447 -0.5158 -0.4924 -0.4415
   53DOPE    HS 6728   4.012   4.652   3.403 -1.6366 -0.1494  1.7604
   53DOPE   O21 6729   4.219   4.616   3.409  0.1822 -0.2128 -0.4000
   53DOPE   C21 6730   4.252   4.739   3.373  0.1684 -0.2666  0.0361
   53DOPE   O22 6731   4.175   4.833   3.356 -0.0044  0.2828  0.2362
   53DOPE   C22 6732   4.404   4.742   3.338  0.0643  0.3034 -0.1576
   53DOPE   H2R 6733   4.416   4.787   3.237  1.1566  1.4468  0.4586
   53DOPE   H2S 6734   4.435   4.636   3.352 -0.8974  0.0681  0.2864
   53DOPE    C3 6735   4.067   4.586   3.604  0.3365 -0.3019  0.0456
   53DOPE    HX 6736   4.156   4.529   3.639  2.6537  1.9207 -1.8040
   53DOPE    HY 6737   3.971   4.544   3.640  0.0590 -0.1752 -0.5324
   53DOPE   O31 6738   4.075   4.721   3.655 -0.5232  0.0596  0.1661
   53DOPE   C31 6739   3.965   4.789   3.654  1.2425 -0.1046 -0.4850
   53DOPE   O32 6740   3.856   4.755   3.609  0.1329  0.3799  0.2542
   53DOPE   C32 6741   3.997   4.925   3.702 -0.0790  0.2354 -0.9719
   53DOPE   H2X 6742   4.019   4.998   3.621  0.1621 -0.9313 -1.9913
   53DOPE   H2Y 6743   3.907   4.951   3.761  0.6627  0.4240  0.1081
   53DOPE   C23 6744   4.494   4.831   3.428  1.0167  0.5958 -0.0311
   53DOPE   H3R 6745   4.452   4.934   3.425  0.1983  0.2586 -0.2885
   53DOPE   H3S 6746   4.594   4.831   3.380  0.0147  3.6815 -2.5278
   53DOPE   C24 6747   4.504   4.794   3.576  0.2469  0.1781 -0.4057
   53DOPE   H4R 6748   4.517   4.684   3.578 -0.8501  0.0085  2.4945
   53DOPE   H4S 6749   4.412   4.806   3.638  0.7428 -0.1100  0.4003
   53DOPE   C25 6750   4.617   4.860   3.655 -0.3450  0.1363  0.6050
   53DOPE   H5R 6751   4.581   4.961   3.684 -2.4639 -0.2260 -0.6240
   53DOPE   H5S 6752   4.702   4.887   3.589 -1.2503  2.2698  0.2265
   53DOPE   C26 6753   4.661   4.795   3.780 -0.9812  0.2974 -0.1398
   53DOPE   H6R 6754   4.674   4.690   3.746  0.0674  1.1577 -2.6248
   53DOPE   H6S 6755   4.583   4.795   3.859 -1.3229  1.1157 -0.4679
   53DOPE   C27 6756   4.795   4.861   3.841  0.1108  0.1309 -0.0312
   53DOPE   H7R 6757   4.797   4.972   3.843  0.1082  0.1330 -0.1540
   53DOPE   H7S 6758   4.871   4.838   3.764 -1.2147 -1.0075 -1.0649
   53DOPE   C28 6759   4.830   4.808   3.980 -0.4416 -0.0478  0.1927
   53DOPE   H8R 6760   4.925   4.857   4.010 -0.2863  0.3149 -0.8379
   53DOPE   H8S 6761   4.842   4.698   3.974 -0.3512  0.0360 -1.8265
   53DOPE   C29 6762   4.740   4.841   4.091  0.3264 -0.2678  0.3473
   53DOPE   H9R 6763   4.719   4.949   4.096 -2.0878 -0.6448 -0.3250
   53DOPE  C210 6764   4.699   4.765   4.198  0.5229  0.3336 -0.2597
   53DOPE  H10R 6765   4.616   4.808   4.257 -1.6478 -0.2849 -2.6906
   53DOPE  C211 6766   4.727   4.624   4.237  0.7459  0.3529 -0.0723
   53DOPE  H11R 6767   4.711   4.562   4.146 -1.1093 -1.5754  1.4727
   53DOPE  H11S 6768   4.649   4.587   4.307  0.8903  0.4883  0.1641
   53DOPE  C212 6769   4.867   4.602   4.302  0.1127 -0.4760 -1.0719
   53DOPE  H12R 6770   4.953   4.638   4.241  0.4830 -0.9287 -0.8255
   53DOPE  H12S 6771   4.887   4.493   4.311  1.7995 -0.3268 -2.3461
   53DOPE  C213 6772   4.886   4.658   4.443 -0.7692  0.1192 -0.5077
   53DOPE  H13R 6773   4.809   4.610   4.507 -0.9810  1.3055  0.1448
   53DOPE  H13S 6774   4.857   4.765   4.442  1.0060  0.6564  0.6716
   53DOPE  C214 6775   5.016   4.611   4.503 -0.0358 -0.0667 -0.0894
   53DOPE  H14R 6776   5.099   4.643   4.437  0.8807 -0.6236  0.7563
   53DOPE  H14S 6777   5.024   4.500   4.513  1.6698 -0.0027 -0.4336
   53DOPE  C215 6778   5.042   4.662   4.644 -0.5009  0.1029  0.1756
   53DOPE  H15R 6779   4.967   4.608   4.705 -1.0079 -2.1409 -2.2876
   53DOPE  H15S 6780   5.026   4.772   4.646  2.0575  0.5511 -0.5626
   53DOPE  C216 6781   5.178   4.631   4.691 -0.1804  0.3977 -0.4422
   53DOPE  H16R 6782   5.246   4.656   4.607 -0.2233 -0.1492 -0.6404
   53DOPE  H16S 6783   5.189   4.522   4.710 -0.4781 -0.3313 -3.8783
   53DOPE  C217 6784   5.218   4.701   4.822 -0.6072  0.9317 -0.2777
   53DOPE  H17R 6785   5.154   4.683   4.911  0.9746  1.6796  1.0756
   53DOPE  H17S 6786   5.212   4.809   4.796  1.4394  0.7635 -1.7424
   53DOPE  C218 6787   5.362   4.666   4.858 -0.0596 -0.9769  0.1826
   53DOPE  H18R 6788   5.404   4.748   4.919 -2.9325 -0.7759  2.1035
   53DOPE  H18S 6789   5.438   4.660   4.777 -0.9520 -2.6883 -0.5817
   53DOPE  H18T 6790   5.366   4.570   4.914  0.8734 -1.4721 -0.7025
   53DOPE   C33 6791   4.121   4.922   3.801 -0.0749  0.0135 -0.2915
   53DOPE   H3X 6792   4.214   4.932   3.740  0.6410  1.0524  0.9188
   53DOPE   H3Y 6793   4.126   4.831   3.864  1.8113 -1.1662 -2.0114
   53DOPE   C34 6794   4.117   5.045   3.900  0.1779  0.2266  0.8546
   53DOPE   H4X 6795   4.019   5.062   3.950 -0.6065 -1.2263 -0.1041
   53DOPE   H4Y 6796   4.194   5.019   3.975 -0.1800 -0.1897  1.0783
   53DOPE   C35 6797   4.154   5.181   3.833  0.4892  0.1729  0.3135
   53DOPE   H5X 6798   4.118   5.264   3.898  1.5368  2.7359 -2.1648
   53DOPE   H5Y 6799   4.087   5.186   3.744  0.1702 -1.3546  0.4311
   53DOPE   C36 6800   4.305   5.182   3.801  0.3577 -0.4170 -0.3497
   53DOPE   H6X 6801   4.321   5.260   3.722  0.6594  0.6280  0.7151
   53DOPE   H6Y 6802   4.344   5.083   3.770  2.1020 -0.1305  0.7947
   53DOPE   C37 6803   4.384   5.236   3.927  0.1006  0.2705 -0.4320
   53DOPE   H7X 6804   4.374   5.347   3.934 -0.9408  0.2044 -0.7215
   53DOPE   H7Y 6805   4.325   5.202   4.015 -2.3763 -1.7200 -2.6707
   53DOPE   C38 6806   4.533   5.186   3.940 -0.0841  0.1508  0.1894
   53DOPE   H8X 6807   4.552   5.079   3.916  1.6725  0.4219  0.2574
   53DOPE   H8Y 6808   4.557   5.184   4.048  0.5713  2.7831  0.1598
   53DOPE   C39 6809   4.639   5.267   3.869  0.3262 -0.6498  0.0138
   53DOPE   H9X 6810   4.616   5.321   3.776 -0.0106 -1.1586 -0.2042
   53DOPE  C310 6811   4.768   5.284   3.907  0.4083 -0.3131  0.1256
   53DOPE  H10X 6812   4.819   5.372   3.867  0.8146 -0.7497 -0.3362
   53DOPE  C311 6813   4.829   5.228   4.031 -0.2240  0.4351  0.9038
   53DOPE  H11X 6814   4.750   5.181   4.093 -1.7889  2.9393  0.9321
   53DOPE  H11Y 6815   4.909   5.155   4.006  1.9062  3.0834 -0.5057
   53DOPE  C312 6816   4.889   5.343   4.118  0.1524 -0.4183 -0.0423
   53DOPE  H12X 6817   4.798   5.398   4.152 -1.6441 -2.6245 -1.0019
   53DOPE  H12Y 6818   4.955   5.403   4.052  3.1576 -2.6008  0.7404
   53DOPE  C313 6819   4.984   5.292   4.224 -0.7316  0.3548 -0.0722
   53DOPE  H13X 6820   5.035   5.208   4.171 -2.3301  0.2271 -1.5211
   53DOPE  H13Y 6821   5.057   5.370   4.252  1.3793 -1.6572  0.3873
   53DOPE  C314 6822   4.901   5.242   4.349  0.5507  0.7181  0.1065
   53DOPE  H14X 6823   4.847   5.149   4.322  0.0875  0.4979  1.6840
   53DOPE  H14Y 6824   4.828   5.324   4.363 -0.2199  0.1794 -0.7244
   53DOPE  C315 6825   4.981   5.215   4.480  0.4411  0.1347 -0.2043
   53DOPE  H15X 6826   5.033   5.308   4.511 -2.3535  2.2396 -1.3257
   53DOPE  H15Y 6827   5.045   5.132   4.441  0.3793  0.0307 -0.0823
   53DOPE  C316 6828   4.890   5.168   4.597  0.3645 -0.8876  0.1095
   53DOPE  H16X 6829   4.954   5.146   4.685 -0.5587 -0.7845  0.8261
   53DOPE  H16Y 6830   4.835   5.073   4.579 -0.0089 -1.2292  2.7215
   53DOPE  C317 6831   4.789   5.269   4.647 -0.1273  0.3967  0.3031
   53DOPE  H17X 6832   4.706   5.293   4.576  1.0800  1.0057 -0.9514
   53DOPE  H17Y 6833   4.746   5.222   4.738  2.1466 -0.8720  0.8009
   53DOPE  C318 6834   4.844   5.405   4.692  0.3895 -0.1027  0.1247
   53DOPE  H18X 6835   4.886   5.460   4.606  3.7980  1.0634  2.3121
   53DOPE  H18Y 6836   4.772   5.473   4.743  0.3368  0.6563 -0.9479
   53DOPE  H18Z 6837   4.932   5.392   4.759  0.0492  0.9543  0.7963
   54DOPE     N 6838   6.938   2.545   2.849 -0.3684 -0.4285 -0.3016
   54DOPE   HN1 6839   7.001   2.472   2.889 -1.2785 -1.3793 -0.5554
   54DOPE   HN2 6840   6.940   2.529   2.746 -0.6181  0.0678 -0.3878
   54DOPE   HN3 6841   6.985   2.634   2.874  0.6520 -0.8320 -0.7491
   54DOPE   C12 6842   6.799   2.542   2.906  0.1668  0.5809 -0.5761
   54DOPE  H12A 6843   6.764   2.647   2.906  2.4995  1.4765 -2.8565
   54DOPE  H12B 6844   6.809   2.507   3.011  0.2598 -0.7534 -1.0114
   54DOPE   C11 6845   6.712   2.447   2.823  0.2967  0.1278 -0.2770
   54DOPE  H11A 6846   6.611   2.470   2.863  0.8702 -0.7423  1.8118
   54DOPE  H11B 6847   6.743   2.343   2.845 -0.6682  0.1117  1.1963
   54DOPE     P 6848   6.651   2.590   2.606  0.1721  0.0244  0.3490
   54DOPE   O13 6849   6.739   2.634   2.494  0.0058 -0.0210  0.3259
   54DOPE   O14 6850   6.606   2.694   2.708 -0.3477 -0.4511  0.4031
   54DOPE   O11 6851   6.527   2.516   2.542 -0.4560  0.1456 -0.0304
   54DOPE   O12 6852   6.727   2.477   2.683  0.3897  0.8367  0.0983
   54DOPE    C1 6853   6.470   2.410   2.607 -0.1308  0.0849  0.1768
   54DOPE    HA 6854   6.518   2.372   2.700  0.5363  0.8878  0.1656
   54DOPE    HB 6855   6.474   2.326   2.534 -0.8648  1.3573 -1.3847
   54DOPE    C2 6856   6.316   2.425   2.632  0.3716 -1.0269 -0.5946
   54DOPE    HS 6857   6.289   2.507   2.562  0.6799  0.5823  1.0780
   54DOPE   O21 6858   6.291   2.460   2.768  0.7313 -0.1159 -0.0254
   54DOPE   C21 6859   6.204   2.554   2.791  0.5233 -0.4709 -0.0097
   54DOPE   O22 6860   6.130   2.612   2.714  1.4781 -0.2556  0.4833
   54DOPE   C22 6861   6.218   2.593   2.937 -0.8617 -0.4818 -0.2518
   54DOPE   H2R 6862   6.125   2.639   2.978  1.0931 -0.3397  4.6980
   54DOPE   H2S 6863   6.302   2.664   2.939  2.5204 -4.1435  0.3349
   54DOPE    C3 6864   6.234   2.295   2.607  0.1347  0.0826  0.6611
   54DOPE    HX 6865   6.263   2.238   2.516 -0.3848 -1.9217  1.7055
   54DOPE    HY 6866   6.128   2.323   2.590 -0.3392 -1.1250  1.4850
   54DOPE   O31 6867   6.228   2.218   2.723  0.1466 -0.0317 -0.2433
   54DOPE   C31 6868   6.319   2.132   2.744  0.7410  0.5575 -0.3953
   54DOPE   O32 6869   6.407   2.100   2.662 -0.0051 -0.0887  0.4262
   54DOPE   C32 6870   6.307   2.061   2.879  0.1522 -0.8334  0.6534
   54DOPE   H2X 6871   6.394   1.993   2.886  0.6123 -0.3108  0.1146
   54DOPE   H2Y 6872   6.302   2.146   2.952 -0.5000 -0.5580  0.2933
   54DOPE   C23 6873   6.253   2.468   3.031  0.5402 -0.6524 -0.3746
   54DOPE   H3R 6874   6.288   2.513   3.126 -0.3791  1.2164 -0.8666
   54DOPE   H3S 6875   6.341   2.413   2.990 -0.1003 -0.7408 -1.6824
   54DOPE   C24 6876   6.131   2.376   3.062 -0.3124  0.4840 -0.1595
   54DOPE   H4R 6877   6.084   2.324   2.976 -0.5905  1.4331 -0.5898
   54DOPE   H4S 6878   6.055   2.449   3.097 -0.5316 -0.4191  1.3636
   54DOPE   C25 6879   6.139   2.293   3.191  0.5269  0.6633 -0.4011
   54DOPE   H5R 6880   6.203   2.338   3.270 -0.4870 -1.3395  1.7168
   54DOPE   H5S 6881   6.188   2.198   3.160  0.0185  0.3314 -0.2017
   54DOPE   C26 6882   6.006   2.241   3.251 -0.5294  0.6062 -0.4763
   54DOPE   H6R 6883   6.013   2.137   3.290  1.1662  1.4091  1.5555
   54DOPE   H6S 6884   5.936   2.240   3.165 -2.7936 -1.1199  1.2461
   54DOPE   C27 6885   5.951   2.324   3.361  0.5411 -0.4562 -0.1993
   54DOPE   H7R 6886   5.848   2.287   3.380  0.7705 -0.6797  0.6624
   54DOPE   H7S 6887   5.944   2.429   3.328 -1.6597 -0.4390  0.1621
   54DOPE   C28 6888   6.036   2.322   3.493 -0.7810  0.1502  0.3566
   54DOPE   H8R 6889   6.138   2.366   3.479 -1.2576  0.9120 -0.9189
   54DOPE   H8S 6890   6.050   2.217   3.525 -0.7565  0.4472  1.3743
   54DOPE   C29 6891   5.970   2.395   3.600 -0.1637 -0.6304 -0.1398
   54DOPE   H9R 6892   5.893   2.469   3.574  1.3858  0.7907 -0.8419
   54DOPE  C210 6893   5.993   2.388   3.737 -0.5121  0.4149 -0.5289
   54DOPE  H10R 6894   5.932   2.448   3.806  0.7117 -3.0434  4.0412
   54DOPE  C211 6895   6.087   2.294   3.814  0.0590  0.1300  0.8215
   54DOPE  H11R 6896   6.121   2.212   3.747 -2.4178  0.2995 -0.7622
   54DOPE  H11S 6897   6.037   2.237   3.895 -0.8864  0.2489  0.3282
   54DOPE  C212 6898   6.204   2.376   3.870 -0.3520 -0.0016 -0.3462
   54DOPE  H12R 6899   6.258   2.309   3.940 -1.4575  0.5614  1.1143
   54DOPE  H12S 6900   6.178   2.478   3.907 -0.7018 -1.0043  2.4168
   54DOPE  C213 6901   6.313   2.410   3.761 -0.4646  0.0839 -0.3538
   54DOPE  H13R 6902   6.269   2.472   3.680  2.2944 -1.3389 -3.1332
   54DOPE  H13S 6903   6.347   2.315   3.714  1.3629 -0.5183  2.0016
   54DOPE  C214 6904   6.430   2.481   3.837 -0.4883 -0.3342 -0.2777
   54DOPE  H14R 6905   6.491   2.425   3.911 -0.5512  1.0574  0.8727
   54DOPE  H14S 6906   6.394   2.575   3.885  0.3271  0.0358 -0.3626
   54DOPE  C215 6907   6.536   2.517   3.731 -0.3776 -0.5350 -0.0852
   54DOPE  H15R 6908   6.479   2.560   3.646  1.7710  1.4165 -0.6453
   54DOPE  H15S 6909   6.577   2.421   3.695  1.6379 -0.3939  1.6301
   54DOPE  C216 6910   6.645   2.609   3.784 -0.1563  0.7214 -0.0512
   54DOPE  H16R 6911   6.601   2.701   3.829 -1.9692 -1.0132  1.9394
   54DOPE  H16S 6912   6.714   2.638   3.702  0.2496 -0.1346 -0.0267
   54DOPE  C217 6913   6.732   2.541   3.893  0.4285  0.1790  0.1940
   54DOPE  H17R 6914   6.668   2.481   3.961  0.5751 -1.1349 -0.7758
   54DOPE  H17S 6915   6.792   2.611   3.955 -2.2159  0.0443  3.1615
   54DOPE  C218 6916   6.819   2.431   3.836 -0.0608  0.3500  0.2553
   54DOPE  H18R 6917   6.853   2.363   3.917 -2.1612 -0.1011  0.8108
   54DOPE  H18S 6918   6.914   2.469   3.791  0.8190 -1.1990  0.7493
   54DOPE  H18T 6919   6.759   2.370   3.765 -1.2589  0.6770  0.9514
   54DOPE   C33 6920   6.170   1.990   2.884 -0.3035  0.2735 -0.8112
   54DOPE   H3X 6921   6.160   1.925   2.794 -0.8707  1.5700 -1.7282
   54DOPE   H3Y 6922   6.098   2.074   2.882 -1.9654 -0.7454  3.8572
   54DOPE   C34 6923   6.148   1.912   3.014  0.5584  0.4843 -0.0713
   54DOPE   H4X 6924   6.201   1.815   3.008 -0.8053 -0.2439 -1.0651
   54DOPE   H4Y 6925   6.199   1.961   3.099  1.3646 -1.9284  0.9255
   54DOPE   C35 6926   6.004   1.902   3.057 -0.4576  0.1725  0.1519
   54DOPE   H5X 6927   5.945   1.857   2.973 -0.6245 -0.2470  0.4913
   54DOPE   H5Y 6928   5.962   2.003   3.074 -0.3196  0.2353  0.1205
   54DOPE   C36 6929   6.001   1.817   3.187  0.6166 -0.0798  0.6802
   54DOPE   H6X 6930   6.071   1.869   3.256  0.4042 -1.2832  1.8526
   54DOPE   H6Y 6931   6.053   1.722   3.161  0.1070 -0.5449  1.3287
   54DOPE   C37 6932   5.854   1.787   3.234 -0.4266 -0.8091  0.3545
   54DOPE   H7X 6933   5.807   1.887   3.236  1.2805  0.1020 -1.5652
   54DOPE   H7Y 6934   5.792   1.735   3.158 -2.1930 -1.2408  2.0152
   54DOPE   C38 6935   5.848   1.703   3.366  0.1396  0.1537  0.0899
   54DOPE   H8X 6936   5.749   1.721   3.414 -1.1322 -0.9460 -1.9862
   54DOPE   H8Y 6937   5.914   1.758   3.436  0.6573  1.3353 -1.2766
   54DOPE   C39 6938   5.901   1.563   3.355  0.1658 -0.2325 -0.0986
   54DOPE   H9X 6939   6.010   1.558   3.360  0.0876 -1.2766  1.4160
   54DOPE  C310 6940   5.828   1.451   3.334 -0.7892 -0.0941  0.4300
   54DOPE  H10X 6941   5.884   1.356   3.335  0.2562  0.3887  4.3324
   54DOPE  C311 6942   5.677   1.447   3.327 -0.1803 -0.0153 -0.1030
   54DOPE  H11X 6943   5.620   1.542   3.323  0.1824  0.1836 -0.6057
   54DOPE  H11Y 6944   5.636   1.381   3.247  1.5652 -0.0672 -1.0046
   54DOPE  C312 6945   5.620   1.386   3.458 -0.3575 -0.3624  0.3731
   54DOPE  H12X 6946   5.636   1.276   3.449 -1.2008 -0.3759 -1.3140
   54DOPE  H12Y 6947   5.509   1.386   3.453 -0.4900  0.0724  2.5104
   54DOPE  C313 6948   5.656   1.456   3.582  0.6388 -0.7364  0.4492
   54DOPE  H13X 6949   5.762   1.440   3.612  0.8061  1.0313  0.8686
   54DOPE  H13Y 6950   5.630   1.563   3.568  0.5109 -0.4791  2.3932
   54DOPE  C314 6951   5.565   1.405   3.696 -0.7545 -0.1871 -0.2802
   54DOPE  H14X 6952   5.570   1.294   3.704 -1.0772 -0.0655  3.8241
   54DOPE  H14Y 6953   5.459   1.431   3.679 -1.6835 -3.5267 -0.3965
   54DOPE  C315 6954   5.601   1.457   3.835  0.3642 -0.1578  0.3415
   54DOPE  H15X 6955   5.569   1.564   3.837 -2.5051 -0.9237  0.7222
   54DOPE  H15Y 6956   5.709   1.451   3.860  1.3448 -0.7378 -3.4750
   54DOPE  C316 6957   5.524   1.380   3.949  0.3830  0.4899 -0.3918
   54DOPE  H16X 6958   5.506   1.274   3.921  1.3280 -0.1388  1.1976
   54DOPE  H16Y 6959   5.421   1.414   3.972  0.0907 -1.5748  1.7638
   54DOPE  C317 6960   5.603   1.362   4.080 -0.0746 -0.1428 -0.2839
   54DOPE  H17X 6961   5.568   1.282   4.149  3.1035  0.2020  1.9565
   54DOPE  H17Y 6962   5.706   1.335   4.047 -0.1461 -0.7996  0.0226
   54DOPE  C318 6963   5.613   1.493   4.158 -0.8076  0.6583  0.0708
   54DOPE  H18X 6964   5.673   1.564   4.097  1.2055  0.9115  2.2202
   54DOPE  H18Y 6965   5.517   1.542   4.185 -0.2386  1.2486  1.0994
   54DOPE  H18Z 6966   5.672   1.486   4.252 -2.4047 -0.5072  1.0334
   55DOPE     N 6967   6.750   5.718   3.226  0.0377 -0.0893  0.2671
   55DOPE   HN1 6968   6.738   5.618   3.197 -0.2237  0.1617 -0.5201
   55DOPE   HN2 6969   6.659   5.766   3.211  1.0161  1.8227  0.1706
   55DOPE   HN3 6970   6.822   5.760   3.164 -1.2745  0.0310 -1.2429
   55DOPE   C12 6971   6.771   5.722   3.372  0.7848 -0.2378  0.1528
   55DOPE  H12A 6972   6.854   5.652   3.394  0.7995 -0.3990 -0.3870
   55DOPE  H12B 6973   6.682   5.679   3.423  1.6499 -2.5756 -0.2181
   55DOPE   C11 6974   6.793   5.868   3.407  0.3474 -0.4837 -0.1539
   55DOPE  H11A 6975   6.768   5.876   3.515  0.1602  1.9319 -0.3160
   55DOPE  H11B 6976   6.720   5.940   3.362 -1.1156 -1.6144  0.3253
   55DOPE     P 6977   6.990   5.972   3.262 -0.1329 -0.2954 -0.0335
   55DOPE   O13 6978   6.938   5.901   3.145 -0.0203 -0.0016 -0.3640
   55DOPE   O14 6979   7.138   5.983   3.273  0.4151 -0.0836 -0.0701
   55DOPE   O11 6980   6.932   6.120   3.260 -0.0423 -0.2253 -0.2340
   55DOPE   O12 6981   6.932   5.910   3.397 -0.0434  0.1182 -0.1588
   55DOPE    C1 6982   6.995   6.227   3.326  0.0843  0.3993  0.4206
   55DOPE    HA 6983   6.960   6.323   3.283  1.5311  0.4033 -0.8095
   55DOPE    HB 6984   7.104   6.224   3.308  0.1509  0.6026  0.7871
   55DOPE    C2 6985   6.971   6.230   3.481  0.1852  0.5374 -0.1990
   55DOPE    HS 6986   7.019   6.141   3.528 -0.5671 -0.4667 -1.2564
   55DOPE   O21 6987   6.825   6.233   3.500 -0.2172 -0.3211  0.6889
   55DOPE   C21 6988   6.797   6.174   3.614 -0.0022 -0.7473  0.1296
   55DOPE   O22 6989   6.876   6.128   3.693  0.2825  0.9076  0.1834
   55DOPE   C22 6990   6.650   6.145   3.619  0.2818  0.5679  0.5805
   55DOPE   H2R 6991   6.639   6.047   3.671 -1.1914  0.5840  0.3413
   55DOPE   H2S 6992   6.604   6.130   3.519  2.9131 -2.0865 -0.3867
   55DOPE    C3 6993   7.030   6.357   3.551  0.8780 -0.5233 -0.3542
   55DOPE    HX 6994   6.982   6.450   3.513 -0.7103 -1.3077 -0.3485
   55DOPE    HY 6995   7.134   6.382   3.524  0.3456  0.0472 -2.0092
   55DOPE   O31 6996   7.028   6.344   3.698 -0.2996  0.1024  0.0068
   55DOPE   C31 6997   7.116   6.254   3.749 -0.0273 -0.3236 -0.5254
   55DOPE   O32 6998   7.208   6.207   3.687  0.2932 -0.3582 -0.0974
   55DOPE   C32 6999   7.085   6.225   3.897 -0.6983 -0.0676 -0.1252
   55DOPE   H2X 7000   7.124   6.307   3.962  3.0681 -1.4388 -0.3943
   55DOPE   H2Y 7001   6.975   6.225   3.911 -0.9159 -0.1482 -1.6712
   55DOPE   C23 7002   6.557   6.248   3.685 -0.2353  0.4762 -0.7867
   55DOPE   H3R 7003   6.454   6.244   3.644 -0.5855  0.3437  0.0735
   55DOPE   H3S 7004   6.590   6.354   3.676  0.0110  0.4416 -0.3069
   55DOPE   C24 7005   6.551   6.222   3.839  0.3091 -0.0374  0.1237
   55DOPE   H4R 7006   6.536   6.112   3.844 -0.1190  0.0648  3.0245
   55DOPE   H4S 7007   6.455   6.267   3.875  1.7562  2.5181  1.0843
   55DOPE   C25 7008   6.667   6.287   3.925 -0.2650 -0.2208  0.4687
   55DOPE   H5R 7009   6.689   6.391   3.893  0.3420 -0.6243 -0.4794
   55DOPE   H5S 7010   6.764   6.235   3.906  0.4618  1.4405 -0.6904
   55DOPE   C26 7011   6.636   6.286   4.075  0.6207 -0.4409  0.2154
   55DOPE   H6R 7012   6.586   6.191   4.105 -0.8934  1.0018  2.4955
   55DOPE   H6S 7013   6.567   6.370   4.098 -0.7656 -1.1495 -1.1033
   55DOPE   C27 7014   6.752   6.322   4.167  0.1709 -0.6329  0.0042
   55DOPE   H7R 7015   6.833   6.247   4.156  0.4385 -0.5588  1.2916
   55DOPE   H7S 7016   6.715   6.318   4.272 -0.4526 -1.0496 -0.2284
   55DOPE   C28 7017   6.824   6.454   4.140 -0.3455  0.4197 -0.2283
   55DOPE   H8R 7018   6.880   6.446   4.044 -1.3846 -1.5866 -0.7107
   55DOPE   H8S 7019   6.909   6.464   4.210 -1.5789 -0.2051  1.4116
   55DOPE   C29 7020   6.734   6.574   4.149  0.2871  0.0108 -0.8166
   55DOPE   H9R 7021   6.670   6.589   4.061 -1.7070 -1.9900  0.1876
   55DOPE  C210 7022   6.733   6.665   4.256  0.0825  0.3220  0.6066
   55DOPE  H10R 7023   6.666   6.753   4.259  0.7100  0.7820  1.6169
   55DOPE  C211 7024   6.784   6.645   4.392  0.3720  0.6957 -0.0608
   55DOPE  H11R 7025   6.879   6.703   4.392  0.3482  0.7445  0.5739
   55DOPE  H11S 7026   6.813   6.540   4.415 -0.4772  0.7980  1.6896
   55DOPE  C212 7027   6.706   6.691   4.518  0.2463  0.0993  1.2713
   55DOPE  H12R 7028   6.681   6.799   4.504 -0.1892 -0.3071 -1.8464
   55DOPE  H12S 7029   6.777   6.691   4.603  2.4540 -0.2738 -0.4719
   55DOPE  C213 7030   6.573   6.617   4.546  0.2272 -0.0013  0.8197
   55DOPE  H13R 7031   6.573   6.607   4.657  1.6182  2.4603  1.1037
   55DOPE  H13S 7032   6.575   6.513   4.507  0.6880  0.0946  0.5818
   55DOPE  C214 7033   6.455   6.701   4.506 -0.1721  0.5014 -0.8947
   55DOPE  H14R 7034   6.449   6.708   4.395 -1.6759 -0.8339 -0.9272
   55DOPE  H14S 7035   6.454   6.798   4.561 -0.0409  1.1593 -2.0234
   55DOPE  C215 7036   6.317   6.652   4.547  0.1810  0.4999 -0.1250
   55DOPE  H15R 7037   6.290   6.553   4.506 -0.9773 -0.3750  2.5293
   55DOPE  H15S 7038   6.238   6.720   4.508 -1.2794 -0.9392  0.2258
   55DOPE  C216 7039   6.293   6.639   4.705  0.2470 -0.6102 -0.4992
   55DOPE  H16R 7040   6.348   6.547   4.731 -0.0284 -0.5089  0.5151
   55DOPE  H16S 7041   6.189   6.613   4.737  0.3824 -2.4803 -1.4491
   55DOPE  C217 7042   6.336   6.749   4.791  0.0932 -0.3321  0.2004
   55DOPE  H17R 7043   6.257   6.827   4.799  2.3217  1.8479  3.6965
   55DOPE  H17S 7044   6.430   6.798   4.758  0.6152  0.0837  2.1748
   55DOPE  C218 7045   6.351   6.707   4.939  0.6948  0.5170  0.1608
   55DOPE  H18R 7046   6.444   6.651   4.964  1.2794  0.6996 -1.5098
   55DOPE  H18S 7047   6.260   6.648   4.961 -0.8285  3.2608  1.7733
   55DOPE  H18T 7048   6.349   6.792   5.011  2.7578  2.6502 -2.0910
   55DOPE   C33 7049   7.133   6.083   3.944  0.3555  0.1287 -0.0121
   55DOPE   H3X 7050   7.243   6.071   3.931  0.6823  1.8792  0.8184
   55DOPE   H3Y 7051   7.100   6.003   3.874  2.0276 -2.6852  2.2149
   55DOPE   C34 7052   7.093   6.052   4.086 -0.1320 -0.7843  0.0840
   55DOPE   H4X 7053   6.985   6.065   4.106 -0.5458  2.2392 -3.2757
   55DOPE   H4Y 7054   7.114   5.947   4.117  2.2734  0.4256  3.0314
   55DOPE   C35 7055   7.176   6.136   4.185  0.8389 -0.1592 -0.4991
   55DOPE   H5X 7056   7.170   6.242   4.154  2.6959  0.3922  0.8558
   55DOPE   H5Y 7057   7.285   6.115   4.178  1.0353  0.7555 -0.3203
   55DOPE   C36 7058   7.146   6.113   4.341  0.7367  0.2769  0.2841
   55DOPE   H6X 7059   7.215   6.185   4.391 -2.1084  3.5901 -0.1312
   55DOPE   H6Y 7060   7.175   6.008   4.358  1.6660  0.0311 -2.4613
   55DOPE   C37 7061   6.999   6.152   4.380 -0.3273  0.3154 -0.5638
   55DOPE   H7X 7062   6.968   6.247   4.331  0.7946  0.5340 -0.8741
   55DOPE   H7Y 7063   6.928   6.079   4.337 -1.9742  2.1189 -1.0365
   55DOPE   C38 7064   6.978   6.165   4.534  0.2868 -0.0459 -0.4662
   55DOPE   H8X 7065   7.069   6.221   4.564  1.3147 -0.7595 -2.1643
   55DOPE   H8Y 7066   6.990   6.069   4.589  2.8722 -0.3192 -1.3709
   55DOPE   C39 7067   6.848   6.241   4.563 -0.3910  0.2158 -0.1588
   55DOPE   H9X 7068   6.761   6.186   4.523  1.0950 -1.2950 -1.4385
   55DOPE  C310 7069   6.838   6.357   4.632  0.2179  0.4559 -0.6215
   55DOPE  H10X 7070   6.733   6.390   4.642 -0.2418 -0.9369 -0.5794
   55DOPE  C311 7071   6.961   6.438   4.678  0.4230 -0.6359  0.2343
   55DOPE  H11X 7072   7.056   6.381   4.677  0.9965  0.2895 -0.8039
   55DOPE  H11Y 7073   6.963   6.523   4.606  0.2185 -0.3992  0.5084
   55DOPE  C312 7074   6.939   6.483   4.825  0.3798 -0.0420  0.1185
   55DOPE  H12X 7075   6.922   6.393   4.889  0.7099 -0.4240 -0.3311
   55DOPE  H12Y 7076   6.850   6.550   4.827  0.3665  0.2440 -3.6810
   55DOPE  C313 7077   7.066   6.549   4.885 -0.1265 -0.7593  0.2307
   55DOPE  H13X 7078   7.146   6.479   4.854  1.2625  0.8103  0.0666
   55DOPE  H13Y 7079   7.081   6.651   4.843  1.7330 -0.2730  1.8918
   55DOPE  C314 7080   7.060   6.573   5.037  1.0600  0.0478 -0.3215
   55DOPE  H14X 7081   7.039   6.475   5.085  3.5240 -0.8118 -0.8867
   55DOPE  H14Y 7082   6.976   6.643   5.055 -0.4377 -1.8770  0.5118
   55DOPE  C315 7083   7.193   6.627   5.096  0.3092  0.1921  0.4977
   55DOPE  H15X 7084   7.170   6.649   5.202  0.2125 -0.3500  0.5946
   55DOPE  H15Y 7085   7.230   6.713   5.037  0.7648 -1.6274 -2.0929
   55DOPE  C316 7086   7.308   6.521   5.103  0.2490  0.1724 -0.0846
   55DOPE  H16X 7087   7.356   6.521   5.003  0.8460  1.1426  0.1838
   55DOPE  H16Y 7088   7.265   6.422   5.125  1.2146 -0.2861 -0.1919
   55DOPE  C317 7089   7.407   6.562   5.214 -0.1325  0.9165 -0.0176
   55DOPE  H17X 7090   7.373   6.519   5.310 -0.1853 -0.9304 -0.8266
   55DOPE  H17Y 7091   7.496   6.501   5.186 -0.4817 -0.4985  1.7738
   55DOPE  C318 7092   7.441   6.705   5.220 -0.0490 -0.8121 -0.3628
   55DOPE  H18X 7093   7.542   6.724   5.262  0.0118 -1.1006 -0.3810
   55DOPE  H18Y 7094   7.463   6.748   5.119  0.6337  0.9152  0.4685
   55DOPE  H18Z 7095   7.361   6.767   5.265  0.9998 -0.3056  0.8641
   56DOPE     N 7096   7.386   4.959   3.062 -0.5974  0.4262 -0.5325
   56DOPE   HN1 7097   7.386   4.971   2.959  0.6957 -0.4715 -0.6571
   56DOPE   HN2 7098   7.481   4.925   3.088 -0.7380  2.1855  2.8312
   56DOPE   HN3 7099   7.326   4.879   3.090  4.1257 -2.8016  1.6134
   56DOPE   C12 7100   7.362   5.080   3.144  0.5717 -0.1698  0.2275
   56DOPE  H12A 7101   7.436   5.161   3.124  0.9620 -0.3359  0.9393
   56DOPE  H12B 7102   7.371   5.036   3.246 -2.6270 -1.2099  0.1687
   56DOPE   C11 7103   7.219   5.143   3.117 -0.5437  0.3018 -0.5785
   56DOPE  H11A 7104   7.198   5.201   3.210 -0.6194  2.1262 -1.6835
   56DOPE  H11B 7105   7.142   5.062   3.113  1.0023 -1.2633  0.1533
   56DOPE     P 7106   7.112   5.337   2.996 -0.5856 -0.0818  0.0208
   56DOPE   O13 7107   6.980   5.270   2.990 -0.2023  0.7170  0.1846
   56DOPE   O14 7108   7.143   5.442   2.895  0.8440 -0.1567 -0.1627
   56DOPE   O11 7109   7.131   5.396   3.137 -0.2224  0.3009 -0.1871
   56DOPE   O12 7110   7.225   5.226   3.001  0.0803 -0.1334 -0.1104
   56DOPE    C1 7111   7.221   5.503   3.169 -1.0159 -0.4999  0.4140
   56DOPE    HA 7112   7.170   5.600   3.151 -2.0973 -0.9048  1.1870
   56DOPE    HB 7113   7.311   5.488   3.107 -1.5061 -0.3240 -0.3496
   56DOPE    C2 7114   7.253   5.495   3.317 -0.2457  0.2554  0.3974
   56DOPE    HS 7115   7.316   5.585   3.335  1.4779 -0.8315  0.0613
   56DOPE   O21 7116   7.336   5.381   3.344  0.1213  0.1765 -0.2184
   56DOPE   C21 7117   7.409   5.389   3.451  1.0278  0.2050 -0.4729
   56DOPE   O22 7118   7.440   5.493   3.506  0.0426  0.5369 -0.3559
   56DOPE   C22 7119   7.472   5.252   3.485 -0.0596  0.3927  0.4515
   56DOPE   H2R 7120   7.582   5.263   3.495  0.2266 -0.8969 -0.7904
   56DOPE   H2S 7121   7.455   5.184   3.398 -1.2285  0.8979  0.2584
   56DOPE    C3 7122   7.128   5.503   3.412  0.2582 -0.4515  0.2106
   56DOPE    HX 7123   7.071   5.408   3.410  0.5384 -0.6146 -0.4094
   56DOPE    HY 7124   7.063   5.586   3.377  2.2299  1.3579  0.6125
   56DOPE   O31 7125   7.171   5.523   3.553  0.3014  0.2773 -0.1069
   56DOPE   C31 7126   7.067   5.558   3.632  0.5905 -0.0065 -0.4587
   56DOPE   O32 7127   6.952   5.553   3.601  0.1637  1.0141  0.2649
   56DOPE   C32 7128   7.118   5.555   3.777  0.0024 -0.0053  0.8133
   56DOPE   H2X 7129   7.211   5.494   3.780 -0.7471 -1.2471 -0.0658
   56DOPE   H2Y 7130   7.147   5.662   3.783 -0.5100  0.2911 -1.1215
   56DOPE   C23 7131   7.426   5.184   3.626 -0.1463  0.0585  0.8073
   56DOPE   H3R 7132   7.499   5.100   3.632  0.4812  0.4294 -1.1212
   56DOPE   H3S 7133   7.326   5.142   3.606 -0.2173  1.5369 -2.6332
   56DOPE   C24 7134   7.444   5.280   3.740 -0.0337  0.0097  0.6438
   56DOPE   H4R 7135   7.385   5.373   3.723 -0.5485 -0.4603 -0.2547
   56DOPE   H4S 7136   7.551   5.308   3.741 -0.1108  0.3323  0.3537
   56DOPE   C25 7137   7.416   5.211   3.877 -0.3552 -0.3001 -0.0601
   56DOPE   H5R 7138   7.445   5.105   3.864  1.9274  0.1528  0.8862
   56DOPE   H5S 7139   7.306   5.216   3.893 -0.1994  1.5767  0.7728
   56DOPE   C26 7140   7.488   5.276   3.992 -0.0109  0.3556 -0.5936
   56DOPE   H6R 7141   7.438   5.364   4.036  1.4500 -0.5125  3.1587
   56DOPE   H6S 7142   7.589   5.304   3.952  0.2589  1.9423  1.0874
   56DOPE   C27 7143   7.519   5.166   4.103 -0.3076 -0.1794 -0.6042
   56DOPE   H7R 7144   7.570   5.082   4.050 -2.0997 -1.2372 -0.7135
   56DOPE   H7S 7145   7.423   5.123   4.138 -1.1011  0.9314 -1.3619
   56DOPE   C28 7146   7.606   5.226   4.211  0.4100 -0.0472  0.4729
   56DOPE   H8R 7147   7.608   5.163   4.303 -1.2614  0.1946  0.7018
   56DOPE   H8S 7148   7.554   5.321   4.236 -1.0391 -0.6192 -0.2793
   56DOPE   C29 7149   7.751   5.244   4.171  0.7152  0.5493  0.1555
   56DOPE   H9R 7150   7.782   5.204   4.074  0.6110  1.4362 -0.2563
   56DOPE  C210 7151   7.839   5.309   4.246  0.1788 -0.1883  0.5101
   56DOPE  H10R 7152   7.941   5.322   4.207  0.8658  0.0850  2.2683
   56DOPE  C211 7153   7.812   5.382   4.371 -0.5311  0.1669 -0.9548
   56DOPE  H11R 7154   7.706   5.405   4.397  0.0555  0.7269  1.1452
   56DOPE  H11S 7155   7.850   5.486   4.362  0.3042 -0.1556 -1.1739
   56DOPE  C212 7156   7.894   5.335   4.491 -0.2834  0.1952 -0.1856
   56DOPE  H12R 7157   7.862   5.388   4.584  2.4416  0.0183  0.9528
   56DOPE  H12S 7158   8.005   5.337   4.484 -0.1978 -1.7492  0.0411
   56DOPE  C213 7159   7.869   5.188   4.529  0.2107  0.1579 -0.2968
   56DOPE  H13R 7160   7.904   5.117   4.451  0.2985  0.4660 -0.5355
   56DOPE  H13S 7161   7.759   5.172   4.536 -0.0129  1.2430 -1.1587
   56DOPE  C214 7162   7.930   5.150   4.659 -0.7577  0.3883  0.4308
   56DOPE  H14R 7163   7.895   5.210   4.746  2.3205  1.2720  1.1944
   56DOPE  H14S 7164   8.037   5.169   4.635 -1.0845 -0.2398 -1.7538
   56DOPE  C215 7165   7.913   4.996   4.692  0.2144 -1.0606  0.9107
   56DOPE  H15R 7166   7.969   4.968   4.784 -0.7247  1.6386  2.4008
   56DOPE  H15S 7167   7.953   4.947   4.600 -2.9398 -2.5684  0.2103
   56DOPE  C216 7168   7.773   4.943   4.706  0.0316 -0.5442  0.0588
   56DOPE  H16R 7169   7.737   4.958   4.603  1.9072  2.7157 -0.2504
   56DOPE  H16S 7170   7.729   5.022   4.771  2.6071  0.9205  0.1433
   56DOPE  C217 7171   7.774   4.793   4.752  0.2041 -0.3476 -0.8677
   56DOPE  H17R 7172   7.850   4.739   4.691  0.4560 -0.3150 -0.5836
   56DOPE  H17S 7173   7.671   4.756   4.739 -0.1522  0.0893  0.5012
   56DOPE  C218 7174   7.801   4.778   4.899 -0.2948 -0.0651 -0.9881
   56DOPE  H18R 7175   7.898   4.823   4.931 -1.8295  0.7303  3.2143
   56DOPE  H18S 7176   7.806   4.672   4.932 -0.3428  0.0326 -0.6553
   56DOPE  H18T 7177   7.723   4.828   4.961 -1.0326 -0.3109 -1.7127
   56DOPE   C33 7178   7.015   5.517   3.886  0.2925 -0.4625  0.6488
   56DOPE   H3X 7179   6.965   5.425   3.849  0.9635 -0.4175 -0.4457
   56DOPE   H3Y 7180   6.937   5.595   3.896 -0.2061 -0.5633 -1.7305
   56DOPE   C34 7181   7.069   5.494   4.031 -0.4325  0.0753  0.2677
   56DOPE   H4X 7182   6.995   5.446   4.099  3.1016 -3.5382  2.0025
   56DOPE   H4Y 7183   7.157   5.427   4.020 -0.6124 -0.1657  0.2912
   56DOPE   C35 7184   7.109   5.630   4.096  0.1322 -0.7252 -0.2464
   56DOPE   H5X 7185   7.031   5.694   4.143  0.6032  0.6573 -1.2628
   56DOPE   H5Y 7186   7.139   5.699   4.014 -1.6179 -1.8437 -1.8951
   56DOPE   C36 7187   7.224   5.601   4.185 -0.1654 -0.2411 -0.1028
   56DOPE   H6X 7188   7.313   5.548   4.145  3.0223  3.3341  1.6619
   56DOPE   H6Y 7189   7.185   5.540   4.269 -1.5823 -0.0161 -0.5556
   56DOPE   C37 7190   7.268   5.732   4.246 -0.1978 -0.1789  0.4680
   56DOPE   H7X 7191   7.302   5.796   4.161  0.2655 -0.0735  0.7283
   56DOPE   H7Y 7192   7.183   5.789   4.289  0.6925 -0.2527  2.3901
   56DOPE   C38 7193   7.389   5.712   4.339 -0.0394 -1.0382 -0.3227
   56DOPE   H8X 7194   7.471   5.670   4.276 -1.0535 -0.4871 -2.0861
   56DOPE   H8Y 7195   7.351   5.647   4.420  0.1995 -0.1379  0.5364
   56DOPE   C39 7196   7.438   5.822   4.425  0.1328 -0.7926  0.1909
   56DOPE   H9X 7197   7.354   5.871   4.475 -0.7634 -2.0489 -0.0371
   56DOPE  C310 7198   7.565   5.850   4.468  0.4159  0.2860 -0.2233
   56DOPE  H10X 7199   7.589   5.941   4.525 -1.4875 -0.3016  1.6850
   56DOPE  C311 7200   7.685   5.761   4.442 -0.6040 -0.2056 -0.3763
   56DOPE  H11X 7201   7.720   5.725   4.541 -0.4569 -0.5991 -0.5695
   56DOPE  H11Y 7202   7.656   5.664   4.396 -0.9657 -1.1043  1.5991
   56DOPE  C312 7203   7.786   5.857   4.371  0.3655  0.9097  0.1327
   56DOPE  H12X 7204   7.820   5.941   4.436  1.9788  1.3341 -1.2037
   56DOPE  H12Y 7205   7.751   5.902   4.276 -0.0772 -1.3997 -0.8749
   56DOPE  C313 7206   7.911   5.780   4.325 -0.1611 -0.8955 -0.0649
   56DOPE  H13X 7207   7.971   5.732   4.405  0.1552 -0.4592 -0.0399
   56DOPE  H13Y 7208   7.879   5.697   4.258  0.9208 -0.2744 -1.4115
   56DOPE  C314 7209   8.004   5.864   4.235  0.8228  0.0608 -0.2455
   56DOPE  H14X 7210   8.030   5.949   4.302 -0.3043 -2.4756  3.7471
   56DOPE  H14Y 7211   7.943   5.898   4.149  0.6238  1.0963  0.2803
   56DOPE  C315 7212   8.134   5.804   4.187  0.3512 -0.0110  0.5659
   56DOPE  H15X 7213   8.185   5.755   4.272 -1.8963 -0.7285  1.5659
   56DOPE  H15Y 7214   8.204   5.882   4.149  2.2838 -1.4762  0.9473
   56DOPE  C316 7215   8.116   5.707   4.069  0.7643 -0.1969  0.0416
   56DOPE  H16X 7216   8.074   5.767   3.985 -1.4715 -0.3578  0.9768
   56DOPE  H16Y 7217   8.042   5.632   4.105  0.1578  0.0704 -0.6054
   56DOPE  C317 7218   8.240   5.632   4.013 -0.2286 -0.0677  0.2853
   56DOPE  H17X 7219   8.281   5.588   4.106 -2.3469 -0.0965  1.2737
   56DOPE  H17Y 7220   8.211   5.555   3.938  0.2621 -2.8520  2.7802
   56DOPE  C318 7221   8.334   5.719   3.939 -0.0178 -0.2169  0.0983
   56DOPE  H18X 7222   8.425   5.665   3.904  1.0067  0.8519  1.0230
   56DOPE  H18Y 7223   8.281   5.780   3.862 -1.4256 -1.9129 -0.3227
   56DOPE  H18Z 7224   8.376   5.794   4.010 -2.5210  1.8707 -0.4627
   57DOPE     N 7225   7.198   1.933   2.620 -0.5822  1.1382  0.1069
   57DOPE   HN1 7226   7.228   2.007   2.555  3.3269 -0.9131 -0.7329
   57DOPE   HN2 7227   7.284   1.921   2.678 -0.0961  2.0202 -0.4154
   57DOPE   HN3 7228   7.177   1.850   2.561  1.4658  0.2191  0.5833
   57DOPE   C12 7229   7.076   1.970   2.694  0.0932  0.3814 -0.9828
   57DOPE  H12A 7230   7.013   1.881   2.713 -1.9603  1.7769 -0.9037
   57DOPE  H12B 7231   7.012   2.034   2.629 -3.3812 -0.5401  1.2727
   57DOPE   C11 7232   7.122   2.035   2.823  0.4311  0.2539  0.5609
   57DOPE  H11A 7233   7.188   1.964   2.878 -3.8005 -2.0877  3.2114
   57DOPE  H11B 7234   7.031   2.047   2.886 -0.2671 -0.3073 -0.3179
   57DOPE     P 7235   7.238   2.247   2.917  0.0808  0.2871  0.3542
   57DOPE   O13 7236   7.162   2.377   2.922 -1.0760  0.1014 -0.8416
   57DOPE   O14 7237   7.383   2.248   2.905 -0.1556  0.0516  0.7543
   57DOPE   O11 7238   7.201   2.164   3.044  0.5214 -0.0734  0.3752
   57DOPE   O12 7239   7.175   2.165   2.802  0.8435 -0.3014  0.2004
   57DOPE    C1 7240   7.275   2.052   3.098 -0.5080  0.6905  0.0928
   57DOPE    HA 7241   7.334   2.013   3.012  0.0858  1.9391 -0.0909
   57DOPE    HB 7242   7.203   1.977   3.137  0.5060  0.5505  1.8001
   57DOPE    C2 7243   7.360   2.107   3.218 -0.3107 -0.4362  0.3996
   57DOPE    HS 7244   7.436   2.177   3.177 -0.3251 -1.1830 -0.9435
   57DOPE   O21 7245   7.431   2.002   3.284 -0.7575  0.0632  0.2507
   57DOPE   C21 7246   7.526   2.043   3.374  0.2326  0.5947 -0.4231
   57DOPE   O22 7247   7.546   2.158   3.404 -0.0009  0.2616  0.1692
   57DOPE   C22 7248   7.580   1.915   3.447 -0.1317 -0.1064 -0.2133
   57DOPE   H2R 7249   7.664   1.876   3.385  0.8383 -1.1724  1.6812
   57DOPE   H2S 7250   7.511   1.828   3.441  0.9611 -0.9093 -2.5804
   57DOPE    C3 7251   7.266   2.188   3.303 -0.4251 -0.6302  0.1739
   57DOPE    HX 7252   7.236   2.282   3.252 -0.9180 -0.4560  0.7717
   57DOPE    HY 7253   7.325   2.225   3.390 -1.5768  0.5313  0.4973
   57DOPE   O31 7254   7.148   2.117   3.344 -0.1480 -0.9074 -0.4504
   57DOPE   C31 7255   7.061   2.189   3.414 -0.3229 -0.2983 -0.6084
   57DOPE   O32 7256   7.069   2.309   3.429  0.0707  0.1467 -0.1815
   57DOPE   C32 7257   6.971   2.089   3.485  0.5322  0.1060  0.5395
   57DOPE   H2X 7258   6.922   2.033   3.403  0.4366  0.7443  0.1579
   57DOPE   H2Y 7259   7.038   2.018   3.539  0.5308  1.7814  2.9274
   57DOPE   C23 7260   7.631   1.940   3.586  0.5641 -0.1587 -0.0823
   57DOPE   H3R 7261   7.682   2.038   3.592  0.1500  0.1409 -1.2750
   57DOPE   H3S 7262   7.701   1.858   3.613 -1.2410 -1.8895 -0.3632
   57DOPE   C24 7263   7.521   1.939   3.692  0.3146 -0.4942  0.4587
   57DOPE   H4R 7264   7.471   1.840   3.678  1.8173 -1.0717 -1.2425
   57DOPE   H4S 7265   7.444   2.016   3.673  1.5578  0.5133 -0.6163
   57DOPE   C25 7266   7.576   1.945   3.836 -0.4450 -0.7240 -0.2085
   57DOPE   H5R 7267   7.676   1.993   3.827 -1.0286  0.6736  0.4058
   57DOPE   H5S 7268   7.588   1.845   3.883  1.1647 -1.1662 -1.4521
   57DOPE   C26 7269   7.497   2.041   3.931 -0.3873 -0.0582  0.1487
   57DOPE   H6R 7270   7.396   2.005   3.961 -0.2775 -0.9313 -0.4865
   57DOPE   H6S 7271   7.490   2.142   3.886  0.0457 -0.4779 -0.8979
   57DOPE   C27 7272   7.564   2.052   4.068 -0.1940 -0.9256 -0.0519
   57DOPE   H7R 7273   7.673   2.036   4.054  0.1715  1.4974 -0.4630
   57DOPE   H7S 7274   7.538   1.956   4.119  2.0864 -0.6676  1.7818
   57DOPE   C28 7275   7.530   2.169   4.160 -0.2831  1.1615 -0.2688
   57DOPE   H8R 7276   7.420   2.183   4.156 -0.4472  0.2874  0.7418
   57DOPE   H8S 7277   7.579   2.257   4.113  0.3310  0.4836 -0.9327
   57DOPE   C29 7278   7.580   2.153   4.301 -0.0746 -0.7044 -0.3072
   57DOPE   H9R 7279   7.689   2.141   4.298  0.0343  0.0981  0.2203
   57DOPE  C210 7280   7.509   2.137   4.419  0.0062  0.0682  0.3624
   57DOPE  H10R 7281   7.556   2.111   4.515 -1.6756  0.2047  1.2746
   57DOPE  C211 7282   7.358   2.139   4.430 -0.1749 -0.5626 -0.0748
   57DOPE  H11R 7283   7.323   2.065   4.505 -0.2866 -2.5488 -1.9798
   57DOPE  H11S 7284   7.313   2.095   4.338 -0.8927 -2.7980  1.2799
   57DOPE  C212 7285   7.292   2.271   4.457  0.6304 -0.4804  0.0799
   57DOPE  H12R 7286   7.191   2.250   4.498  0.5066 -0.3501 -0.1556
   57DOPE  H12S 7287   7.271   2.327   4.364 -0.3267  1.7998  1.5650
   57DOPE  C213 7288   7.363   2.360   4.563 -0.4794  0.3775 -0.2104
   57DOPE  H13R 7289   7.452   2.417   4.530 -0.3965  0.1995 -0.2981
   57DOPE  H13S 7290   7.397   2.300   4.650 -0.2935 -1.1939 -1.3256
   57DOPE  C214 7291   7.257   2.451   4.626  0.1328 -0.9628  0.4110
   57DOPE  H14R 7292   7.173   2.392   4.668  1.1047 -1.5003  1.6613
   57DOPE  H14S 7293   7.218   2.519   4.547 -0.3119 -0.0339  1.4059
   57DOPE  C215 7294   7.314   2.545   4.734 -0.0680 -0.9622  0.1838
   57DOPE  H15R 7295   7.402   2.594   4.687 -0.4550  0.0009  0.4358
   57DOPE  H15S 7296   7.345   2.491   4.826  2.9983 -1.4909 -1.0291
   57DOPE  C216 7297   7.217   2.646   4.765 -0.4763 -0.4692  0.7717
   57DOPE  H16R 7298   7.121   2.600   4.795 -1.6501  0.9484 -0.6086
   57DOPE  H16S 7299   7.196   2.706   4.673 -0.0934  0.8093  1.4886
   57DOPE  C217 7300   7.255   2.733   4.890 -0.5278 -0.1409 -0.0960
   57DOPE  H17R 7301   7.354   2.779   4.870 -1.4457  1.2000 -1.8803
   57DOPE  H17S 7302   7.267   2.664   4.976 -2.2625  2.0056  2.0111
   57DOPE  C218 7303   7.147   2.835   4.931  0.1501  0.1182  0.3299
   57DOPE  H18R 7304   7.169   2.873   5.032  2.4035 -1.6953  0.6044
   57DOPE  H18S 7305   7.053   2.776   4.923  0.6942 -0.5652 -3.2980
   57DOPE  H18T 7306   7.140   2.913   4.852  0.1642  0.3105  0.5201
   57DOPE   C33 7307   6.861   2.155   3.580  0.0315 -0.4689 -0.3342
   57DOPE   H3X 7308   6.767   2.166   3.521  0.3568  3.7679 -0.3854
   57DOPE   H3Y 7309   6.897   2.255   3.612  0.0912 -0.8832  0.9253
   57DOPE   C34 7310   6.841   2.061   3.701  0.0152  0.1908  0.6111
   57DOPE   H4X 7311   6.865   1.956   3.672  0.5498  0.4812 -0.0035
   57DOPE   H4Y 7312   6.908   2.082   3.787 -1.2268  1.5129  1.2947
   57DOPE   C35 7313   6.700   2.071   3.763 -0.0331 -0.2020  0.4010
   57DOPE   H5X 7314   6.631   1.989   3.733  0.1358 -0.3486  0.4123
   57DOPE   H5Y 7315   6.663   2.173   3.742 -0.5243 -0.7182 -1.4835
   57DOPE   C36 7316   6.701   2.057   3.916  0.0691  0.5275 -0.2197
   57DOPE   H6X 7317   6.748   2.145   3.965  0.7200 -0.3529  0.7667
   57DOPE   H6Y 7318   6.753   1.965   3.947 -1.6426  0.0557  1.4902
   57DOPE   C37 7319   6.556   2.048   3.958  0.2283  0.3252 -0.2163
   57DOPE   H7X 7320   6.505   2.141   3.925  1.2528  1.0375  0.1470
   57DOPE   H7Y 7321   6.504   1.964   3.907  1.4898 -0.7254  0.1617
   57DOPE   C38 7322   6.554   2.029   4.114 -0.0703 -0.3737 -0.4139
   57DOPE   H8X 7323   6.607   2.122   4.142 -2.0527  0.6828  0.0274
   57DOPE   H8Y 7324   6.616   1.941   4.142 -2.3343 -1.3978  1.8395
   57DOPE   C39 7325   6.416   2.023   4.176  0.1060 -0.1098  0.2456
   57DOPE   H9X 7326   6.335   2.044   4.103  1.1549  2.0287 -0.4132
   57DOPE  C310 7327   6.382   1.985   4.295  0.4942  0.1019 -0.5077
   57DOPE  H10X 7328   6.277   1.962   4.319  0.2517 -1.8387 -3.0180
   57DOPE  C311 7329   6.483   1.940   4.395  0.0908  0.8710  0.5302
   57DOPE  H11X 7330   6.470   1.847   4.454  1.3292  1.5066  1.8991
   57DOPE  H11Y 7331   6.577   1.915   4.341 -0.5048  0.3180 -0.2686
   57DOPE  C312 7332   6.497   2.044   4.513 -0.0387 -0.6798  0.3212
   57DOPE  H12X 7333   6.531   2.141   4.471  0.2989 -1.2346 -0.7181
   57DOPE  H12Y 7334   6.568   2.006   4.589  0.7971  0.9281  0.3782
   57DOPE  C313 7335   6.362   2.067   4.582  0.1598  0.7210 -0.0710
   57DOPE  H13X 7336   6.306   2.135   4.515  2.0658  1.2328 -1.2244
   57DOPE  H13Y 7337   6.319   1.965   4.574 -1.6468  1.5055 -0.8991
   57DOPE  C314 7338   6.361   2.118   4.729 -1.3525 -0.2867  0.3601
   57DOPE  H14X 7339   6.389   2.046   4.809 -1.0866 -0.7290 -0.1263
   57DOPE  H14Y 7340   6.257   2.156   4.743 -1.7251 -1.8316  2.3126
   57DOPE  C315 7341   6.452   2.249   4.732 -0.5386  0.0901  0.2298
   57DOPE  H15X 7342   6.416   2.311   4.647 -1.7279 -0.3128  0.4184
   57DOPE  H15Y 7343   6.559   2.220   4.734 -0.4115  0.5778  1.4932
   57DOPE  C316 7344   6.411   2.321   4.865 -0.1897 -0.1945  0.4671
   57DOPE  H16X 7345   6.440   2.258   4.952  1.7061  0.1221  0.0964
   57DOPE  H16Y 7346   6.300   2.323   4.862 -0.2699 -1.1077 -3.8704
   57DOPE  C317 7347   6.458   2.463   4.883 -0.1707 -0.7025 -0.3782
   57DOPE  H17X 7348   6.569   2.459   4.891 -0.2701 -3.3326  0.6582
   57DOPE  H17Y 7349   6.428   2.514   4.789 -0.3864 -0.5923 -0.2506
   57DOPE  C318 7350   6.406   2.554   4.998 -0.6087 -0.5678  0.6338
   57DOPE  H18X 7351   6.466   2.648   4.994 -0.2813 -0.8115 -2.1701
   57DOPE  H18Y 7352   6.299   2.581   4.981 -0.7941 -2.2496 -1.2355
   57DOPE  H18Z 7353   6.415   2.502   5.096  1.2970 -0.7208  0.4093
   58DOPE     N 7354   5.693   6.267   3.058 -0.0635 -0.2429  0.0761
   58DOPE   HN1 7355   5.709   6.364   3.024  0.7344  0.7515  2.9700
   58DOPE   HN2 7356   5.591   6.260   3.081 -0.2302  1.5432  0.0689
   58DOPE   HN3 7357   5.759   6.244   3.135  1.1592 -0.5349 -1.0305
   58DOPE   C12 7358   5.720   6.173   2.943  0.1644 -0.2567  0.0232
   58DOPE  H12A 7359   5.830   6.169   2.925  0.1908  0.8328 -0.1115
   58DOPE  H12B 7360   5.674   6.223   2.856 -2.8743 -0.9050  1.1518
   58DOPE   C11 7361   5.673   6.034   2.979  0.6620  0.4670 -0.0676
   58DOPE  H11A 7362   5.732   5.995   3.064 -0.8037 -0.3089  0.6380
   58DOPE  H11B 7363   5.698   5.965   2.895  0.3854 -0.3682  0.5284
   58DOPE     P 7364   5.462   5.900   3.073  0.3562 -0.2029 -0.0534
   58DOPE   O13 7365   5.429   5.808   2.964 -0.5527  0.2989  0.3468
   58DOPE   O14 7366   5.354   5.933   3.169 -0.1488  0.1458  0.9996
   58DOPE   O11 7367   5.582   5.851   3.154 -0.1087  0.8478 -0.6629
   58DOPE   O12 7368   5.529   6.029   3.012  0.2472  0.2613  0.0898
   58DOPE    C1 7369   5.636   5.718   3.161  0.3053 -0.4403  0.3014
   58DOPE    HA 7370   5.744   5.719   3.188  0.5275  1.8629 -0.4102
   58DOPE    HB 7371   5.619   5.672   3.062  0.2646  1.0692 -0.4267
   58DOPE    C2 7372   5.565   5.623   3.262 -0.8094 -0.4361 -0.4536
   58DOPE    HS 7373   5.457   5.626   3.236 -0.7503 -0.7720 -0.7456
   58DOPE   O21 7374   5.589   5.673   3.398  0.0848  0.1603  0.4236
   58DOPE   C21 7375   5.512   5.622   3.488  0.6425 -0.3532 -0.7069
   58DOPE   O22 7376   5.432   5.531   3.468  0.0187  0.8261 -0.6539
   58DOPE   C22 7377   5.533   5.706   3.619 -0.5931 -0.3955  0.0342
   58DOPE   H2R 7378   5.494   5.807   3.595  2.7008  0.4013 -2.7636
   58DOPE   H2S 7379   5.642   5.713   3.636 -0.8027  1.3581  0.9658
   58DOPE    C3 7380   5.620   5.475   3.255  0.1080  0.2436 -0.1651
   58DOPE    HX 7381   5.581   5.440   3.157 -0.5735  2.2593 -0.6576
   58DOPE    HY 7382   5.577   5.398   3.324  1.3356 -0.7056 -0.4201
   58DOPE   O31 7383   5.763   5.465   3.242  0.2305 -0.2524  0.5305
   58DOPE   C31 7384   5.832   5.467   3.357  0.4373  0.1602  0.4028
   58DOPE   O32 7385   5.783   5.443   3.464  0.0054  0.3663 -0.0994
   58DOPE   C32 7386   5.975   5.498   3.333 -0.3772  0.2247  1.0039
   58DOPE   H2X 7387   5.997   5.452   3.234  0.2480  0.1010  1.1939
   58DOPE   H2Y 7388   5.977   5.609   3.341  0.1714  0.3436 -0.4701
   58DOPE   C23 7389   5.472   5.647   3.751  0.0844 -0.9464 -0.8737
   58DOPE   H3R 7390   5.528   5.687   3.838  3.9701 -3.4623 -1.9331
   58DOPE   H3S 7391   5.500   5.539   3.750 -0.2876 -1.0514 -2.5578
   58DOPE   C24 7392   5.320   5.662   3.744  0.8318 -0.5468  0.4753
   58DOPE   H4R 7393   5.298   5.677   3.636  2.8673 -0.0516  0.0868
   58DOPE   H4S 7394   5.286   5.758   3.788 -0.7752 -0.4445 -0.8628
   58DOPE   C25 7395   5.237   5.545   3.785  0.1432 -0.5832 -0.1640
   58DOPE   H5R 7396   5.268   5.452   3.732  1.8361 -1.6239  2.4775
   58DOPE   H5S 7397   5.130   5.564   3.762  0.0754 -0.7482  0.0127
   58DOPE   C26 7398   5.260   5.517   3.938 -0.0637  0.0834  0.2716
   58DOPE   H6R 7399   5.367   5.488   3.942  0.1459  0.8731  0.3960
   58DOPE   H6S 7400   5.195   5.432   3.969 -0.8275  1.3130  2.2183
   58DOPE   C27 7401   5.236   5.647   4.018  0.9797  0.2181  0.2078
   58DOPE   H7R 7402   5.168   5.719   3.967 -0.3984 -1.2861 -0.1704
   58DOPE   H7S 7403   5.331   5.703   4.032  0.0155  1.8513  0.5346
   58DOPE   C28 7404   5.195   5.626   4.172 -0.1025  0.3042 -0.0262
   58DOPE   H8R 7405   5.267   5.553   4.214  0.5529 -0.0351 -1.6716
   58DOPE   H8S 7406   5.107   5.558   4.169  1.3279 -1.6713  0.2525
   58DOPE   C29 7407   5.173   5.747   4.263 -0.3995  0.9475 -0.2807
   58DOPE   H9R 7408   5.172   5.846   4.216  2.2007  0.8331 -0.7050
   58DOPE  C210 7409   5.141   5.742   4.395 -0.2478 -0.6777  0.5211
   58DOPE  H10R 7410   5.138   5.834   4.454  0.4064 -0.7463  0.6658
   58DOPE  C211 7411   5.119   5.629   4.486  0.3921  0.8129  0.1982
   58DOPE  H11R 7412   5.155   5.536   4.436 -0.7433  0.4862 -0.0466
   58DOPE  H11S 7413   5.011   5.624   4.512 -0.0482 -3.8025 -1.4756
   58DOPE  C212 7414   5.188   5.628   4.621  0.5762 -0.4705  0.4036
   58DOPE  H12R 7415   5.297   5.609   4.608  0.5336  0.1318 -1.0551
   58DOPE  H12S 7416   5.156   5.540   4.681 -1.6379 -1.9591 -2.6682
   58DOPE  C213 7417   5.169   5.756   4.699 -0.6019  0.1531  0.0168
   58DOPE  H13R 7418   5.062   5.777   4.719 -0.3273 -0.2737  2.1431
   58DOPE  H13S 7419   5.219   5.847   4.659  1.5726 -0.0573  2.0267
   58DOPE  C214 7420   5.258   5.747   4.829 -0.1429  0.2580 -0.4960
   58DOPE  H14R 7421   5.363   5.739   4.792  1.0090  3.1208  1.7487
   58DOPE  H14S 7422   5.215   5.667   4.893 -0.7209  0.9432 -0.0116
   58DOPE  C215 7423   5.256   5.876   4.915  0.6935  0.2959 -0.1215
   58DOPE  H15R 7424   5.298   5.846   5.013  1.5127  1.6398 -0.0436
   58DOPE  H15S 7425   5.151   5.906   4.935  0.1333 -0.4767 -1.7104
   58DOPE  C216 7426   5.324   5.990   4.847  0.6645  0.2931 -0.1176
   58DOPE  H16R 7427   5.262   6.024   4.761  0.4495 -1.7930 -0.8342
   58DOPE  H16S 7428   5.421   5.958   4.804  0.8314  0.7563 -0.0898
   58DOPE  C217 7429   5.351   6.116   4.929 -0.1750 -0.6028  0.2530
   58DOPE  H17R 7430   5.404   6.079   5.019 -0.7613  1.3008  1.4496
   58DOPE  H17S 7431   5.252   6.143   4.972  0.5543  0.5192  1.2959
   58DOPE  C218 7432   5.429   6.226   4.860  0.2374 -0.3916 -0.1796
   58DOPE  H18R 7433   5.358   6.291   4.805  0.0126 -1.1718 -0.8434
   58DOPE  H18S 7434   5.500   6.192   4.781 -0.0860  0.5341 -0.8848
   58DOPE  H18T 7435   5.490   6.289   4.928  0.5044  0.7275 -1.4075
   58DOPE   C33 7436   6.075   5.445   3.431 -0.5930  0.2108 -0.5388
   58DOPE   H3X 7437   6.076   5.334   3.428 -0.7443  0.2320 -1.6788
   58DOPE   H3Y 7438   6.058   5.471   3.538  0.5056  2.9107 -0.9407
   58DOPE   C34 7439   6.216   5.488   3.394 -0.8250  0.4936 -0.3206
   58DOPE   H4X 7440   6.240   5.431   3.301  0.1606  0.7970 -0.2686
   58DOPE   H4Y 7441   6.209   5.595   3.366  2.3542  0.7712 -0.4532
   58DOPE   C35 7442   6.326   5.478   3.502  0.8952  0.2379 -0.8872
   58DOPE   H5X 7443   6.424   5.454   3.457  2.2178  1.3581  1.2274
   58DOPE   H5Y 7444   6.281   5.404   3.572  0.6649  0.5336 -0.7212
   58DOPE   C36 7445   6.347   5.611   3.576  0.2566  0.1965  0.4013
   58DOPE   H6X 7446   6.269   5.632   3.652 -1.5140 -1.4451 -0.8417
   58DOPE   H6Y 7447   6.332   5.684   3.494 -2.4861  0.4022  0.9775
   58DOPE   C37 7448   6.486   5.611   3.654 -0.2577 -0.3644  0.1073
   58DOPE   H7X 7449   6.482   5.540   3.740  2.0362 -2.0766 -1.0815
   58DOPE   H7Y 7450   6.556   5.563   3.582 -1.3902 -1.1764 -0.4897
   58DOPE   C38 7451   6.527   5.751   3.706  0.1533  0.2752 -0.1299
   58DOPE   H8X 7452   6.447   5.783   3.775  0.7155  3.1489 -0.6917
   58DOPE   H8Y 7453   6.522   5.812   3.613 -2.5860 -3.4219 -2.7124
   58DOPE   C39 7454   6.671   5.748   3.758  0.3213  0.2239  0.0949
   58DOPE   H9X 7455   6.734   5.670   3.714 -1.6901 -1.3497 -0.1355
   58DOPE  C310 7456   6.709   5.804   3.873 -0.1284 -0.0211 -0.1383
   58DOPE  H10X 7457   6.818   5.792   3.886  0.0602  1.1920 -0.4706
   58DOPE  C311 7458   6.628   5.887   3.968  0.5159  0.5219  0.1040
   58DOPE  H11X 7459   6.690   5.975   3.996 -0.7302  1.1061  1.1340
   58DOPE  H11Y 7460   6.532   5.915   3.919  0.3021  0.2400  0.3600
   58DOPE  C312 7461   6.609   5.814   4.102 -0.1146  0.5758 -0.4178
   58DOPE  H12X 7462   6.559   5.715   4.095  0.5077  0.1093  1.0899
   58DOPE  H12Y 7463   6.550   5.882   4.166 -0.5826 -0.8683  0.7611
   58DOPE  C313 7464   6.741   5.790   4.172 -0.3335  0.1690  0.8547
   58DOPE  H13X 7465   6.777   5.694   4.129  0.3681  0.4371  0.8304
   58DOPE  H13Y 7466   6.811   5.872   4.144 -0.6274  0.0851 -0.1492
   58DOPE  C314 7467   6.730   5.777   4.322  0.0865  1.1299  0.3396
   58DOPE  H14X 7468   6.625   5.803   4.349 -1.0424 -0.6200 -1.9979
   58DOPE  H14Y 7469   6.795   5.859   4.360  1.5561  0.3356 -0.3752
   58DOPE  C315 7470   6.767   5.638   4.381  0.4364  0.0329 -0.2671
   58DOPE  H15X 7471   6.781   5.652   4.490  0.8928 -1.9444 -0.0385
   58DOPE  H15Y 7472   6.864   5.612   4.333  1.4551  0.7796  1.3023
   58DOPE  C316 7473   6.660   5.536   4.345  0.5747 -0.0309 -0.0728
   58DOPE  H16X 7474   6.608   5.564   4.251  1.4643 -1.0301 -0.8939
   58DOPE  H16Y 7475   6.575   5.557   4.413 -0.3568 -0.6103 -1.0240
   58DOPE  C317 7476   6.704   5.389   4.345 -0.0662  0.2564  0.7199
   58DOPE  H17X 7477   6.799   5.377   4.289 -0.8737  0.5475 -0.7750
   58DOPE  H17Y 7478   6.721   5.356   4.449  0.8304  0.0427  0.5095
   58DOPE  C318 7479   6.604   5.290   4.273  0.6153  0.4644  0.5134
   58DOPE  H18X 7480   6.595   5.326   4.168  1.7070  1.2800  0.6828
   58DOPE  H18Y 7481   6.644   5.186   4.278  0.2389  0.3472  1.2942
   58DOPE  H18Z 7482   6.502   5.293   4.318  0.7882  1.0644  0.8743
   59DOPE     N 7483   7.130   0.729   2.782  0.1538  0.2840 -0.2117
   59DOPE   HN1 7484   7.078   0.673   2.711  0.4510  0.4767 -0.5848
   59DOPE   HN2 7485   7.177   0.808   2.733  1.0849 -0.0601  0.1098
   59DOPE   HN3 7486   7.203   0.656   2.798 -0.3629 -0.0392  0.7141
   59DOPE   C12 7487   7.062   0.762   2.907  0.2380 -0.5078 -1.1352
   59DOPE  H12A 7488   6.989   0.845   2.892 -1.1123 -1.3295  0.4814
   59DOPE  H12B 7489   7.130   0.803   2.984  1.7199 -0.1862 -2.5496
   59DOPE   C11 7490   6.981   0.639   2.962 -0.3396 -1.0236 -0.0107
   59DOPE  H11A 7491   6.922   0.674   3.049 -0.2351  1.7371 -0.9588
   59DOPE  H11B 7492   7.050   0.562   3.003  0.2913 -0.2942  0.3257
   59DOPE     P 7493   6.752   0.622   2.824  0.1947 -0.1429  0.0435
   59DOPE   O13 7494   6.686   0.510   2.753 -0.5512 -0.9775  0.0128
   59DOPE   O14 7495   6.764   0.752   2.757  0.0820  0.3449  0.2522
   59DOPE   O11 7496   6.692   0.641   2.967  0.9276  0.1337  0.2740
   59DOPE   O12 7497   6.894   0.581   2.856 -0.1947  0.0916 -0.4328
   59DOPE    C1 7498   6.638   0.530   3.035  0.6339  0.2710  0.0208
   59DOPE    HA 7499   6.719   0.476   3.089 -0.0372  0.0137  0.7934
   59DOPE    HB 7500   6.580   0.460   2.971 -0.5331  2.1684 -1.0966
   59DOPE    C2 7501   6.526   0.560   3.135 -0.0906  0.1292 -0.5734
   59DOPE    HS 7502   6.431   0.590   3.086 -0.6270 -1.4336 -0.5429
   59DOPE   O21 7503   6.575   0.668   3.212 -0.5679  0.0255  0.0140
   59DOPE   C21 7504   6.499   0.710   3.310  0.0621  0.8349 -0.7355
   59DOPE   O22 7505   6.383   0.678   3.329  0.5393  0.2835 -0.7487
   59DOPE   C22 7506   6.580   0.799   3.413 -0.5255 -0.1510  0.5125
   59DOPE   H2R 7507   6.554   0.905   3.393 -2.9632 -0.6576  0.6754
   59DOPE   H2S 7508   6.690   0.787   3.398 -0.3016  0.0816  1.7837
   59DOPE    C3 7509   6.503   0.433   3.226  0.4243 -0.3330  0.2989
   59DOPE    HX 7510   6.483   0.352   3.153  0.7273  0.1920 -0.3826
   59DOPE    HY 7511   6.411   0.450   3.286  0.7573  2.0629  0.2607
   59DOPE   O31 7512   6.615   0.391   3.304  0.3734  0.0586  0.1354
   59DOPE   C31 7513   6.583   0.289   3.385 -0.3536  0.0266  0.2341
   59DOPE   O32 7514   6.471   0.246   3.409 -0.5816  0.1089 -0.0962
   59DOPE   C32 7515   6.708   0.223   3.449 -0.0210 -0.5169 -0.3567
   59DOPE   H2X 7516   6.729   0.129   3.395  2.9521 -0.5692  0.7050
   59DOPE   H2Y 7517   6.798   0.287   3.442  1.0545 -2.1920 -2.9422
   59DOPE   C23 7518   6.538   0.771   3.562 -0.2689  0.1608 -0.0590
   59DOPE   H3R 7519   6.428   0.756   3.555 -0.1943  0.2977 -1.8035
   59DOPE   H3S 7520   6.561   0.859   3.625 -1.5782  1.7400 -1.6926
   59DOPE   C24 7521   6.625   0.658   3.633  0.4800  0.3412  0.0140
   59DOPE   H4R 7522   6.731   0.687   3.644  0.2770  0.1243  3.5605
   59DOPE   H4S 7523   6.618   0.563   3.575  2.3295 -0.2178  0.6517
   59DOPE   C25 7524   6.572   0.614   3.774 -0.6466  0.2155  0.5708
   59DOPE   H5R 7525   6.464   0.590   3.778 -0.9164  0.3453 -2.7946
   59DOPE   H5S 7526   6.565   0.716   3.816  0.0097  0.2461  0.6146
   59DOPE   C26 7527   6.663   0.531   3.856 -0.2640  0.2910 -0.2827
   59DOPE   H6R 7528   6.765   0.541   3.814 -0.2000 -1.2151 -0.5488
   59DOPE   H6S 7529   6.633   0.424   3.843  1.2400 -0.2519  0.5107
   59DOPE   C27 7530   6.646   0.569   4.006  0.0749  0.0080  0.1183
   59DOPE   H7R 7531   6.544   0.538   4.037  0.1440 -1.3759 -0.9700
   59DOPE   H7S 7532   6.644   0.680   4.010 -2.7225  0.0721 -0.7505
   59DOPE   C28 7533   6.746   0.510   4.106 -1.0157 -0.7447 -0.2225
   59DOPE   H8R 7534   6.743   0.557   4.206  2.9442  0.6406 -0.5741
   59DOPE   H8S 7535   6.850   0.537   4.076 -1.5006 -0.5535 -1.8538
   59DOPE   C29 7536   6.741   0.361   4.120  0.5164 -0.2625 -0.6377
   59DOPE   H9R 7537   6.789   0.297   4.045  0.2543 -0.1285 -0.9238
   59DOPE  C210 7538   6.712   0.303   4.236 -0.0652 -0.4869 -0.5672
   59DOPE  H10R 7539   6.714   0.193   4.240 -0.0111 -0.4839 -0.5175
   59DOPE  C211 7540   6.652   0.377   4.364 -0.4375  0.2194 -0.3389
   59DOPE  H11R 7541   6.599   0.304   4.429  0.2807  0.2210  0.2637
   59DOPE  H11S 7542   6.579   0.456   4.338 -1.9440 -0.9832  0.0690
   59DOPE  C212 7543   6.775   0.427   4.447 -0.0788  0.3609  0.5521
   59DOPE  H12R 7544   6.841   0.481   4.376 -1.2254  0.2188 -0.6627
   59DOPE  H12S 7545   6.828   0.335   4.481 -1.3565 -0.0805  1.4596
   59DOPE  C213 7546   6.723   0.518   4.562  0.1452  0.0037  1.0559
   59DOPE  H13R 7547   6.637   0.468   4.612  0.3131  0.4169  1.7694
   59DOPE  H13S 7548   6.681   0.610   4.517 -0.7587 -0.9899 -0.2471
   59DOPE  C214 7549   6.819   0.553   4.672 -0.5459  0.5791 -0.0861
   59DOPE  H14R 7550   6.897   0.625   4.641 -0.0508 -0.5573 -1.5879
   59DOPE  H14S 7551   6.865   0.461   4.713  0.3116  0.4265 -1.3213
   59DOPE  C215 7552   6.746   0.624   4.787 -0.1578  0.4112 -0.0943
   59DOPE  H15R 7553   6.659   0.564   4.821 -0.9342  1.3518 -0.3918
   59DOPE  H15S 7554   6.712   0.725   4.758  3.0913  1.7118  0.2216
   59DOPE  C216 7555   6.835   0.629   4.902  0.6249  0.0278 -0.3627
   59DOPE  H16R 7556   6.916   0.701   4.879  1.2476 -0.6369 -0.2926
   59DOPE  H16S 7557   6.885   0.531   4.918  0.6186 -0.1532 -1.3952
   59DOPE  C217 7558   6.759   0.688   5.021 -0.3633  0.3881 -0.2380
   59DOPE  H17R 7559   6.660   0.639   5.037 -0.2026  0.2254  0.2736
   59DOPE  H17S 7560   6.752   0.799   5.016  3.7616  0.7493 -1.1831
   59DOPE  C218 7561   6.850   0.668   5.143  0.3260  0.0126  0.4967
   59DOPE  H18R 7562   6.821   0.727   5.232  0.6406 -0.2155  0.7537
   59DOPE  H18S 7563   6.950   0.707   5.115  0.5720 -0.9701 -0.0399
   59DOPE  H18T 7564   6.860   0.560   5.168 -1.0231 -0.2685 -0.0681
   59DOPE   C33 7565   6.679   0.179   3.597  0.3946 -1.0014 -1.0080
   59DOPE   H3X 7566   6.606   0.096   3.596  1.0775 -1.6317 -0.1769
   59DOPE   H3Y 7567   6.638   0.269   3.648  2.4024  0.6073 -2.0664
   59DOPE   C34 7568   6.807   0.122   3.659  0.2111 -0.7805  0.0394
   59DOPE   H4X 7569   6.891   0.194   3.664  0.6296 -1.3044  0.9140
   59DOPE   H4Y 7570   6.791   0.099   3.766 -0.3998  1.2161  0.4058
   59DOPE   C35 7571   6.851  -0.011   3.599 -0.8526 -0.4778 -0.1189
   59DOPE   H5X 7572   6.891   0.014   3.498 -1.1847  0.5067 -0.0110
   59DOPE   H5Y 7573   6.766  -0.083   3.592 -1.7333  0.5166  0.1710
   59DOPE   C36 7574   6.960  -0.079   3.690 -0.0621  0.1150  0.5919
   59DOPE   H6X 7575   6.941  -0.184   3.659 -1.4449 -0.1612  2.1853
   59DOPE   H6Y 7576   6.938  -0.070   3.799  0.0507 -0.5561  0.6755
   59DOPE   C37 7577   7.109  -0.036   3.663  0.1696  0.2520 -0.3853
   59DOPE   H7X 7578   7.138  -0.049   3.557 -0.4433 -2.2652 -0.2999
   59DOPE   H7Y 7579   7.121   0.069   3.697  0.7634 -0.4671  1.8156
   59DOPE   C38 7580   7.210  -0.117   3.741 -0.5657  0.0636  0.0545
   59DOPE   H8X 7581   7.175  -0.119   3.846  1.6171  2.8646  0.9364
   59DOPE   H8Y 7582   7.310  -0.069   3.745 -0.5931  0.0457  1.3357
   59DOPE   C39 7583   7.217  -0.267   3.691  0.3868  0.4089 -0.0821
   59DOPE   H9X 7584   7.220  -0.269   3.581 -0.3978  1.7272 -0.1571
   59DOPE  C310 7585   7.230  -0.383   3.760 -0.3635  0.3131 -0.0123
   59DOPE  H10X 7586   7.228  -0.474   3.698  3.9039 -0.3127  0.4434
   59DOPE  C311 7587   7.222  -0.406   3.907  0.3951 -0.1771  0.1725
   59DOPE  H11X 7588   7.153  -0.332   3.953 -1.4920 -1.6026 -0.2532
   59DOPE  H11Y 7589   7.179  -0.506   3.927  0.9509  0.1098  3.2714
   59DOPE  C312 7590   7.362  -0.424   3.966 -0.5770 -0.0467 -0.0783
   59DOPE  H12X 7591   7.427  -0.345   3.924 -0.2624 -0.2844 -0.0465
   59DOPE  H12Y 7592   7.399  -0.522   3.930 -3.1898 -0.2641 -2.5693
   59DOPE  C313 7593   7.374  -0.416   4.121  0.2780  0.0406 -0.9431
   59DOPE  H13X 7594   7.342  -0.313   4.150 -0.2497 -0.9258  2.3158
   59DOPE  H13Y 7595   7.302  -0.487   4.167  0.8400  2.0022  3.5226
   59DOPE  C314 7596   7.519  -0.434   4.170  0.4301 -0.2254  0.1560
   59DOPE  H14X 7597   7.575  -0.383   4.088  1.4771  2.4591  2.3689
   59DOPE  H14Y 7598   7.535  -0.544   4.165 -1.0807 -0.4011 -1.4009
   59DOPE  C315 7599   7.552  -0.380   4.314  0.0829  0.0876  0.1293
   59DOPE  H15X 7600   7.467  -0.419   4.374 -1.5338  2.4219 -0.5073
   59DOPE  H15Y 7601   7.542  -0.269   4.314  0.6518  0.1630  1.9330
   59DOPE  C316 7602   7.684  -0.427   4.368  0.4452 -0.2713 -0.1711
   59DOPE  H16X 7603   7.768  -0.407   4.298 -0.4083 -0.4203 -1.2593
   59DOPE  H16Y 7604   7.690  -0.535   4.391  0.8678 -0.3061 -0.4325
   59DOPE  C317 7605   7.714  -0.345   4.496 -0.7112  0.4820  0.4394
   59DOPE  H17X 7606   7.697  -0.239   4.467 -1.3834  0.1294 -0.5227
   59DOPE  H17Y 7607   7.646  -0.376   4.578 -1.1062  0.7433  0.2134
   59DOPE  C318 7608   7.865  -0.360   4.541  0.7433  0.3901  0.3994
   59DOPE  H18X 7609   7.869  -0.316   4.644 -0.1477 -2.4432  1.7372
   59DOPE  H18Y 7610   7.888  -0.468   4.550 -3.6284 -0.6330  1.3065
   59DOPE  H18Z 7611   7.920  -0.299   4.466  1.8236 -1.1165 -0.0791
   60DOPE     N 7612   6.184   6.903   2.869 -0.2518 -0.6979 -0.0496
   60DOPE   HN1 7613   6.270   6.863   2.913 -1.3785 -1.4028  1.6297
   60DOPE   HN2 7614   6.099   6.844   2.881 -1.3800  0.5607 -1.5466
   60DOPE   HN3 7615   6.200   6.927   2.769  0.0410  0.2202  0.2085
   60DOPE   C12 7616   6.171   7.021   2.966  0.3364 -0.8184 -0.0197
   60DOPE  H12A 7617   6.117   7.106   2.919  1.6279  1.0052  1.5994
   60DOPE  H12B 7618   6.275   7.058   2.976 -0.0873  1.1773 -2.1438
   60DOPE   C11 7619   6.117   6.983   3.110  0.2183  0.1795  0.6024
   60DOPE  H11A 7620   6.148   7.069   3.173  1.8639 -0.2717  0.4630
   60DOPE  H11B 7621   6.173   6.897   3.154  1.4936  0.3549 -0.6034
   60DOPE     P 7622   5.924   6.820   3.083 -0.0917  0.6490 -0.3049
   60DOPE   O13 7623   5.965   6.781   2.941 -0.6419 -0.3605  0.4018
   60DOPE   O14 7624   5.779   6.805   3.109  0.4720  0.0008 -0.7868
   60DOPE   O11 7625   6.013   6.726   3.181  0.0383 -0.1797 -0.3554
   60DOPE   O12 7626   5.971   6.963   3.116 -0.2269 -0.1147 -0.3580
   60DOPE    C1 7627   6.000   6.760   3.327 -0.8445  0.2615  0.5759
   60DOPE    HA 7628   5.999   6.870   3.341  0.2738  0.5434 -1.2764
   60DOPE    HB 7629   6.091   6.725   3.380  0.0908 -1.3572 -1.9081
   60DOPE    C2 7630   5.878   6.688   3.389  0.1334 -0.6317  0.4642
   60DOPE    HS 7631   5.797   6.739   3.333  1.7007  0.8948 -0.5060
   60DOPE   O21 7632   5.867   6.718   3.531  0.8504  0.2176  0.0740
   60DOPE   C21 7633   5.811   6.839   3.556 -0.5184  0.2217  0.2932
   60DOPE   O22 7634   5.765   6.916   3.472  0.5214  0.5587 -0.2865
   60DOPE   C22 7635   5.791   6.842   3.708 -0.4931  0.0563 -0.4379
   60DOPE   H2R 7636   5.884   6.880   3.756 -0.9487  0.5881  0.0415
   60DOPE   H2S 7637   5.752   6.751   3.758  0.1104  0.3332  0.5655
   60DOPE    C3 7638   5.877   6.540   3.359  0.7595 -0.7190  0.3648
   60DOPE    HX 7639   5.978   6.494   3.346  0.1694 -1.5786 -1.5383
   60DOPE    HY 7640   5.823   6.534   3.262 -0.0625  1.5481  0.6295
   60DOPE   O31 7641   5.813   6.472   3.468 -0.3681 -0.2547 -0.2817
   60DOPE   C31 7642   5.682   6.479   3.465  0.3517  0.1553  0.0634
   60DOPE   O32 7643   5.610   6.557   3.401 -0.1166  0.2157 -0.4701
   60DOPE   C32 7644   5.625   6.366   3.546  0.0484 -0.3519  0.6364
   60DOPE   H2X 7645   5.612   6.291   3.465  3.7918  0.1542 -0.6282
   60DOPE   H2Y 7646   5.706   6.323   3.609 -0.9949 -2.8134  0.4223
   60DOPE   C23 7647   5.690   6.953   3.744 -0.3574  0.6966  0.1422
   60DOPE   H3R 7648   5.599   6.920   3.689  1.6813  0.7551 -3.6290
   60DOPE   H3S 7649   5.705   7.055   3.703  0.8902 -0.1478 -1.6404
   60DOPE   C24 7650   5.672   6.960   3.898  0.3252  0.5977 -0.2807
   60DOPE   H4R 7651   5.634   6.864   3.939  2.2000  0.8567  2.2267
   60DOPE   H4S 7652   5.605   7.045   3.922  1.2462  1.0663  0.6796
   60DOPE   C25 7653   5.800   6.992   3.980  0.6361 -0.5043  0.0200
   60DOPE   H5R 7654   5.826   7.099   3.963 -0.4096  0.1603  2.2581
   60DOPE   H5S 7655   5.891   6.935   3.948  0.9672 -0.9437  1.6429
   60DOPE   C26 7656   5.784   6.978   4.137  0.0758  0.6671 -0.0924
   60DOPE   H6R 7657   5.777   6.870   4.160  1.0927  0.8689  1.2608
   60DOPE   H6S 7658   5.691   7.029   4.171  0.1024 -0.1104  1.1915
   60DOPE   C27 7659   5.900   7.042   4.217  0.6404  1.3447 -0.4290
   60DOPE   H7R 7660   5.936   7.144   4.190 -0.6680  1.8014 -0.4941
   60DOPE   H7S 7661   5.990   6.977   4.208 -0.0920  0.0965  0.8881
   60DOPE   C28 7662   5.865   7.063   4.368 -0.0258  0.2297  0.3820
   60DOPE   H8R 7663   5.773   7.125   4.362 -0.2856 -0.1676  0.2160
   60DOPE   H8S 7664   5.944   7.121   4.420 -1.4425  1.6496  1.0337
   60DOPE   C29 7665   5.834   6.937   4.442 -0.6205  0.8360 -0.3877
   60DOPE   H9R 7666   5.761   6.871   4.392  0.0139 -0.7797  0.7257
   60DOPE  C210 7667   5.881   6.896   4.566  0.0250 -0.3603  0.4687
   60DOPE  H10R 7668   5.839   6.810   4.620 -0.0024 -0.6542 -0.0134
   60DOPE  C211 7669   5.976   6.971   4.646  0.2478  0.2800  0.2632
   60DOPE  H11R 7670   5.953   7.079   4.633 -1.6916 -0.0711  0.4442
   60DOPE  H11S 7671   6.081   6.950   4.617 -0.5765 -0.3735 -2.6683
   60DOPE  C212 7672   5.958   6.941   4.798 -0.0524  0.8164  0.5374
   60DOPE  H12R 7673   5.990   6.837   4.821 -0.2371  0.4684 -0.7126
   60DOPE  H12S 7674   5.851   6.964   4.820  0.2394  1.2374  1.5720
   60DOPE  C213 7675   6.036   7.038   4.881 -0.3305 -0.2273  0.3235
   60DOPE  H13R 7676   6.026   7.144   4.847 -2.6934 -0.2054  0.8887
   60DOPE  H13S 7677   6.145   7.018   4.881 -0.5827 -1.7601 -0.4562
   60DOPE  C214 7678   5.988   7.045   5.027  0.1071  0.5499 -0.2334
   60DOPE  H14R 7679   5.987   6.942   5.068  1.9465 -0.3156 -2.1930
   60DOPE  H14S 7680   5.887   7.090   5.017  0.5605  1.1433 -3.1929
   60DOPE  C215 7681   6.084   7.126   5.106  0.5635 -0.4969  0.5051
   60DOPE  H15R 7682   6.089   7.232   5.071  2.4092  0.0203  2.1468
   60DOPE  H15S 7683   6.189   7.096   5.085  0.7488  0.3289  0.1691
   60DOPE  C216 7684   6.057   7.109   5.257 -0.3433  0.0455 -0.2781
   60DOPE  H16R 7685   6.057   7.002   5.286  1.3736  0.3732  1.1264
   60DOPE  H16S 7686   5.959   7.154   5.284 -0.0944  1.0044 -0.8962
   60DOPE  C217 7687   6.180   7.159   5.343 -0.1331 -0.0334  0.0471
   60DOPE  H17R 7688   6.209   7.258   5.302 -1.7738  0.1058 -0.8612
   60DOPE  H17S 7689   6.261   7.085   5.328 -1.4660 -1.6337  0.4042
   60DOPE  C218 7690   6.150   7.156   5.488 -0.5883 -0.1900 -0.8067
   60DOPE  H18R 7691   6.092   7.067   5.522 -0.2371 -0.4156 -0.8011
   60DOPE  H18S 7692   6.079   7.238   5.513  1.1743  0.7139  1.6253
   60DOPE  H18T 7693   6.239   7.159   5.554 -1.1708  0.1852 -0.0179
   60DOPE   C33 7694   5.500   6.415   3.633  0.3956  0.3484 -0.1261
   60DOPE   H3X 7695   5.457   6.320   3.673  1.6147  0.5401  1.7920
   60DOPE   H3Y 7696   5.410   6.468   3.596 -0.1949 -1.0920 -0.8422
   60DOPE   C34 7697   5.538   6.505   3.753 -0.5219 -0.7609 -0.1094
   60DOPE   H4X 7698   5.641   6.480   3.784  1.0627 -0.3505 -4.2991
   60DOPE   H4Y 7699   5.539   6.607   3.709 -1.4859 -0.4223  0.6331
   60DOPE   C35 7700   5.441   6.488   3.873 -0.1818 -0.3138  0.0697
   60DOPE   H5X 7701   5.445   6.383   3.908 -2.5555  0.0377  1.5997
   60DOPE   H5Y 7702   5.340   6.513   3.834  0.5309  0.2378 -1.5177
   60DOPE   C36 7703   5.480   6.576   3.997  1.1083 -0.4004 -0.9321
   60DOPE   H6X 7704   5.459   6.683   3.974  1.5965  0.1660  1.0350
   60DOPE   H6Y 7705   5.586   6.566   4.029 -0.0781 -3.6347  2.8173
   60DOPE   C37 7706   5.374   6.555   4.119  0.5367  0.2319  0.6298
   60DOPE   H7X 7707   5.377   6.649   4.179  0.6092 -0.1451  1.2278
   60DOPE   H7Y 7708   5.276   6.544   4.068  0.1677  1.3720  1.0565
   60DOPE   C38 7709   5.409   6.429   4.201 -0.4663 -0.8376  0.1231
   60DOPE   H8X 7710   5.510   6.437   4.247 -0.2113  2.0457 -0.7822
   60DOPE   H8Y 7711   5.418   6.347   4.126 -3.3306 -0.0139 -1.2444
   60DOPE   C39 7712   5.297   6.393   4.295 -0.7404 -0.0968  0.1056
   60DOPE   H9X 7713   5.195   6.426   4.272 -0.7993  0.3657  0.9796
   60DOPE  C310 7714   5.310   6.313   4.402  0.1150 -0.3725 -0.1334
   60DOPE  H10X 7715   5.224   6.295   4.468  0.8090  1.1440  1.2943
   60DOPE  C311 7716   5.443   6.262   4.458 -0.2189  0.0916  0.4973
   60DOPE  H11X 7717   5.526   6.305   4.398  1.2909 -0.8608  1.8468
   60DOPE  H11Y 7718   5.453   6.295   4.564  1.2437 -1.0023  0.7251
   60DOPE  C312 7719   5.454   6.108   4.465 -0.0541 -0.2883 -0.0193
   60DOPE  H12X 7720   5.440   6.067   4.363  0.6036  0.6545 -0.5014
   60DOPE  H12Y 7721   5.367   6.057   4.512 -0.8270 -1.5528 -2.6405
   60DOPE  C313 7722   5.591   6.049   4.511  0.4119  0.3184  0.2682
   60DOPE  H13X 7723   5.623   6.086   4.611  0.3285 -1.2273  0.8911
   60DOPE  H13Y 7724   5.565   5.942   4.523 -0.5483  0.2795 -1.7698
   60DOPE  C314 7725   5.698   6.067   4.398 -0.4628  0.1490 -0.6075
   60DOPE  H14X 7726   5.715   6.174   4.375  0.8772  0.2873  0.8583
   60DOPE  H14Y 7727   5.667   6.010   4.309  0.6204 -0.7502 -0.4286
   60DOPE  C315 7728   5.830   6.003   4.449 -0.0224 -0.2491  0.3250
   60DOPE  H15X 7729   5.894   6.004   4.358  0.3242  0.5679  0.5624
   60DOPE  H15Y 7730   5.812   5.896   4.474  3.4290 -1.2471 -0.8012
   60DOPE  C316 7731   5.910   6.085   4.548  0.5447 -0.3720  0.7963
   60DOPE  H16X 7732   5.843   6.123   4.629 -0.8852  2.8169 -1.6421
   60DOPE  H16Y 7733   5.943   6.178   4.497  2.7169 -1.0040  0.9428
   60DOPE  C317 7734   6.037   6.017   4.601  0.0408  0.1898  0.3920
   60DOPE  H17X 7735   6.107   6.010   4.515 -0.6588  1.0103 -0.2543
   60DOPE  H17Y 7736   6.101   6.084   4.663 -1.2484  0.0503  1.9414
   60DOPE  C318 7737   6.016   5.887   4.678 -0.0386 -0.3627 -1.0324
   60DOPE  H18X 7738   5.958   5.810   4.622  0.2411 -2.0183  0.8377
   60DOPE  H18Y 7739   6.113   5.838   4.698  0.8734  1.5439 -0.6021
   60DOPE  H18Z 7740   5.967   5.904   4.776  0.3594 -3.6282 -0.1633
   6123SM     N 7741   2.475   4.901   6.855  0.1047 -0.3265 -0.1980
   6123SM   C15 7742   2.369   4.870   6.960 -0.0279  0.2583  0.6638
   6123SM  H15A 7743   2.411   4.884   7.058 -0.4189  0.2358  0.8353
   6123SM  H15B 7744   2.323   4.775   6.941 -0.1675  0.7042 -1.5804
   6123SM  H15C 7745   2.291   4.945   6.959 -0.6478 -0.3785  1.1956
   6123SM   C14 7746   2.592   4.807   6.858  0.8771  0.1182 -0.2223
   6123SM  H14A 7747   2.554   4.709   6.832  1.1561 -0.2791  0.8202
   6123SM  H14B 7748   2.619   4.788   6.961 -0.9494 -1.1431  0.0834
   6123SM  H14C 7749   2.680   4.830   6.800 -0.3471  0.8255 -1.8575
   6123SM   C13 7750   2.416   4.878   6.717  0.9567 -0.9622  0.5785
   6123SM  H13A 7751   2.317   4.920   6.700 -0.0387 -3.6847 -0.9815
   6123SM  H13B 7752   2.399   4.773   6.701  0.5203 -0.9068  0.6618
   6123SM  H13C 7753   2.484   4.919   6.644 -0.4150 -0.6991 -0.6061
   6123SM   C12 7754   2.524   5.042   6.872 -0.8255 -0.4483 -0.3976
   6123SM  H12A 7755   2.607   5.064   6.806 -0.8716 -1.0157 -0.6455
   6123SM  H12B 7756   2.558   5.040   6.975  0.0133  0.9344 -0.6205
   6123SM   C11 7757   2.416   5.155   6.878  0.1434 -0.4523  0.6377
   6123SM  H11A 7758   2.334   5.134   6.806  0.8971 -2.8946  0.3919
   6123SM  H11B 7759   2.454   5.248   6.832  0.0354  0.0722  1.5803
   6123SM     P 7760   2.450   5.262   7.105 -0.0272  0.1557  0.2967
   6123SM   O13 7761   2.366   5.364   7.168  0.6636 -0.5044 -0.4783
   6123SM   O14 7762   2.520   5.172   7.201 -0.1882  0.5092  0.0651
   6123SM   O11 7763   2.566   5.324   7.019 -0.1982 -1.1482  0.1077
   6123SM   O12 7764   2.358   5.172   7.008 -0.5901  0.0416  1.0242
   6123SM   C1S 7765   2.702   5.291   6.987 -0.7066  0.0659  0.0325
   6123SM   H1S 7766   2.730   5.187   7.014  2.9933  0.7708 -0.5453
   6123SM   H1T 7767   2.772   5.344   7.055 -1.2849 -0.9653  1.4848
   6123SM    NF 7768   2.883   5.290   6.813  0.3938 -0.2877 -0.0830
   6123SM   HNF 7769   2.959   5.354   6.809 -0.3796  0.6785  0.2299
   6123SM   C2S 7770   2.750   5.343   6.844 -0.1316 -0.1910  0.0410
   6123SM   H2S 7771   2.671   5.302   6.777 -0.3226  0.7286 -0.3140
   6123SM   C3S 7772   2.734   5.495   6.835  0.2387  0.2289 -0.0031
   6123SM   H3S 7773   2.790   5.546   6.916 -0.1367  0.4702  0.1032
   6123SM    O3 7774   2.602   5.536   6.856  0.2661 -0.2554 -0.2203
   6123SM   HO3 7775   2.563   5.475   6.919  1.1006  0.1409  0.6917
   6123SM   C4S 7776   2.774   5.546   6.701 -0.1606  0.3720 -0.0962
   6123SM   H4S 7777   2.701   5.522   6.621 -1.6058  0.7848  1.0450
   6123SM   C5S 7778   2.879   5.624   6.671  0.7574  0.7383  0.2931
   6123SM   H5S 7779   2.951   5.641   6.751  1.9316 -1.2662 -0.2571
   6123SM   C6S 7780   2.895   5.691   6.535  0.3531 -0.4058 -0.1304
   6123SM   H6S 7781   2.908   5.801   6.534 -0.1585 -0.2335  2.7214
   6123SM   H6T 7782   2.810   5.666   6.468  0.0798  0.0881  0.0310
   6123SM   C7S 7783   3.020   5.623   6.473  0.1742  0.6473 -0.3652
   6123SM   H7S 7784   3.009   5.512   6.471  0.4303  0.6257 -1.5470
   6123SM   H7T 7785   3.104   5.632   6.545 -1.1577 -2.2388  1.7601
   6123SM   C8S 7786   3.047   5.679   6.339  0.0592 -0.2706  0.1697
   6123SM   H8S 7787   3.148   5.651   6.300 -0.9268 -1.2374 -1.8590
   6123SM   H8T 7788   3.045   5.790   6.337  2.0384 -0.1931 -0.0683
   6123SM   C9S 7789   2.943   5.632   6.234 -0.0640  0.4140 -0.2247
   6123SM   H9S 7790   2.857   5.572   6.272  0.8966 -0.8562 -0.0157
   6123SM   H9T 7791   2.991   5.558   6.167 -2.9039 -1.0645 -0.7806
   6123SM  C10S 7792   2.906   5.756   6.147 -0.3498 -0.1198  0.5225
   6123SM  H10S 7793   2.993   5.825   6.144  1.0183 -1.6756  2.0217
   6123SM  H10T 7794   2.816   5.808   6.187 -0.3048  1.5845 -1.4501
   6123SM  C11S 7795   2.888   5.716   5.995 -0.3815  0.1956 -0.1900
   6123SM  H11S 7796   2.817   5.631   5.990  1.1821 -1.2501  0.8431
   6123SM  H11T 7797   2.989   5.675   5.972  0.0871  0.7910  0.7522
   6123SM  C12S 7798   2.866   5.837   5.901 -0.2514  0.2014 -0.2187
   6123SM  H12S 7799   2.953   5.902   5.925  2.8782 -3.6030 -0.1975
   6123SM  H12T 7800   2.771   5.882   5.937  0.4693 -0.1076  2.3058
   6123SM  C13S 7801   2.848   5.805   5.757  0.1509  0.2031 -0.1951
   6123SM  H13S 7802   2.780   5.726   5.721  1.6254 -0.0835 -2.6115
   6123SM  H13T 7803   2.950   5.778   5.720  0.9478  2.6089  0.0099
   6123SM  C14S 7804   2.792   5.922   5.669 -0.7270  0.1647 -0.4221
   6123SM  H14S 7805   2.696   5.964   5.705  0.3184  0.9557  1.6414
   6123SM  H14T 7806   2.777   5.870   5.572 -0.4091  1.8063 -1.4099
   6123SM  C15S 7807   2.899   6.027   5.648 -0.4462  0.5051 -0.2001
   6123SM  H15S 7808   3.001   5.985   5.644 -0.2322  1.0915 -1.4906
   6123SM  H15T 7809   2.898   6.105   5.727  0.3603 -0.1879  0.5042
   6123SM  C16S 7810   2.872   6.097   5.514  0.4738  0.1723 -0.2471
   6123SM  H16S 7811   2.864   6.019   5.435  0.5755  0.3193 -0.4043
   6123SM  H16T 7812   2.964   6.157   5.495  0.0302 -0.1370 -4.4571
   6123SM  C17S 7813   2.753   6.192   5.510 -0.6602  0.2395  0.5131
   6123SM  H17S 7814   2.747   6.258   5.599  1.1410 -0.9802  1.5830
   6123SM  H17T 7815   2.664   6.126   5.523 -0.0460 -0.8072 -0.4317
   6123SM  C18S 7816   2.746   6.263   5.375 -0.4782  0.7510 -0.2792
   6123SM  H18S 7817   2.646   6.309   5.355 -1.3918 -1.1052 -0.1827
   6123SM  H18T 7818   2.751   6.182   5.299 -0.1120 -0.4939  1.0287
   6123SM  H18U 7819   2.834   6.326   5.350 -1.4165  1.5402 -1.7758
   6123SM   C1F 7820   2.907   5.157   6.793  0.0043 -0.4151 -0.3634
   6123SM    OF 7821   2.808   5.080   6.800 -0.1578  0.4488 -1.0905
   6123SM   C2F 7822   3.054   5.110   6.770  0.5172 -0.7737 -0.1555
   6123SM   H2F 7823   3.073   5.030   6.844  0.6738  0.6325  1.3905
   6123SM   H2G 7824   3.124   5.190   6.802 -2.0478  1.1418  1.0259
   6123SM   C3F 7825   3.087   5.076   6.622 -0.6299 -0.1732 -0.0003
   6123SM   H3F 7826   3.025   4.991   6.586 -0.0273 -0.7437  0.2920
   6123SM   H3G 7827   3.197   5.059   6.626 -0.6797 -0.4948  0.0682
   6123SM   C4F 7828   3.076   5.196   6.522  0.3330  1.2598  0.7389
   6123SM   H4F 7829   3.117   5.288   6.568  0.8912  0.9597  0.8545
   6123SM   H4G 7830   2.967   5.198   6.502  0.2233 -2.6872  0.0410
   6123SM   C5F 7831   3.146   5.162   6.392 -0.7137 -0.0077 -0.4791
   6123SM   H5F 7832   3.093   5.077   6.345  0.2910 -1.5276  0.9945
   6123SM   H5G 7833   3.250   5.128   6.412 -0.2691  0.3105 -2.1330
   6123SM   C6F 7834   3.158   5.289   6.305 -0.0699  0.0113 -0.5401
   6123SM   H6F 7835   3.186   5.379   6.363  0.4279  0.9457 -2.1444
   6123SM   H6G 7836   3.054   5.307   6.269 -1.0686  1.4585  2.7420
   6123SM   C7F 7837   3.252   5.285   6.185  0.3786 -0.3794 -0.5176
   6123SM   H7F 7838   3.206   5.224   6.105 -2.2056  1.3041 -0.4352
   6123SM   H7G 7839   3.350   5.245   6.220 -0.8284 -3.1896 -0.1084
   6123SM   C8F 7840   3.289   5.416   6.126 -0.5276  0.1438  0.1128
   6123SM   H8F 7841   3.330   5.475   6.210  2.6486 -0.7070 -0.7109
   6123SM   H8G 7842   3.210   5.477   6.077 -1.7762 -1.0219  0.6149
   6123SM   C9F 7843   3.412   5.403   6.031 -0.1150  0.5024  0.1710
   6123SM   H9F 7844   3.391   5.332   5.949 -2.0387  0.1138  0.9415
   6123SM   H9G 7845   3.501   5.368   6.087 -0.3694 -1.4944 -0.5910
   6123SM  C10F 7846   3.447   5.530   5.957  0.4292 -0.4027  0.7909
   6123SM  H10F 7847   3.482   5.602   6.034 -0.0353 -1.0362  1.6295
   6123SM  H10G 7848   3.368   5.568   5.889  1.4286 -1.6224 -1.1472
   6123SM  C11F 7849   3.567   5.529   5.859 -0.3484  0.1509 -0.5052
   6123SM  H11F 7850   3.654   5.495   5.920 -2.3711  1.3227  3.3946
   6123SM  H11G 7851   3.594   5.632   5.828  0.4703  0.8509  2.2301
   6123SM  C12F 7852   3.536   5.447   5.729 -0.4013 -0.0684 -0.6633
   6123SM  H12F 7853   3.447   5.484   5.674 -0.8572 -0.1436  0.0092
   6123SM  H12G 7854   3.514   5.342   5.758 -3.0195  0.2401 -1.3103
   6123SM  C13F 7855   3.653   5.450   5.629  0.1751  0.2398 -0.3174
   6123SM  H13F 7856   3.732   5.393   5.683  0.2410  1.0372  0.4342
   6123SM  H13G 7857   3.685   5.553   5.606  1.0833  0.3715  1.3816
   6123SM  C14F 7858   3.635   5.370   5.502  0.4937 -0.1301 -0.2228
   6123SM  H14F 7859   3.539   5.397   5.452 -0.1869  0.8469  1.5050
   6123SM  H14G 7860   3.631   5.261   5.526  0.5330 -0.5327 -1.9459
   6123SM  C15F 7861   3.744   5.386   5.396 -0.5277  0.0534 -0.2639
   6123SM  H15F 7862   3.752   5.488   5.351 -0.8960  0.3444  0.3109
   6123SM  H15G 7863   3.717   5.325   5.307  0.5473  2.0215 -2.0339
   6123SM  C16F 7864   3.888   5.349   5.437  0.2849  0.1118 -0.4727
   6123SM  H16F 7865   3.877   5.249   5.484 -2.4799  1.1295  1.2801
   6123SM  H16G 7866   3.923   5.421   5.514 -0.3518 -1.5641  1.4998
   6123SM  C17F 7867   3.978   5.337   5.316  0.5120  0.6725  0.4534
   6123SM  H17F 7868   3.950   5.252   5.250 -0.3679 -1.2934  3.1739
   6123SM  H17G 7869   4.082   5.314   5.351  0.6082  0.3405 -0.0362
   6123SM  C18F 7870   3.996   5.469   5.241 -0.2724 -0.1423  0.0861
   6123SM  H18F 7871   3.899   5.511   5.208  0.2373  0.4356 -0.7438
   6123SM  H18G 7872   4.055   5.450   5.149 -3.3299  1.2053 -2.3499
   6123SM  C19F 7873   4.045   5.592   5.319 -0.9794 -0.3775  0.1757
   6123SM  H19F 7874   4.140   5.568   5.372 -0.4463  1.0401 -0.0963
   6123SM  H19G 7875   3.977   5.618   5.403  1.6816 -0.1764  2.4309
   6123SM  C20F 7876   4.061   5.727   5.238  0.0037 -0.0861  0.2500
   6123SM  H20F 7877   3.963   5.757   5.195 -0.6181 -1.3879  0.7045
   6123SM  H20G 7878   4.122   5.728   5.146  0.7251  1.8781  0.7020
   6123SM  C21F 7879   4.120   5.840   5.325  0.0917 -0.3321 -0.0747
   6123SM  H21F 7880   4.226   5.818   5.351  0.7440  1.1502 -1.3012
   6123SM  H21G 7881   4.067   5.835   5.423 -2.7116  1.9648 -1.3295
   6123SM  C22F 7882   4.114   5.986   5.263 -0.0604  0.1087 -0.6514
   6123SM  H22F 7883   4.161   6.000   5.164  0.6027  1.3683 -0.1804
   6123SM  H22G 7884   4.181   6.045   5.329  0.0912  1.6813 -2.1641
   6123SM  C23F 7885   3.975   6.049   5.250 -1.4030 -0.0041  0.6895
   6123SM  H23F 7886   3.986   6.152   5.211  3.1475 -1.0166 -1.3871
   6123SM  H23G 7887   3.921   6.047   5.347 -0.2615  0.1533  1.3560
   6123SM  H23H 7888   3.912   5.998   5.174 -1.3157  2.7444 -1.3656
   6223SM     N 7889   1.647   4.420   7.091 -0.0654  0.4153 -0.4051
   6223SM   C15 7890   1.572   4.420   6.966  0.9529  0.4824  0.4381
   6223SM  H15A 7891   1.639   4.427   6.882 -0.0874  0.2111 -0.4325
   6223SM  H15B 7892   1.494   4.495   6.962  0.2408 -0.2878 -1.3518
   6223SM  H15C 7893   1.518   4.330   6.944 -0.5303  1.6198 -0.8152
   6223SM   C14 7894   1.730   4.546   7.085 -0.2547 -0.1553  0.0079
   6223SM  H14A 7895   1.769   4.569   7.183 -0.5944  2.3638 -0.3855
   6223SM  H14B 7896   1.664   4.628   7.062  0.4787  0.3184 -0.4189
   6223SM  H14C 7897   1.815   4.537   7.020  0.6655  1.3116  0.9623
   6223SM   C13 7898   1.543   4.442   7.205 -0.3291  0.1349 -0.0324
   6223SM  H13A 7899   1.484   4.529   7.182 -0.0514 -0.0588 -1.5793
   6223SM  H13B 7900   1.582   4.455   7.305 -0.0441  0.4095 -0.1800
   6223SM  H13C 7901   1.469   4.362   7.206  0.7939 -0.9321  0.0967
   6223SM   C12 7902   1.731   4.296   7.108 -0.7417  0.3501  0.1693
   6223SM  H12A 7903   1.670   4.207   7.120  0.7998 -0.6703  0.7127
   6223SM  H12B 7904   1.784   4.301   7.202 -1.0483  1.0457  0.3071
   6223SM   C11 7905   1.835   4.270   7.000  0.3293 -0.3229 -0.4825
   6223SM  H11A 7906   1.789   4.254   6.900 -1.0572  0.4225  0.0224
   6223SM  H11B 7907   1.876   4.170   7.024 -1.2749 -1.4054 -2.0246
   6223SM     P 7908   2.071   4.364   7.069  0.0841 -0.3144  0.0422
   6223SM   O13 7909   2.149   4.488   7.057 -0.1996  0.2836 -0.4905
   6223SM   O14 7910   2.037   4.328   7.204  0.5902 -0.0044  0.2125
   6223SM   O11 7911   2.156   4.252   6.989 -0.5976 -0.2854 -0.6733
   6223SM   O12 7912   1.935   4.373   6.989  0.4517  0.5371 -0.3201
   6223SM   C1S 7913   2.130   4.231   6.850 -0.0027 -0.4721 -0.0960
   6223SM   H1S 7914   2.101   4.325   6.799 -0.8675 -0.8054 -0.2243
   6223SM   H1T 7915   2.038   4.171   6.836 -1.2265  1.5080 -0.9562
   6223SM    NF 7916   2.217   4.168   6.627 -0.1605  0.1462 -0.3046
   6223SM   HNF 7917   2.210   4.073   6.598  0.6481 -0.2212  0.6162
   6223SM   C2S 7918   2.258   4.185   6.765 -0.2506  0.5777  0.0908
   6223SM   H2S 7919   2.344   4.255   6.773  0.3439 -0.2440  1.3467
   6223SM   C3S 7920   2.310   4.050   6.818  0.6810  0.1565 -0.3241
   6223SM   H3S 7921   2.224   3.980   6.817 -1.1725  2.2260  1.8089
   6223SM    O3 7922   2.349   4.063   6.953 -0.1537  0.5515  0.5228
   6223SM   HO3 7923   2.321   4.152   6.976  0.8433  1.2433 -0.8310
   6223SM   C4S 7924   2.427   3.988   6.734  0.2959  0.3811 -0.0400
   6223SM   H4S 7925   2.523   4.042   6.729  2.3247 -2.8937  0.6170
   6223SM   C5S 7926   2.408   3.872   6.679 -0.2108  0.4076  0.3000
   6223SM   H5S 7927   2.307   3.829   6.679 -0.7814  1.6757  1.0510
   6223SM   C6S 7928   2.492   3.782   6.592  0.0788  0.4658  0.4202
   6223SM   H6S 7929   2.533   3.710   6.667 -0.9869 -0.7266 -0.1093
   6223SM   H6T 7930   2.574   3.845   6.551  0.8458  1.3958  3.1783
   6223SM   C7S 7931   2.407   3.722   6.480 -0.3314 -0.1987  0.1764
   6223SM   H7S 7932   2.383   3.792   6.397 -0.2185 -0.3678  0.0005
   6223SM   H7T 7933   2.313   3.686   6.528  0.4455 -3.6604 -0.5815
   6223SM   C8S 7934   2.483   3.601   6.410 -0.9215  0.7032 -1.2553
   6223SM   H8S 7935   2.484   3.522   6.488  0.2968 -0.5959 -2.5162
   6223SM   H8T 7936   2.589   3.631   6.400 -0.9863  1.4553  0.0314
   6223SM   C9S 7937   2.429   3.555   6.272  0.3302  0.1256  0.0769
   6223SM   H9S 7938   2.320   3.545   6.286  0.5216  0.0599  1.6900
   6223SM   H9T 7939   2.482   3.459   6.254 -0.1706  0.0755 -1.3252
   6223SM  C10S 7940   2.453   3.648   6.151 -0.4304 -0.2853  0.0674
   6223SM  H10S 7941   2.559   3.683   6.157 -0.8155  0.6504  1.9005
   6223SM  H10T 7942   2.390   3.739   6.158  2.3755  1.9947 -1.6751
   6223SM  C11S 7943   2.429   3.570   6.024  0.0096 -0.0199  0.0863
   6223SM  H11S 7944   2.324   3.537   6.006 -0.7342  1.3562  1.6874
   6223SM  H11T 7945   2.484   3.474   6.021  1.7361  0.8724  1.5255
   6223SM  C12S 7946   2.491   3.640   5.899 -0.0714 -0.3442  0.0716
   6223SM  H12S 7947   2.602   3.650   5.898 -0.2667  4.5060 -1.5840
   6223SM  H12T 7948   2.452   3.744   5.896  0.8551  0.0030 -2.1142
   6223SM  C13S 7949   2.452   3.565   5.771 -0.2580 -0.5107 -0.4120
   6223SM  H13S 7950   2.342   3.556   5.783 -0.3251  1.2079  0.5243
   6223SM  H13T 7951   2.500   3.464   5.777  0.9867  0.1559  3.2203
   6223SM  C14S 7952   2.469   3.636   5.636  0.6194  0.4771  0.0100
   6223SM  H14S 7953   2.436   3.742   5.644  2.1743  0.8664  2.1199
   6223SM  H14T 7954   2.404   3.592   5.558  1.6040 -0.3154 -0.3725
   6223SM  C15S 7955   2.611   3.621   5.578  0.2435 -0.7918  0.2967
   6223SM  H15S 7956   2.623   3.511   5.583 -2.6343 -1.1569  0.8235
   6223SM  H15T 7957   2.678   3.675   5.649  2.3851 -1.5632 -1.0336
   6223SM  C16S 7958   2.631   3.652   5.429  0.2743  0.0073 -0.7918
   6223SM  H16S 7959   2.556   3.594   5.371  0.8188 -0.8177 -0.6847
   6223SM  H16T 7960   2.735   3.621   5.405  0.4720 -1.2679  1.4851
   6223SM  C17S 7961   2.606   3.800   5.396 -0.1150  1.4103 -0.1716
   6223SM  H17S 7962   2.676   3.849   5.467  1.7699 -1.2102 -0.0800
   6223SM  H17T 7963   2.507   3.845   5.420 -1.2748 -2.1657  2.7003
   6223SM  C18S 7964   2.650   3.837   5.258 -0.9171 -0.6907  0.0632
   6223SM  H18S 7965   2.567   3.813   5.189 -0.0744  2.0798 -2.0889
   6223SM  H18T 7966   2.746   3.786   5.234  0.5327  0.9034  2.0595
   6223SM  H18U 7967   2.661   3.947   5.266  2.1129 -0.9463  0.9361
   6223SM   C1F 7968   2.184   4.277   6.551  0.3092 -0.6167 -0.1123
   6223SM    OF 7969   2.221   4.385   6.583  0.2994 -1.0125 -1.0614
   6223SM   C2F 7970   2.115   4.260   6.422  0.2845 -0.1343 -0.0668
   6223SM   H2F 7971   2.074   4.358   6.390 -0.3280 -0.7155 -1.1332
   6223SM   H2G 7972   2.029   4.191   6.412 -1.7499  2.4213 -1.8572
   6223SM   C3F 7973   2.228   4.238   6.320  0.1612  0.6654  0.0775
   6223SM   H3F 7974   2.294   4.327   6.316  2.5117 -0.9347  0.9774
   6223SM   H3G 7975   2.185   4.224   6.219  1.2672 -1.9232 -0.1043
   6223SM   C4F 7976   2.305   4.111   6.347  0.2645  0.0175  0.3517
   6223SM   H4F 7977   2.237   4.023   6.356  4.0210 -3.5395 -2.3358
   6223SM   H4G 7978   2.372   4.116   6.436 -1.1729  3.1924  1.4069
   6223SM   C5F 7979   2.399   4.076   6.234 -0.3276  0.0459  0.4067
   6223SM   H5F 7980   2.344   4.055   6.140 -0.4919 -1.1801  0.7590
   6223SM   H5G 7981   2.452   3.983   6.264  0.0946  0.7594  1.9765
   6223SM   C6F 7982   2.518   4.170   6.217 -0.1914  0.3141 -0.3280
   6223SM   H6F 7983   2.615   4.115   6.212  0.3257  1.3152 -2.6529
   6223SM   H6G 7984   2.525   4.236   6.305  0.7888 -1.4906  1.0161
   6223SM   C7F 7985   2.523   4.260   6.088  0.2591 -0.1320  0.5424
   6223SM   H7F 7986   2.597   4.336   6.120  1.2672 -1.3869  1.2877
   6223SM   H7G 7987   2.433   4.325   6.076  0.2962 -0.1268  0.2793
   6223SM   C8F 7988   2.555   4.189   5.954  0.0705 -0.0201  0.2144
   6223SM   H8F 7989   2.497   4.095   5.944 -3.1215  1.5969  1.8670
   6223SM   H8G 7990   2.660   4.154   5.964 -1.1229 -3.3400  3.0793
   6223SM   C9F 7991   2.562   4.293   5.846  0.6691 -0.3848  0.3484
   6223SM   H9F 7992   2.622   4.381   5.877 -1.6610  0.9189  1.4043
   6223SM   H9G 7993   2.458   4.328   5.827  1.2039 -0.3057 -2.8212
   6223SM  C10F 7994   2.618   4.230   5.710  0.2045  0.9359 -0.4587
   6223SM  H10F 7995   2.559   4.141   5.682  0.0880  0.5212  1.0074
   6223SM  H10G 7996   2.723   4.203   5.732  0.0720 -0.0034 -0.9474
   6223SM  C11F 7997   2.611   4.333   5.596 -0.4783 -0.1942 -0.2700
   6223SM  H11F 7998   2.704   4.322   5.536 -0.5278 -0.1165 -0.3622
   6223SM  H11G 7999   2.623   4.435   5.639 -0.6599  0.1658 -1.0484
   6223SM  C12F 8000   2.483   4.332   5.514  0.0619 -0.4376 -0.7516
   6223SM  H12F 8001   2.476   4.431   5.465  3.0155  0.9546  1.3655
   6223SM  H12G 8002   2.403   4.317   5.590  1.5820  1.0003  1.2235
   6223SM  C13F 8003   2.479   4.223   5.406 -0.7640  0.4002 -0.3267
   6223SM  H13F 8004   2.478   4.121   5.449 -1.6808 -0.1044 -1.5056
   6223SM  H13G 8005   2.572   4.232   5.345  0.0469  1.5846  1.0263
   6223SM  C14F 8006   2.359   4.240   5.304 -0.2078  0.1712 -0.2123
   6223SM  H14F 8007   2.365   4.336   5.248 -1.1147  0.8517  0.8131
   6223SM  H14G 8008   2.265   4.246   5.362 -1.0529  0.9547 -1.6164
   6223SM  C15F 8009   2.347   4.117   5.208 -0.9698  0.4020 -0.2286
   6223SM  H15F 8010   2.351   4.024   5.267 -0.4775 -0.5168 -1.6468
   6223SM  H15G 8011   2.434   4.118   5.138 -1.3661  0.1071 -0.7336
   6223SM  C16F 8012   2.222   4.115   5.131  0.1222  0.3325 -0.2410
   6223SM  H16F 8013   2.234   4.035   5.055 -1.7575 -0.2312  0.0204
   6223SM  H16G 8014   2.205   4.212   5.078 -1.3527 -0.5407 -1.4543
   6223SM  C17F 8015   2.092   4.077   5.197  0.3853  0.2979  1.0278
   6223SM  H17F 8016   2.054   4.156   5.266  0.0060 -1.6255  3.1350
   6223SM  H17G 8017   2.101   3.988   5.263  0.4275 -0.6290 -0.1969
   6223SM  C18F 8018   1.992   4.030   5.089  0.7669  0.0523 -0.4032
   6223SM  H18F 8019   2.039   3.957   5.019  2.9515  0.4568  0.5478
   6223SM  H18G 8020   1.967   4.113   5.020  0.1592  0.7160  0.5928
   6223SM  C19F 8021   1.873   3.962   5.153  0.0922  0.9409  0.4930
   6223SM  H19F 8022   1.801   4.033   5.200 -0.3468  1.2220 -0.5647
   6223SM  H19G 8023   1.898   3.884   5.228 -0.8736  1.0485  0.9536
   6223SM  C20F 8024   1.795   3.893   5.046 -0.5961  0.4419 -0.6180
   6223SM  H20F 8025   1.724   3.817   5.086 -1.2621  1.2367 -0.2463
   6223SM  H20G 8026   1.858   3.834   4.977  1.0844 -0.4771  1.5717
   6223SM  C21F 8027   1.701   3.985   4.953  0.3903  0.3109  0.3963
   6223SM  H21F 8028   1.767   4.063   4.909  2.0544  0.1060  2.3991
   6223SM  H21G 8029   1.640   4.036   5.031  1.4039  0.4165  1.1478
   6223SM  C22F 8030   1.626   3.900   4.845 -0.7830 -0.3892  0.0272
   6223SM  H22F 8031   1.575   3.806   4.874  1.9291 -2.1612 -0.5496
   6223SM  H22G 8032   1.706   3.856   4.780 -1.6082 -1.4996 -0.2530
   6223SM  C23F 8033   1.527   3.984   4.766 -0.3979 -0.0333 -0.3053
   6223SM  H23F 8034   1.579   4.053   4.697  2.7089 -2.4568 -0.6401
   6223SM  H23G 8035   1.463   4.046   4.833 -0.1313 -1.8329  1.7416
   6223SM  H23H 8036   1.452   3.916   4.719 -0.3277 -1.3027  1.2912
   6323SM     N 8037   4.864   5.521   7.272  0.4941 -0.6024 -0.2794
   6323SM   C15 8038   4.947   5.400   7.290 -0.3786 -0.4945 -0.4052
   6323SM  H15A 8039   4.934   5.380   7.395  0.0765  2.4529  0.2930
   6323SM  H15B 8040   5.051   5.406   7.263  0.1193  0.5855  1.6038
   6323SM  H15C 8041   4.905   5.318   7.232  0.4002 -0.5594 -0.8920
   6323SM   C14 8042   4.729   5.486   7.312  0.0989 -0.5616  0.4822
   6323SM  H14A 8043   4.721   5.471   7.418 -0.7278  1.1336  0.6972
   6323SM  H14B 8044   4.692   5.395   7.266  1.7450 -0.1770 -1.7954
   6323SM  H14C 8045   4.658   5.566   7.299  1.9632  1.6559  2.9180
   6323SM   C13 8046   4.921   5.635   7.341  0.5079  0.3727 -0.0579
   6323SM  H13A 8047   5.019   5.657   7.301  0.5895 -1.5218 -0.9964
   6323SM  H13B 8048   4.936   5.623   7.447  3.4884  0.3708 -0.4030
   6323SM  H13C 8049   4.868   5.723   7.307  1.5543  2.2303  2.7609
   6323SM   C12 8050   4.867   5.550   7.121 -0.6008 -0.1151  0.2679
   6323SM  H12A 8051   4.796   5.626   7.093 -1.7123 -0.7479  1.2670
   6323SM  H12B 8052   4.836   5.459   7.071  2.9363 -2.3046  1.6146
   6323SM   C11 8053   5.002   5.571   7.049  0.3227  0.1247 -0.6043
   6323SM  H11A 8054   4.985   5.572   6.939 -1.2503 -5.7663 -0.7694
   6323SM  H11B 8055   5.060   5.477   7.061  1.5187  0.7600 -1.2125
   6323SM     P 8056   5.027   5.833   7.050 -0.5290  0.2466  0.2059
   6323SM   O13 8057   4.913   5.818   6.962 -0.0292  1.1163 -0.5400
   6323SM   O14 8058   5.022   5.914   7.170  0.5380  0.0800 -0.2951
   6323SM   O11 8059   5.146   5.871   6.957 -0.1253  0.3485  0.4526
   6323SM   O12 8060   5.068   5.684   7.094  0.1778 -0.4089 -0.0989
   6323SM   C1S 8061   5.213   5.777   6.872 -0.0665 -0.0213  0.1950
   6323SM   H1S 8062   5.204   5.674   6.912 -2.6925  0.1716  0.2749
   6323SM   H1T 8063   5.321   5.797   6.861 -0.4923  1.0957 -3.7189
   6323SM    NF 8064   5.248   5.667   6.653 -0.2040  0.0689  0.3760
   6323SM   HNF 8065   5.332   5.695   6.607 -0.7329  0.7314 -0.2106
   6323SM   C2S 8066   5.164   5.769   6.719  0.5656  0.2311  0.3270
   6323SM   H2S 8067   5.059   5.732   6.723  0.0682  1.1909 -2.3023
   6323SM   C3S 8068   5.165   5.911   6.652  0.2435 -0.2428 -0.1422
   6323SM   H3S 8069   5.268   5.953   6.652  0.6495 -1.1192 -1.6735
   6323SM    O3 8070   5.083   5.999   6.725 -0.3487 -0.1631  0.1728
   6323SM   HO3 8071   5.076   5.964   6.814 -1.3266  0.3049  0.2890
   6323SM   C4S 8072   5.109   5.915   6.515 -0.2082 -0.9473  0.7322
   6323SM   H4S 8073   5.009   5.869   6.505 -0.0981 -1.1210  0.4039
   6323SM   C5S 8074   5.174   5.951   6.400  0.1567  0.4792 -1.1875
   6323SM   H5S 8075   5.279   5.981   6.406 -0.2180  1.7529 -0.6583
   6323SM   C6S 8076   5.122   5.941   6.262 -0.0295  0.0935  0.4950
   6323SM   H6S 8077   5.148   6.031   6.202 -0.1107 -0.3566 -0.2321
   6323SM   H6T 8078   5.013   5.924   6.252  0.2234 -1.4339  0.1245
   6323SM   C7S 8079   5.187   5.820   6.184 -0.1689 -0.1583 -0.5537
   6323SM   H7S 8080   5.298   5.818   6.191 -0.1393 -1.9306 -1.1253
   6323SM   H7T 8081   5.163   5.822   6.076  2.1023  2.1982 -1.1142
   6323SM   C8S 8082   5.116   5.689   6.227 -0.2157  0.3644  0.6042
   6323SM   H8S 8083   5.007   5.706   6.234 -0.0787  1.4924  0.2037
   6323SM   H8T 8084   5.144   5.659   6.330 -0.4488 -1.3094  0.2040
   6323SM   C9S 8085   5.142   5.578   6.122  0.7854  0.7608 -0.0958
   6323SM   H9S 8086   5.122   5.624   6.023 -2.1704 -1.4221 -0.6437
   6323SM   H9T 8087   5.083   5.486   6.140 -1.5245  2.3497  0.8554
   6323SM  C10S 8088   5.286   5.528   6.113 -0.3311  0.3655 -0.4535
   6323SM  H10S 8089   5.317   5.502   6.217 -2.3116  0.7168  0.2657
   6323SM  H10T 8090   5.356   5.602   6.069  3.7092 -1.2205  2.6382
   6323SM  C11S 8091   5.308   5.402   6.029  0.0486  0.4110 -0.8153
   6323SM  H11S 8092   5.248   5.320   6.074  0.1429  0.6850 -0.1804
   6323SM  H11T 8093   5.411   5.366   6.047 -1.0745 -3.0681 -0.6999
   6323SM  C12S 8094   5.281   5.430   5.886 -0.3382  0.1602  1.1958
   6323SM  H12S 8095   5.310   5.532   5.851 -1.5968 -0.0399 -0.5222
   6323SM  H12T 8096   5.171   5.445   5.881 -0.2849  0.1461 -1.8714
   6323SM  C13S 8097   5.325   5.310   5.799 -0.3839 -0.4216 -0.4609
   6323SM  H13S 8098   5.290   5.223   5.859 -1.7724 -0.5863 -1.4449
   6323SM  H13T 8099   5.435   5.323   5.798 -0.6679  2.5707 -0.5225
   6323SM  C14S 8100   5.275   5.313   5.657  0.5085 -0.4681 -0.2958
   6323SM  H14S 8101   5.322   5.407   5.620 -0.0399 -0.5265 -1.1627
   6323SM  H14T 8102   5.165   5.329   5.656  0.3478 -1.3974  0.8440
   6323SM  C15S 8103   5.312   5.192   5.563  0.3006 -0.5459  0.1012
   6323SM  H15S 8104   5.247   5.106   5.591  0.7030 -0.3382  1.8232
   6323SM  H15T 8105   5.418   5.170   5.588  0.8417  0.4387 -1.2426
   6323SM  C16S 8106   5.309   5.223   5.410  0.0604  0.4104 -0.1181
   6323SM  H16S 8107   5.406   5.275   5.396  0.6346 -0.0030  1.9980
   6323SM  H16T 8108   5.228   5.289   5.373  0.3099  0.3900 -0.7163
   6323SM  C17S 8109   5.320   5.095   5.325 -0.5891 -0.6798 -0.9129
   6323SM  H17S 8110   5.222   5.042   5.328 -1.2799  0.2136 -4.1137
   6323SM  H17T 8111   5.399   5.028   5.366 -0.6111 -0.1395  0.0537
   6323SM  C18S 8112   5.354   5.118   5.176 -0.3120 -0.6315 -0.0543
   6323SM  H18S 8113   5.300   5.205   5.132  1.8405  1.3704  1.0183
   6323SM  H18T 8114   5.340   5.030   5.111 -0.3685  1.2344 -2.7045
   6323SM  H18U 8115   5.461   5.141   5.153 -0.8383 -0.2922 -2.3831
   6323SM   C1F 8116   5.240   5.537   6.689  0.1064 -0.7536 -0.1887
   6323SM    OF 8117   5.135   5.490   6.732  0.5740  0.0051  0.6681
   6323SM   C2F 8118   5.363   5.458   6.679 -0.4929  0.1492 -0.0407
   6323SM   H2F 8119   5.431   5.513   6.610 -0.1539 -0.3137 -0.0785
   6323SM   H2G 8120   5.340   5.353   6.651  1.8523 -0.4814  0.2107
   6323SM   C3F 8121   5.430   5.429   6.815 -0.7362  0.8474  0.3489
   6323SM   H3F 8122   5.362   5.385   6.890  0.8093  0.5517  1.6415
   6323SM   H3G 8123   5.457   5.528   6.858  0.7235  1.4353 -1.7570
   6323SM   C4F 8124   5.567   5.352   6.807  0.2187 -0.6325 -0.3559
   6323SM   H4F 8125   5.543   5.245   6.796 -0.3436 -0.6380  0.8331
   6323SM   H4G 8126   5.615   5.359   6.907  1.6417 -0.9111 -0.9827
   6323SM   C5F 8127   5.660   5.384   6.687 -0.3638 -0.4488  0.0996
   6323SM   H5F 8128   5.673   5.494   6.674 -1.6654 -0.3500 -0.5858
   6323SM   H5G 8129   5.616   5.341   6.595  1.0444 -2.6829  0.3898
   6323SM   C6F 8130   5.784   5.302   6.707  0.5281  0.6619  0.7788
   6323SM   H6F 8131   5.773   5.192   6.717 -0.0338  0.7944  1.8885
   6323SM   H6G 8132   5.837   5.330   6.801  0.2392 -1.2168  1.5492
   6323SM   C7F 8133   5.890   5.322   6.593  0.2538  0.2083  0.1280
   6323SM   H7F 8134   5.828   5.321   6.500 -0.2313  0.3888  0.4484
   6323SM   H7G 8135   5.963   5.239   6.607 -0.4029 -0.3765  0.1412
   6323SM   C8F 8136   5.958   5.458   6.609 -1.2093 -0.2508 -0.2065
   6323SM   H8F 8137   5.990   5.460   6.715  0.5123 -0.6990 -0.6867
   6323SM   H8G 8138   5.880   5.535   6.592 -0.0712  0.7661 -1.0098
   6323SM   C9F 8139   6.079   5.476   6.517 -0.1493  0.5696  0.0398
   6323SM   H9F 8140   6.132   5.379   6.514 -1.1560 -0.1579  2.8348
   6323SM   H9G 8141   6.139   5.558   6.563 -1.7738  1.9318 -0.1592
   6323SM  C10F 8142   6.035   5.530   6.380 -0.1523 -0.3836 -0.3140
   6323SM  H10F 8143   5.952   5.604   6.388 -1.3955 -1.8674  1.0944
   6323SM  H10G 8144   6.027   5.445   6.308  0.6933 -0.5253 -0.2539
   6323SM  C11F 8145   6.156   5.596   6.307  0.1970 -0.2891 -0.0927
   6323SM  H11F 8146   6.207   5.509   6.259  0.3554 -0.7856  0.9460
   6323SM  H11G 8147   6.229   5.640   6.377 -0.9474  0.3263  0.7442
   6323SM  C12F 8148   6.111   5.691   6.191 -0.1752 -0.4131 -0.7358
   6323SM  H12F 8149   6.044   5.766   6.239  1.1132  1.1626 -1.3060
   6323SM  H12G 8150   6.056   5.638   6.110 -0.3895 -1.1373 -0.1307
   6323SM  C13F 8151   6.233   5.773   6.138 -0.1460 -0.7607  0.0005
   6323SM  H13F 8152   6.313   5.701   6.111  2.2873  1.3634  1.1416
   6323SM  H13G 8153   6.268   5.846   6.214 -0.1360  1.3479 -1.9166
   6323SM  C14F 8154   6.199   5.858   6.014 -0.5711 -0.2495  0.0354
   6323SM  H14F 8155   6.266   5.943   5.992  0.4403 -1.0928 -0.2429
   6323SM  H14G 8156   6.103   5.910   6.034  0.6418  1.4244  1.7580
   6323SM  C15F 8157   6.198   5.793   5.880 -0.4587  0.0149  0.1581
   6323SM  H15F 8158   6.291   5.732   5.869 -1.5454 -1.6725 -0.1323
   6323SM  H15G 8159   6.181   5.869   5.801  2.0979  0.4880 -0.0326
   6323SM  C16F 8160   6.078   5.699   5.866  0.3941 -0.6423 -0.5253
   6323SM  H16F 8161   5.994   5.756   5.912  0.1463 -1.3851 -0.0320
   6323SM  H16G 8162   6.085   5.603   5.922  1.5789 -0.0750  0.3388
   6323SM  C17F 8163   6.037   5.663   5.725  0.6763  0.4206  0.6995
   6323SM  H17F 8164   5.967   5.579   5.744 -1.0767  2.0695  1.8867
   6323SM  H17G 8165   6.119   5.628   5.658 -0.2009 -1.5266  0.5845
   6323SM  C18F 8166   5.959   5.774   5.649 -0.4247 -0.0664 -0.3810
   6323SM  H18F 8167   6.014   5.868   5.629  0.1409  0.0060  1.3376
   6323SM  H18G 8168   5.868   5.795   5.708  0.1282  1.4082 -0.0057
   6323SM  C19F 8169   5.917   5.729   5.506 -0.0172  0.2908 -0.4514
   6323SM  H19F 8170   5.857   5.808   5.456  0.4754  1.5208  0.8514
   6323SM  H19G 8171   5.854   5.640   5.527  1.9722 -1.0785 -0.0128
   6323SM  C20F 8172   6.033   5.688   5.418 -0.0379  0.2571  0.5087
   6323SM  H20F 8173   6.095   5.603   5.456  0.3931 -0.6398 -2.0192
   6323SM  H20G 8174   6.097   5.778   5.401 -1.6446  1.2350 -0.5938
   6323SM  C21F 8175   5.979   5.632   5.285 -0.8924 -0.2889  0.0257
   6323SM  H21F 8176   5.935   5.716   5.227  1.2645  0.9161  0.0344
   6323SM  H21G 8177   5.900   5.554   5.294  0.3643 -1.9935 -2.3454
   6323SM  C22F 8178   6.091   5.571   5.200 -0.0395  0.6144  0.5280
   6323SM  H22F 8179   6.135   5.484   5.253 -0.3206  1.1765  1.7319
   6323SM  H22G 8180   6.174   5.645   5.205  1.5910 -1.2050  3.0154
   6323SM  C23F 8181   6.074   5.537   5.049  0.1988  0.0387 -0.4134
   6323SM  H23F 8182   6.024   5.440   5.031 -3.4523  1.4249  1.2428
   6323SM  H23G 8183   6.183   5.529   5.027  1.4336 -0.0882  4.4978
   6323SM  H23H 8184   6.031   5.623   4.993 -1.6884  0.2144  1.2207
   6423SM     N 8185   4.331   4.556   7.265  0.5640  0.8108 -0.1034
   6423SM   C15 8186   4.399   4.422   7.240 -0.0497 -0.0931  0.0034
   6423SM  H15A 8187   4.328   4.342   7.225 -1.6455  1.0612  1.0324
   6423SM  H15B 8188   4.448   4.389   7.331 -0.6083 -1.4938 -0.1698
   6423SM  H15C 8189   4.469   4.433   7.159  1.6460 -1.5903  1.1805
   6423SM   C14 8190   4.254   4.585   7.137  0.5664  0.1091 -0.2755
   6423SM  H14A 8191   4.172   4.519   7.112 -0.1370  1.2349 -1.0178
   6423SM  H14B 8192   4.319   4.587   7.051  1.7172  1.2032  0.5727
   6423SM  H14C 8193   4.209   4.683   7.145  0.0884 -0.0955 -0.4196
   6423SM   C13 8194   4.230   4.533   7.383 -0.5502 -0.1123  0.5002
   6423SM  H13A 8195   4.170   4.622   7.394 -1.3357 -0.4696 -0.6844
   6423SM  H13B 8196   4.279   4.517   7.478 -1.8122 -1.6110  0.9459
   6423SM  H13C 8197   4.162   4.454   7.354 -1.0963  0.5096  0.0614
   6423SM   C12 8198   4.439   4.652   7.299  0.5465  0.6550  0.4729
   6423SM  H12A 8199   4.505   4.647   7.214 -0.4100 -1.0519 -0.2225
   6423SM  H12B 8200   4.501   4.618   7.380  2.7006  3.1296 -0.0041
   6423SM   C11 8201   4.396   4.795   7.317  0.2660 -0.0869  0.2550
   6423SM  H11A 8202   4.471   4.840   7.386  0.1735  0.3735  0.0524
   6423SM  H11B 8203   4.304   4.801   7.380  1.3292 -0.2090  1.9024
   6423SM     P 8204   4.340   5.011   7.188 -0.0725 -0.0908  0.2664
   6423SM   O13 8205   4.202   5.009   7.246  0.3577 -0.4767  0.1924
   6423SM   O14 8206   4.435   5.105   7.259 -0.9524  0.3440 -0.0613
   6423SM   O11 8207   4.330   5.034   7.030 -0.0397  0.0058 -0.1842
   6423SM   O12 8208   4.401   4.864   7.196  0.3875 -0.2896 -0.2227
   6423SM   C1S 8209   4.447   5.050   6.948 -0.2071 -0.1277 -0.5314
   6423SM   H1S 8210   4.537   4.995   6.983 -0.8071 -0.7028  0.1442
   6423SM   H1T 8211   4.480   5.156   6.944  0.4155 -0.2884  0.2115
   6423SM    NF 8212   4.533   5.007   6.719 -0.1484 -0.5345 -0.7534
   6423SM   HNF 8213   4.551   5.069   6.643  2.0946 -0.5110 -0.2705
   6423SM   C2S 8214   4.417   5.019   6.800  0.7683 -0.2868 -0.4852
   6423SM   H2S 8215   4.369   4.919   6.800  2.7532 -1.3364  2.0226
   6423SM   C3S 8216   4.313   5.114   6.736  0.0812 -0.0900  0.1473
   6423SM   H3S 8217   4.356   5.216   6.732  0.7549 -0.3864 -0.1818
   6423SM    O3 8218   4.194   5.114   6.824 -0.3462  0.2291  0.2913
   6423SM   HO3 8219   4.227   5.084   6.909 -3.2803 -1.4446  0.9828
   6423SM   C4S 8220   4.283   5.065   6.592 -0.9229  0.2336 -0.8530
   6423SM   H4S 8221   4.333   5.115   6.508 -0.5912  0.9243 -0.2547
   6423SM   C5S 8222   4.181   4.982   6.557 -0.7155 -0.2052  0.7781
   6423SM   H5S 8223   4.111   4.950   6.635 -0.4350 -1.3017  0.5987
   6423SM   C6S 8224   4.136   4.939   6.420 -0.6151  0.4127 -0.1988
   6423SM   H6S 8225   4.027   4.951   6.402 -0.3617  0.8637 -1.6275
   6423SM   H6T 8226   4.154   4.830   6.409  1.5623  0.7232 -0.2420
   6423SM   C7S 8227   4.219   5.018   6.317  1.3958  0.0737 -0.4123
   6423SM   H7S 8228   4.323   4.982   6.328  1.3732  0.6566  2.4422
   6423SM   H7T 8229   4.219   5.126   6.344 -2.0851  0.7339 -2.4191
   6423SM   C8S 8230   4.167   5.007   6.173 -0.4674  0.8867 -0.3148
   6423SM   H8S 8231   4.065   5.049   6.159 -1.1983 -0.6177  0.2559
   6423SM   H8T 8232   4.155   4.909   6.123 -3.7816  0.8880  0.2018
   6423SM   C9S 8233   4.253   5.089   6.082 -0.1736 -0.2175  0.1628
   6423SM   H9S 8234   4.358   5.070   6.112 -0.2721  0.3944  0.9280
   6423SM   H9T 8235   4.234   5.199   6.090  0.3162 -0.2088  1.3498
   6423SM  C10S 8236   4.242   5.055   5.933  0.6570 -0.3202 -0.4890
   6423SM  H10S 8237   4.140   5.056   5.889 -0.2843 -0.8714  1.5576
   6423SM  H10T 8238   4.269   4.947   5.934 -2.4923 -1.2061  0.0858
   6423SM  C11S 8239   4.344   5.134   5.853 -0.9781  0.2007 -0.0718
   6423SM  H11S 8240   4.441   5.133   5.906 -0.8146  1.2323 -0.3246
   6423SM  H11T 8241   4.321   5.242   5.854  2.7562  1.1465 -1.3920
   6423SM  C12S 8242   4.372   5.068   5.717  0.3494 -0.6834 -0.2450
   6423SM  H12S 8243   4.275   5.062   5.663 -1.4229 -1.0483  2.7496
   6423SM  H12T 8244   4.406   4.963   5.729  0.2209 -1.0368 -2.5274
   6423SM  C13S 8245   4.477   5.140   5.643 -0.7913 -0.2158  0.4707
   6423SM  H13S 8246   4.578   5.132   5.689 -0.3323 -0.6174 -0.5891
   6423SM  H13T 8247   4.444   5.246   5.639 -2.7871 -0.8397 -1.0417
   6423SM  C14S 8248   4.494   5.095   5.494  0.5793 -0.3689  0.1421
   6423SM  H14S 8249   4.494   4.984   5.486  0.5855 -0.3143 -0.6906
   6423SM  H14T 8250   4.590   5.133   5.453 -0.7590  0.4674 -2.4009
   6423SM  C15S 8251   4.375   5.137   5.401  0.3751  0.0140 -0.1181
   6423SM  H15S 8252   4.359   5.246   5.415 -2.7251 -0.4328  0.3634
   6423SM  H15T 8253   4.288   5.081   5.441  1.7043 -1.1298  1.3532
   6423SM  C16S 8254   4.399   5.096   5.259  0.3355  0.2150 -0.1952
   6423SM  H16S 8255   4.427   4.988   5.261 -1.3505 -0.2667 -0.4004
   6423SM  H16T 8256   4.479   5.162   5.221  0.4367  0.0041 -0.3520
   6423SM  C17S 8257   4.270   5.101   5.174  0.1116  0.1852  0.2526
   6423SM  H17S 8258   4.285   5.086   5.065  0.7943 -1.4637  0.5413
   6423SM  H17T 8259   4.244   5.209   5.169 -1.5387 -0.2299 -1.2273
   6423SM  C18S 8260   4.160   5.006   5.209  0.4697 -0.2447  0.1938
   6423SM  H18S 8261   4.089   5.040   5.287  0.3014 -1.0114  0.3881
   6423SM  H18T 8262   4.204   4.909   5.242 -0.7825 -0.9733 -0.1940
   6423SM  H18U 8263   4.093   4.996   5.121 -0.5443  0.7076  0.8232
   6423SM   C1F 8264   4.623   4.912   6.729  0.9260  0.2317 -0.0020
   6423SM    OF 8265   4.628   4.825   6.821  0.2019 -0.1052  0.3924
   6423SM   C2F 8266   4.721   4.905   6.613 -0.2107  0.0496  0.6744
   6423SM   H2F 8267   4.781   4.999   6.607 -1.2056  0.6151 -2.0481
   6423SM   H2G 8268   4.658   4.914   6.523 -0.8836 -0.5148  1.0836
   6423SM   C3F 8269   4.810   4.779   6.609  0.6504  0.1124 -0.5292
   6423SM   H3F 8270   4.753   4.684   6.616 -0.5235  0.8967  1.3741
   6423SM   H3G 8271   4.885   4.777   6.691 -0.0992 -1.2467  0.1502
   6423SM   C4F 8272   4.896   4.776   6.482 -0.2138 -0.9014  0.1610
   6423SM   H4F 8273   4.991   4.722   6.501  1.1731  2.1845  2.7994
   6423SM   H4G 8274   4.919   4.877   6.442  0.1781 -0.3774  1.6424
   6423SM   C5F 8275   4.819   4.703   6.366 -0.0402 -0.0356 -0.0979
   6423SM   H5F 8276   4.716   4.745   6.354 -0.7005 -2.1797 -3.0313
   6423SM   H5G 8277   4.811   4.598   6.401  1.0894  0.0053  0.3024
   6423SM   C6F 8278   4.895   4.692   6.234  0.0195  0.0501 -0.2373
   6423SM   H6F 8279   4.998   4.656   6.255  1.0908  2.6371 -0.6338
   6423SM   H6G 8280   4.905   4.794   6.190  2.4468 -1.1817 -2.7961
   6423SM   C7F 8281   4.828   4.604   6.132 -0.2674  0.1200  0.4019
   6423SM   H7F 8282   4.731   4.655   6.113  0.2114  0.7973 -0.2478
   6423SM   H7G 8283   4.808   4.501   6.168  1.6215 -0.1653  0.7367
   6423SM   C8F 8284   4.924   4.587   6.017  0.0221  1.2805  0.0485
   6423SM   H8F 8285   5.011   4.527   6.054  0.2440  0.5384 -1.6041
   6423SM   H8G 8286   4.969   4.684   5.990 -0.7342  1.4427 -0.6573
   6423SM   C9F 8287   4.859   4.518   5.893  0.2093  0.1455  0.1604
   6423SM   H9F 8288   4.775   4.582   5.860 -0.9281 -1.0158  0.7559
   6423SM   H9G 8289   4.807   4.424   5.920 -1.6330  1.3298  0.9150
   6423SM  C10F 8290   4.965   4.487   5.794  0.3013  0.1378  0.7561
   6423SM  H10F 8291   5.017   4.393   5.824  1.7270  0.3616 -0.8773
   6423SM  H10G 8292   5.045   4.565   5.794  1.3796 -0.9289  1.4283
   6423SM  C11F 8293   4.917   4.469   5.658  1.2058 -0.6140  0.1914
   6423SM  H11F 8294   4.885   4.566   5.614  2.1986 -0.3327  0.0649
   6423SM  H11G 8295   4.827   4.403   5.650  2.5199 -2.6059  0.9573
   6423SM  C12F 8296   5.015   4.398   5.564 -1.0554 -0.0667  0.1441
   6423SM  H12F 8297   5.053   4.303   5.607 -0.5271  0.9654  2.0887
   6423SM  H12G 8298   5.109   4.456   5.548 -1.1414 -0.0704 -0.3791
   6423SM  C13F 8299   4.962   4.357   5.428 -0.4729  0.6275  0.1966
   6423SM  H13F 8300   5.045   4.318   5.364 -0.0167  0.7719  0.6936
   6423SM  H13G 8301   4.921   4.443   5.372 -1.3840 -0.6561 -1.2160
   6423SM  C14F 8302   4.861   4.240   5.444 -0.2245 -0.0429 -0.4676
   6423SM  H14F 8303   4.788   4.264   5.523  0.5278 -0.8814  0.5030
   6423SM  H14G 8304   4.918   4.150   5.475 -1.8687 -1.9873 -2.6898
   6423SM  C15F 8305   4.776   4.199   5.321  0.8222 -0.3845  0.1836
   6423SM  H15F 8306   4.762   4.289   5.258  2.2614  1.3695  2.2440
   6423SM  H15G 8307   4.676   4.164   5.356  0.1407  2.0065  0.8238
   6423SM  C16F 8308   4.839   4.092   5.237  0.0441 -0.4538  0.2713
   6423SM  H16F 8309   4.867   3.998   5.289  2.3788 -1.2200 -2.1054
   6423SM  H16G 8310   4.938   4.130   5.202  0.3377 -0.1359  1.4183
   6423SM  C17F 8311   4.756   4.052   5.114  0.4278 -0.1400  0.3835
   6423SM  H17F 8312   4.833   4.003   5.050  3.0098  2.6392  1.1450
   6423SM  H17G 8313   4.725   4.144   5.061  0.5515 -0.5113 -0.3559
   6423SM  C18F 8314   4.647   3.963   5.155  0.8166  0.7167 -0.1271
   6423SM  H18F 8315   4.602   3.995   5.251  0.9633  1.2656 -0.2389
   6423SM  H18G 8316   4.687   3.863   5.180 -1.9521 -1.2880 -2.9518
   6423SM  C19F 8317   4.532   3.961   5.056  0.6258  0.0784 -0.7381
   6423SM  H19F 8318   4.458   3.882   5.084  2.0479 -1.2664 -0.5970
   6423SM  H19G 8319   4.579   3.930   4.960 -0.8046  3.0364 -2.5244
   6423SM  C20F 8320   4.454   4.089   5.042 -0.3005 -0.1993  0.6940
   6423SM  H20F 8321   4.519   4.152   4.977  0.7742 -1.1015  0.8691
   6423SM  H20G 8322   4.447   4.136   5.142  1.1332  1.6061  0.0018
   6423SM  C21F 8323   4.317   4.072   4.979  0.4683 -0.4725  0.3344
   6423SM  H21F 8324   4.253   4.012   5.047  0.8777 -0.5179  0.6869
   6423SM  H21G 8325   4.336   4.019   4.883 -0.8221 -0.0168 -0.1927
   6423SM  C22F 8326   4.231   4.193   4.957 -0.6489  0.4515  0.6567
   6423SM  H22F 8327   4.151   4.174   4.882  0.2809  0.9753 -0.5183
   6423SM  H22G 8328   4.294   4.268   4.904  0.8734 -1.4393 -0.3346
   6423SM  C23F 8329   4.175   4.258   5.085 -0.0834 -0.4107 -0.3007
   6423SM  H23F 8330   4.075   4.219   5.116 -1.4071  1.2148 -2.2944
   6423SM  H23G 8331   4.149   4.365   5.070  0.2982 -0.0350  1.5034
   6423SM  H23H 8332   4.245   4.257   5.171 -0.1564 -0.8923 -0.2433
   6523SM     N 8333   4.216   5.671   7.006  0.5776  0.3338  0.1572
   6523SM   C15 8334   4.203   5.802   6.938 -0.2846 -0.3725 -0.4726
   6523SM  H15A 8335   4.124   5.800   6.865 -1.3986  0.4711  0.6560
   6523SM  H15B 8336   4.296   5.841   6.898  0.2717  1.3333  2.2398
   6523SM  H15C 8337   4.180   5.873   7.016 -0.0130 -1.4860  0.6627
   6523SM   C14 8338   4.308   5.692   7.118 -0.1401  0.3017 -0.4619
   6523SM  H14A 8339   4.269   5.769   7.184 -3.0107 -0.2673 -1.3546
   6523SM  H14B 8340   4.397   5.741   7.082 -0.8508  1.4553 -0.7210
   6523SM  H14C 8341   4.332   5.601   7.170 -0.1060  1.3789  1.5484
   6523SM   C13 8342   4.075   5.632   7.054  0.3813  0.0383  0.0446
   6523SM  H13A 8343   4.073   5.531   7.093  0.0779 -1.5354 -3.6020
   6523SM  H13B 8344   4.005   5.618   6.973  1.2239 -1.5618 -0.4599
   6523SM  H13C 8345   4.042   5.699   7.131  1.3985 -0.1515  0.6656
   6523SM   C12 8346   4.263   5.559   6.916  0.7691  0.2944 -0.5027
   6523SM  H12A 8347   4.351   5.589   6.862  1.0960  0.2470 -0.0100
   6523SM  H12B 8348   4.184   5.527   6.850 -0.5743  0.4534  0.9753
   6523SM   C11 8349   4.294   5.433   6.996  0.4841 -0.1663  0.1554
   6523SM  H11A 8350   4.285   5.343   6.933 -0.1213 -0.1217  0.1786
   6523SM  H11B 8351   4.225   5.413   7.081 -1.6599  1.9103 -0.9820
   6523SM     P 8352   4.550   5.454   6.950 -0.3037 -0.0770  0.3739
   6523SM   O13 8353   4.605   5.587   6.954  0.4184  0.0313  0.2527
   6523SM   O14 8354   4.636   5.345   6.986  0.5615 -0.3272  0.2211
   6523SM   O11 8355   4.492   5.431   6.809  0.4463 -0.1187 -0.0439
   6523SM   O12 8356   4.422   5.436   7.044  0.0750 -0.2228 -0.5928
   6523SM   C1S 8357   4.581   5.400   6.704  0.4047  0.1972  1.1607
   6523SM   H1S 8358   4.619   5.295   6.700  1.4167  0.5211  1.9074
   6523SM   H1T 8359   4.681   5.449   6.702 -0.9079  3.0397 -0.1987
   6523SM    NF 8360   4.625   5.387   6.462 -0.6420  0.3187 -0.9436
   6523SM   HNF 8361   4.690   5.445   6.413  1.8051  0.1358  1.8252
   6523SM   C2S 8362   4.533   5.433   6.560  0.0765  0.2776 -0.3280
   6523SM   H2S 8363   4.434   5.386   6.540  0.3391  0.1453 -1.3619
   6523SM   C3S 8364   4.511   5.588   6.556 -0.4768  0.8608  0.4639
   6523SM   H3S 8365   4.610   5.636   6.571  0.2527  0.0065 -1.3033
   6523SM    O3 8366   4.426   5.636   6.659 -0.0208  0.5898  0.3893
   6523SM   HO3 8367   4.408   5.559   6.714  1.6746 -1.2286 -1.4545
   6523SM   C4S 8368   4.464   5.622   6.417  0.1204 -0.5084 -0.3996
   6523SM   H4S 8369   4.554   5.621   6.353  0.5190  3.4727 -0.1491
   6523SM   C5S 8370   4.340   5.638   6.371 -0.1349 -0.2991 -0.1485
   6523SM   H5S 8371   4.258   5.634   6.444  0.4842  2.6616  0.8444
   6523SM   C6S 8372   4.301   5.678   6.228  0.2054 -0.4663 -0.4691
   6523SM   H6S 8373   4.287   5.788   6.224  0.8268 -0.4015 -1.0118
   6523SM   H6T 8374   4.203   5.632   6.207  0.0719 -1.7098  2.4064
   6523SM   C7S 8375   4.393   5.623   6.123  0.1312  0.2237  0.6392
   6523SM   H7S 8376   4.482   5.689   6.116  0.1184  0.0883 -1.5859
   6523SM   H7T 8377   4.343   5.646   6.026 -1.9185  0.4727  1.7062
   6523SM   C8S 8378   4.449   5.476   6.126 -1.1644  0.1238  0.5637
   6523SM   H8S 8379   4.368   5.400   6.120 -0.6121 -0.3758 -1.0423
   6523SM   H8T 8380   4.509   5.463   6.219 -1.0442  1.8342  0.7664
   6523SM   C9S 8381   4.528   5.450   5.994 -0.2018 -0.2870  0.6345
   6523SM   H9S 8382   4.477   5.470   5.898  1.0834 -2.4903 -0.6003
   6523SM   H9T 8383   4.555   5.342   5.994  3.0707  0.3927 -0.3861
   6523SM  C10S 8384   4.670   5.525   5.995 -0.1002  0.7000  0.2745
   6523SM  H10S 8385   4.698   5.560   6.096 -0.7844 -1.2339  1.1779
   6523SM  H10T 8386   4.667   5.621   5.939 -1.2012  0.2408 -0.4825
   6523SM  C11S 8387   4.787   5.447   5.918 -0.2794 -0.3556  0.5683
   6523SM  H11S 8388   4.804   5.353   5.975  0.1389  0.1711  1.3351
   6523SM  H11T 8389   4.881   5.506   5.933  0.1627 -0.3815 -1.7256
   6523SM  C12S 8390   4.759   5.426   5.768 -0.4290  0.5981  0.1630
   6523SM  H12S 8391   4.758   5.527   5.723 -0.7699 -0.3283 -2.0496
   6523SM  H12T 8392   4.666   5.366   5.758 -0.0302 -0.0292  0.1723
   6523SM  C13S 8393   4.859   5.338   5.704 -0.0698 -0.4637  0.6865
   6523SM  H13S 8394   4.872   5.234   5.741  2.0815 -0.2586  0.6419
   6523SM  H13T 8395   4.957   5.388   5.721  0.4510 -1.9943  2.6277
   6523SM  C14S 8396   4.839   5.316   5.558  0.2779 -0.4297  0.4723
   6523SM  H14S 8397   4.828   5.416   5.512  0.4740  0.2384  1.8547
   6523SM  H14T 8398   4.746   5.255   5.559 -1.4959  2.0358 -1.4974
   6523SM  C15S 8399   4.951   5.233   5.493  0.3775 -0.1165 -0.2699
   6523SM  H15S 8400   4.984   5.154   5.563 -0.4773  0.7957  1.2298
   6523SM  H15T 8401   5.035   5.305   5.484 -0.2444  0.8370  1.1936
   6523SM  C16S 8402   4.918   5.181   5.345 -0.0169 -0.3588 -0.1590
   6523SM  H16S 8403   4.858   5.089   5.360 -1.6271  0.8129  0.9355
   6523SM  H16T 8404   5.015   5.152   5.299  0.3291 -2.8451  1.9085
   6523SM  C17S 8405   4.834   5.283   5.264  0.0287 -0.3235 -0.0229
   6523SM  H17S 8406   4.885   5.382   5.259  1.3201 -1.0160 -1.9071
   6523SM  H17T 8407   4.734   5.293   5.311 -0.0853  1.9287 -0.6343
   6523SM  C18S 8408   4.818   5.233   5.121 -0.1726  0.7420 -0.2264
   6523SM  H18S 8409   4.737   5.159   5.104 -1.0466  1.6706 -0.2021
   6523SM  H18T 8410   4.917   5.194   5.087  0.2031  1.4262  0.0597
   6523SM  H18U 8411   4.799   5.316   5.049 -1.1103  1.0484  0.3648
   6523SM   C1F 8412   4.634   5.252   6.440  0.0787 -0.0307 -1.0620
   6523SM    OF 8413   4.557   5.183   6.512 -0.5561  0.4532  0.0678
   6523SM   C2F 8414   4.733   5.185   6.352 -0.5444 -0.8763 -0.6507
   6523SM   H2F 8415   4.809   5.129   6.412 -0.2885  2.0897  2.1036
   6523SM   H2G 8416   4.793   5.262   6.300  1.2238 -2.6277 -1.3506
   6523SM   C3F 8417   4.664   5.099   6.244 -0.2428  0.2497  0.1252
   6523SM   H3F 8418   4.573   5.139   6.196  0.0534 -1.7578 -2.3343
   6523SM   H3G 8419   4.628   5.001   6.282 -0.1632 -1.1310 -3.0648
   6523SM   C4F 8420   4.764   5.080   6.126  0.4498 -0.7351 -0.7981
   6523SM   H4F 8421   4.861   5.041   6.163  0.9617  1.1127 -0.0960
   6523SM   H4G 8422   4.783   5.182   6.086 -0.8763  0.4773  1.4284
   6523SM   C5F 8423   4.710   4.994   6.018 -0.3735 -0.1717  0.4537
   6523SM   H5F 8424   4.619   5.032   5.967 -1.1635 -2.7602 -0.2273
   6523SM   H5G 8425   4.687   4.897   6.068  0.3229  0.2629  1.6627
   6523SM   C6F 8426   4.802   4.968   5.896  0.2601 -0.1485  0.1030
   6523SM   H6F 8427   4.881   4.899   5.933 -0.1333 -0.4677  0.3508
   6523SM   H6G 8428   4.851   5.063   5.865  0.5939 -0.4315 -0.2416
   6523SM   C7F 8429   4.733   4.897   5.787 -0.1597  0.5774  0.0380
   6523SM   H7F 8430   4.639   4.955   5.799  0.5556  1.2297  4.0531
   6523SM   H7G 8431   4.723   4.790   5.814 -2.0391  0.7471  0.1218
   6523SM   C8F 8432   4.797   4.906   5.644 -0.2638  1.1466 -0.0698
   6523SM   H8F 8433   4.795   5.011   5.606 -3.3203  0.2276 -2.9065
   6523SM   H8G 8434   4.730   4.845   5.580 -0.1808  1.7545 -0.7450
   6523SM   C9F 8435   4.944   4.854   5.660  0.2228  0.0379  0.0980
   6523SM   H9F 8436   4.927   4.756   5.708 -2.0253 -0.4959 -1.6515
   6523SM   H9G 8437   4.993   4.925   5.731 -1.2980  0.6782  0.5571
   6523SM  C10F 8438   5.022   4.845   5.539  0.4469  0.2183 -0.0137
   6523SM  H10F 8439   5.121   4.799   5.559  1.2682  1.5435 -0.8427
   6523SM  H10G 8440   5.044   4.948   5.504  1.6511  0.5965  1.7311
   6523SM  C11F 8441   4.950   4.774   5.420  0.6210 -0.5199 -0.3297
   6523SM  H11F 8442   4.862   4.832   5.384  2.0056  1.3556 -0.8367
   6523SM  H11G 8443   4.911   4.678   5.461  0.6073 -0.5773 -0.4748
   6523SM  C12F 8444   5.052   4.742   5.304  0.7039 -0.3324  0.6935
   6523SM  H12F 8445   5.119   4.659   5.335  1.0619 -0.1338  0.4689
   6523SM  H12G 8446   5.110   4.836   5.288 -2.1403  2.1363  3.3958
   6523SM  C13F 8447   4.984   4.706   5.169 -1.2377 -0.6124  0.0165
   6523SM  H13F 8448   4.908   4.626   5.181 -0.6873 -1.1725 -0.1592
   6523SM  H13G 8449   5.051   4.660   5.093 -3.0370  0.9986 -2.7104
   6523SM  C14F 8450   4.918   4.829   5.109 -0.2495  0.7144  0.2963
   6523SM  H14F 8451   4.993   4.903   5.074  1.0727 -0.2458  1.0043
   6523SM  H14G 8452   4.858   4.884   5.184  0.5266 -0.6729  2.0299
   6523SM  C15F 8453   4.835   4.785   4.986  0.1447  0.8811  0.7227
   6523SM  H15F 8454   4.762   4.706   5.015  2.7031 -1.1762  2.0283
   6523SM  H15G 8455   4.905   4.738   4.914 -1.9589 -0.3227 -0.6450
   6523SM  C16F 8456   4.745   4.890   4.923  0.3052  0.2009  0.4294
   6523SM  H16F 8457   4.802   4.983   4.903  1.2899 -0.4263  0.2847
   6523SM  H16G 8458   4.670   4.935   4.992  1.5375  1.9136  0.7084
   6523SM  C17F 8459   4.673   4.843   4.800 -0.1750  0.0715 -0.0400
   6523SM  H17F 8460   4.754   4.812   4.730  0.6547  1.8963  0.0491
   6523SM  H17G 8461   4.624   4.929   4.750 -2.6101 -1.5039 -0.5742
   6523SM  C18F 8462   4.573   4.740   4.820 -0.2840  0.0747 -0.3686
   6523SM  H18F 8463   4.597   4.651   4.882  0.5926  2.5136  3.1739
   6523SM  H18G 8464   4.534   4.704   4.723 -1.5405  0.2290  0.0541
   6523SM  C19F 8465   4.455   4.788   4.918 -0.6684  0.7612 -0.1648
   6523SM  H19F 8466   4.396   4.865   4.863  0.5465  1.8757  0.0660
   6523SM  H19G 8467   4.483   4.846   5.008  2.4036  0.4510 -0.8225
   6523SM  C20F 8468   4.357   4.673   4.939 -0.2586  0.3011  0.0591
   6523SM  H20F 8469   4.270   4.721   4.987  0.1914  3.0006 -1.6086
   6523SM  H20G 8470   4.399   4.599   5.011  0.1239  0.3596 -0.1004
   6523SM  C21F 8471   4.304   4.601   4.813 -0.1693 -0.3389  0.2462
   6523SM  H21F 8472   4.223   4.535   4.850 -0.8196  1.4937  2.3397
   6523SM  H21G 8473   4.384   4.537   4.770  1.5616  0.2512  2.3899
   6523SM  C22F 8474   4.253   4.685   4.696 -0.1354 -0.5958  0.4146
   6523SM  H22F 8475   4.324   4.770   4.689  1.4443 -2.0219 -1.8264
   6523SM  H22G 8476   4.156   4.728   4.730 -0.4600 -1.4863  0.6385
   6523SM  C23F 8477   4.246   4.614   4.566 -0.6794 -0.0276 -0.3292
   6523SM  H23F 8478   4.162   4.542   4.566 -0.0217 -0.8171  0.7736
   6523SM  H23G 8479   4.339   4.562   4.534 -0.2114 -0.5370  1.7591
   6523SM  H23H 8480   4.221   4.688   4.487  1.8679  0.7852 -0.4638
   6623SM     N 8481   3.309   3.674   7.597  0.4267 -0.4804  0.0790
   6623SM   C15 8482   3.395   3.782   7.632 -0.3758 -0.3343 -0.4881
   6623SM  H15A 8483   3.486   3.796   7.576 -0.4541 -1.7052 -0.9993
   6623SM  H15B 8484   3.427   3.755   7.732 -0.4843 -1.8495 -0.8463
   6623SM  H15C 8485   3.347   3.878   7.617  1.1265  0.1732 -2.3742
   6623SM   C14 8486   3.392   3.553   7.621  0.8654  0.4086 -0.5296
   6623SM  H14A 8487   3.406   3.540   7.728  0.3162 -0.5393 -0.5639
   6623SM  H14B 8488   3.493   3.547   7.583  0.9134 -1.0869 -0.2197
   6623SM  H14C 8489   3.334   3.463   7.608  0.6116  0.1369  1.9782
   6623SM   C13 8490   3.190   3.676   7.679  0.4938  0.1626  0.9800
   6623SM  H13A 8491   3.141   3.581   7.664  1.3597 -0.4398  1.7539
   6623SM  H13B 8492   3.123   3.756   7.655 -0.3069 -0.7218  0.2107
   6623SM  H13C 8493   3.216   3.673   7.784 -0.6412 -0.6236  1.2503
   6623SM   C12 8494   3.280   3.682   7.452 -0.1890  0.1484 -0.3312
   6623SM  H12A 8495   3.381   3.686   7.413  1.8840  1.5167  4.4390
   6623SM  H12B 8496   3.230   3.775   7.430  2.1303  1.3416 -0.9086
   6623SM   C11 8497   3.183   3.580   7.387 -0.2068  0.1333 -0.4357
   6623SM  H11A 8498   3.145   3.614   7.288 -1.0899  0.8799  0.1338
   6623SM  H11B 8499   3.096   3.585   7.457  1.8276  2.0794  2.1421
   6623SM     P 8500   3.315   3.390   7.268 -0.1509 -0.2425 -0.0612
   6623SM   O13 8501   3.402   3.492   7.205  0.5010 -0.0837  0.0732
   6623SM   O14 8502   3.374   3.256   7.309 -0.1842  0.4016 -0.2904
   6623SM   O11 8503   3.205   3.353   7.159 -0.1732 -0.4351  0.0078
   6623SM   O12 8504   3.242   3.449   7.384  0.5450 -0.0266 -0.8921
   6623SM   C1S 8505   3.177   3.454   7.057  0.3595 -0.0800  0.1451
   6623SM   H1S 8506   3.207   3.559   7.075  4.1453 -1.1354  1.0212
   6623SM   H1T 8507   3.067   3.454   7.040  0.2523 -0.6483  0.7782
   6623SM    NF 8508   3.198   3.508   6.820 -0.2946  0.2817 -0.3558
   6623SM   HNF 8509   3.123   3.489   6.758  0.8056  0.3326 -1.7719
   6623SM   C2S 8510   3.220   3.409   6.918  0.6333 -0.7301  0.3352
   6623SM   H2S 8511   3.329   3.389   6.914  1.1316  1.7880 -1.5963
   6623SM   C3S 8512   3.139   3.278   6.884 -0.0518  0.3486 -0.4431
   6623SM   H3S 8513   3.031   3.304   6.889 -0.1413 -0.1859  0.6927
   6623SM    O3 8514   3.169   3.180   6.982  0.6519  0.6432 -0.4125
   6623SM   HO3 8515   3.184   3.222   7.066 -0.0870 -0.2428  0.1806
   6623SM   C4S 8516   3.192   3.226   6.745 -0.7183  0.6895 -0.3869
   6623SM   H4S 8517   3.120   3.254   6.666  0.2814  1.0841 -1.1874
   6623SM   C5S 8518   3.299   3.148   6.720 -0.0489  0.4938  0.8102
   6623SM   H5S 8519   3.361   3.121   6.807 -0.3257 -0.8227  0.6220
   6623SM   C6S 8520   3.330   3.068   6.597  0.5507 -0.0725 -0.0994
   6623SM   H6S 8521   3.383   2.977   6.631  2.1631  0.3309 -1.4214
   6623SM   H6T 8522   3.398   3.129   6.534 -0.9127  1.2724 -0.4554
   6623SM   C7S 8523   3.215   3.014   6.521  0.0207 -0.0688 -0.1935
   6623SM   H7S 8524   3.151   3.094   6.478 -0.9451  0.1354  1.5377
   6623SM   H7T 8525   3.144   2.957   6.584  1.1615 -0.1554  1.0548
   6623SM   C8S 8526   3.275   2.920   6.409  0.3279  0.5447 -0.4031
   6623SM   H8S 8527   3.325   2.833   6.457 -1.3487 -0.6490 -0.7330
   6623SM   H8T 8528   3.360   2.980   6.369  1.6981  1.0879  2.9299
   6623SM   C9S 8529   3.177   2.885   6.292  0.2451 -0.0790  0.2148
   6623SM   H9S 8530   3.170   2.981   6.237  1.5864  0.7946  1.4870
   6623SM   H9T 8531   3.076   2.861   6.331  1.7326 -0.7514  4.1291
   6623SM  C10S 8532   3.225   2.779   6.194 -0.1058 -0.7407  0.6030
   6623SM  H10S 8533   3.172   2.789   6.096  0.8825 -1.3731 -0.0149
   6623SM  H10T 8534   3.211   2.675   6.229  1.6367 -1.9871 -2.0325
   6623SM  C11S 8535   3.374   2.797   6.148  0.4239 -0.0730  0.3435
   6623SM  H11S 8536   3.445   2.773   6.229  2.5422  0.1959 -1.3268
   6623SM  H11T 8537   3.389   2.903   6.118  3.2405 -0.3963  0.3887
   6623SM  C12S 8538   3.407   2.709   6.029 -0.4254 -0.6191 -0.2041
   6623SM  H12S 8539   3.370   2.761   5.938 -0.7369 -1.9650 -0.8757
   6623SM  H12T 8540   3.370   2.606   6.048 -4.4402  0.5227 -0.8940
   6623SM  C13S 8541   3.562   2.704   6.012 -0.0849 -0.4147 -0.7812
   6623SM  H13S 8542   3.597   2.641   6.097 -0.6132  2.1555  1.4737
   6623SM  H13T 8543   3.596   2.806   6.038 -0.3463 -0.3597 -0.6547
   6623SM  C14S 8544   3.619   2.684   5.873 -0.1920  0.5013  0.4227
   6623SM  H14S 8545   3.589   2.768   5.808 -1.7521  0.6043  1.2313
   6623SM  H14T 8546   3.572   2.599   5.819  0.0794  1.3807 -1.2662
   6623SM  C15S 8547   3.772   2.662   5.863  0.1023 -0.4102 -0.1451
   6623SM  H15S 8548   3.799   2.591   5.945 -0.9252 -1.6710 -0.8566
   6623SM  H15T 8549   3.829   2.748   5.905  0.7028 -1.8573  2.2300
   6623SM  C16S 8550   3.833   2.618   5.729  0.6392  0.8490 -0.7812
   6623SM  H16S 8551   3.781   2.534   5.680  2.2229 -1.5823  1.4483
   6623SM  H16T 8552   3.934   2.578   5.751  0.4583  1.6375  1.8734
   6623SM  C17S 8553   3.845   2.735   5.631  0.2363  0.0588  0.0502
   6623SM  H17S 8554   3.881   2.817   5.696 -0.5763  1.0716 -0.7484
   6623SM  H17T 8555   3.744   2.766   5.597  0.9172  0.4888 -1.7162
   6623SM  C18S 8556   3.929   2.693   5.515  0.5096 -0.0544  0.3123
   6623SM  H18S 8557   4.033   2.665   5.542  0.1977 -1.9540 -0.2855
   6623SM  H18T 8558   3.934   2.780   5.446  0.7151 -0.1319  0.2290
   6623SM  H18U 8559   3.876   2.611   5.463 -0.3507  1.9768 -2.2160
   6623SM   C1F 8560   3.265   3.621   6.808 -0.2696  1.0231  0.6951
   6623SM    OF 8561   3.365   3.641   6.876  0.0166 -0.8702  0.1624
   6623SM   C2F 8562   3.211   3.717   6.696  0.4391  0.2562 -0.0957
   6623SM   H2F 8563   3.110   3.759   6.712  0.2823 -0.6655  1.5230
   6623SM   H2G 8564   3.191   3.645   6.614 -3.2489  0.6389  0.2706
   6623SM   C3F 8565   3.311   3.821   6.661 -0.3543 -0.7287 -0.3967
   6623SM   H3F 8566   3.410   3.772   6.654  0.9914  1.5993  1.0226
   6623SM   H3G 8567   3.305   3.903   6.735 -1.6944 -0.5360 -0.6892
   6623SM   C4F 8568   3.290   3.901   6.527 -0.5943  0.5862  0.5635
   6623SM   H4F 8569   3.357   3.990   6.528  1.3201 -0.5813 -3.7465
   6623SM   H4G 8570   3.190   3.948   6.517 -0.3424  1.1644  0.6896
   6623SM   C5F 8571   3.320   3.826   6.396 -0.0644 -0.0068  0.2417
   6623SM   H5F 8572   3.270   3.727   6.406 -2.8278  1.3585  0.8250
   6623SM   H5G 8573   3.427   3.811   6.371  0.6446  0.7190  2.6739
   6623SM   C6F 8574   3.262   3.901   6.278 -0.2386  0.2635  1.2523
   6623SM   H6F 8575   3.272   4.010   6.296  0.9139  0.5681 -0.8833
   6623SM   H6G 8576   3.152   3.885   6.285  0.0053 -1.9422  0.9298
   6623SM   C7F 8577   3.305   3.850   6.143 -0.2131  0.8466  0.0293
   6623SM   H7F 8578   3.413   3.827   6.155 -0.8275 -2.5859 -0.0404
   6623SM   H7G 8579   3.292   3.923   6.060 -0.4464  1.6295  0.7340
   6623SM   C8F 8580   3.232   3.728   6.084 -0.3663 -0.4084  0.1608
   6623SM   H8F 8581   3.125   3.760   6.084 -0.7665 -1.6093  1.8633
   6623SM   H8G 8582   3.247   3.639   6.149 -1.6685 -1.4016 -0.8197
   6623SM   C9F 8583   3.276   3.707   5.940  0.2051 -0.0158  0.2363
   6623SM   H9F 8584   3.235   3.783   5.870 -1.4508 -2.0013 -1.0578
   6623SM   H9G 8585   3.223   3.614   5.910 -2.2241  1.2067  0.4533
   6623SM  C10F 8586   3.428   3.697   5.921  0.0885  0.2367  0.5717
   6623SM  H10F 8587   3.469   3.625   5.996 -0.3716  0.0961  0.6945
   6623SM  H10G 8588   3.477   3.794   5.944 -1.3186  0.4510  3.1028
   6623SM  C11F 8589   3.464   3.654   5.778  0.1837 -0.0225 -0.6681
   6623SM  H11F 8590   3.430   3.744   5.723  0.6566  0.9386  0.5497
   6623SM  H11G 8591   3.418   3.561   5.740  2.7758 -1.5954 -0.1731
   6623SM  C12F 8592   3.620   3.662   5.752  0.2288  0.6639  0.4860
   6623SM  H12F 8593   3.682   3.585   5.802 -0.1883  0.8656  1.3394
   6623SM  H12G 8594   3.656   3.763   5.781  3.2312  0.1968 -1.1983
   6623SM  C13F 8595   3.647   3.652   5.605  0.3972  0.0425 -0.1857
   6623SM  H13F 8596   3.596   3.727   5.541  0.6297 -0.0697 -0.5076
   6623SM  H13G 8597   3.606   3.556   5.567  0.2169 -0.4321  1.1534
   6623SM  C14F 8598   3.801   3.667   5.576  0.2230 -0.1547 -0.2041
   6623SM  H14F 8599   3.856   3.596   5.643  0.4990  1.5060  1.4183
   6623SM  H14G 8600   3.821   3.774   5.600 -2.0423  1.2624 -3.9024
   6623SM  C15F 8601   3.847   3.657   5.434 -0.6968 -0.3490  0.1249
   6623SM  H15F 8602   3.799   3.566   5.393 -1.7957  0.6235 -0.8135
   6623SM  H15G 8603   3.957   3.644   5.435 -0.2137  2.8904  0.2816
   6623SM  C16F 8604   3.815   3.779   5.343 -0.8003  0.7041 -0.6032
   6623SM  H16F 8605   3.875   3.869   5.365  0.9511 -0.0525 -1.9968
   6623SM  H16G 8606   3.706   3.789   5.358 -0.8382 -1.6264  1.2357
   6623SM  C17F 8607   3.833   3.737   5.192  0.3117  0.4065  0.5973
   6623SM  H17F 8608   3.795   3.634   5.173  3.1785 -0.8001  0.9446
   6623SM  H17G 8609   3.941   3.732   5.166  0.6652  2.5381  1.4557
   6623SM  C18F 8610   3.770   3.830   5.085  0.1836 -0.2203  0.4720
   6623SM  H18F 8611   3.659   3.821   5.090  0.1973 -0.7785 -0.0829
   6623SM  H18G 8612   3.801   3.784   4.989 -0.7316 -0.6624  0.3759
   6623SM  C19F 8613   3.816   3.976   5.071  0.3698 -0.0910 -0.6667
   6623SM  H19F 8614   3.916   3.975   5.022  1.6230 -2.2016  1.6750
   6623SM  H19G 8615   3.827   4.016   5.174 -1.7951  0.0572 -0.4481
   6623SM  C20F 8616   3.723   4.072   4.995  0.8610  0.1986  0.2482
   6623SM  H20F 8617   3.633   4.084   5.059 -0.6428 -0.6662 -1.6064
   6623SM  H20G 8618   3.691   4.028   4.898  0.7863 -0.3863  0.5378
   6623SM  C21F 8619   3.773   4.213   4.968 -0.2672 -0.5144  0.0905
   6623SM  H21F 8620   3.704   4.252   4.890 -0.8762 -1.7986 -0.0336
   6623SM  H21G 8621   3.867   4.207   4.909 -1.4945  0.8208 -2.1304
   6623SM  C22F 8622   3.792   4.304   5.090  0.3319  0.0373 -0.0591
   6623SM  H22F 8623   3.863   4.256   5.161  1.3301  0.5207 -0.7139
   6623SM  H22G 8624   3.696   4.324   5.143  1.3487  1.0302  1.4921
   6623SM  C23F 8625   3.868   4.426   5.032 -0.2243  0.0139 -0.1514
   6623SM  H23F 8626   3.955   4.384   4.976  0.2730  0.7705  0.0472
   6623SM  H23G 8627   3.901   4.492   5.115 -0.2937  0.1263 -0.2144
   6623SM  H23H 8628   3.816   4.474   4.947 -1.9442 -0.5123  0.5651
   6723SM     N 8629   4.762   6.423   7.474 -0.6619 -0.5299  0.4199
   6723SM   C15 8630   4.639   6.342   7.486  0.4464  0.6788  0.2855
   6723SM  H15A 8631   4.677   6.241   7.484  1.5227  1.0781  0.0154
   6723SM  H15B 8632   4.575   6.348   7.399 -0.4405 -0.4326  0.8397
   6723SM  H15C 8633   4.587   6.363   7.578  1.2754  0.6680  0.7629
   6723SM   C14 8634   4.731   6.563   7.512  0.0386 -0.4339 -0.5077
   6723SM  H14A 8635   4.665   6.608   7.440  0.9155  2.6902  0.4692
   6723SM  H14B 8636   4.825   6.617   7.515 -0.2125  0.0187 -0.6331
   6723SM  H14C 8637   4.695   6.582   7.612 -0.4331  1.1621 -0.9542
   6723SM   C13 8638   4.875   6.364   7.554  0.0336 -0.5542  0.3555
   6723SM  H13A 8639   4.855   6.365   7.660 -2.5361 -2.7500 -0.0039
   6723SM  H13B 8640   4.956   6.435   7.551 -2.0562  2.0082  0.6106
   6723SM  H13C 8641   4.897   6.261   7.528  3.3300 -0.0147  0.5664
   6723SM   C12 8642   4.806   6.416   7.326 -0.2197 -0.6203  0.1522
   6723SM  H12A 8643   4.820   6.314   7.297  2.8404  0.0653 -1.1220
   6723SM  H12B 8644   4.904   6.457   7.311 -0.6037  0.0756 -0.5681
   6723SM   C11 8645   4.723   6.491   7.216 -0.5890 -0.0623  0.5056
   6723SM  H11A 8646   4.788   6.490   7.126  2.1186  0.9595  2.3070
   6723SM  H11B 8647   4.706   6.596   7.249 -1.1644  0.1798 -0.5359
   6723SM     P 8648   4.563   6.324   7.086  0.2330 -0.2731  0.2840
   6723SM   O13 8649   4.471   6.235   7.154  0.0237  0.0464 -0.2699
   6723SM   O14 8650   4.515   6.383   6.960  0.3415 -0.7521  0.5501
   6723SM   O11 8651   4.702   6.253   7.071  0.0618  0.3877 -0.4397
   6723SM   O12 8652   4.598   6.438   7.192  0.6182 -0.5916  0.8010
   6723SM   C1S 8653   4.727   6.167   6.962  0.0024 -0.0802  0.6433
   6723SM   H1S 8654   4.642   6.138   6.896  1.7789 -1.9633 -0.9797
   6723SM   H1T 8655   4.771   6.071   6.999  2.6056  0.5193 -0.6264
   6723SM    NF 8656   4.844   6.174   6.741 -0.3662 -0.3742 -0.3998
   6723SM   HNF 8657   4.933   6.133   6.723 -0.0214  0.6706 -1.1658
   6723SM   C2S 8658   4.836   6.233   6.875  0.9218  0.1914  0.1567
   6723SM   H2S 8659   4.821   6.342   6.856 -2.7049 -0.3047 -0.5834
   6723SM   C3S 8660   4.974   6.232   6.955  0.5339  0.2553 -0.1751
   6723SM   H3S 8661   5.001   6.126   6.973 -2.2103 -0.5024 -0.1433
   6723SM    O3 8662   4.964   6.301   7.080 -0.5024  0.0863 -0.9044
   6723SM   HO3 8663   4.869   6.308   7.085 -0.6799 -2.2498  1.0480
   6723SM   C4S 8664   5.080   6.299   6.867 -0.0391 -0.0916  0.1528
   6723SM   H4S 8665   5.148   6.234   6.810  0.6489 -1.6617  2.6416
   6723SM   C5S 8666   5.084   6.431   6.834  0.4248 -0.3521 -0.1501
   6723SM   H5S 8667   5.012   6.504   6.874  1.6439  0.1992  1.1230
   6723SM   C6S 8668   5.185   6.480   6.740 -0.9394 -0.3779 -0.7009
   6723SM   H6S 8669   5.280   6.423   6.740 -1.6695 -1.6355 -0.3242
   6723SM   H6T 8670   5.218   6.584   6.762 -2.4212 -0.3318  1.7539
   6723SM   C7S 8671   5.131   6.456   6.603 -0.3594 -0.4542 -0.2185
   6723SM   H7S 8672   5.029   6.500   6.594 -1.0237 -1.5891  1.2545
   6723SM   H7T 8673   5.126   6.349   6.574 -2.0802  0.0456 -1.9344
   6723SM   C8S 8674   5.219   6.517   6.489 -0.0379 -0.5082  0.1115
   6723SM   H8S 8675   5.313   6.457   6.486  0.7051  0.6689 -1.7505
   6723SM   H8T 8676   5.254   6.619   6.513 -1.0929  0.0170 -0.5205
   6723SM   C9S 8677   5.163   6.491   6.347  0.3888 -0.3759 -0.9419
   6723SM   H9S 8678   5.071   6.553   6.343  0.4041 -0.2385  0.4987
   6723SM   H9T 8679   5.133   6.386   6.324  1.3103 -0.5664 -1.3232
   6723SM  C10S 8680   5.262   6.555   6.247  0.3000  0.0224 -0.0689
   6723SM  H10S 8681   5.368   6.521   6.252  0.5650  0.8365  0.0600
   6723SM  H10T 8682   5.252   6.665   6.260 -2.1900 -0.0484 -0.9517
   6723SM  C11S 8683   5.222   6.542   6.097  0.1066 -0.4381 -0.0543
   6723SM  H11S 8684   5.285   6.614   6.040  0.6025  0.1708  1.2306
   6723SM  H11T 8685   5.118   6.580   6.092 -0.0934 -0.2896  3.1658
   6723SM  C12S 8686   5.252   6.408   6.032 -0.0619  0.3829  0.7619
   6723SM  H12S 8687   5.186   6.332   6.080  0.2875 -0.0549  0.5618
   6723SM  H12T 8688   5.359   6.383   6.046  0.4581  2.1057  0.1264
   6723SM  C13S 8689   5.225   6.427   5.883 -0.0277  0.1431 -0.2902
   6723SM  H13S 8690   5.274   6.520   5.846 -0.4254  1.3531  2.0446
   6723SM  H13T 8691   5.114   6.434   5.878 -0.0244  0.6558  0.2623
   6723SM  C14S 8692   5.270   6.300   5.803 -0.8225  0.3218 -0.2955
   6723SM  H14S 8693   5.226   6.204   5.839 -0.7981 -0.3111 -1.8916
   6723SM  H14T 8694   5.381   6.299   5.812 -0.7153 -1.6737 -1.3166
   6723SM  C15S 8695   5.236   6.315   5.656 -0.2385 -0.0982  0.5451
   6723SM  H15S 8696   5.249   6.420   5.622  0.4372  0.1708  1.5668
   6723SM  H15T 8697   5.129   6.295   5.635 -0.4943  1.7979 -0.1281
   6723SM  C16S 8698   5.329   6.226   5.572 -0.1899 -0.1578  0.7202
   6723SM  H16S 8699   5.319   6.119   5.601 -0.6111 -0.7411 -1.3910
   6723SM  H16T 8700   5.432   6.260   5.598 -0.6580  1.4075  0.6414
   6723SM  C17S 8701   5.327   6.237   5.422 -0.6452 -0.1082  0.0535
   6723SM  H17S 8702   5.417   6.192   5.376 -0.7143  2.0199 -2.3698
   6723SM  H17T 8703   5.312   6.343   5.394 -2.2348 -0.1770  0.5495
   6723SM  C18S 8704   5.213   6.161   5.342  0.0546 -0.1475 -0.2167
   6723SM  H18S 8705   5.215   6.189   5.234  1.2708  0.6587 -0.0118
   6723SM  H18T 8706   5.112   6.192   5.375  0.3326 -0.2766  0.7693
   6723SM  H18U 8707   5.234   6.053   5.359  1.3538 -0.0127 -0.7555
   6723SM   C1F 8708   4.747   6.182   6.648  0.2508  0.3033  0.2271
   6723SM    OF 8709   4.652   6.255   6.670 -0.7420  0.6431  0.6057
   6723SM   C2F 8710   4.775   6.105   6.521  0.1346  0.1511 -0.1733
   6723SM   H2F 8711   4.809   6.006   6.559 -1.4378  0.8763  3.6720
   6723SM   H2G 8712   4.859   6.163   6.479 -1.7531  4.1034  1.0168
   6723SM   C3F 8713   4.668   6.086   6.417  0.2281  0.2190  0.3487
   6723SM   H3F 8714   4.669   6.178   6.355  1.8690 -0.5806 -0.9100
   6723SM   H3G 8715   4.572   6.064   6.469  0.7041  2.6081  2.4784
   6723SM   C4F 8716   4.713   5.971   6.317 -0.1292 -0.8579  0.2230
   6723SM   H4F 8717   4.721   5.878   6.376  1.2359 -0.3719  0.8421
   6723SM   H4G 8718   4.809   6.009   6.276 -0.5594  0.7660  0.6182
   6723SM   C5F 8719   4.609   5.944   6.206  0.1029 -0.3630 -0.9004
   6723SM   H5F 8720   4.544   6.034   6.203  0.2879 -0.0092  2.1461
   6723SM   H5G 8721   4.533   5.870   6.239  0.0057  0.3254  0.5199
   6723SM   C6F 8722   4.691   5.908   6.082 -0.0161  0.1493  0.0934
   6723SM   H6F 8723   4.623   5.846   6.020  0.1104 -1.7888  1.8151
   6723SM   H6G 8724   4.772   5.837   6.110  0.1899 -0.1796 -1.2507
   6723SM   C7F 8725   4.742   6.033   6.012 -0.5507  0.3473  0.3267
   6723SM   H7F 8726   4.820   6.081   6.074 -1.3898 -0.3487  1.9882
   6723SM   H7G 8727   4.670   6.118   6.009  1.0822  1.7656 -0.3233
   6723SM   C8F 8728   4.812   6.017   5.872  0.2335 -0.2229  0.4252
   6723SM   H8F 8729   4.821   6.121   5.835  0.9912  0.5870  2.6690
   6723SM   H8G 8730   4.744   5.971   5.798  0.7501  1.3253 -1.0609
   6723SM   C9F 8731   4.960   5.960   5.880  0.4565 -0.4656  0.7601
   6723SM   H9F 8732   4.951   5.852   5.906 -0.3957 -0.5532  0.1708
   6723SM   H9G 8733   5.028   6.014   5.949  0.5439  0.2836  0.1015
   6723SM  C10F 8734   5.024   5.979   5.736 -0.3383 -0.0383 -0.7938
   6723SM  H10F 8735   5.135   5.980   5.740 -0.3484 -0.4921 -0.1492
   6723SM  H10G 8736   4.978   6.076   5.708 -3.5976 -1.4784 -0.8018
   6723SM  C11F 8737   4.987   5.872   5.636  0.5448  0.4119 -0.3815
   6723SM  H11F 8738   4.876   5.868   5.636  0.5243  0.6597 -1.6906
   6723SM  H11G 8739   5.027   5.783   5.689 -0.8510  0.2105  0.3779
   6723SM  C12F 8740   5.051   5.891   5.490 -0.6686 -0.3366 -1.0754
   6723SM  H12F 8741   5.161   5.886   5.506 -0.5591  1.3499 -1.1162
   6723SM  H12G 8742   5.032   5.992   5.449  0.6732 -0.1962 -1.3817
   6723SM  C13F 8743   5.006   5.778   5.394 -0.1905 -0.3945  0.0143
   6723SM  H13F 8744   4.897   5.790   5.379  0.0235  0.4711 -0.9190
   6723SM  H13G 8745   5.031   5.679   5.439  1.3139 -0.2417 -0.4377
   6723SM  C14F 8746   5.065   5.797   5.255  0.5790 -0.3507 -0.1039
   6723SM  H14F 8747   5.166   5.751   5.254  0.5975 -0.3039 -0.5343
   6723SM  H14G 8748   5.082   5.906   5.239 -0.6901  0.1926  1.9050
   6723SM  C15F 8749   4.975   5.728   5.145 -0.2809  0.0612 -0.2775
   6723SM  H15F 8750   4.946   5.622   5.160 -1.5136  0.2072 -1.4153
   6723SM  H15G 8751   5.022   5.714   5.046 -0.4122 -2.5123 -0.0473
   6723SM  C16F 8752   4.846   5.806   5.124 -0.0994 -0.4219  0.2028
   6723SM  H16F 8753   4.879   5.911   5.108 -0.7051 -0.2918 -0.2148
   6723SM  H16G 8754   4.790   5.807   5.220 -0.8283  1.8257 -0.1852
   6723SM  C17F 8755   4.757   5.760   5.011  0.6781 -0.3751  0.0776
   6723SM  H17F 8756   4.752   5.649   5.018  0.8538 -0.3085  4.7715
   6723SM  H17G 8757   4.789   5.793   4.910  0.6538 -0.3798  0.0687
   6723SM  C18F 8758   4.616   5.823   5.040  0.4991 -0.5370  0.0587
   6723SM  H18F 8759   4.632   5.924   5.083 -0.4226 -1.0103  1.5883
   6723SM  H18G 8760   4.585   5.764   5.129 -0.8013 -0.3682 -0.2681
   6723SM  C19F 8761   4.517   5.811   4.926  0.1097 -0.2947  0.3779
   6723SM  H19F 8762   4.536   5.718   4.869 -0.4135 -1.5724  2.1815
   6723SM  H19G 8763   4.526   5.891   4.850 -0.5590  0.3759  0.9814
   6723SM  C20F 8764   4.369   5.813   4.980 -0.0973  0.0111  0.2862
   6723SM  H20F 8765   4.347   5.920   4.999 -3.6961 -0.3399 -1.1574
   6723SM  H20G 8766   4.357   5.750   5.071  0.3325  0.8047  0.9041
   6723SM  C21F 8767   4.258   5.766   4.884  0.8066  0.0205 -0.0628
   6723SM  H21F 8768   4.174   5.728   4.947  0.8808 -1.3435 -0.7413
   6723SM  H21G 8769   4.300   5.678   4.830  2.2932  1.2490 -0.9708
   6723SM  C22F 8770   4.212   5.866   4.783 -1.2607 -0.5389 -0.1190
   6723SM  H22F 8771   4.300   5.886   4.718 -0.5445 -2.1348  0.3229
   6723SM  H22G 8772   4.177   5.966   4.818 -0.3399  0.2838 -1.4176
   6723SM  C23F 8773   4.095   5.814   4.699  0.6574 -0.3245  0.6287
   6723SM  H23F 8774   4.074   5.872   4.607 -0.6590 -0.7738  0.6257
   6723SM  H23G 8775   3.998   5.822   4.753 -0.1838  1.6213 -1.0394
   6723SM  H23H 8776   4.105   5.705   4.685  0.8112 -0.5826  2.4605
   6823SM     N 8777   3.277   2.725   7.991 -0.1969 -0.1157  0.3278
   6823SM   C15 8778   3.379   2.808   7.921 -0.0746  0.0400 -0.4127
   6823SM  H15A 8779   3.479   2.765   7.922  0.1282  0.5069 -0.0282
   6823SM  H15B 8780   3.374   2.906   7.966 -0.8812 -0.3464  0.3779
   6823SM  H15C 8781   3.338   2.829   7.824 -0.2948  2.3283  0.1333
   6823SM   C14 8782   3.324   2.694   8.128 -0.1239 -0.7419 -0.1686
   6823SM  H14A 8783   3.242   2.638   8.169 -0.3662 -0.6400 -0.5161
   6823SM  H14B 8784   3.329   2.786   8.185 -1.2189 -1.0185  0.3860
   6823SM  H14C 8785   3.418   2.642   8.141 -0.3868 -0.7721  1.9298
   6823SM   C13 8786   3.152   2.815   8.007 -0.4374 -0.3785  0.0731
   6823SM  H13A 8787   3.179   2.910   8.051 -0.7948  0.8272 -2.1816
   6823SM  H13B 8788   3.069   2.762   8.051 -0.0709 -0.9043  0.1453
   6823SM  H13C 8789   3.118   2.836   7.907  2.2701  1.2985 -0.5779
   6823SM   C12 8790   3.246   2.597   7.906 -0.4890 -0.0797 -0.1537
   6823SM  H12A 8791   3.158   2.552   7.950  0.2707  0.8394  2.4879
   6823SM  H12B 8792   3.322   2.522   7.925 -1.4765 -0.6636  1.7619
   6823SM   C11 8793   3.222   2.602   7.755  1.0048 -0.6528  0.1285
   6823SM  H11A 8794   3.178   2.507   7.716  0.6568  0.2493 -1.8117
   6823SM  H11B 8795   3.319   2.621   7.703  1.3489  0.1650  1.0491
   6823SM     P 8796   2.972   2.675   7.682  0.0857  0.0052 -0.3284
   6823SM   O13 8797   2.913   2.556   7.756 -0.0236 -0.2190  0.7039
   6823SM   O14 8798   2.906   2.805   7.690  0.0813  0.0733 -0.0713
   6823SM   O11 8799   2.979   2.644   7.528 -0.1125 -0.4559  0.3975
   6823SM   O12 8800   3.124   2.702   7.724  0.2668  0.4532 -0.4048
   6823SM   C1S 8801   3.007   2.513   7.483 -0.5722 -0.5608 -0.7292
   6823SM   H1S 8802   2.919   2.446   7.496  0.8921 -2.4992 -0.4339
   6823SM   H1T 8803   3.093   2.462   7.532  1.1715  1.0854 -1.9482
   6823SM    NF 8804   3.039   2.371   7.296 -0.1093 -0.2983  0.6883
   6823SM   HNF 8805   3.127   2.327   7.279  0.7293  1.1675  0.9958
   6823SM   C2S 8806   3.034   2.509   7.333 -0.0462  0.2393 -0.6887
   6823SM   H2S 8807   2.948   2.560   7.285  1.6024  2.6856 -1.1979
   6823SM   C3S 8808   3.163   2.590   7.299 -0.2108 -0.0112 -0.0937
   6823SM   H3S 8809   3.244   2.527   7.340  1.5110  1.5770 -0.9327
   6823SM    O3 8810   3.176   2.724   7.359 -0.0732  0.1207 -0.0336
   6823SM   HO3 8811   3.100   2.719   7.417 -1.6239 -2.2302 -2.0759
   6823SM   C4S 8812   3.187   2.604   7.149 -0.1469  0.5041  0.3382
   6823SM   H4S 8813   3.258   2.528   7.113  1.2929  0.2378  3.3767
   6823SM   C5S 8814   3.140   2.700   7.062 -0.3085  0.3232  0.4357
   6823SM   H5S 8815   3.075   2.777   7.105  0.8737  0.8320  1.3626
   6823SM   C6S 8816   3.162   2.710   6.913  0.5194 -0.2350  0.2641
   6823SM   H6S 8817   3.183   2.815   6.884 -2.2293  0.6717  1.2723
   6823SM   H6T 8818   3.067   2.683   6.862  2.5516 -1.2216 -3.3740
   6823SM   C7S 8819   3.267   2.612   6.846  0.0063 -0.5567 -0.5282
   6823SM   H7S 8820   3.243   2.507   6.875 -2.4568  0.3770  1.1527
   6823SM   H7T 8821   3.367   2.638   6.887 -0.1629 -1.7918  0.7551
   6823SM   C8S 8822   3.259   2.616   6.692  0.2607  0.7413  0.0079
   6823SM   H8S 8823   3.262   2.722   6.656  0.1081  0.2956 -1.3560
   6823SM   H8T 8824   3.161   2.574   6.661 -1.1112  4.5443 -1.4558
   6823SM   C9S 8825   3.375   2.531   6.632 -0.4032 -0.0451 -0.1292
   6823SM   H9S 8826   3.369   2.429   6.677  0.8239  0.0462  0.2801
   6823SM   H9T 8827   3.471   2.581   6.657 -0.1205 -0.2238 -0.8369
   6823SM  C10S 8828   3.347   2.515   6.478 -0.5311  0.2815  0.3756
   6823SM  H10S 8829   3.377   2.609   6.426 -0.1379 -0.7784 -1.4011
   6823SM  H10T 8830   3.238   2.500   6.462 -0.6252  1.6061 -0.3924
   6823SM  C11S 8831   3.425   2.403   6.403  0.7646 -0.1324 -0.6797
   6823SM  H11S 8832   3.386   2.304   6.437  0.2551  1.0809  2.6692
   6823SM  H11T 8833   3.533   2.398   6.430  0.5231 -1.3413  0.1468
   6823SM  C12S 8834   3.420   2.405   6.253  0.0727 -0.3608  0.5090
   6823SM  H12S 8835   3.490   2.484   6.218 -0.3429 -1.0782 -2.1898
   6823SM  H12T 8836   3.318   2.429   6.214 -0.0631  1.5089  1.8706
   6823SM  C13S 8837   3.475   2.276   6.180  0.7108 -0.3784 -0.1498
   6823SM  H13S 8838   3.412   2.195   6.222  0.4373  0.6656  1.5861
   6823SM  H13T 8839   3.576   2.256   6.222  0.5000  1.7155  1.5751
   6823SM  C14S 8840   3.477   2.277   6.029 -0.4039 -0.1151  0.2543
   6823SM  H14S 8841   3.561   2.341   5.994  1.0444 -2.2950 -0.4523
   6823SM  H14T 8842   3.391   2.329   5.982  1.4220  1.8378 -1.1490
   6823SM  C15S 8843   3.476   2.133   5.968 -0.6654  0.4199  0.2055
   6823SM  H15S 8844   3.385   2.074   5.994 -0.6957  0.7264  0.8167
   6823SM  H15T 8845   3.559   2.072   6.009 -1.4904 -0.5736  0.4294
   6823SM  C16S 8846   3.484   2.125   5.815  0.2492  0.4374  0.1682
   6823SM  H16S 8847   3.557   2.201   5.780  0.1168  0.7488  0.5636
   6823SM  H16T 8848   3.391   2.146   5.759  0.4631  2.4843  0.5127
   6823SM  C17S 8849   3.538   1.986   5.778 -0.2797  0.4169  0.2773
   6823SM  H17S 8850   3.453   1.913   5.780 -2.1153  2.3570 -1.7456
   6823SM  H17T 8851   3.616   1.948   5.847  0.5178 -0.0337 -0.8344
   6823SM  C18S 8852   3.573   1.988   5.628  0.3096 -0.0579  0.0693
   6823SM  H18S 8853   3.624   1.900   5.583 -0.3633  0.9156 -2.7457
   6823SM  H18T 8854   3.642   2.074   5.619 -0.0819  0.6572  2.8108
   6823SM  H18U 8855   3.480   2.008   5.572  1.1617 -1.7494 -2.0998
   6823SM   C1F 8856   2.929   2.300   7.275  0.6758  0.2405 -0.7789
   6823SM    OF 8857   2.821   2.340   7.315 -0.2433  0.6072  0.6293
   6823SM   C2F 8858   2.945   2.164   7.206  0.4657  0.5182  0.3278
   6823SM   H2F 8859   2.894   2.088   7.270 -0.2941  1.0612  0.3815
   6823SM   H2G 8860   3.049   2.127   7.214 -0.9505 -4.0813  0.5934
   6823SM   C3F 8861   2.896   2.164   7.057 -0.4201 -0.6306 -0.3149
   6823SM   H3F 8862   2.787   2.173   7.075 -0.5147  0.6656 -1.3458
   6823SM   H3G 8863   2.924   2.069   7.005  2.4546 -1.2809  2.1145
   6823SM   C4F 8864   2.947   2.274   6.972 -0.7211  0.2597 -0.4344
   6823SM   H4F 8865   3.058   2.273   6.980 -0.7860 -1.0306  0.4998
   6823SM   H4G 8866   2.914   2.372   7.013 -0.4148  0.1444  0.0911
   6823SM   C5F 8867   2.910   2.249   6.822 -0.0833 -0.5855 -0.0208
   6823SM   H5F 8868   2.800   2.256   6.813 -0.0656 -0.5539 -0.2099
   6823SM   H5G 8869   2.937   2.143   6.801 -0.8322 -1.0015  1.0387
   6823SM   C6F 8870   2.968   2.346   6.720  0.7516  0.5775 -0.1616
   6823SM   H6F 8871   3.079   2.346   6.725  0.7761 -2.0389  0.8368
   6823SM   H6G 8872   2.921   2.444   6.746 -2.4288 -0.8311 -0.1256
   6823SM   C7F 8873   2.923   2.317   6.577 -0.3533 -0.1319  0.4687
   6823SM   H7F 8874   2.814   2.305   6.599  0.0871 -1.6828  2.0504
   6823SM   H7G 8875   2.951   2.215   6.543 -0.6407  0.7757 -2.8378
   6823SM   C8F 8876   2.955   2.419   6.467 -0.1834  0.3602 -0.0193
   6823SM   H8F 8877   3.059   2.409   6.428 -0.7944 -0.8352 -1.4287
   6823SM   H8G 8878   2.960   2.521   6.512 -0.0502 -0.4090  1.8069
   6823SM   C9F 8879   2.856   2.404   6.352 -1.0802  1.1524  0.2194
   6823SM   H9F 8880   2.757   2.419   6.400 -0.1328 -0.8048  3.0683
   6823SM   H9G 8881   2.874   2.296   6.332 -0.2228  1.0109  1.6001
   6823SM  C10F 8882   2.880   2.498   6.238 -0.3154 -0.1577  0.2569
   6823SM  H10F 8883   2.891   2.602   6.276 -0.1827 -0.9312  2.5257
   6823SM  H10G 8884   2.786   2.488   6.179  0.4052 -0.9963 -0.7716
   6823SM  C11F 8885   2.996   2.467   6.151  0.5157 -0.1704 -0.3786
   6823SM  H11F 8886   2.991   2.362   6.117 -0.6511 -0.4414  0.5470
   6823SM  H11G 8887   3.087   2.473   6.215 -0.4420 -0.2076  1.0332
   6823SM  C12F 8888   2.999   2.542   6.017  0.1625  0.5719  0.2899
   6823SM  H12F 8889   3.006   2.647   6.054 -2.4100  1.3779 -1.2589
   6823SM  H12G 8890   2.899   2.542   5.970 -0.6164  0.7237  1.8953
   6823SM  C13F 8891   3.107   2.491   5.918 -0.1056 -0.1895 -0.2911
   6823SM  H13F 8892   3.092   2.384   5.894  0.9347 -0.1958 -0.9998
   6823SM  H13G 8893   3.204   2.511   5.968 -0.5134 -2.2459  1.4332
   6823SM  C14F 8894   3.104   2.580   5.786  0.2166  0.0532 -0.2252
   6823SM  H14F 8895   3.199   2.561   5.734  1.5542  1.1995  1.6607
   6823SM  H14G 8896   3.106   2.689   5.807  1.4641 -0.0618  0.3297
   6823SM  C15F 8897   2.973   2.543   5.711  0.2973 -0.1762  0.3771
   6823SM  H15F 8898   2.882   2.584   5.759  0.3683 -0.5301  0.8245
   6823SM  H15G 8899   2.972   2.434   5.691  3.3128 -0.1637 -0.3683
   6823SM  C16F 8900   2.965   2.611   5.572  0.3119 -0.0553 -0.7651
   6823SM  H16F 8901   3.060   2.592   5.517  0.2054  0.8931 -1.3039
   6823SM  H16G 8902   2.959   2.722   5.575  0.2030 -0.0816  1.2660
   6823SM  C17F 8903   2.854   2.546   5.482 -0.2597  0.1913 -0.3936
   6823SM  H17F 8904   2.864   2.435   5.485  4.4540  0.4270 -0.5608
   6823SM  H17G 8905   2.864   2.567   5.374 -1.4990 -0.4476 -0.6487
   6823SM  C18F 8906   2.713   2.592   5.520  0.7779  0.0665 -0.3630
   6823SM  H18F 8907   2.716   2.703   5.521  0.2222  0.0810  0.2235
   6823SM  H18G 8908   2.692   2.555   5.622 -1.6956 -0.6232 -1.0375
   6823SM  C19F 8909   2.610   2.537   5.423 -0.7063  0.1274  0.0462
   6823SM  H19F 8910   2.635   2.556   5.317 -2.4362 -0.5328 -0.5035
   6823SM  H19G 8911   2.504   2.563   5.445 -1.3788 -0.9557 -1.7120
   6823SM  C20F 8912   2.599   2.384   5.439 -1.1321 -0.1498 -0.0668
   6823SM  H20F 8913   2.612   2.352   5.545  0.6441 -1.3027 -0.5745
   6823SM  H20G 8914   2.687   2.339   5.387 -2.0919 -0.4086 -1.5233
   6823SM  C21F 8915   2.485   2.315   5.371 -0.1928 -0.2979  0.1136
   6823SM  H21F 8916   2.465   2.223   5.431 -0.9522  0.3200  0.8276
   6823SM  H21G 8917   2.526   2.286   5.272 -0.9077  0.8372 -0.5227
   6823SM  C22F 8918   2.351   2.386   5.357 -0.4384  0.5760 -0.4064
   6823SM  H22F 8919   2.361   2.479   5.298  1.0509  1.3440  0.9646
   6823SM  H22G 8920   2.319   2.406   5.462  2.7100 -0.1134  0.7983
   6823SM  C23F 8921   2.238   2.292   5.303  0.0805  0.2824  0.2920
   6823SM  H23F 8922   2.261   2.229   5.214 -3.0484 -1.3782  0.4994
   6823SM  H23G 8923   2.153   2.359   5.276 -1.1794 -0.8331  1.3664
   6823SM  H23H 8924   2.196   2.225   5.380  0.8457 -0.1416  0.3462
   6923SM     N 8925   4.853   4.058   7.640  0.0258 -0.2466  0.1309
   6923SM   C15 8926   4.867   4.169   7.745 -0.0839  0.3680  0.3288
   6923SM  H15A 8927   4.933   4.242   7.702 -1.3896 -0.0695 -2.6667
   6923SM  H15B 8928   4.900   4.134   7.842 -0.2054 -0.0087  0.2361
   6923SM  H15C 8929   4.773   4.219   7.764 -0.4604 -0.8489  1.9452
   6923SM   C14 8930   4.996   4.018   7.598  0.0463 -0.1236 -0.1946
   6923SM  H14A 8931   4.998   3.930   7.535 -1.9004  0.7336 -1.5846
   6923SM  H14B 8932   5.057   3.993   7.683  0.3927 -1.1246 -0.7192
   6923SM  H14C 8933   5.037   4.104   7.547 -0.8217  0.8379  0.6873
   6923SM   C13 8934   4.790   3.939   7.705 -0.2534 -0.0542  0.2810
   6923SM  H13A 8935   4.864   3.879   7.756  2.0751  0.9819 -1.6458
   6923SM  H13B 8936   4.758   3.867   7.632  1.3043 -0.3057 -0.1864
   6923SM  H13C 8937   4.703   3.948   7.768  0.4975 -1.7015  1.6419
   6923SM   C12 8938   4.773   4.109   7.523  0.7795  0.1659  0.6695
   6923SM  H12A 8939   4.808   4.206   7.492 -0.8973  0.4179 -0.5660
   6923SM  H12B 8940   4.674   4.130   7.560 -0.1015  0.5872 -1.7516
   6923SM   C11 8941   4.768   4.006   7.401 -0.5339  0.0067  0.4314
   6923SM  H11A 8942   4.868   3.996   7.353 -0.7989  3.0421 -0.9825
   6923SM  H11B 8943   4.715   4.054   7.317 -2.8483 -0.9588  1.2599
   6923SM     P 8944   4.555   3.861   7.441  0.5792 -0.0292 -0.0293
   6923SM   O13 8945   4.526   3.758   7.543 -0.1408  0.5835  0.8671
   6923SM   O14 8946   4.498   3.994   7.469 -0.0716  0.0444 -0.3440
   6923SM   O11 8947   4.510   3.815   7.296 -0.0513  0.7986  0.1830
   6923SM   O12 8948   4.717   3.880   7.432  0.0370  0.7895  0.1329
   6923SM   C1S 8949   4.610   3.787   7.198  0.2390  0.1308  0.2735
   6923SM   H1S 8950   4.687   3.718   7.239 -0.6957 -0.9685  0.2244
   6923SM   H1T 8951   4.671   3.873   7.164 -2.3851  1.2344 -2.0392
   6923SM    NF 8952   4.670   3.698   6.989 -0.5745 -0.1740 -0.0776
   6923SM   HNF 8953   4.719   3.764   6.933 -0.0174 -0.5673 -0.0625
   6923SM   C2S 8954   4.556   3.727   7.068 -0.2578  0.2764 -0.0875
   6923SM   H2S 8955   4.489   3.639   7.085 -0.1305  0.2695  0.3797
   6923SM   C3S 8956   4.467   3.839   7.003 -0.0818 -0.2518 -0.0064
   6923SM   H3S 8957   4.526   3.928   6.971  1.5379 -1.9237 -1.9253
   6923SM    O3 8958   4.368   3.901   7.095  0.1176  0.2510  0.3380
   6923SM   HO3 8959   4.394   3.862   7.179 -0.2833  0.0491  0.3706
   6923SM   C4S 8960   4.409   3.815   6.868  0.4232  0.8125 -0.5442
   6923SM   H4S 8961   4.482   3.839   6.789  1.1765 -0.1044 -0.1511
   6923SM   C5S 8962   4.287   3.762   6.842  0.4938  0.2671 -0.0394
   6923SM   H5S 8963   4.224   3.754   6.932  0.5538  3.1182  0.3339
   6923SM   C6S 8964   4.227   3.720   6.707 -0.1005 -0.1705  0.8009
   6923SM   H6S 8965   4.118   3.743   6.706  0.1556  1.2101  1.6639
   6923SM   H6T 8966   4.241   3.610   6.700 -0.0029 -0.1153  0.0538
   6923SM   C7S 8967   4.285   3.797   6.591  0.6584 -0.5545 -0.1781
   6923SM   H7S 8968   4.394   3.779   6.593  0.7987  0.1849  2.3138
   6923SM   H7T 8969   4.280   3.905   6.615  0.6019 -0.4689 -0.5622
   6923SM   C8S 8970   4.219   3.766   6.456  0.6248  0.3942 -0.3152
   6923SM   H8S 8971   4.109   3.756   6.468  0.5701  0.2132 -0.9360
   6923SM   H8T 8972   4.258   3.672   6.411  0.4346 -0.4096  1.1253
   6923SM   C9S 8973   4.256   3.886   6.364  0.0671 -0.1532  0.4202
   6923SM   H9S 8974   4.366   3.898   6.361 -0.0576  1.0800  0.3563
   6923SM   H9T 8975   4.206   3.974   6.410 -1.8320 -1.1765  0.4360
   6923SM  C10S 8976   4.195   3.848   6.224 -0.1564 -0.2174  0.2403
   6923SM  H10S 8977   4.086   3.833   6.241  0.0836 -2.0990  0.3672
   6923SM  H10T 8978   4.238   3.754   6.185  1.1978  0.6822 -0.5027
   6923SM  C11S 8979   4.225   3.963   6.127  0.5542 -0.1454  0.2705
   6923SM  H11S 8980   4.336   3.973   6.120  0.7477  0.0646  2.6462
   6923SM  H11T 8981   4.182   4.054   6.176  0.0119 -0.6635  0.7760
   6923SM  C12S 8982   4.184   3.934   5.982  0.1359 -0.2388  0.0062
   6923SM  H12S 8983   4.074   3.920   5.968 -0.0773  0.5808  0.7769
   6923SM  H12T 8984   4.219   3.831   5.960  0.2460 -0.7309  2.2224
   6923SM  C13S 8985   4.240   4.025   5.862  0.8165 -0.5174 -0.0742
   6923SM  H13S 8986   4.234   3.967   5.767 -1.6485  0.7661 -0.8142
   6923SM  H13T 8987   4.344   4.062   5.869  1.0678 -1.1939 -0.0979
   6923SM  C14S 8988   4.136   4.134   5.840  0.5688 -0.5174 -0.1180
   6923SM  H14S 8989   4.141   4.196   5.932  0.2959 -0.2926 -0.2521
   6923SM  H14T 8990   4.034   4.090   5.832  0.1883  0.4576 -1.0716
   6923SM  C15S 8991   4.163   4.226   5.721  0.4383  0.2457 -0.0506
   6923SM  H15S 8992   4.269   4.260   5.726  0.3351  0.7046 -0.7580
   6923SM  H15T 8993   4.112   4.323   5.742  1.8791  0.8630  0.8441
   6923SM  C16S 8994   4.105   4.163   5.592 -0.0827 -0.1350 -0.0020
   6923SM  H16S 8995   4.000   4.127   5.600 -0.0058  0.0672  3.0591
   6923SM  H16T 8996   4.170   4.075   5.572 -0.2323 -0.2521  0.0264
   6923SM  C17S 8997   4.114   4.269   5.487 -0.4097 -0.6566  0.0815
   6923SM  H17S 8998   4.110   4.221   5.387 -0.5632  1.0393 -0.7676
   6923SM  H17T 8999   4.215   4.315   5.496 -0.6975 -0.1980  1.1401
   6923SM  C18S 9000   4.008   4.377   5.485 -0.2265  0.2554 -0.3171
   6923SM  H18S 9001   3.975   4.419   5.387  0.9083 -3.5505 -2.5310
   6923SM  H18T 9002   4.054   4.462   5.540  0.0978 -0.1654  0.0680
   6923SM  H18U 9003   3.915   4.341   5.534 -1.0128 -0.6352 -2.3619
   6923SM   C1F 9004   4.738   3.581   6.994  1.0501  0.8135 -0.5189
   6923SM    OF 9005   4.705   3.497   7.076  0.3426  0.4595  0.4190
   6923SM   C2F 9006   4.838   3.558   6.889  0.3147 -0.0347  0.4709
   6923SM   H2F 9007   4.918   3.635   6.893  1.3287 -1.1078  1.7115
   6923SM   H2G 9008   4.783   3.581   6.795 -0.4742 -1.0941  0.6462
   6923SM   C3F 9009   4.871   3.406   6.883 -0.8128  0.4995  0.0267
   6923SM   H3F 9010   4.783   3.338   6.876 -0.1018 -0.3688 -0.8731
   6923SM   H3G 9011   4.924   3.389   6.978 -1.2432  1.5493  0.4686
   6923SM   C4F 9012   4.963   3.353   6.774 -0.2439 -0.2689 -0.0227
   6923SM   H4F 9013   5.066   3.395   6.775 -0.6616  0.8483 -1.4577
   6923SM   H4G 9014   4.919   3.373   6.675  1.6522 -1.7965 -1.2554
   6923SM   C5F 9015   4.974   3.203   6.785 -0.0548  0.1332 -0.2740
   6923SM   H5F 9016   4.875   3.158   6.807 -0.4176  1.7880  1.8423
   6923SM   H5G 9017   5.042   3.180   6.870  0.5186 -0.0469 -0.7723
   6923SM   C6F 9018   5.023   3.140   6.651 -0.6303  0.5957 -0.0282
   6923SM   H6F 9019   5.111   3.198   6.618 -0.7788  0.8750  0.0664
   6923SM   H6G 9020   4.943   3.148   6.575 -0.3556 -1.5900 -0.6281
   6923SM   C7F 9021   5.049   2.989   6.663  0.3729 -0.0675  0.5002
   6923SM   H7F 9022   4.958   2.942   6.707 -1.9038  0.9088 -2.7952
   6923SM   H7G 9023   5.126   2.968   6.740 -1.6002 -2.0538  2.0829
   6923SM   C8F 9024   5.097   2.934   6.526 -0.3085 -0.5642 -0.4694
   6923SM   H8F 9025   5.119   3.020   6.460  0.3770  0.0846  0.5792
   6923SM   H8G 9026   5.010   2.881   6.481  1.1079 -2.2649 -1.3497
   6923SM   C9F 9027   5.219   2.842   6.521 -0.3289 -0.2626  0.3959
   6923SM   H9F 9028   5.236   2.779   6.611  1.9900 -0.7429 -0.2915
   6923SM   H9G 9029   5.318   2.893   6.524 -1.0152  1.0843  0.9535
   6923SM  C10F 9030   5.221   2.760   6.389 -0.1883 -0.0703  0.4146
   6923SM  H10F 9031   5.142   2.685   6.407  2.1194 -2.7672  0.0483
   6923SM  H10G 9032   5.319   2.707   6.382 -0.7227 -1.1106  0.6809
   6923SM  C11F 9033   5.185   2.839   6.262 -0.4543  0.4277 -0.3874
   6923SM  H11F 9034   5.242   2.934   6.267 -1.6154  1.1184  0.1315
   6923SM  H11G 9035   5.077   2.868   6.264 -0.5844 -0.0596  1.8062
   6923SM  C12F 9036   5.210   2.764   6.134 -0.0677  0.2081  0.2409
   6923SM  H12F 9037   5.306   2.709   6.141  0.1213  0.5755  0.5742
   6923SM  H12G 9038   5.221   2.843   6.057 -1.4771  0.1947 -0.0167
   6923SM  C13F 9039   5.090   2.669   6.107 -0.6355 -0.8190  0.3786
   6923SM  H13F 9040   5.007   2.741   6.090 -0.6365 -1.0862 -0.8270
   6923SM  H13G 9041   5.063   2.609   6.196 -1.3897  0.4184  1.0089
   6923SM  C14F 9042   5.098   2.575   5.995  0.0420 -0.3796 -0.2107
   6923SM  H14F 9043   5.165   2.489   6.014  0.4341  0.0087  0.1794
   6923SM  H14G 9044   5.144   2.629   5.910  1.4119 -1.3920 -0.1453
   6923SM  C15F 9045   4.957   2.524   5.950  0.0959 -0.3094 -0.1885
   6923SM  H15F 9046   4.884   2.607   5.945 -0.7647 -0.9399  1.2238
   6923SM  H15G 9047   4.931   2.452   6.032  2.1503  2.9314  3.6801
   6923SM  C16F 9048   4.960   2.458   5.811 -0.4482  0.0001 -0.2338
   6923SM  H16F 9049   5.046   2.387   5.810  1.3138  1.9555  2.2051
   6923SM  H16G 9050   5.005   2.530   5.740  0.1395  1.8756  1.9249
   6923SM  C17F 9051   4.829   2.401   5.757 -0.3415 -0.5207  0.4089
   6923SM  H17F 9052   4.765   2.484   5.721 -0.6227 -0.7192  0.4516
   6923SM  H17G 9053   4.782   2.350   5.844  0.9182  0.1317  1.5083
   6923SM  C18F 9054   4.848   2.308   5.641 -0.7003  0.4497  0.4721
   6923SM  H18F 9055   4.895   2.216   5.682  0.7497  1.4522  1.1842
   6923SM  H18G 9056   4.923   2.344   5.568 -1.1762  1.2301  0.3529
   6923SM  C19F 9057   4.726   2.275   5.565 -0.4351  0.3285  0.7813
   6923SM  H19F 9058   4.676   2.372   5.543 -1.3947 -0.7537 -2.4697
   6923SM  H19G 9059   4.657   2.213   5.626  0.9134 -0.7296  1.2857
   6923SM  C20F 9060   4.770   2.208   5.431 -0.7422 -0.5687 -0.4015
   6923SM  H20F 9061   4.871   2.238   5.396 -1.8646  1.6643 -2.0226
   6923SM  H20G 9062   4.702   2.250   5.353  0.3523  1.6500 -0.2637
   6923SM  C21F 9063   4.765   2.057   5.443 -0.3912  0.7121 -0.2812
   6923SM  H21F 9064   4.662   2.025   5.468 -0.1854  1.5628  1.8294
   6923SM  H21G 9065   4.825   2.025   5.531 -1.6546  1.8875  1.0702
   6923SM  C22F 9066   4.794   1.984   5.311  0.4234  0.2928 -0.8073
   6923SM  H22F 9067   4.719   2.014   5.235 -2.4064  0.1263  1.7122
   6923SM  H22G 9068   4.768   1.878   5.328 -1.7413  1.0399  1.1496
   6923SM  C23F 9069   4.936   2.009   5.259  0.0144 -0.1474 -0.3216
   6923SM  H23F 9070   5.023   1.970   5.316  1.7525  0.2564 -2.5581
   6923SM  H23G 9071   4.953   2.118   5.250 -0.7143  0.0296  0.3323
   6923SM  H23H 9072   4.947   1.954   5.163 -0.4348 -0.7297 -0.0533
   7023SM     N 9073   3.908   2.598   7.758  0.1510  0.3723  0.0427
   7023SM   C15 9074   4.033   2.644   7.680 -0.2199  0.2661  0.3254
   7023SM  H15A 9075   4.028   2.605   7.580 -2.7158 -1.3485  0.9981
   7023SM  H15B 9076   4.121   2.608   7.732 -0.5362  0.2569  0.8586
   7023SM  H15C 9077   4.039   2.751   7.668 -2.1610  0.4002  0.2666
   7023SM   C14 9078   3.922   2.451   7.790 -0.0310 -0.8061 -0.4657
   7023SM  H14A 9079   3.820   2.422   7.808  0.1230  0.0249  2.2316
   7023SM  H14B 9080   3.971   2.443   7.886 -1.9539 -1.6942  0.4871
   7023SM  H14C 9081   3.973   2.395   7.714  0.5330  1.3471 -1.7657
   7023SM   C13 9082   3.916   2.674   7.888 -0.1574 -0.0973 -0.1286
   7023SM  H13A 9083   3.839   2.651   7.960 -0.5196 -0.2679 -0.5695
   7023SM  H13B 9084   3.904   2.780   7.874  0.2653 -0.3075 -2.5015
   7023SM  H13C 9085   4.002   2.650   7.950 -0.0725  1.3399  0.3338
   7023SM   C12 9086   3.769   2.623   7.688 -0.2562 -0.2270  0.7135
   7023SM  H12A 9087   3.760   2.558   7.602 -0.3610 -1.4709  1.6540
   7023SM  H12B 9088   3.766   2.724   7.649  0.3289 -0.3172  0.4201
   7023SM   C11 9089   3.640   2.593   7.777 -0.5255 -0.1375  0.1425
   7023SM  H11A 9090   3.561   2.633   7.710  1.0042 -0.2347 -1.7944
   7023SM  H11B 9091   3.654   2.653   7.870 -1.7374  0.8466 -0.2858
   7023SM     P 9092   3.558   2.350   7.720 -0.1775 -0.0851 -0.1579
   7023SM   O13 9093   3.663   2.246   7.707  0.0906  0.0057 -0.1093
   7023SM   O14 9094   3.426   2.301   7.765 -0.2704  0.7300  0.1555
   7023SM   O11 9095   3.544   2.428   7.588 -0.1328  0.1226  0.1231
   7023SM   O12 9096   3.627   2.455   7.813  0.8467 -0.0102 -0.5186
   7023SM   C1S 9097   3.574   2.358   7.464  0.4194  0.2289 -0.3239
   7023SM   H1S 9098   3.505   2.271   7.464 -0.8024  1.1285 -2.0611
   7023SM   H1T 9099   3.679   2.324   7.473  0.3127  0.2762  1.7294
   7023SM    NF 9100   3.542   2.364   7.218 -0.3986  0.2862  0.2963
   7023SM   HNF 9101   3.634   2.364   7.180 -1.1203 -2.1691 -1.6898
   7023SM   C2S 9102   3.539   2.443   7.341  0.0453  0.4630  0.1923
   7023SM   H2S 9103   3.432   2.469   7.357 -1.1315 -2.5033 -1.9481
   7023SM   C3S 9104   3.627   2.565   7.340 -0.1367 -0.3392 -0.9549
   7023SM   H3S 9105   3.734   2.536   7.343  0.0210  0.2309  1.8626
   7023SM    O3 9106   3.623   2.651   7.450  0.2041 -0.4583  0.6206
   7023SM   HO3 9107   3.569   2.602   7.512 -1.9017 -0.3642 -1.0393
   7023SM   C4S 9108   3.601   2.649   7.220  0.9140 -0.2487  0.1743
   7023SM   H4S 9109   3.520   2.723   7.231  2.0651  1.3428 -1.5119
   7023SM   C5S 9110   3.679   2.657   7.108  0.6810 -0.0442  0.7896
   7023SM   H5S 9111   3.777   2.608   7.108  0.4280 -0.5874 -0.4598
   7023SM   C6S 9112   3.645   2.745   6.987  0.3345  0.3672  0.5187
   7023SM   H6S 9113   3.547   2.794   7.006 -0.9630 -2.3828  1.3557
   7023SM   H6T 9114   3.639   2.678   6.899  0.5933  1.3756 -0.2970
   7023SM   C7S 9115   3.762   2.847   6.984 -0.0215  0.4327 -0.5531
   7023SM   H7S 9116   3.859   2.794   6.991  0.9381  2.1218 -0.5879
   7023SM   H7T 9117   3.750   2.905   7.078 -1.5615  1.0256 -1.0836
   7023SM   C8S 9118   3.763   2.946   6.874  0.0553 -0.8703 -0.2000
   7023SM   H8S 9119   3.858   2.998   6.896 -1.0994  0.1935  2.8628
   7023SM   H8T 9120   3.681   3.021   6.881  0.4810 -0.5425  2.0724
   7023SM   C9S 9121   3.761   2.886   6.733 -0.4290  0.6563 -0.7686
   7023SM   H9S 9122   3.658   2.846   6.720 -0.5937  0.8026  0.0123
   7023SM   H9T 9123   3.827   2.797   6.732 -1.6616 -0.3757  1.6035
   7023SM  C10S 9124   3.781   2.986   6.620  0.2172  0.0915 -0.1973
   7023SM  H10S 9125   3.889   2.990   6.594  0.7437 -0.5791  1.6883
   7023SM  H10T 9126   3.760   3.089   6.655  0.4352 -0.0815  0.4620
   7023SM  C11S 9127   3.699   2.958   6.492 -0.7549  0.1082  0.9897
   7023SM  H11S 9128   3.589   2.961   6.510 -1.0569  1.1063 -0.8068
   7023SM  H11T 9129   3.726   2.860   6.447 -0.4344  1.2186 -1.3754
   7023SM  C12S 9130   3.738   3.053   6.380 -0.5232  0.1609 -0.1554
   7023SM  H12S 9131   3.846   3.038   6.362 -0.8369 -0.0968 -2.1009
   7023SM  H12T 9132   3.732   3.155   6.425 -2.9961  0.6417 -1.4054
   7023SM  C13S 9133   3.667   3.027   6.243 -0.8091 -0.1409  0.8925
   7023SM  H13S 9134   3.560   3.039   6.267 -1.2446 -0.6024 -0.7093
   7023SM  H13T 9135   3.693   2.925   6.207  1.6754  1.1810 -1.4055
   7023SM  C14S 9136   3.705   3.135   6.132 -0.1095  0.3281  0.1543
   7023SM  H14S 9137   3.815   3.147   6.120 -0.0745  0.3619  0.4961
   7023SM  H14T 9138   3.668   3.231   6.174  1.5078  0.1896  2.0037
   7023SM  C15S 9139   3.651   3.092   6.001  0.6110 -0.0211 -0.1032
   7023SM  H15S 9140   3.548   3.052   6.001 -0.2248  1.9171  1.8879
   7023SM  H15T 9141   3.718   3.010   5.967  1.4991  0.9005 -0.6527
   7023SM  C16S 9142   3.645   3.205   5.900 -0.9154 -0.5221  0.1468
   7023SM  H16S 9143   3.752   3.232   5.885 -1.0228 -0.3155 -0.2559
   7023SM  H16T 9144   3.605   3.301   5.940  2.0171  0.1277  1.8118
   7023SM  C17S 9145   3.582   3.166   5.764 -0.0983  0.0051 -0.5153
   7023SM  H17S 9146   3.501   3.093   5.785 -0.3919  0.5290  0.2208
   7023SM  H17T 9147   3.655   3.121   5.693  0.8383 -1.3970  1.2519
   7023SM  C18S 9148   3.536   3.295   5.698  0.3983 -0.1032  0.6014
   7023SM  H18S 9149   3.448   3.335   5.753  0.0927  1.4710 -0.9651
   7023SM  H18T 9150   3.501   3.264   5.597 -0.8185 -0.6051  1.1583
   7023SM  H18U 9151   3.622   3.365   5.689 -1.3511  1.9111 -1.5340
   7023SM   C1F 9152   3.443   2.287   7.171  0.4224 -0.1100  0.0662
   7023SM    OF 9153   3.336   2.293   7.225 -0.4017  0.5123 -0.4795
   7023SM   C2F 9154   3.475   2.191   7.061  0.1909  0.1207  0.4742
   7023SM   H2F 9155   3.460   2.086   7.092 -0.1232 -0.6283 -1.9868
   7023SM   H2G 9156   3.582   2.193   7.031 -0.0584  0.1032 -0.4447
   7023SM   C3F 9157   3.379   2.229   6.943  0.2140  0.3051 -0.5207
   7023SM   H3F 9158   3.388   2.339   6.927 -0.2051  0.1421 -1.9953
   7023SM   H3G 9159   3.276   2.213   6.981  0.9778  0.7149  1.8951
   7023SM   C4F 9160   3.401   2.141   6.820 -0.0908  0.3356 -0.4808
   7023SM   H4F 9161   3.337   2.177   6.737  0.1509  1.8652 -0.0212
   7023SM   H4G 9162   3.378   2.038   6.854  3.1917 -0.4236 -0.1432
   7023SM   C5F 9163   3.539   2.143   6.764  0.1477  0.2073  0.0898
   7023SM   H5F 9164   3.614   2.109   6.838 -1.5979 -0.1234  1.8069
   7023SM   H5G 9165   3.564   2.247   6.736  0.5873  0.3327  0.8992
   7023SM   C6F 9166   3.556   2.047   6.642 -0.9573 -0.3735  0.1675
   7023SM   H6F 9167   3.474   2.068   6.570 -0.9224 -0.6241  0.0553
   7023SM   H6G 9168   3.537   1.942   6.674 -0.5554 -1.0854 -1.8190
   7023SM   C7F 9169   3.695   2.061   6.580  0.6963  0.2305 -0.1610
   7023SM   H7F 9170   3.776   2.027   6.647 -0.5172 -0.2654  1.0928
   7023SM   H7G 9171   3.710   2.165   6.543 -1.0447  0.9808  1.1063
   7023SM   C8F 9172   3.705   1.960   6.469  0.0572 -0.7330 -0.2723
   7023SM   H8F 9173   3.630   1.976   6.389  0.8332 -0.6209 -0.9974
   7023SM   H8G 9174   3.685   1.858   6.509 -1.5216 -0.4454 -0.2927
   7023SM   C9F 9175   3.843   1.975   6.396 -0.1658 -0.4142 -0.6238
   7023SM   H9F 9176   3.918   1.935   6.468 -0.2098 -1.2446 -1.0346
   7023SM   H9G 9177   3.857   2.084   6.378  1.2118 -0.6157 -0.8716
   7023SM  C10F 9178   3.848   1.912   6.257 -0.1430  0.3365  0.2826
   7023SM  H10F 9179   3.947   1.921   6.207 -0.4362  1.2428 -0.1502
   7023SM  H10G 9180   3.773   1.963   6.194  0.3412 -0.7632 -1.2582
   7023SM  C11F 9181   3.808   1.764   6.255 -0.0063 -0.5233  0.0203
   7023SM  H11F 9182   3.703   1.754   6.291 -0.0665  1.5587  0.5607
   7023SM  H11G 9183   3.882   1.709   6.317 -0.3682  0.6815  1.5902
   7023SM  C12F 9184   3.835   1.712   6.116  0.2796  0.6493  0.0356
   7023SM  H12F 9185   3.942   1.730   6.093  0.5029 -1.3589 -0.7077
   7023SM  H12G 9186   3.775   1.773   6.045  1.8845  1.6573 -0.5096
   7023SM  C13F 9187   3.793   1.561   6.102  0.3034 -0.4230 -0.7922
   7023SM  H13F 9188   3.708   1.558   6.029  0.1110  0.9319 -0.6471
   7023SM  H13G 9189   3.745   1.523   6.195  0.5817 -1.8615 -1.2138
   7023SM  C14F 9190   3.903   1.464   6.076 -0.7818  0.1151 -0.2279
   7023SM  H14F 9191   3.864   1.360   6.072  1.5944 -0.8151 -1.0335
   7023SM  H14G 9192   3.977   1.458   6.159 -0.7020  1.8891 -0.1204
   7023SM  C15F 9193   3.992   1.494   5.954  0.1464 -0.0783  0.3204
   7023SM  H15F 9194   4.072   1.418   5.966 -0.2798 -0.4156  1.1167
   7023SM  H15G 9195   4.034   1.596   5.970  0.5831 -0.0960 -0.6611
   7023SM  C16F 9196   3.923   1.490   5.823  0.1633  0.3798  0.1089
   7023SM  H16F 9197   3.829   1.548   5.837 -0.9675 -0.6962 -2.4094
   7023SM  H16G 9198   3.888   1.388   5.794 -0.3192  1.2745 -2.6834
   7023SM  C17F 9199   3.995   1.554   5.704 -0.1517  0.2295  0.0556
   7023SM  H17F 9200   4.000   1.664   5.720 -0.1702  0.3864 -0.9900
   7023SM  H17G 9201   3.937   1.539   5.611  1.6459 -0.7350 -0.9516
   7023SM  C18F 9202   4.133   1.496   5.684 -0.8235 -0.2015 -0.3462
   7023SM  H18F 9203   4.122   1.386   5.694 -0.2121 -0.3132 -0.8322
   7023SM  H18G 9204   4.194   1.539   5.766 -0.4694 -0.1567 -0.6278
   7023SM  C19F 9205   4.199   1.537   5.551 -1.0792  0.1831  0.5861
   7023SM  H19F 9206   4.223   1.645   5.564 -1.9237  0.4709 -0.1799
   7023SM  H19G 9207   4.137   1.516   5.462 -0.3828 -0.8526  0.3256
   7023SM  C20F 9208   4.333   1.465   5.525  0.2897 -0.2009 -0.2891
   7023SM  H20F 9209   4.382   1.493   5.429 -0.5172 -1.7176 -1.1777
   7023SM  H20G 9210   4.310   1.358   5.509 -1.8390 -0.0689  1.5507
   7023SM  C21F 9211   4.423   1.467   5.651 -0.4380  0.1873 -0.2496
   7023SM  H21F 9212   4.372   1.425   5.741  0.1624  0.4714  0.2328
   7023SM  H21G 9213   4.452   1.570   5.679 -0.9855  0.0565  0.8715
   7023SM  C22F 9214   4.557   1.386   5.619  1.0372 -0.4252 -0.0032
   7023SM  H22F 9215   4.615   1.415   5.529  1.8838 -2.3447 -0.1309
   7023SM  H22G 9216   4.513   1.286   5.598  0.1217 -0.1373  0.4573
   7023SM  C23F 9217   4.664   1.379   5.728  0.0944  0.2158  0.0661
   7023SM  H23F 9218   4.725   1.470   5.751  2.6116 -0.9021 -1.7087
   7023SM  H23G 9219   4.734   1.299   5.696  1.2662  1.0031  0.5673
   7023SM  H23H 9220   4.636   1.337   5.827  2.2285 -1.3536  0.0721
   7123SM     N 9221   4.310   0.616   7.606 -0.6759 -0.1936 -0.0792
   7123SM   C15 9222   4.227   0.525   7.514  0.6186 -0.2592 -0.4210
   7123SM  H15A 9223   4.282   0.446   7.465 -0.8936 -0.7976 -1.3337
   7123SM  H15B 9224   4.186   0.582   7.432  0.9323  0.5389 -0.0294
   7123SM  H15C 9225   4.137   0.500   7.569  0.1127  0.4955 -0.8818
   7123SM   C14 9226   4.226   0.731   7.651 -0.2179 -1.0751 -0.2878
   7123SM  H14A 9227   4.288   0.797   7.710  0.2897 -1.1244 -0.7556
   7123SM  H14B 9228   4.157   0.695   7.725  1.0263 -1.2587  0.8199
   7123SM  H14C 9229   4.177   0.788   7.573 -0.1274  2.5556  2.0771
   7123SM   C13 9230   4.363   0.538   7.728 -0.5994 -0.3541 -0.0064
   7123SM  H13A 9231   4.429   0.605   7.781  0.0822  0.1927 -1.4794
   7123SM  H13B 9232   4.424   0.457   7.689  0.7933 -0.2527  1.8115
   7123SM  H13C 9233   4.282   0.495   7.784  0.5656  0.3761  2.3834
   7123SM   C12 9234   4.429   0.663   7.519 -0.3250 -0.6185 -0.1114
   7123SM  H12A 9235   4.403   0.752   7.463  2.3682  0.9582  0.9181
   7123SM  H12B 9236   4.455   0.586   7.448  0.6166 -1.1723  0.8079
   7123SM   C11 9237   4.556   0.708   7.589 -0.6322  0.9642  0.6150
   7123SM  H11A 9238   4.529   0.769   7.677 -0.2278  0.9407  0.7605
   7123SM  H11B 9239   4.622   0.770   7.525  0.3060 -0.1496  0.4740
   7123SM     P 9240   4.715   0.500   7.554 -0.1734  0.1472 -0.1774
   7123SM   O13 9241   4.851   0.566   7.548 -0.4541 -0.1665 -0.5516
   7123SM   O14 9242   4.715   0.358   7.602  0.0152  0.0926 -0.4171
   7123SM   O11 9243   4.651   0.496   7.405  0.2363 -0.9522 -0.3211
   7123SM   O12 9244   4.622   0.588   7.642 -0.4562 -0.5354 -0.3628
   7123SM   C1S 9245   4.718   0.408   7.320  0.1908  0.4460  0.2681
   7123SM   H1S 9246   4.702   0.305   7.357  0.9220  1.0462  2.3544
   7123SM   H1T 9247   4.828   0.424   7.312  0.7053 -2.1201  1.3091
   7123SM    NF 9248   4.687   0.309   7.102  0.6988  0.2127  0.1703
   7123SM   HNF 9249   4.768   0.316   7.045 -0.0336 -0.7483 -1.0403
   7123SM   C2S 9250   4.653   0.421   7.179  0.8641  0.2957  0.2049
   7123SM   H2S 9251   4.544   0.420   7.200  0.8146 -2.7283  0.1817
   7123SM   C3S 9252   4.684   0.565   7.119 -0.2793 -0.0577 -0.0986
   7123SM   H3S 9253   4.793   0.584   7.121 -0.1473 -0.6312 -1.1795
   7123SM    O3 9254   4.623   0.663   7.200  0.4841  0.2053 -0.3409
   7123SM   HO3 9255   4.589   0.618   7.278 -0.1636 -1.1349 -1.3478
   7123SM   C4S 9256   4.642   0.582   6.983  0.3926 -0.0977  0.2956
   7123SM   H4S 9257   4.727   0.568   6.915 -1.6142 -0.5733 -2.2621
   7123SM   C5S 9258   4.522   0.615   6.927 -0.4700  0.3658 -0.1453
   7123SM   H5S 9259   4.445   0.658   6.992  0.9595  1.9606  0.5693
   7123SM   C6S 9260   4.485   0.622   6.781 -0.4417  0.0222 -0.2612
   7123SM   H6S 9261   4.430   0.716   6.762 -1.2363 -0.6326 -1.2732
   7123SM   H6T 9262   4.416   0.537   6.763 -0.0335 -0.0370 -1.6928
   7123SM   C7S 9263   4.599   0.606   6.683 -0.0476  0.0132  0.5412
   7123SM   H7S 9264   4.668   0.519   6.692  1.5346  1.1633  0.0557
   7123SM   H7T 9265   4.656   0.701   6.672  0.1496 -0.1715 -0.0451
   7123SM   C8S 9266   4.529   0.590   6.547 -0.2073  0.1331  0.5570
   7123SM   H8S 9267   4.459   0.674   6.531 -1.1547 -0.9650 -1.4688
   7123SM   H8T 9268   4.464   0.500   6.542  0.4743 -0.4387  1.5232
   7123SM   C9S 9269   4.624   0.594   6.425 -0.1368  0.3436 -0.1048
   7123SM   H9S 9270   4.684   0.500   6.421 -1.1617 -0.4159  1.3937
   7123SM   H9T 9271   4.683   0.688   6.418  0.1169  0.2843  0.9773
   7123SM  C10S 9272   4.547   0.585   6.292 -0.3916 -0.3470  0.1227
   7123SM  H10S 9273   4.486   0.678   6.286 -1.4427 -1.0949 -1.0762
   7123SM  H10T 9274   4.475   0.501   6.294  1.3754 -1.9322 -0.0230
   7123SM  C11S 9275   4.631   0.578   6.168 -0.3734  0.4804 -0.4113
   7123SM  H11S 9276   4.672   0.476   6.155 -0.4200  0.7043 -2.8856
   7123SM  H11T 9277   4.721   0.642   6.177  0.2236 -0.0855 -2.0902
   7123SM  C12S 9278   4.551   0.597   6.040  0.5423 -0.1564 -0.3377
   7123SM  H12S 9279   4.486   0.686   6.054 -2.1945 -2.0584  0.0744
   7123SM  H12T 9280   4.469   0.522   6.042  2.0274 -1.8363 -0.5101
   7123SM  C13S 9281   4.632   0.602   5.909 -0.6853  0.2116  0.3185
   7123SM  H13S 9282   4.678   0.504   5.884  1.0463  1.1100 -0.2344
   7123SM  H13T 9283   4.714   0.675   5.925  0.6261 -1.1192 -0.0766
   7123SM  C14S 9284   4.540   0.638   5.795 -0.0091 -0.7910 -0.1534
   7123SM  H14S 9285   4.489   0.734   5.821 -2.9211 -1.8829 -1.4227
   7123SM  H14T 9286   4.464   0.561   5.772  0.9406 -2.1356  1.0492
   7123SM  C15S 9287   4.631   0.660   5.670  0.1579  0.1136 -0.1264
   7123SM  H15S 9288   4.667   0.561   5.635 -2.1719 -1.0199  0.4934
   7123SM  H15T 9289   4.714   0.732   5.684  0.1880 -0.1474  1.1980
   7123SM  C16S 9290   4.547   0.703   5.551  0.2657 -0.5232 -0.1848
   7123SM  H16S 9291   4.530   0.811   5.570 -1.4007 -0.9124  0.7196
   7123SM  H16T 9292   4.446   0.658   5.557  0.3192 -0.5983  0.1759
   7123SM  C17S 9293   4.614   0.693   5.416 -0.3196  0.2774  0.2960
   7123SM  H17S 9294   4.716   0.738   5.413  0.4881 -1.5285 -1.3609
   7123SM  H17T 9295   4.558   0.744   5.335 -2.0377  0.5532  1.6093
   7123SM  C18S 9296   4.628   0.546   5.373 -0.5767  0.4888 -0.2373
   7123SM  H18S 9297   4.681   0.548   5.275  1.9394 -1.7262  0.9359
   7123SM  H18T 9298   4.529   0.496   5.359 -0.7321  0.1743  1.8030
   7123SM  H18U 9299   4.680   0.481   5.447 -1.5590  0.0634  0.1015
   7123SM   C1F 9300   4.623   0.197   7.105  0.3202 -0.6669 -0.3434
   7123SM    OF 9301   4.534   0.184   7.190  0.3211  0.7445  0.2171
   7123SM   C2F 9302   4.673   0.088   7.009 -0.3093 -0.3229 -0.1915
   7123SM   H2F 9303   4.728   0.012   7.067  0.5103 -0.1502 -0.7377
   7123SM   H2G 9304   4.753   0.135   6.948  0.1698 -0.2990  0.4434
   7123SM   C3F 9305   4.567   0.019   6.921  0.0872 -0.0990  0.1503
   7123SM   H3F 9306   4.480  -0.027   6.974 -0.8931  0.5333 -0.8562
   7123SM   H3G 9307   4.612  -0.061   6.857 -0.1911  0.1186 -0.3251
   7123SM   C4F 9308   4.505   0.110   6.825 -0.0554  0.0519  0.6145
   7123SM   H4F 9309   4.457   0.201   6.869  1.6801  2.2287 -1.6988
   7123SM   H4G 9310   4.429   0.046   6.776  0.7589 -1.8179  1.6970
   7123SM   C5F 9311   4.600   0.162   6.718 -0.0453 -0.3472 -0.1925
   7123SM   H5F 9312   4.667   0.080   6.684 -2.2374 -1.5524 -1.8770
   7123SM   H5G 9313   4.659   0.236   6.777  1.6861 -0.6718 -1.4465
   7123SM   C6F 9314   4.544   0.231   6.593 -0.1117  0.1040 -0.3386
   7123SM   H6F 9315   4.632   0.283   6.548  2.2388 -0.8217  2.7873
   7123SM   H6G 9316   4.467   0.307   6.617 -1.0547 -0.8098 -0.4355
   7123SM   C7F 9317   4.487   0.124   6.500 -0.0119 -0.1367 -0.0414
   7123SM   H7F 9318   4.403   0.068   6.547 -0.9488 -0.8116 -2.3939
   7123SM   H7G 9319   4.568   0.053   6.475  2.4127  2.0300  1.2126
   7123SM   C8F 9320   4.437   0.182   6.358 -0.1762  0.0042 -0.5141
   7123SM   H8F 9321   4.395   0.281   6.389  3.0196  0.9451  1.2707
   7123SM   H8G 9322   4.365   0.110   6.314 -0.1861 -1.7910  2.2309
   7123SM   C9F 9323   4.551   0.195   6.255 -0.6141  0.1939 -0.3004
   7123SM   H9F 9324   4.583   0.090   6.241  1.4026  0.3270  2.4680
   7123SM   H9G 9325   4.632   0.260   6.295 -0.5553  0.1217 -0.3031
   7123SM  C10F 9326   4.508   0.234   6.115  0.2997 -0.1890 -0.1866
   7123SM  H10F 9327   4.489   0.343   6.131  2.0847 -0.0374  1.1897
   7123SM  H10G 9328   4.413   0.178   6.100  0.9137 -1.7056  1.3977
   7123SM  C11F 9329   4.611   0.218   5.994  0.4285 -0.1487  0.9035
   7123SM  H11F 9330   4.636   0.110   5.989 -0.9674 -0.4997  0.8459
   7123SM  H11G 9331   4.692   0.293   6.000 -1.8476  2.4800  1.0764
   7123SM  C12F 9332   4.536   0.241   5.857 -0.5502 -0.1840  0.4632
   7123SM  H12F 9333   4.506   0.348   5.850 -0.4498 -0.2811 -2.9103
   7123SM  H12G 9334   4.433   0.200   5.853 -1.0295  1.0772 -0.9912
   7123SM  C13F 9335   4.607   0.189   5.725 -0.5283 -0.5313  0.5977
   7123SM  H13F 9336   4.641   0.083   5.728  0.3402 -0.5387 -3.6775
   7123SM  H13G 9337   4.695   0.253   5.704 -2.6526  1.6553 -2.5697
   7123SM  C14F 9338   4.522   0.205   5.597 -0.6996 -0.2005 -0.0720
   7123SM  H14F 9339   4.500   0.314   5.592 -1.4377 -0.3845 -1.5520
   7123SM  H14G 9340   4.427   0.149   5.604 -1.4366  1.0765  0.3738
   7123SM  C15F 9341   4.604   0.152   5.480  0.0849 -0.8399  0.3168
   7123SM  H15F 9342   4.625   0.046   5.506 -0.5062 -1.2938 -0.9520
   7123SM  H15G 9343   4.703   0.200   5.472 -0.7901  0.7983 -1.2758
   7123SM  C16F 9344   4.532   0.162   5.345 -1.0172  0.5454  0.1767
   7123SM  H16F 9345   4.480   0.260   5.334  0.7114  1.4177 -0.6984
   7123SM  H16G 9346   4.454   0.083   5.347  0.7221 -1.2416 -0.0118
   7123SM  C17F 9347   4.627   0.164   5.232 -0.5329  0.4162 -0.5401
   7123SM  H17F 9348   4.663   0.060   5.218 -1.4555  0.1266 -0.8440
   7123SM  H17G 9349   4.714   0.223   5.270  0.5798 -1.8587  0.6684
   7123SM  C18F 9350   4.567   0.209   5.096  0.1791  0.6978 -0.8684
   7123SM  H18F 9351   4.542   0.318   5.101  2.7593  1.3239  4.0364
   7123SM  H18G 9352   4.465   0.165   5.087  0.6453 -0.4875 -0.5021
   7123SM  C19F 9353   4.667   0.177   4.980  0.2864  0.2708  0.5361
   7123SM  H19F 9354   4.668   0.067   4.959  2.1658  0.3585 -0.0267
   7123SM  H19G 9355   4.766   0.212   5.016  0.1273  1.8045 -0.4556
   7123SM  C20F 9356   4.625   0.246   4.858 -0.3838 -0.6808  0.8747
   7123SM  H20F 9357   4.627   0.356   4.873  2.5107 -0.1527 -2.1318
   7123SM  H20G 9358   4.521   0.239   4.820  0.2974  0.5413 -1.4472
   7123SM  C21F 9359   4.715   0.214   4.740 -0.0707  0.4083 -0.6176
   7123SM  H21F 9360   4.684   0.112   4.707  0.7689  0.1451 -0.6089
   7123SM  H21G 9361   4.819   0.213   4.779 -0.9572  0.2400  1.9223
   7123SM  C22F 9362   4.692   0.308   4.625 -0.4023  0.0205  0.7848
   7123SM  H22F 9363   4.582   0.313   4.614 -0.5310 -0.9619  1.5301
   7123SM  H22G 9364   4.720   0.273   4.524 -3.3253  0.1464 -0.1382
   7123SM  C23F 9365   4.770   0.433   4.647  0.3131  0.4481  0.0142
   7123SM  H23F 9366   4.880   0.418   4.633  0.2518  0.9081 -1.0804
   7123SM  H23G 9367   4.754   0.483   4.745 -0.2744  2.0224 -0.8473
   7123SM  H23H 9368   4.738   0.511   4.574  0.1802 -2.9117 -3.9074
   7223SM     N 9369   6.528   3.331   7.201 -0.9092 -0.6215 -0.0943
   7223SM   C15 9370   6.511   3.220   7.308  0.4806  0.0413  0.5407
   7223SM  H15A 9371   6.561   3.126   7.291 -2.6330 -1.9802  1.6597
   7223SM  H15B 9372   6.407   3.193   7.318 -0.1978  1.7814 -1.2223
   7223SM  H15C 9373   6.548   3.258   7.403 -1.2993  1.4517  0.7358
   7223SM   C14 9374   6.465   3.460   7.250  0.2714 -0.3166  0.2860
   7223SM  H14A 9375   6.496   3.538   7.181 -0.1529  0.3490  0.8274
   7223SM  H14B 9376   6.499   3.490   7.348 -1.2268  1.6314  0.2838
   7223SM  H14C 9377   6.357   3.459   7.240  0.2716 -1.4562  0.2600
   7223SM   C13 9378   6.670   3.365   7.177 -0.2175 -0.4442  0.3435
   7223SM  H13A 9379   6.718   3.393   7.269 -0.9360  2.4795 -0.0516
   7223SM  H13B 9380   6.680   3.439   7.099 -0.6022  1.1652  1.7597
   7223SM  H13C 9381   6.729   3.286   7.134  1.9501  1.6831 -0.8181
   7223SM   C12 9382   6.468   3.294   7.065  0.3522 -0.3546  0.4234
   7223SM  H12A 9383   6.528   3.214   7.025 -0.2749  0.3513 -2.0735
   7223SM  H12B 9384   6.480   3.371   6.991 -1.9595  1.7189  2.0259
   7223SM   C11 9385   6.321   3.259   7.070  0.2725 -0.2382  0.0497
   7223SM  H11A 9386   6.309   3.161   7.120  2.0800 -1.4095 -1.6748
   7223SM  H11B 9387   6.287   3.232   6.967  0.5967  0.3895 -0.2280
   7223SM     P 9388   6.132   3.341   7.234 -0.0705  0.1114  0.1498
   7223SM   O13 9389   6.173   3.218   7.311 -0.2286  0.6079  0.2450
   7223SM   O14 9390   6.107   3.476   7.301  0.4259 -0.0918 -0.9280
   7223SM   O11 9391   6.004   3.305   7.148  0.0238  0.0967 -0.1591
   7223SM   O12 9392   6.232   3.365   7.109 -0.4021  0.2321  0.2656
   7223SM   C1S 9393   5.942   3.385   7.042 -0.4057 -1.1280 -0.0577
   7223SM   H1S 9394   5.954   3.492   7.067 -3.2396 -0.3813 -1.4631
   7223SM   H1T 9395   5.831   3.374   7.045 -0.6319  0.9906  1.0536
   7223SM    NF 9396   5.928   3.436   6.798 -0.1570 -0.2853 -0.2214
   7223SM   HNF 9397   5.851   3.394   6.749  0.4327 -1.0992 -0.4777
   7223SM   C2S 9398   5.984   3.348   6.895  0.1506 -0.4570 -0.4728
   7223SM   H2S 9399   6.094   3.360   6.896  0.0851  0.2649 -0.8843
   7223SM   C3S 9400   5.948   3.198   6.879 -1.1832  0.5354  0.7792
   7223SM   H3S 9401   5.837   3.187   6.876 -1.3583  2.0591  0.7478
   7223SM    O3 9402   5.997   3.104   6.977  0.0931  0.6855  0.1879
   7223SM   HO3 9403   6.009   3.161   7.053  1.6660  0.8553 -0.1544
   7223SM   C4S 9404   5.989   3.157   6.736 -0.0969  0.7525 -0.6245
   7223SM   H4S 9405   5.908   3.170   6.663 -2.5586  0.4675  1.8741
   7223SM   C5S 9406   6.098   3.092   6.695 -0.0969  0.3035  0.1296
   7223SM   H5S 9407   6.160   3.064   6.781 -0.0253  3.1035  1.1244
   7223SM   C6S 9408   6.138   3.043   6.557 -0.1502  0.4063 -0.3718
   7223SM   H6S 9409   6.130   2.932   6.556  0.6584  0.3126  0.9679
   7223SM   H6T 9410   6.246   3.063   6.541  0.1390 -1.0429 -0.3719
   7223SM   C7S 9411   6.048   3.098   6.446 -0.4975  0.1098  0.0700
   7223SM   H7S 9412   6.029   3.206   6.461 -2.4314 -0.3381  1.1783
   7223SM   H7T 9413   5.945   3.057   6.456 -0.6057 -0.2264 -1.9646
   7223SM   C8S 9414   6.076   3.085   6.293 -0.8655 -0.1393 -0.7719
   7223SM   H8S 9415   6.179   3.119   6.267  0.2776 -3.3125 -0.8206
   7223SM   H8T 9416   6.000   3.156   6.254  0.5584  1.5659 -0.5722
   7223SM   C9S 9417   6.065   2.939   6.247  0.1745  0.0219  0.2124
   7223SM   H9S 9418   5.974   2.896   6.296  1.1705 -0.3948  1.7442
   7223SM   H9T 9419   6.159   2.883   6.264 -0.3707 -0.4939  1.7350
   7223SM  C10S 9420   6.054   2.931   6.090  0.6484  0.8831 -0.5004
   7223SM  H10S 9421   6.135   2.984   6.035 -1.1973  0.9309 -3.4144
   7223SM  H10T 9422   5.955   2.971   6.059 -0.2886 -2.2694 -2.0654
   7223SM  C11S 9423   6.058   2.784   6.041  0.5182  0.9234  0.1105
   7223SM  H11S 9424   5.987   2.722   6.101  1.3953  0.0248  0.2590
   7223SM  H11T 9425   6.160   2.740   6.044  0.8784  1.6576 -1.0130
   7223SM  C12S 9426   6.012   2.769   5.901  0.4848  0.1803  0.0401
   7223SM  H12S 9427   6.095   2.811   5.840  0.7023 -0.8766 -0.4128
   7223SM  H12T 9428   5.924   2.833   5.878 -0.7415 -0.8219  1.6932
   7223SM  C13S 9429   5.987   2.624   5.856 -0.0736 -0.2951 -0.3936
   7223SM  H13S 9430   5.896   2.583   5.904 -0.7664  1.2444 -0.3273
   7223SM  H13T 9431   6.080   2.569   5.879 -0.7930 -3.0317 -3.2699
   7223SM  C14S 9432   5.979   2.607   5.704 -0.0137  0.1066 -0.2131
   7223SM  H14S 9433   5.909   2.689   5.675  0.4792  0.2484 -1.0225
   7223SM  H14T 9434   5.947   2.502   5.690  0.0617  0.2271 -1.3567
   7223SM  C15S 9435   6.123   2.636   5.638  0.5651 -0.3881  0.3300
   7223SM  H15S 9436   6.189   2.564   5.692 -0.4037 -0.8786  0.8843
   7223SM  H15T 9437   6.170   2.731   5.671  0.2791 -0.1336  0.0079
   7223SM  C16S 9438   6.136   2.623   5.482  0.2928  0.4038  0.5326
   7223SM  H16S 9439   6.118   2.515   5.462  0.3055  0.6698 -1.0711
   7223SM  H16T 9440   6.239   2.638   5.445  0.8775 -1.2077  1.4385
   7223SM  C17S 9441   6.027   2.704   5.403 -0.2584  0.2487 -0.2258
   7223SM  H17S 9442   6.055   2.808   5.428 -0.1671 -0.0997  1.2230
   7223SM  H17T 9443   5.922   2.677   5.425  0.2798 -0.8151  1.2341
   7223SM  C18S 9444   6.046   2.697   5.257 -0.3225  0.4766  0.0529
   7223SM  H18S 9445   6.037   2.589   5.231 -0.8649  0.2395  1.1603
   7223SM  H18T 9446   6.147   2.727   5.222  0.5568 -1.9739  0.2388
   7223SM  H18U 9447   5.982   2.759   5.191  0.4024  0.9877 -0.1753
   7223SM   C1F 9448   5.959   3.563   6.804  0.5960 -0.5777  0.2479
   7223SM    OF 9449   6.055   3.602   6.861 -0.2694  0.4281  0.0538
   7223SM   C2F 9450   5.871   3.654   6.724  0.3148  0.0294  0.3726
   7223SM   H2F 9451   5.821   3.720   6.798 -2.3984 -0.8051 -0.6292
   7223SM   H2G 9452   5.790   3.593   6.679  2.0618 -3.4407  1.5837
   7223SM   C3F 9453   5.938   3.745   6.616  0.0163  0.8815  0.2980
   7223SM   H3F 9454   6.002   3.822   6.664  0.6212 -0.1436  1.1625
   7223SM   H3G 9455   5.866   3.792   6.545  1.2318 -0.0372 -1.6519
   7223SM   C4F 9456   6.030   3.671   6.520  0.0029  0.6522  0.2598
   7223SM   H4F 9457   6.125   3.642   6.571  0.3684 -0.3115 -0.9243
   7223SM   H4G 9458   6.064   3.739   6.439 -0.0823  2.0535  1.3593
   7223SM   C5F 9459   5.962   3.558   6.442 -0.4756 -0.3618  0.2428
   7223SM   H5F 9460   5.871   3.598   6.393 -0.2249  0.2714  0.2945
   7223SM   H5G 9461   5.924   3.485   6.518  1.8117  0.8110  2.6607
   7223SM   C6F 9462   6.045   3.494   6.325  0.0225 -0.3545  0.2039
   7223SM   H6F 9463   6.095   3.411   6.380  1.2405  0.2667  0.0774
   7223SM   H6G 9464   6.109   3.576   6.285  1.0262 -0.7899  0.8737
   7223SM   C7F 9465   5.957   3.438   6.213 -0.2100 -0.4533 -0.8600
   7223SM   H7F 9466   5.873   3.509   6.196  1.5256  1.5372 -1.5101
   7223SM   H7G 9467   5.919   3.334   6.224  1.2138 -0.8625  0.4725
   7223SM   C8F 9468   6.031   3.418   6.071  0.3030 -0.0004 -0.6274
   7223SM   H8F 9469   6.106   3.338   6.086 -1.7973 -2.1231 -0.7919
   7223SM   H8G 9470   6.092   3.508   6.047  1.2480 -0.8554 -1.5189
   7223SM   C9F 9471   5.932   3.378   5.964  0.7734  0.2604 -0.4942
   7223SM   H9F 9472   5.894   3.464   5.904  0.0871  1.6092  1.7030
   7223SM   H9G 9473   5.847   3.326   6.013  1.0524 -3.4574 -3.5360
   7223SM  C10F 9474   5.989   3.285   5.860  0.2010 -0.2129 -0.1680
   7223SM  H10F 9475   6.022   3.189   5.905 -1.0323  0.0496  1.3488
   7223SM  H10G 9476   6.084   3.335   5.828 -0.9459  0.4076 -2.9027
   7223SM  C11F 9477   5.895   3.263   5.743 -0.5000  0.2659 -0.2717
   7223SM  H11F 9478   5.850   3.361   5.715  0.1906  0.9615  0.9628
   7223SM  H11G 9479   5.819   3.191   5.781  0.9553 -0.9206  0.4678
   7223SM  C12F 9480   5.984   3.204   5.628  0.0197 -0.6697  0.1150
   7223SM  H12F 9481   6.004   3.097   5.648  1.8173 -0.2685  0.6730
   7223SM  H12G 9482   6.081   3.257   5.621 -0.3100 -0.0754 -0.0135
   7223SM  C13F 9483   5.916   3.210   5.492 -0.0669  0.1232  0.4286
   7223SM  H13F 9484   5.901   3.317   5.467  0.4394 -0.2671 -1.7967
   7223SM  H13G 9485   5.820   3.156   5.479 -0.6973  1.2031  0.4384
   7223SM  C14F 9486   5.995   3.145   5.384 -0.5906 -0.4696  0.2614
   7223SM  H14F 9487   6.007   3.035   5.400 -0.1465 -0.4324  0.1965
   7223SM  H14G 9488   6.093   3.197   5.380 -1.3490  0.9106 -1.7561
   7223SM  C15F 9489   5.936   3.170   5.251 -0.1398  0.3541 -0.0782
   7223SM  H15F 9490   6.017   3.134   5.183 -1.9611 -2.2594 -1.0281
   7223SM  H15G 9491   5.926   3.275   5.219  1.7943  0.8632  0.8204
   7223SM  C16F 9492   5.819   3.065   5.220 -0.4893  0.5902 -0.6718
   7223SM  H16F 9493   5.720   3.096   5.260 -0.3765 -0.4567  0.5173
   7223SM  H16G 9494   5.860   2.971   5.264  0.9239  0.7721 -1.5328
   7223SM  C17F 9495   5.810   3.047   5.057 -0.3377 -0.6888 -0.3325
   7223SM  H17F 9496   5.915   3.035   5.023  0.6035 -0.0042  2.0834
   7223SM  H17G 9497   5.778   3.138   5.003  2.2735  0.2845 -0.3574
   7223SM  C18F 9498   5.726   2.928   5.012  0.1354 -0.3970  0.4552
   7223SM  H18F 9499   5.629   2.944   5.063 -1.8086 -3.4886 -1.9062
   7223SM  H18G 9500   5.765   2.828   5.041 -0.6162 -0.3649  1.6678
   7223SM  C19F 9501   5.718   2.950   4.861  0.0087  0.1400  0.1871
   7223SM  H19F 9502   5.821   2.968   4.826  0.0770 -0.7891 -0.1134
   7223SM  H19G 9503   5.639   3.027   4.845  0.2223  0.4335  0.5148
   7223SM  C20F 9504   5.671   2.834   4.775 -0.1884  0.4535 -0.4042
   7223SM  H20F 9505   5.631   2.875   4.680  0.5921 -0.6948 -1.2593
   7223SM  H20G 9506   5.590   2.775   4.822  1.5378 -0.8014  1.1289
   7223SM  C21F 9507   5.781   2.721   4.765 -0.5200 -0.1149  0.5798
   7223SM  H21F 9508   5.803   2.683   4.867  0.0866 -0.3048  0.3843
   7223SM  H21G 9509   5.879   2.757   4.726 -0.1515  1.1087  2.4699
   7223SM  C22F 9510   5.724   2.590   4.693  0.3985  0.4769  0.0036
   7223SM  H22F 9511   5.679   2.623   4.597  0.2666  1.1985  0.3066
   7223SM  H22G 9512   5.637   2.556   4.753 -0.1465 -0.6628 -1.3625
   7223SM  C23F 9513   5.824   2.473   4.680  0.4106 -0.0835 -0.0471
   7223SM  H23F 9514   5.857   2.449   4.783  1.4200 -0.2234 -0.3933
   7223SM  H23G 9515   5.907   2.502   4.613 -0.4120 -0.7558 -1.4002
   7223SM  H23H 9516   5.774   2.382   4.640  1.6532 -1.5855  1.6602
   7323SM     N 9517   3.494   1.920   7.650 -0.2722 -0.5574  0.1929
   7323SM   C15 9518   3.567   1.944   7.769 -0.3294  0.4149 -0.7778
   7323SM  H15A 9519   3.519   1.906   7.858 -0.2703  1.4372 -0.3080
   7323SM  H15B 9520   3.597   2.046   7.788  1.1643 -0.2415  0.6166
   7323SM  H15C 9521   3.656   1.882   7.768 -0.7432 -0.1942 -1.5040
   7323SM   C14 9522   3.457   1.771   7.649  0.2772 -0.6207  0.8461
   7323SM  H14A 9523   3.405   1.739   7.738 -0.1263 -1.3887  0.3552
   7323SM  H14B 9524   3.540   1.705   7.629 -1.3318 -1.7239 -3.5046
   7323SM  H14C 9525   3.398   1.756   7.559  2.6906 -1.4712 -0.6951
   7323SM   C13 9526   3.369   2.005   7.657  0.2771  0.1680  0.8095
   7323SM  H13A 9527   3.298   1.982   7.579  0.9422  2.3321 -0.5087
   7323SM  H13B 9528   3.389   2.111   7.658  0.0573  0.2134  1.5884
   7323SM  H13C 9529   3.313   1.982   7.747 -0.5527 -1.4933 -0.0774
   7323SM   C12 9530   3.575   1.962   7.527 -0.4671  0.7921  0.3983
   7323SM  H12A 9531   3.664   1.900   7.525 -0.2133  1.1668 -0.7420
   7323SM  H12B 9532   3.604   2.065   7.536  2.5742  0.4215 -2.7315
   7323SM   C11 9533   3.517   1.924   7.386  0.8308 -0.1035  0.4308
   7323SM  H11A 9534   3.575   1.982   7.312 -0.5710 -1.1316 -1.5893
   7323SM  H11B 9535   3.410   1.955   7.378  0.4174 -1.8014 -2.5779
   7323SM     P 9536   3.631   1.722   7.285 -0.4243 -0.1823 -0.1005
   7323SM   O13 9537   3.737   1.712   7.390  0.6969 -0.1825  0.1377
   7323SM   O14 9538   3.588   1.594   7.226 -0.1440 -0.1671 -0.1476
   7323SM   O11 9539   3.664   1.826   7.172 -0.0230 -0.1498  0.3261
   7323SM   O12 9540   3.508   1.786   7.358  0.1092 -0.0851  0.4402
   7323SM   C1S 9541   3.743   1.766   7.067 -0.1399  0.2394 -0.1889
   7323SM   H1S 9542   3.682   1.688   7.016  1.3810  0.7101 -2.8863
   7323SM   H1T 9543   3.835   1.727   7.115 -1.1032 -0.3884  1.2307
   7323SM    NF 9544   3.881   1.791   6.867 -0.1378 -0.0221 -0.2681
   7323SM   HNF 9545   3.979   1.796   6.887 -0.4238  2.1508  0.9752
   7323SM   C2S 9546   3.801   1.868   6.965  0.3073  0.5097  0.4727
   7323SM   H2S 9547   3.713   1.909   6.912 -1.0806 -1.7430  0.9141
   7323SM   C3S 9548   3.887   1.975   7.036  0.1261  0.2437  0.6294
   7323SM   H3S 9549   3.972   1.914   7.070 -0.4934 -0.1627  1.4760
   7323SM    O3 9550   3.824   2.030   7.152  0.6619 -0.6897 -0.1042
   7323SM   HO3 9551   3.753   1.968   7.171 -1.2398  0.7079 -2.1329
   7323SM   C4S 9552   3.934   2.080   6.940  0.1601  0.9683 -0.2642
   7323SM   H4S 9553   4.017   2.052   6.873  0.0809  2.6907 -1.1521
   7323SM   C5S 9554   3.894   2.205   6.928  0.7837  1.0205 -0.1614
   7323SM   H5S 9555   3.806   2.239   6.985 -0.4765 -3.4161  0.9248
   7323SM   C6S 9556   3.951   2.302   6.833 -0.6178  0.1969  0.0126
   7323SM   H6S 9557   4.021   2.248   6.765 -0.7405 -0.3992  0.3573
   7323SM   H6T 9558   4.020   2.374   6.881  2.2367 -2.1678 -0.2310
   7323SM   C7S 9559   3.839   2.374   6.753  0.3340  0.8812 -0.0702
   7323SM   H7S 9560   3.784   2.441   6.822  1.6345  0.8029  1.0933
   7323SM   H7T 9561   3.778   2.300   6.697  2.3827 -0.1493 -1.0571
   7323SM   C8S 9562   3.897   2.476   6.648  0.7545 -0.2373 -0.0856
   7323SM   H8S 9563   3.973   2.424   6.586 -1.9149 -0.6455 -3.3220
   7323SM   H8T 9564   3.952   2.562   6.693  0.6048  0.4550 -1.1950
   7323SM   C9S 9565   3.781   2.527   6.561 -0.1250  0.4237 -0.2558
   7323SM   H9S 9566   3.702   2.569   6.627 -0.4530 -1.1480  0.3947
   7323SM   H9T 9567   3.733   2.443   6.507 -0.1414  1.1624 -1.4022
   7323SM  C10S 9568   3.820   2.616   6.443 -0.0950 -0.0794 -0.3268
   7323SM  H10S 9569   3.863   2.707   6.491  0.2945 -1.3044  1.7556
   7323SM  H10T 9570   3.743   2.637   6.365 -0.2699 -0.8442 -0.3681
   7323SM  C11S 9571   3.931   2.535   6.368 -0.5792 -0.0102  0.5781
   7323SM  H11S 9572   3.921   2.427   6.389 -0.8490 -0.0850  0.0852
   7323SM  H11T 9573   4.032   2.564   6.403  0.1719 -1.0815 -0.6149
   7323SM  C12S 9574   3.946   2.560   6.218  0.3284 -0.8812  0.0570
   7323SM  H12S 9575   3.982   2.665   6.207 -1.3851 -0.2073  0.4712
   7323SM  H12T 9576   3.845   2.560   6.172 -0.2739 -1.7640  1.3106
   7323SM  C13S 9577   4.025   2.456   6.141 -0.4153 -0.0248 -0.2879
   7323SM  H13S 9578   4.089   2.404   6.216 -0.0376  1.0778  0.1811
   7323SM  H13T 9579   4.082   2.505   6.060  0.6926  0.8935  0.9967
   7323SM  C14S 9580   3.927   2.351   6.083  0.1460  0.2754 -0.7727
   7323SM  H14S 9581   3.908   2.378   5.977 -3.3477  1.5389  0.0667
   7323SM  H14T 9582   3.831   2.348   6.138  0.5678 -3.6181  0.1034
   7323SM  C15S 9583   3.978   2.199   6.090  0.0538  0.3777  0.5012
   7323SM  H15S 9584   3.936   2.169   6.189 -2.9904 -0.6204 -0.9478
   7323SM  H15T 9585   4.088   2.207   6.083  0.1293  0.4793  1.6648
   7323SM  C16S 9586   3.917   2.118   5.980  0.0815  0.9639  0.4413
   7323SM  H16S 9587   3.806   2.129   5.977 -0.0028  0.2829  0.7315
   7323SM  H16T 9588   3.930   2.011   6.010 -0.6203  1.1349  1.4257
   7323SM  C17S 9589   3.967   2.155   5.839 -0.3047 -0.0796  0.6189
   7323SM  H17S 9590   4.076   2.177   5.835 -0.7346  2.1067 -0.5832
   7323SM  H17T 9591   3.936   2.253   5.796  0.9267 -0.2868 -0.8435
   7323SM  C18S 9592   3.943   2.040   5.740 -0.3628 -0.1093 -0.7941
   7323SM  H18S 9593   3.833   2.027   5.730 -0.3651 -0.7977 -0.0150
   7323SM  H18T 9594   3.988   1.948   5.783  0.7460  1.8538  2.6822
   7323SM  H18U 9595   3.995   2.062   5.645 -0.1364  0.6957 -0.4923
   7323SM   C1F 9596   3.822   1.719   6.776  0.4468 -0.0799 -0.1895
   7323SM    OF 9597   3.698   1.708   6.772  0.3181  0.3270  0.1186
   7323SM   C2F 9598   3.914   1.648   6.679  0.8808  0.2429  0.3733
   7323SM   H2F 9599   4.020   1.658   6.711  1.5216 -0.7749 -1.2845
   7323SM   H2G 9600   3.905   1.696   6.578  1.2176 -2.6169 -1.1067
   7323SM   C3F 9601   3.879   1.498   6.662  0.2772  0.1312 -0.1864
   7323SM   H3F 9602   3.769   1.487   6.662  0.3201 -0.3575  0.6445
   7323SM   H3G 9603   3.913   1.442   6.752  1.8588 -0.7393 -1.2693
   7323SM   C4F 9604   3.946   1.444   6.535 -0.8974  0.4773 -0.5048
   7323SM   H4F 9605   4.053   1.471   6.539 -1.1553  1.4350  0.3050
   7323SM   H4G 9606   3.907   1.482   6.438  4.4206  2.7783 -2.0826
   7323SM   C5F 9607   3.950   1.290   6.537  0.4375 -0.2857 -0.7535
   7323SM   H5F 9608   3.865   1.239   6.488 -0.3179 -0.8941  1.1076
   7323SM   H5G 9609   3.944   1.257   6.643 -2.0404 -1.0562 -1.0616
   7323SM   C6F 9610   4.065   1.216   6.470  0.3397 -0.2186  0.4494
   7323SM   H6F 9611   4.053   1.108   6.491 -0.0924  0.2212  2.7145
   7323SM   H6G 9612   4.166   1.248   6.505  0.4618 -0.6471  0.4900
   7323SM   C7F 9613   4.052   1.233   6.314 -0.3797  0.0693 -0.0489
   7323SM   H7F 9614   4.077   1.336   6.280 -1.7858  1.2412  2.2462
   7323SM   H7G 9615   3.947   1.206   6.291  0.5552 -4.0205 -0.4452
   7323SM   C8F 9616   4.136   1.122   6.241 -0.2300  0.1656 -0.4941
   7323SM   H8F 9617   4.074   1.030   6.244 -0.5615  0.4200  0.8839
   7323SM   H8G 9618   4.230   1.105   6.296 -0.3279  1.0245 -0.0487
   7323SM   C9F 9619   4.160   1.171   6.099 -0.0513 -0.1527 -0.7078
   7323SM   H9F 9620   4.226   1.261   6.096 -0.8313  0.4346 -0.5836
   7323SM   H9G 9621   4.059   1.201   6.065 -0.5410  1.3488  1.8152
   7323SM  C10F 9622   4.222   1.052   6.022 -0.2328  0.2636 -0.1206
   7323SM  H10F 9623   4.146   0.972   6.032  0.1857 -0.0693  0.4447
   7323SM  H10G 9624   4.313   1.021   6.079  0.8778  0.8647 -1.5154
   7323SM  C11F 9625   4.246   1.080   5.875 -0.3916  0.2442  0.1069
   7323SM  H11F 9626   4.339   1.135   5.849  0.1712 -0.9246 -0.4109
   7323SM  H11G 9627   4.156   1.141   5.850 -1.3142 -1.4477 -0.8356
   7323SM  C12F 9628   4.234   0.958   5.789 -0.3820  0.7433  0.2536
   7323SM  H12F 9629   4.135   0.915   5.815 -0.1481  1.0121  1.7198
   7323SM  H12G 9630   4.324   0.896   5.809 -0.4331  0.0838 -1.4133
   7323SM  C13F 9631   4.231   0.978   5.639  0.1240  0.7340  0.8016
   7323SM  H13F 9632   4.334   0.993   5.599  0.5196  0.9551  1.8631
   7323SM  H13G 9633   4.173   1.071   5.623 -2.2856 -0.7295  0.4606
   7323SM  C14F 9634   4.175   0.861   5.554 -0.2183  0.8885  0.4365
   7323SM  H14F 9635   4.064   0.864   5.553 -0.2180  0.7912  0.1547
   7323SM  H14G 9636   4.213   0.767   5.599 -0.3493 -0.3412 -1.8880
   7323SM  C15F 9637   4.214   0.868   5.403 -0.2777  0.2337  0.5011
   7323SM  H15F 9638   4.163   0.784   5.352  0.3586 -0.8059  1.5163
   7323SM  H15G 9639   4.324   0.854   5.394  0.0636  0.7622  3.0215
   7323SM  C16F 9640   4.170   0.995   5.330  0.7793 -0.2635  0.2503
   7323SM  H16F 9641   4.207   1.079   5.392 -1.5562  0.8798  0.2030
   7323SM  H16G 9642   4.059   1.001   5.324  0.8671  1.1399 -0.2901
   7323SM  C17F 9643   4.235   1.006   5.193 -0.5365  0.6221 -0.5322
   7323SM  H17F 9644   4.194   1.093   5.138  0.9399  1.4312 -0.3872
   7323SM  H17G 9645   4.213   0.909   5.143  3.9728 -1.1188  0.3794
   7323SM  C18F 9646   4.390   1.007   5.190 -0.2359  0.0973 -0.4164
   7323SM  H18F 9647   4.428   0.983   5.088 -0.0820  0.1195 -0.3646
   7323SM  H18G 9648   4.430   0.923   5.251 -0.6205  0.5814  0.5279
   7323SM  C19F 9649   4.456   1.135   5.234  0.0637 -0.2715  0.1115
   7323SM  H19F 9650   4.437   1.148   5.343 -2.3563 -0.2282 -0.2669
   7323SM  H19G 9651   4.411   1.221   5.180  1.1884  1.1876  1.3675
   7323SM  C20F 9652   4.608   1.151   5.196  0.2071  0.5301 -0.7288
   7323SM  H20F 9653   4.613   1.138   5.086  0.7352 -1.6310 -0.4973
   7323SM  H20G 9654   4.669   1.073   5.246  0.6366  1.8074  0.8327
   7323SM  C21F 9655   4.673   1.283   5.234 -0.0838 -0.3426  0.8650
   7323SM  H21F 9656   4.776   1.284   5.193 -1.3059  0.1977 -2.4872
   7323SM  H21G 9657   4.662   1.305   5.342  0.7765  1.7784  0.5584
   7323SM  C22F 9658   4.612   1.392   5.140  0.2979 -0.1913  0.3133
   7323SM  H22F 9659   4.505   1.392   5.172  0.3283  1.0655  0.4560
   7323SM  H22G 9660   4.619   1.373   5.031 -0.3314  0.7603  0.0941
   7323SM  C23F 9661   4.662   1.532   5.170  0.4724 -0.1240 -0.0495
   7323SM  H23F 9662   4.594   1.593   5.107 -0.5816 -1.7090 -0.4697
   7323SM  H23G 9663   4.771   1.546   5.154  0.8151  0.0068  2.0983
   7323SM  H23H 9664   4.632   1.556   5.274 -1.4040 -2.8421  0.1310
   7423SM     N 9665   7.350   4.335   7.489  0.1306  0.0360 -1.0972
   7423SM   C15 9666   7.235   4.265   7.424  0.4883  0.5979  0.1498
   7423SM  H15A 9667   7.149   4.330   7.436 -0.8136 -0.9181 -0.6468
   7423SM  H15B 9668   7.214   4.169   7.469  0.7948 -0.1372 -1.2372
   7423SM  H15C 9669   7.261   4.266   7.319  2.1891  1.4505  0.5380
   7423SM   C14 9670   7.343   4.480   7.447  0.3373 -0.3587 -0.1834
   7423SM  H14A 9671   7.364   4.497   7.343  0.3745  0.3208 -0.0683
   7423SM  H14B 9672   7.412   4.538   7.507 -3.7902  3.6703  1.2127
   7423SM  H14C 9673   7.253   4.527   7.482  0.8760  0.0015  0.7844
   7423SM   C13 9674   7.336   4.333   7.642  0.4218 -0.3650  0.1194
   7423SM  H13A 9675   7.333   4.232   7.680 -0.0836 -0.8774 -1.2292
   7423SM  H13B 9676   7.239   4.376   7.663  0.7329  0.7733 -0.6915
   7423SM  H13C 9677   7.415   4.385   7.694  0.1890  2.1782 -1.8538
   7423SM   C12 9678   7.475   4.270   7.438  0.5809 -0.3253 -0.6965
   7423SM  H12A 9679   7.487   4.172   7.482 -0.1950  0.7247  2.0357
   7423SM  H12B 9680   7.564   4.327   7.462  0.7816 -0.6507 -0.6619
   7423SM   C11 9681   7.497   4.254   7.287  0.4839  0.2038 -0.3080
   7423SM  H11A 9682   7.603   4.223   7.275 -0.1982 -1.7143 -2.0042
   7423SM  H11B 9683   7.481   4.356   7.247  0.5378  0.2889 -0.1139
   7423SM     P 9684   7.477   4.040   7.142 -0.0687 -0.1141 -0.2065
   7423SM   O13 9685   7.593   3.984   7.211  0.4048  0.8096 -0.0377
   7423SM   O14 9686   7.367   3.949   7.107 -0.0395  0.5183  0.7843
   7423SM   O11 9687   7.529   4.107   7.009  0.2825  0.7576 -0.1700
   7423SM   O12 9688   7.418   4.161   7.214  0.0552 -0.0838  0.1430
   7423SM   C1S 9689   7.454   4.200   6.930 -0.0952  0.0388 -0.1925
   7423SM   H1S 9690   7.476   4.303   6.965 -1.8362  0.4123 -0.1109
   7423SM   H1T 9691   7.346   4.189   6.951 -0.5292  0.9300 -1.7969
   7423SM    NF 9692   7.443   4.312   6.701 -0.3897 -0.3560 -0.2313
   7423SM   HNF 9693   7.365   4.319   6.639 -0.2696 -2.8870 -0.7781
   7423SM   C2S 9694   7.470   4.188   6.779  0.7417  1.0428  0.1968
   7423SM   H2S 9695   7.576   4.160   6.763 -0.4139 -4.2159 -0.0121
   7423SM   C3S 9696   7.387   4.061   6.734 -0.7904  0.5791 -0.1224
   7423SM   H3S 9697   7.280   4.091   6.740 -0.1852  2.5722  1.9369
   7423SM    O3 9698   7.414   3.959   6.828  0.1377  0.6972  0.0201
   7423SM   HO3 9699   7.480   3.987   6.892  3.1936 -0.0789 -2.5527
   7423SM   C4S 9700   7.420   4.019   6.599 -0.0112 -0.3045  0.1646
   7423SM   H4S 9701   7.358   4.080   6.532  0.2240 -1.1317 -0.8244
   7423SM   C5S 9702   7.520   3.936   6.566  0.1857 -0.7875  0.0286
   7423SM   H5S 9703   7.580   3.894   6.649 -1.1480  0.8570  1.9392
   7423SM   C6S 9704   7.553   3.898   6.424  0.1202 -0.2691 -0.4450
   7423SM   H6S 9705   7.541   3.788   6.410 -2.3568  0.2025 -2.8587
   7423SM   H6T 9706   7.661   3.921   6.411  0.5609 -0.5985  2.2027
   7423SM   C7S 9707   7.473   3.978   6.319  0.8032 -0.2532 -0.6601
   7423SM   H7S 9708   7.479   4.088   6.333  0.2583 -0.3321  0.2554
   7423SM   H7T 9709   7.367   3.944   6.317  0.1238  1.3462  2.1681
   7423SM   C8S 9710   7.524   3.945   6.175  0.1074 -0.7611  0.0221
   7423SM   H8S 9711   7.564   3.842   6.172 -1.8113 -1.5931  1.0913
   7423SM   H8T 9712   7.612   4.010   6.155  0.4127 -0.1796  2.8793
   7423SM   C9S 9713   7.417   3.955   6.070  0.5032  0.7695 -0.0797
   7423SM   H9S 9714   7.384   4.059   6.045 -0.0228  0.3910 -1.0405
   7423SM   H9T 9715   7.318   3.914   6.101  1.3055 -1.1682  0.0069
   7423SM  C10S 9716   7.464   3.883   5.945 -0.3805 -0.2480 -0.2533
   7423SM  H10S 9717   7.484   3.777   5.973 -1.8331 -1.5143 -3.6068
   7423SM  H10T 9718   7.558   3.920   5.899 -0.7467 -2.1645 -2.6989
   7423SM  C11S 9719   7.351   3.874   5.837 -0.0995 -0.6717  0.4075
   7423SM  H11S 9720   7.300   3.971   5.816  0.9302  0.1516  1.5765
   7423SM  H11T 9721   7.280   3.792   5.860 -2.2483  0.1370 -2.6525
   7423SM  C12S 9722   7.410   3.833   5.698 -0.4137  0.5898  0.3017
   7423SM  H12S 9723   7.457   3.732   5.705  0.7461  1.0412 -0.5811
   7423SM  H12T 9724   7.494   3.902   5.675 -1.3208  0.9152 -2.4244
   7423SM  C13S 9725   7.306   3.843   5.586  0.4550 -0.4369 -0.5238
   7423SM  H13S 9726   7.255   3.938   5.611 -1.6056 -1.7672  0.5371
   7423SM  H13T 9727   7.228   3.767   5.608 -0.4102  0.4455 -0.4631
   7423SM  C14S 9728   7.348   3.817   5.447 -0.4766 -0.6422  0.9210
   7423SM  H14S 9729   7.258   3.788   5.388 -0.2804  0.6454 -0.0724
   7423SM  H14T 9730   7.418   3.731   5.438 -0.1946 -0.2917 -0.4240
   7423SM  C15S 9731   7.405   3.945   5.383  0.0780 -0.0400 -0.1846
   7423SM  H15S 9732   7.483   3.983   5.453  0.8353  2.0998 -2.0941
   7423SM  H15T 9733   7.323   4.017   5.368  2.7598  3.4187  0.4323
   7423SM  C16S 9734   7.473   3.917   5.243 -0.0945 -0.0604 -0.2300
   7423SM  H16S 9735   7.454   3.999   5.171 -1.3604  1.7723  2.0544
   7423SM  H16T 9736   7.430   3.825   5.199 -2.5951  0.1637  1.5232
   7423SM  C17S 9737   7.632   3.912   5.256 -0.3329  0.1272  0.0167
   7423SM  H17S 9738   7.658   3.820   5.313 -3.4548 -0.4507  0.7257
   7423SM  H17T 9739   7.658   4.000   5.318 -1.0290  0.8301 -0.6665
   7423SM  C18S 9740   7.685   3.907   5.112  0.1118  0.4306 -0.1412
   7423SM  H18S 9741   7.639   3.983   5.045  0.3932  2.0909  1.4784
   7423SM  H18T 9742   7.677   3.804   5.071  1.8015  0.6302 -1.0932
   7423SM  H18U 9743   7.794   3.928   5.109  0.1010  0.4044 -2.0662
   7423SM   C1F 9744   7.517   4.420   6.712  0.5102  0.1302  0.1516
   7423SM    OF 9745   7.619   4.420   6.775 -0.0361 -0.1993 -0.3546
   7423SM   C2F 9746   7.463   4.543   6.645  0.4671 -0.5576  0.6099
   7423SM   H2F 9747   7.405   4.606   6.716  0.0645 -0.6641  0.3780
   7423SM   H2G 9748   7.400   4.520   6.557  1.5205 -0.4044 -0.2093
   7423SM   C3F 9749   7.571   4.634   6.597  0.0775  0.3067  0.2390
   7423SM   H3F 9750   7.649   4.649   6.676 -0.7648  0.7477  1.0086
   7423SM   H3G 9751   7.535   4.737   6.580  4.4089  1.6274 -2.5209
   7423SM   C4F 9752   7.645   4.586   6.471  0.1866  0.3554  0.3511
   7423SM   H4F 9753   7.709   4.505   6.511  2.2735  1.1065 -1.2875
   7423SM   H4G 9754   7.710   4.671   6.441  2.0357 -0.5265  1.6407
   7423SM   C5F 9755   7.560   4.535   6.355  0.6291  0.3241 -0.6317
   7423SM   H5F 9756   7.466   4.593   6.338 -1.8613 -2.9214  0.9657
   7423SM   H5G 9757   7.516   4.435   6.372 -0.2988  0.7217 -0.6405
   7423SM   C6F 9758   7.634   4.532   6.224  0.4080  0.0958  0.3365
   7423SM   H6F 9759   7.725   4.473   6.245  0.4237  0.7065  2.1536
   7423SM   H6G 9760   7.667   4.631   6.186  0.0713  0.0046 -0.1997
   7423SM   C7F 9761   7.546   4.467   6.112  0.0724  0.1656 -0.7458
   7423SM   H7F 9762   7.463   4.537   6.091 -0.5267 -0.4039 -0.2988
   7423SM   H7G 9763   7.497   4.380   6.161  1.5439  0.1774  0.8419
   7423SM   C8F 9764   7.620   4.438   5.980  0.2798 -0.1858 -0.5328
   7423SM   H8F 9765   7.704   4.371   6.008  0.8959  1.3835  1.6527
   7423SM   H8G 9766   7.664   4.532   5.940  0.8175  0.3216  1.1930
   7423SM   C9F 9767   7.533   4.355   5.886 -0.2099  0.0709 -0.4392
   7423SM   H9F 9768   7.448   4.417   5.850  0.5245  0.6265 -1.2702
   7423SM   H9G 9769   7.483   4.269   5.935 -1.6206  0.1097 -1.7542
   7423SM  C10F 9770   7.607   4.325   5.763 -0.6357  0.1867  0.0496
   7423SM  H10F 9771   7.683   4.244   5.773 -0.3189  0.5071  0.2795
   7423SM  H10G 9772   7.665   4.413   5.729  2.5102 -1.9116 -0.4246
   7423SM  C11F 9773   7.512   4.288   5.646 -0.6357 -0.8768  0.4947
   7423SM  H11F 9774   7.433   4.361   5.619 -0.8303 -1.4236 -0.4580
   7423SM  H11G 9775   7.463   4.194   5.678 -0.5792 -1.4217 -0.9384
   7423SM  C12F 9776   7.592   4.251   5.515  1.0246 -0.5354  1.2475
   7423SM  H12F 9777   7.517   4.209   5.446 -0.7174 -2.3158  4.0482
   7423SM  H12G 9778   7.657   4.163   5.534  0.8321 -1.0543 -0.3168
   7423SM  C13F 9779   7.683   4.361   5.452 -0.2728  0.0863 -0.0797
   7423SM  H13F 9780   7.780   4.354   5.505  1.3798 -3.0762 -3.0898
   7423SM  H13G 9781   7.650   4.467   5.442  0.6835  0.3960 -0.0677
   7423SM  C14F 9782   7.706   4.321   5.301 -0.0068  0.1800 -0.8146
   7423SM  H14F 9783   7.616   4.327   5.236 -0.0218 -0.0878 -0.8187
   7423SM  H14G 9784   7.741   4.216   5.303  3.1604  1.1382 -1.2983
   7423SM  C15F 9785   7.812   4.403   5.231 -0.7214 -0.4224  0.1281
   7423SM  H15F 9786   7.909   4.379   5.281  0.3132 -0.2831 -1.7180
   7423SM  H15G 9787   7.799   4.514   5.238  1.5809 -0.1998  2.4200
   7423SM  C16F 9788   7.837   4.369   5.090 -0.3906  1.2190  0.3335
   7423SM  H16F 9789   7.749   4.395   5.028 -1.2043  0.5755  1.1875
   7423SM  H16G 9790   7.852   4.260   5.079 -0.5137  1.2330  0.0286
   7423SM  C17F 9791   7.963   4.431   5.032 -0.3125 -0.2537 -0.2644
   7423SM  H17F 9792   8.048   4.393   5.093 -0.0236  0.3254 -0.2936
   7423SM  H17G 9793   7.973   4.542   5.029  3.1267 -0.4624 -1.1199
   7423SM  C18F 9794   7.991   4.371   4.892 -1.0760 -0.0796 -0.5732
   7423SM  H18F 9795   7.979   4.261   4.899  1.2759 -0.3651 -0.0354
   7423SM  H18G 9796   8.095   4.395   4.859 -1.0826  0.1983 -0.3945
   7423SM  C19F 9797   7.898   4.428   4.790  0.2540 -0.3327 -0.0101
   7423SM  H19F 9798   7.918   4.537   4.803  1.1879 -0.6753  1.8668
   7423SM  H19G 9799   7.791   4.411   4.813  0.5457 -0.5833  1.2422
   7423SM  C20F 9800   7.918   4.375   4.649  0.4619 -0.3058  0.1777
   7423SM  H20F 9801   7.835   4.411   4.584  0.5276  1.7947  1.1645
   7423SM  H20G 9802   7.922   4.264   4.647  0.5653 -0.2919 -1.1907
   7423SM  C21F 9803   8.044   4.423   4.577  0.1695  0.2992 -0.8050
   7423SM  H21F 9804   8.138   4.384   4.622  1.1792  0.4060 -2.7542
   7423SM  H21G 9805   8.057   4.533   4.591  2.5397  0.2196 -1.9161
   7423SM  C22F 9806   8.039   4.401   4.429 -0.2507 -0.1037 -0.0236
   7423SM  H22F 9807   7.939   4.437   4.394 -0.6218 -0.1861  0.9292
   7423SM  H22G 9808   8.033   4.293   4.404  0.5106  0.0466 -0.9158
   7423SM  C23F 9809   8.162   4.465   4.357  0.0482  0.1395 -0.3331
   7423SM  H23F 9810   8.147   4.492   4.251  1.5173 -2.3264 -1.2568
   7423SM  H23G 9811   8.255   4.406   4.372 -1.3316 -1.4323  3.3543
   7423SM  H23H 9812   8.178   4.561   4.410 -3.3841 -0.2155  1.7036
   7523SM     N 9813   0.639   6.150   7.249 -0.3258 -0.4901  0.5631
   7523SM   C15 9814   0.558   6.039   7.316  0.2927  0.5344 -0.3089
   7523SM  H15A 9815   0.486   6.083   7.382  1.0149  1.8640 -0.3787
   7523SM  H15B 9816   0.625   5.978   7.376  1.0193  2.2982  0.7598
   7523SM  H15C 9817   0.502   5.982   7.243  2.8283 -1.0352 -1.1713
   7523SM   C14 9818   0.678   6.244   7.361  0.0037 -0.3283  0.9229
   7523SM  H14A 9819   0.732   6.199   7.443  1.5838  0.3265  0.2817
   7523SM  H14B 9820   0.594   6.293   7.408  0.2408  2.6765 -1.4615
   7523SM  H14C 9821   0.728   6.331   7.321 -1.4448 -1.3642 -3.7406
   7523SM   C13 9822   0.758   6.096   7.182  0.4167  0.0576 -0.5231
   7523SM  H13A 9823   0.821   6.178   7.150  0.6699  0.5484  1.1653
   7523SM  H13B 9824   0.724   6.021   7.111 -1.6373 -0.3314  0.8011
   7523SM  H13C 9825   0.815   6.031   7.246  0.2242 -0.1954 -0.6067
   7523SM   C12 9826   0.552   6.223   7.144  0.2251 -0.1728 -0.0935
   7523SM  H12A 9827   0.599   6.318   7.124  2.0751 -0.9255  0.4271
   7523SM  H12B 9828   0.456   6.245   7.188  0.3593  1.9065 -0.7347
   7523SM   C11 9829   0.539   6.151   7.001  0.3029 -0.0726 -0.0094
   7523SM  H11A 9830   0.634   6.164   6.946 -0.6918  0.3669 -1.7087
   7523SM  H11B 9831   0.466   6.217   6.949 -0.7163 -1.0382  0.1490
   7523SM     P 9832   0.326   6.002   7.026 -0.1205  0.3204  0.1701
   7523SM   O13 9833   0.300   5.860   7.051 -0.1363  0.3280  0.2005
   7523SM   O14 9834   0.267   6.089   7.134 -0.2627 -0.3136 -0.4556
   7523SM   O11 9835   0.260   6.045   6.889 -0.0916  0.2275 -0.2828
   7523SM   O12 9836   0.487   6.024   7.010  0.3620  0.0509  0.4658
   7523SM   C1S 9837   0.314   5.988   6.767 -0.0926 -0.4383  0.6317
   7523SM   H1S 9838   0.346   5.883   6.784  3.1375  0.3267  0.1038
   7523SM   H1T 9839   0.399   6.042   6.718 -0.3417 -1.5015 -1.0580
   7523SM    NF 9840   0.275   5.923   6.528  0.1313 -0.1099 -0.6642
   7523SM   HNF 9841   0.321   5.981   6.461 -1.3659  0.4457 -1.2393
   7523SM   C2S 9842   0.215   5.992   6.644 -0.3084  0.2536  0.4240
   7523SM   H2S 9843   0.119   5.938   6.657  0.5561 -1.9904 -1.6299
   7523SM   C3S 9844   0.179   6.141   6.617 -0.5496 -0.8801 -0.3133
   7523SM   H3S 9845   0.270   6.201   6.598  1.0132 -2.8148  0.6675
   7523SM    O3 9846   0.131   6.219   6.726 -0.0643  0.5674 -0.4848
   7523SM   HO3 9847   0.146   6.164   6.804 -1.7065  1.4039  0.4872
   7523SM   C4S 9848   0.090   6.149   6.497  0.0680  0.1364 -0.4154
   7523SM   H4S 9849   0.140   6.172   6.402 -1.0757 -2.0523 -1.6292
   7523SM   C5S 9850  -0.048   6.130   6.491 -0.2621  0.1298  0.2945
   7523SM   H5S 9851  -0.095   6.108   6.588 -0.6669  0.2979  0.1351
   7523SM   C6S 9852  -0.137   6.130   6.369 -0.1164 -0.0673 -0.0912
   7523SM   H6S 9853  -0.230   6.179   6.405  0.4988  0.8569  0.2824
   7523SM   H6T 9854  -0.165   6.025   6.346 -0.1000  0.1389 -1.1213
   7523SM   C7S 9855  -0.087   6.200   6.239  0.2273  0.9353 -0.1842
   7523SM   H7S 9856   0.011   6.158   6.208  1.3446  2.9462  0.4414
   7523SM   H7T 9857  -0.063   6.305   6.265  0.2063  0.6729  0.9615
   7523SM   C8S 9858  -0.186   6.183   6.125  0.6873  0.3245  0.0035
   7523SM   H8S 9859  -0.280   6.236   6.151  1.3002  1.2099  0.4364
   7523SM   H8T 9860  -0.209   6.074   6.113  1.9150  0.0615 -0.0823
   7523SM   C9S 9861  -0.138   6.229   5.984 -0.0547 -0.3435 -0.6411
   7523SM   H9S 9862  -0.034   6.194   5.967 -0.2559 -1.1054 -0.3595
   7523SM   H9T 9863  -0.135   6.339   5.968  1.8351  0.0209  1.6994
   7523SM  C10S 9864  -0.219   6.157   5.873 -0.0661  0.1888 -0.4318
   7523SM  H10S 9865  -0.325   6.185   5.891 -1.0088 -1.4700 -2.9130
   7523SM  H10T 9866  -0.206   6.047   5.889 -0.2499  0.4620  1.9545
   7523SM  C11S 9867  -0.176   6.198   5.725  0.2814 -0.2468 -1.1559
   7523SM  H11S 9868  -0.069   6.187   5.698 -0.0838  0.1556 -2.9201
   7523SM  H11T 9869  -0.185   6.307   5.704 -0.1463  0.4645  2.1538
   7523SM  C12S 9870  -0.257   6.122   5.624 -0.5726  0.0899  0.3197
   7523SM  H12S 9871  -0.354   6.082   5.660  0.2740 -1.1542  1.2913
   7523SM  H12T 9872  -0.188   6.041   5.595  1.0247  1.1155  1.0875
   7523SM  C13S 9873  -0.283   6.198   5.490  0.3020  0.0247  1.3803
   7523SM  H13S 9874  -0.198   6.235   5.429 -0.7863 -0.2682 -0.3867
   7523SM  H13T 9875  -0.328   6.295   5.519 -0.2972  0.4262 -0.6800
   7523SM  C14S 9876  -0.385   6.116   5.405 -0.1707 -0.6195 -0.3665
   7523SM  H14S 9877  -0.468   6.081   5.470  1.6630  0.6321  2.8630
   7523SM  H14T 9878  -0.329   6.026   5.374  0.3959 -0.1174 -0.8356
   7523SM  C15S 9879  -0.433   6.184   5.275  0.5964 -0.3011 -0.9839
   7523SM  H15S 9880  -0.348   6.218   5.212  0.3475 -0.4058 -1.3813
   7523SM  H15T 9881  -0.480   6.278   5.312  0.5031 -1.2873  1.6094
   7523SM  C16S 9882  -0.532   6.097   5.195  0.3466 -0.3918  0.4110
   7523SM  H16S 9883  -0.484   6.001   5.166 -1.4128 -0.8577 -1.1169
   7523SM  H16T 9884  -0.554   6.159   5.105  2.0249  2.2452  1.6870
   7523SM  C17S 9885  -0.661   6.051   5.276  0.1477 -0.1717  0.2788
   7523SM  H17S 9886  -0.709   6.143   5.314 -0.9442 -0.5676 -0.1121
   7523SM  H17T 9887  -0.623   5.981   5.354  1.9415 -0.6862 -0.9795
   7523SM  C18S 9888  -0.764   5.971   5.194 -0.0763 -0.2698  0.3444
   7523SM  H18S 9889  -0.857   5.955   5.253  0.9380  0.2393  2.1392
   7523SM  H18T 9890  -0.715   5.878   5.158  1.2445  0.3451  0.5089
   7523SM  H18U 9891  -0.785   6.035   5.106  1.8476 -0.8524 -0.6012
   7523SM   C1F 9892   0.276   5.787   6.523  0.6594  0.4648 -0.0088
   7523SM    OF 9893   0.250   5.722   6.625 -0.1128 -0.1280  0.1522
   7523SM   C2F 9894   0.326   5.716   6.403 -1.0184 -0.1975  0.2606
   7523SM   H2F 9895   0.297   5.609   6.415 -0.1464 -0.6268 -1.1772
   7523SM   H2G 9896   0.436   5.702   6.397 -1.2843 -2.0684 -2.5928
   7523SM   C3F 9897   0.264   5.762   6.268 -0.1486 -0.4552  0.3029
   7523SM   H3F 9898   0.289   5.692   6.186  3.7431  1.0040  0.0140
   7523SM   H3G 9899   0.309   5.862   6.248  1.7731 -1.1475  0.8627
   7523SM   C4F 9900   0.109   5.778   6.272  0.1649 -1.0212  0.0168
   7523SM   H4F 9901   0.071   5.846   6.351  2.0746  0.8211 -0.5735
   7523SM   H4G 9902   0.063   5.680   6.298 -1.2213 -0.4746 -0.2815
   7523SM   C5F 9903   0.042   5.836   6.140  0.6932 -0.0051  0.1611
   7523SM   H5F 9904   0.068   5.943   6.134  0.0810  0.0817 -1.6760
   7523SM   H5G 9905  -0.068   5.826   6.151  0.8132 -0.9987  0.6336
   7523SM   C6F 9906   0.090   5.769   6.007 -0.6109 -0.5311 -0.0479
   7523SM   H6F 9907   0.067   5.660   6.003 -0.1419 -0.6328 -0.0285
   7523SM   H6G 9908   0.201   5.777   6.004 -0.7240  1.3224 -0.5890
   7523SM   C7F 9909   0.030   5.844   5.886 -0.2728  0.0429  0.3716
   7523SM   H7F 9910   0.039   5.953   5.902  1.3713 -0.1298  0.8121
   7523SM   H7G 9911  -0.077   5.815   5.880 -0.0864 -0.4080 -1.0781
   7523SM   C8F 9912   0.102   5.798   5.759 -0.3953  0.4107  0.3743
   7523SM   H8F 9913   0.082   5.690   5.745  0.5817  0.3257 -0.5976
   7523SM   H8G 9914   0.211   5.824   5.762 -0.4410  1.1490 -2.1305
   7523SM   C9F 9915   0.037   5.867   5.629 -0.0349  0.0984  0.1367
   7523SM   H9F 9916   0.065   5.974   5.625  0.3217  0.0475  1.1118
   7523SM   H9G 9917  -0.073   5.857   5.639 -0.3429  1.8576 -1.1848
   7523SM  C10F 9918   0.083   5.797   5.496  0.0547 -0.2576 -0.1376
   7523SM  H10F 9919   0.070   5.687   5.498  2.3858 -0.8893 -4.8086
   7523SM  H10G 9920   0.192   5.814   5.487 -0.3358  2.4782 -0.6830
   7523SM  C11F 9921   0.012   5.857   5.373  0.1838  0.0769  0.3259
   7523SM  H11F 9922   0.021   5.966   5.390  0.3909 -0.0351  0.9272
   7523SM  H11G 9923  -0.098   5.842   5.379  0.5422 -3.1755  0.4884
   7523SM  C12F 9924   0.065   5.820   5.231  0.5688  0.0752  0.1725
   7523SM  H12F 9925   0.045   5.713   5.208 -0.0094  0.4644 -1.1929
   7523SM  H12G 9926   0.176   5.827   5.231  0.6574 -1.0584  0.0698
   7523SM  C13F 9927  -0.012   5.902   5.123  1.2785  0.4106 -0.1123
   7523SM  H13F 9928   0.027   6.006   5.119  2.0526  0.1170 -0.2800
   7523SM  H13G 9929  -0.121   5.911   5.141  0.7375 -1.1799 -2.3124
   7523SM  C14F 9930  -0.019   5.829   4.988 -0.2849  0.0742 -0.1503
   7523SM  H14F 9931  -0.077   5.735   4.985 -1.9587  1.1026 -2.4777
   7523SM  H14G 9932   0.085   5.795   4.967 -0.2588 -0.2847  0.5233
   7523SM  C15F 9933  -0.077   5.919   4.876 -0.5362 -0.5023  0.4831
   7523SM  H15F 9934  -0.057   5.869   4.778  2.5077  1.9737 -0.3296
   7523SM  H15G 9935  -0.009   6.007   4.867  1.1881 -1.5820  2.2291
   7523SM  C16F 9936  -0.222   5.955   4.888 -0.2704  0.8575 -0.6859
   7523SM  H16F 9937  -0.251   6.005   4.982 -0.2611 -2.9694  1.5503
   7523SM  H16G 9938  -0.275   5.859   4.908 -1.5187  1.5358 -0.7044
   7523SM  C17F 9939  -0.276   6.036   4.773 -0.5317  0.0608 -0.0799
   7523SM  H17F 9940  -0.284   5.983   4.675 -0.2912  0.6802 -0.4380
   7523SM  H17G 9941  -0.200   6.116   4.759 -1.5225  0.8270 -1.2547
   7523SM  C18F 9942  -0.411   6.103   4.804  0.9483  0.2892  0.3851
   7523SM  H18F 9943  -0.456   6.157   4.719  1.0258  1.4826  1.0728
   7523SM  H18G 9944  -0.390   6.179   4.883  0.0575  0.9773 -0.0287
   7523SM  C19F 9945  -0.523   6.004   4.848  0.2589 -0.0747  0.6160
   7523SM  H19F 9946  -0.624   6.051   4.851  0.4013  0.6877 -2.6270
   7523SM  H19G 9947  -0.499   5.965   4.949  0.8374  0.8744  0.8518
   7523SM  C20F 9948  -0.537   5.890   4.742  0.1414 -0.1957  0.1554
   7523SM  H20F 9949  -0.452   5.820   4.759 -1.4049 -2.3017 -0.3416
   7523SM  H20G 9950  -0.533   5.917   4.634  0.9348 -0.6821  0.0497
   7523SM  C21F 9951  -0.656   5.806   4.778  0.0964  0.0143 -0.1835
   7523SM  H21F 9952  -0.740   5.877   4.761 -0.4993 -1.0381 -1.8828
   7523SM  H21G 9953  -0.663   5.778   4.885  0.5974 -1.3323 -0.4817
   7523SM  C22F 9954  -0.671   5.686   4.684  0.0899  0.5855  0.4749
   7523SM  H22F 9955  -0.645   5.725   4.583 -0.5926  2.3266  0.9478
   7523SM  H22G 9956  -0.778   5.657   4.681  0.7335 -1.9812 -1.0065
   7523SM  C23F 9957  -0.601   5.562   4.721 -0.8686  0.1572 -0.0740
   7523SM  H23F 9958  -0.643   5.512   4.811  1.0620  2.3974  2.2358
   7523SM  H23G 9959  -0.499   5.594   4.752 -0.4397 -1.2282  0.0357
   7523SM  H23H 9960  -0.592   5.497   4.631  0.7823  1.7250 -1.1118
   7623SM     N 9961   2.097   6.221   7.406  0.2670 -0.0594 -0.4618
   7623SM   C15 9962   2.119   6.247   7.258  0.0422 -0.1368 -0.5910
   7623SM  H15A 9963   2.033   6.300   7.218 -0.6825 -0.7302  0.1332
   7623SM  H15B 9964   2.133   6.146   7.222  0.2726 -0.9741  1.6978
   7623SM  H15C 9965   2.215   6.291   7.238 -0.6175  1.3206 -0.7519
   7623SM   C14 9966   2.194   6.120   7.460  0.0544 -0.1252 -0.2971
   7623SM  H14A 9967   2.295   6.157   7.461  1.0632 -2.5208 -2.0874
   7623SM  H14B 9968   2.197   6.039   7.388 -0.9911  0.5397 -1.1120
   7623SM  H14C 9969   2.164   6.082   7.557  0.3865  0.6832  0.1252
   7623SM   C13 9970   2.110   6.359   7.474  0.4579  0.1798 -0.4071
   7623SM  H13A 9971   2.210   6.401   7.475  0.5903 -0.1237 -0.7651
   7623SM  H13B 9972   2.075   6.353   7.576 -1.7740 -3.1973 -1.2175
   7623SM  H13C 9973   2.049   6.434   7.424 -1.7122 -2.5995 -2.2406
   7623SM   C12 9974   1.958   6.166   7.423  0.4544 -0.0673 -0.0200
   7623SM  H12A 9975   1.885   6.239   7.391 -0.0960 -0.5419  0.1407
   7623SM  H12B 9976   1.934   6.143   7.526  1.0672  0.1061  0.1705
   7623SM   C11 9977   1.931   6.042   7.338  0.8674 -0.5155 -0.5226
   7623SM  H11A 9978   2.012   5.967   7.345  1.2752 -0.1201 -0.9770
   7623SM  H11B 9979   1.932   6.073   7.231  0.7691  0.5576 -0.2253
   7623SM     P 9980   1.791   5.886   7.485  0.4687 -0.3037  0.3157
   7623SM   O13 9981   1.900   5.904   7.583 -0.1514  0.4989 -0.0971
   7623SM   O14 9982   1.657   5.883   7.534  0.4014 -0.2098  0.0801
   7623SM   O11 9983   1.812   5.743   7.422 -0.2705 -0.1348 -0.0976
   7623SM   O12 9984   1.805   5.989   7.373  0.0003 -0.6086  0.5564
   7623SM   C1S 9985   1.746   5.697   7.306  0.0944 -0.1008 -0.1520
   7623SM   H1S 9986   1.667   5.769   7.278  0.5691  1.1405  1.5300
   7623SM   H1T 9987   1.693   5.604   7.333  1.5078 -0.8486  0.1551
   7623SM    NF 9988   1.772   5.650   7.064 -0.6373 -0.2941 -0.1217
   7623SM   HNF 9989   1.767   5.552   7.043 -0.9267 -0.3190  0.0638
   7623SM   C2S 9990   1.845   5.685   7.182  0.1264 -0.8351 -0.3730
   7623SM   H2S 9991   1.891   5.786   7.171  0.8299 -1.1561 -0.4231
   7623SM   C3S 9992   1.971   5.596   7.214 -0.3775  0.0158 -0.3253
   7623SM   H3S 9993   1.938   5.490   7.208  3.6059 -1.4199 -0.5348
   7623SM    O3 9994   2.026   5.600   7.346  0.0895  0.1671 -0.2777
   7623SM   HO3 9995   1.949   5.609   7.404 -1.0929 -3.5032 -0.9838
   7623SM   C4S 9996   2.080   5.620   7.113  0.2321  0.5241  0.2388
   7623SM   H4S 9997   2.136   5.714   7.125 -0.1876  0.9099 -0.7059
   7623SM   C5S 9998   2.119   5.525   7.022  0.2998  0.7135 -0.6343
   7623SM   H5S 9999   2.058   5.435   7.009 -0.7880  1.4506 -0.7485
   7623SM   C6S10000   2.225   5.531   6.918 -0.1299 -0.5465  0.8436
   7623SM   H6S10001   2.267   5.429   6.906  0.2300 -0.4812  1.5032
   7623SM   H6T10002   2.313   5.593   6.946  1.1467 -1.2021 -1.4270
   7623SM   C7S10003   2.154   5.580   6.788  0.0219  0.1115 -0.2321
   7623SM   H7S10004   2.126   5.688   6.789 -1.3555 -0.2112 -1.2774
   7623SM   H7T10005   2.063   5.523   6.762  0.0501  0.7452 -1.8601
   7623SM   C8S10006   2.244   5.556   6.662  0.1913 -0.0542  0.6283
   7623SM   H8S10007   2.169   5.535   6.583 -2.5414  0.9824  2.7764
   7623SM   H8T10008   2.314   5.469   6.670  1.3709  0.8825  0.8400
   7623SM   C9S10009   2.325   5.684   6.618 -0.0414  0.4034 -0.2416
   7623SM   H9S10010   2.390   5.729   6.695  1.4086 -1.3249 -0.3905
   7623SM   H9T10011   2.254   5.769   6.612  0.4547  1.4630  4.7224
   7623SM  C10S10012   2.420   5.650   6.509  0.3953 -0.0496  1.6228
   7623SM  H10S10013   2.452   5.544   6.510  2.2185  0.4685  1.4385
   7623SM  H10T10014   2.512   5.709   6.524  1.3771 -1.5722  1.7547
   7623SM  C11S10015   2.351   5.667   6.374 -0.1476  0.5710  0.4249
   7623SM  H11S10016   2.301   5.762   6.344 -1.0821 -0.8713 -3.0721
   7623SM  H11T10017   2.277   5.584   6.383 -0.0919  0.5413  0.6206
   7623SM  C12S10018   2.450   5.623   6.266  0.0426  0.0674 -0.2605
   7623SM  H12S10019   2.461   5.513   6.256 -3.2295 -0.4921  1.0868
   7623SM  H12T10020   2.548   5.669   6.290 -0.3396  1.0738 -0.5881
   7623SM  C13S10021   2.398   5.660   6.123 -0.3501 -0.8635 -0.1508
   7623SM  H13S10022   2.393   5.771   6.120  0.1640 -0.6062  3.5470
   7623SM  H13T10023   2.295   5.621   6.114 -1.4733  1.9962 -0.9328
   7623SM  C14S10024   2.488   5.608   6.008  0.7266  0.0898  0.0299
   7623SM  H14S10025   2.511   5.501   6.029  0.8606  0.4405  1.8140
   7623SM  H14T10026   2.585   5.661   6.013  1.0825 -0.6028  0.5812
   7623SM  C15S10027   2.424   5.625   5.868  0.2558 -0.5269 -0.0404
   7623SM  H15S10028   2.402   5.732   5.847  5.2332  0.6386 -0.5545
   7623SM  H15T10029   2.337   5.556   5.862 -0.6036  0.6434 -1.5336
   7623SM  C16S10030   2.525   5.581   5.761 -0.3075  0.2462  0.1927
   7623SM  H16S10031   2.555   5.475   5.776 -0.4660  0.0438 -0.8563
   7623SM  H16T10032   2.618   5.639   5.782 -0.0090 -0.6279  1.3919
   7623SM  C17S10033   2.488   5.598   5.612  0.7125 -0.4804 -0.3005
   7623SM  H17S10034   2.457   5.703   5.596  1.6432  0.1398  1.6376
   7623SM  H17T10035   2.399   5.537   5.586  0.7866 -0.0349 -1.6920
   7623SM  C18S10036   2.593   5.559   5.511  0.4554 -0.0437  0.3226
   7623SM  H18S10037   2.619   5.451   5.517 -0.5113 -0.3807 -1.0754
   7623SM  H18T10038   2.687   5.615   5.528  0.7725  0.4656 -2.5607
   7623SM  H18U10039   2.561   5.575   5.406  0.9185  0.6791  0.2846
   7623SM   C1F10040   1.701   5.743   7.002  0.6473  0.8436 -0.1399
   7623SM    OF10041   1.728   5.858   7.015  0.4302 -0.3421 -0.2681
   7623SM   C2F10042   1.576   5.698   6.935  0.6572 -0.0922 -0.4353
   7623SM   H2F10043   1.486   5.716   6.997 -0.4122  1.0335 -2.2064
   7623SM   H2G10044   1.579   5.592   6.902 -1.2662  0.2036 -1.7277
   7623SM   C3F10045   1.550   5.779   6.804 -1.1142 -0.4703  0.0744
   7623SM   H3F10046   1.634   5.766   6.732 -1.3326 -0.5760 -0.1625
   7623SM   H3G10047   1.542   5.887   6.830 -0.9683 -0.2638 -0.7275
   7623SM   C4F10048   1.418   5.745   6.731 -0.5259 -0.6111 -0.3979
   7623SM   H4F10049   1.342   5.743   6.812  0.4652 -2.1753  0.5349
   7623SM   H4G10050   1.426   5.644   6.684 -1.8783 -2.6067  3.2901
   7623SM   C5F10051   1.370   5.844   6.622  0.0255  0.3421  0.4410
   7623SM   H5F10052   1.346   5.939   6.675 -1.8614 -0.5180  1.2219
   7623SM   H5G10053   1.278   5.796   6.582 -2.3746  2.9344  2.4503
   7623SM   C6F10054   1.483   5.865   6.511  0.4449  0.1134  0.1917
   7623SM   H6F10055   1.562   5.787   6.515  1.2668  0.9754  1.5528
   7623SM   H6G10056   1.532   5.962   6.533 -2.1084  1.7238 -0.7659
   7623SM   C7F10057   1.430   5.856   6.368  0.4747 -0.2941  0.2333
   7623SM   H7F10058   1.339   5.920   6.369 -0.8061 -2.0061  0.9536
   7623SM   H7G10059   1.389   5.753   6.356 -0.7505  0.0883  0.9276
   7623SM   C8F10060   1.534   5.884   6.259  0.2285 -0.2158 -0.2504
   7623SM   H8F10061   1.611   5.803   6.267 -0.7946 -1.1806  0.0757
   7623SM   H8G10062   1.588   5.980   6.277  0.9233 -0.1163 -2.6082
   7623SM   C9F10063   1.473   5.904   6.117  0.2996 -0.3568  0.2949
   7623SM   H9F10064   1.402   5.991   6.115  0.5885 -0.1216 -1.3867
   7623SM   H9G10065   1.414   5.814   6.089  0.3895 -0.1176 -0.6951
   7623SM  C10F10066   1.578   5.927   6.010  0.1370 -0.2907  0.1590
   7623SM  H10F10067   1.643   5.837   6.002 -0.9813 -1.0125 -1.3120
   7623SM  H10G10068   1.645   6.012   6.033 -0.8735  0.3445  0.8604
   7623SM  C11F10069   1.515   5.974   5.875 -0.6998  0.4441  0.0409
   7623SM  H11F10070   1.445   6.057   5.899  0.9058  1.0503  3.1625
   7623SM  H11G10071   1.452   5.889   5.841  1.1181 -0.2243 -1.9249
   7623SM  C12F10072   1.624   6.017   5.777  0.2727  0.4725 -0.2457
   7623SM  H12F10073   1.684   5.924   5.764  0.7704  0.9523 -1.5283
   7623SM  H12G10074   1.672   6.103   5.827 -0.8830  0.9641  0.0549
   7623SM  C13F10075   1.565   6.050   5.633  0.5532 -0.2612  0.2871
   7623SM  H13F10076   1.638   6.108   5.573  1.8235  0.1438  2.1223
   7623SM  H13G10077   1.478   6.111   5.665  0.7137 -0.2507  0.7196
   7623SM  C14F10078   1.507   5.933   5.555 -0.0246 -0.5622 -0.2469
   7623SM  H14F10079   1.432   5.967   5.481  0.0482 -0.1279 -0.1269
   7623SM  H14G10080   1.444   5.870   5.622 -1.7152  2.1722  0.9064
   7623SM  C15F10081   1.607   5.841   5.482 -0.2891  0.4816  0.4072
   7623SM  H15F10082   1.651   5.773   5.559 -0.7797 -0.4544 -0.1210
   7623SM  H15G10083   1.683   5.913   5.447  0.0052  1.4030  2.7208
   7623SM  C16F10084   1.547   5.753   5.373  0.5728  0.5780  0.2778
   7623SM  H16F10085   1.443   5.730   5.404  0.3610  1.0064 -0.0997
   7623SM  H16G10086   1.597   5.654   5.373 -1.0315 -0.2649 -0.5800
   7623SM  C17F10087   1.549   5.810   5.233  0.1648 -0.2054 -0.2916
   7623SM  H17F10088   1.652   5.847   5.213 -0.1273  0.0264 -1.4093
   7623SM  H17G10089   1.491   5.905   5.233  0.0625 -0.2683 -0.2348
   7623SM  C18F10090   1.488   5.715   5.133  0.1459 -0.1279  0.2977
   7623SM  H18F10091   1.392   5.688   5.182  1.0978  1.3607  3.1944
   7623SM  H18G10092   1.547   5.622   5.119  0.1765 -0.0576 -0.0352
   7623SM  C19F10093   1.468   5.785   5.000 -0.0652 -0.0475  0.6702
   7623SM  H19F10094   1.569   5.773   4.956 -0.8471 -2.0364 -0.7312
   7623SM  H19G10095   1.437   5.891   5.017 -3.1163 -0.5099 -1.1970
   7623SM  C20F10096   1.354   5.732   4.907 -0.2852 -0.3662 -0.0903
   7623SM  H20F10097   1.255   5.744   4.954 -0.4888 -0.1070 -0.5712
   7623SM  H20G10098   1.359   5.624   4.883  2.5756  0.0501 -1.9191
   7623SM  C21F10099   1.341   5.823   4.781 -0.4564  0.2749  0.3195
   7623SM  H21F10100   1.432   5.812   4.718 -0.7942 -1.3727  0.0727
   7623SM  H21G10101   1.336   5.930   4.809 -1.1697  0.4615 -0.4666
   7623SM  C22F10102   1.223   5.777   4.700  0.1643 -1.2389  0.1040
   7623SM  H22F10103   1.131   5.832   4.729  1.3856  0.5560  0.7871
   7623SM  H22G10104   1.215   5.666   4.696  1.8176 -1.4090  0.6943
   7623SM  C23F10105   1.244   5.817   4.549  0.7660 -0.7479  0.0181
   7623SM  H23F10106   1.347   5.780   4.527  0.8922 -0.9692  0.9357
   7623SM  H23G10107   1.237   5.927   4.534  0.1259 -0.8505 -0.4551
   7623SM  H23H10108   1.177   5.772   4.472 -2.5164  1.2218  1.5218
   7723SM     N10109   6.464   2.150   7.110  0.1911  0.2037  0.0814
   7723SM   C1510110   6.458   2.052   7.219  0.5317  0.6278  0.6299
   7723SM  H15A10111   6.367   1.995   7.220  0.4416  0.7569  0.1378
   7723SM  H15B10112   6.473   2.091   7.318 -0.4075  0.4130  0.8655
   7723SM  H15C10113   6.530   1.972   7.210  0.3885  0.7225 -2.1846
   7723SM   C1410114   6.442   2.068   6.984  0.1177  0.2316  0.1053
   7723SM  H14A10115   6.452   2.132   6.897 -0.5511  1.8166  1.1439
   7723SM  H14B10116   6.345   2.021   6.990  1.1424 -1.9886  0.1097
   7723SM  H14C10117   6.513   1.986   6.978  0.8474  0.8592 -0.0429
   7723SM   C1310118   6.347   2.245   7.134 -0.2861 -0.5378  0.1046
   7723SM  H13A10119   6.344   2.328   7.064 -0.5326 -0.0320  0.6944
   7723SM  H13B10120   6.365   2.285   7.233  0.6510  1.0050 -0.6510
   7723SM  H13C10121   6.249   2.199   7.135 -0.1792 -0.8205 -1.2231
   7723SM   C1210122   6.599   2.225   7.107  0.2486 -0.5312  0.4540
   7723SM  H12A10123   6.589   2.301   7.031  1.8538  0.8622  1.5628
   7723SM  H12B10124   6.680   2.171   7.059 -0.1382 -0.9293  0.2415
   7723SM   C1110125   6.655   2.304   7.233 -0.0432  0.0447 -0.7759
   7723SM  H11A10126   6.762   2.327   7.216 -0.3510 -0.3148 -3.5887
   7723SM  H11B10127   6.650   2.234   7.319 -0.1126 -0.5069 -1.2266
   7723SM     P10128   6.623   2.553   7.196 -0.7576 -0.0796 -0.1844
   7723SM   O1310129   6.536   2.663   7.239  0.2452 -0.3072 -0.7764
   7723SM   O1410130   6.768   2.575   7.225  0.2845 -0.3317 -0.1229
   7723SM   O1110131   6.611   2.518   7.044  0.1826 -0.4041  0.0741
   7723SM   O1210132   6.576   2.416   7.268  0.1698 -0.1622  0.2767
   7723SM   C1S10133   6.498   2.535   6.959 -0.6404 -0.5316  0.1046
   7723SM   H1S10134   6.453   2.635   6.975  2.4521  1.1380 -0.9736
   7723SM   H1T10135   6.417   2.462   6.981 -0.5131 -0.8476 -0.4645
   7723SM    NF10136   6.397   2.527   6.740  0.3147  0.2478  0.1370
   7723SM   HNF10137   6.352   2.440   6.719  1.2041 -0.1809 -0.0796
   7723SM   C2S10138   6.529   2.519   6.806  0.4300  0.0241  0.5735
   7723SM   H2S10139   6.603   2.595   6.773  1.7599 -0.7523  1.6700
   7723SM   C3S10140   6.597   2.385   6.782  0.6957  0.4415 -0.3925
   7723SM   H3S10141   6.531   2.307   6.826 -0.3710  1.5902  0.1254
   7723SM    O310142   6.719   2.373   6.855  0.0482 -0.4589  0.0264
   7723SM   HO310143   6.710   2.438   6.925 -2.8379  0.0354 -0.6589
   7723SM   C4S10144   6.610   2.350   6.638  0.1189  0.0498  0.0930
   7723SM   H4S10145   6.522   2.297   6.599  1.2705 -1.7545 -0.1395
   7723SM   C5S10146   6.721   2.369   6.554  0.1854 -0.2833  0.1472
   7723SM   H5S10147   6.810   2.425   6.585  1.6000 -1.4368 -1.6350
   7723SM   C6S10148   6.740   2.311   6.415 -1.1416  0.0457 -0.3990
   7723SM   H6S10149   6.816   2.231   6.418 -0.5164  0.6548  2.0336
   7723SM   H6T10150   6.769   2.397   6.350  2.2726 -0.2641  0.5529
   7723SM   C7S10151   6.608   2.244   6.363 -0.8057 -0.6238  0.2095
   7723SM   H7S10152   6.523   2.315   6.368  0.3875  0.8749  0.3459
   7723SM   H7T10153   6.588   2.159   6.431 -2.0409  0.0668  0.7395
   7723SM   C8S10154   6.621   2.195   6.219 -0.5407 -0.4805 -0.3593
   7723SM   H8S10155   6.630   2.278   6.145 -3.4911 -0.6622 -1.0459
   7723SM   H8T10156   6.523   2.145   6.201 -1.1396  0.9412 -1.2047
   7723SM   C9S10157   6.733   2.090   6.190 -0.2772 -0.2756 -0.5293
   7723SM   H9S10158   6.731   2.004   6.261  0.8113 -0.6102 -0.8843
   7723SM   H9T10159   6.832   2.139   6.204 -0.6962  0.1585  1.1586
   7723SM  C10S10160   6.728   2.038   6.045 -0.1098 -0.2096  0.1898
   7723SM  H10S10161   6.621   2.029   6.017  0.3385  1.4742 -2.4619
   7723SM  H10T10162   6.762   1.932   6.032  0.6703 -0.4632  3.4495
   7723SM  C11S10163   6.792   2.131   5.947  0.0465  0.1141  0.0531
   7723SM  H11S10164   6.901   2.141   5.965 -0.1383 -2.4065  3.5012
   7723SM  H11T10165   6.740   2.230   5.942 -1.2185 -0.5292  0.0001
   7723SM  C12S10166   6.779   2.071   5.810 -0.4180 -0.6173  0.1596
   7723SM  H12S10167   6.672   2.080   5.782 -0.0838 -1.6114 -1.5542
   7723SM  H12T10168   6.809   1.965   5.810 -0.0873 -0.5634 -2.1922
   7723SM  C13S10169   6.872   2.139   5.707 -0.0449  0.1940 -0.6962
   7723SM  H13S10170   6.976   2.126   5.745 -0.2093  0.8133 -0.0103
   7723SM  H13T10171   6.858   2.249   5.703 -2.3724 -0.0974 -1.6790
   7723SM  C14S10172   6.844   2.086   5.571  0.1968 -0.3817  0.5053
   7723SM  H14S10173   6.743   2.040   5.564 -0.4618  0.8180  1.5703
   7723SM  H14T10174   6.908   2.001   5.540 -0.4655 -0.2883 -1.2342
   7723SM  C15S10175   6.851   2.197   5.458  0.3063 -0.4647 -0.0837
   7723SM  H15S10176   6.956   2.233   5.456  0.7051 -1.4357  1.5470
   7723SM  H15T10177   6.802   2.288   5.500  0.0427 -0.3695 -0.5885
   7723SM  C16S10178   6.805   2.145   5.327 -0.0868  0.6793 -0.1170
   7723SM  H16S10179   6.709   2.091   5.340 -0.2696  1.0896  0.2665
   7723SM  H16T10180   6.879   2.073   5.287 -3.1291 -2.1176 -1.1300
   7723SM  C17S10181   6.791   2.261   5.228  0.7861 -0.8836  0.3233
   7723SM  H17S10182   6.887   2.310   5.203 -0.1529  0.2477 -1.2768
   7723SM  H17T10183   6.721   2.337   5.269 -1.8018 -3.5486  1.2024
   7723SM  C18S10184   6.727   2.222   5.093 -0.2248 -0.0437  0.1386
   7723SM  H18S10185   6.619   2.199   5.106 -0.1192 -1.5843 -1.2962
   7723SM  H18T10186   6.781   2.139   5.042 -1.6598 -2.0762  1.7636
   7723SM  H18U10187   6.742   2.307   5.023  1.6138 -0.7506 -0.3859
   7723SM   C1F10188   6.332   2.637   6.718 -0.6335  0.1224  0.0264
   7723SM    OF10189   6.372   2.753   6.747  0.4582  0.2498  0.0617
   7723SM   C2F10190   6.194   2.613   6.670 -0.1111  0.4832  0.5064
   7723SM   H2F10191   6.113   2.656   6.732  2.2157  1.0542  3.3823
   7723SM   H2G10192   6.174   2.506   6.688  0.7191  0.0309 -1.0775
   7723SM   C3F10193   6.185   2.652   6.519  0.1116 -0.8797 -0.1904
   7723SM   H3F10194   6.225   2.756   6.513 -2.9401  0.3230 -1.4934
   7723SM   H3G10195   6.082   2.644   6.480 -1.0351  1.6974  2.0156
   7723SM   C4F10196   6.277   2.560   6.433 -0.0325  0.3068  0.3354
   7723SM   H4F10197   6.232   2.459   6.446  1.8097 -0.7864 -1.2535
   7723SM   H4G10198   6.385   2.563   6.458 -0.0792  1.5719  0.4837
   7723SM   C5F10199   6.259   2.586   6.278 -0.5420 -0.0656 -0.3368
   7723SM   H5F10200   6.277   2.691   6.248 -0.1202  0.0026  0.1432
   7723SM   H5G10201   6.154   2.555   6.258 -0.3225 -0.0308 -1.6436
   7723SM   C6F10202   6.354   2.493   6.196  0.1105 -1.1879 -0.4448
   7723SM   H6F10203   6.325   2.386   6.205 -0.6972 -1.1843 -2.4613
   7723SM   H6G10204   6.459   2.508   6.228 -0.1101 -0.5499 -0.0133
   7723SM   C7F10205   6.351   2.521   6.046 -0.2411 -0.0597  0.1850
   7723SM   H7F10206   6.383   2.624   6.019  0.6131 -0.6776 -1.2601
   7723SM   H7G10207   6.244   2.508   6.019 -0.6234 -1.2580  2.1052
   7723SM   C8F10208   6.441   2.413   5.973 -0.2200 -0.3497  1.0082
   7723SM   H8F10209   6.407   2.313   6.007 -1.0821  0.2319  1.8955
   7723SM   H8G10210   6.549   2.432   5.993 -0.4557  0.0629  1.9601
   7723SM   C9F10211   6.437   2.430   5.818  0.5569  0.9692 -0.3452
   7723SM   H9F10212   6.455   2.536   5.792  1.2462  1.1202  0.6851
   7723SM   H9G10213   6.334   2.410   5.783 -0.7172  2.9022  1.9851
   7723SM  C10F10214   6.529   2.329   5.751 -0.3791 -0.2469 -0.2501
   7723SM  H10F10215   6.494   2.230   5.788  0.4060 -0.4288  0.0424
   7723SM  H10G10216   6.636   2.347   5.778 -0.3807  2.1196 -1.5917
   7723SM  C11F10217   6.510   2.347   5.602 -0.1271 -0.0429 -0.4588
   7723SM  H11F10218   6.576   2.268   5.562  0.1313 -0.0267 -0.0600
   7723SM  H11G10219   6.565   2.438   5.570 -1.8231  0.9687 -0.6436
   7723SM  C12F10220   6.367   2.331   5.530  0.1090  0.7020  0.1878
   7723SM  H12F10221   6.372   2.373   5.428 -0.2106  1.4020  0.4535
   7723SM  H12G10222   6.292   2.399   5.575 -0.5097 -0.4593  0.9719
   7723SM  C13F10223   6.321   2.185   5.520 -0.5217 -0.4102 -0.3896
   7723SM  H13F10224   6.333   2.130   5.616  1.7024 -1.0867 -0.9790
   7723SM  H13G10225   6.398   2.130   5.461 -2.2335 -1.7822 -1.4449
   7723SM  C14F10226   6.178   2.173   5.459  0.6482  0.4577  0.1258
   7723SM  H14F10227   6.180   2.226   5.362 -0.9963 -2.1186 -1.4471
   7723SM  H14G10228   6.103   2.228   5.520 -0.1182  0.2370 -0.6064
   7723SM  C15F10229   6.122   2.031   5.444 -0.5673 -0.4427 -0.4701
   7723SM  H15F10230   6.013   2.032   5.423 -0.6386 -1.3302 -0.1998
   7723SM  H15G10231   6.154   1.969   5.530  1.3154  0.9112 -0.1246
   7723SM  C16F10232   6.195   1.965   5.319  0.0245 -0.0927 -0.9030
   7723SM  H16F10233   6.300   1.941   5.346 -0.3372 -1.7381 -0.8425
   7723SM  H16G10234   6.199   2.044   5.242  1.7177  0.4590 -0.2881
   7723SM  C17F10235   6.124   1.834   5.273  0.3711  0.0560  0.0366
   7723SM  H17F10236   6.037   1.869   5.212  0.8150 -0.7042 -1.0553
   7723SM  H17G10237   6.089   1.767   5.355 -0.5481  0.3401 -0.1085
   7723SM  C18F10238   6.202   1.763   5.165 -0.5993 -0.0072 -0.3024
   7723SM  H18F10239   6.275   1.701   5.221 -0.6084  0.4405  0.2119
   7723SM  H18G10240   6.264   1.840   5.113  1.9887 -0.9263  1.2328
   7723SM  C19F10241   6.113   1.680   5.070 -1.1445  0.2021 -0.0613
   7723SM  H19F10242   6.180   1.666   4.982 -1.3750  0.4348 -0.2739
   7723SM  H19G10243   6.026   1.742   5.041 -0.9619  0.0339 -0.9942
   7723SM  C20F10244   6.079   1.549   5.139  0.1666  1.1503 -0.7685
   7723SM  H20F10245   6.029   1.565   5.237 -2.7082 -1.2631 -1.6876
   7723SM  H20G10246   6.177   1.498   5.154 -0.0297  1.5248  2.4157
   7723SM  C21F10247   5.993   1.469   5.043 -0.2045  0.4194 -0.2027
   7723SM  H21F10248   6.048   1.457   4.948  0.0439  0.1110 -0.0248
   7723SM  H21G10249   5.896   1.518   5.019 -0.3367 -1.0199 -2.9277
   7723SM  C22F10250   5.963   1.329   5.084 -0.4214 -0.2961 -0.0631
   7723SM  H22F10251   5.873   1.287   5.034 -2.1874  1.6805  1.2486
   7723SM  H22G10252   5.941   1.327   5.193  1.1918 -0.1367  0.2862
   7723SM  C23F10253   6.081   1.228   5.071  0.5110 -0.0713  0.5791
   7723SM  H23F10254   6.141   1.258   4.982  1.1202 -1.5567  0.4555
   7723SM  H23G10255   6.038   1.126   5.069 -0.4745  0.3455 -0.3276
   7723SM  H23H10256   6.141   1.239   5.165 -0.7064  0.7685  1.2870
   7823SM     N10257   0.796   0.566   6.883 -0.1755 -0.5770 -0.0708
   7823SM   C1510258   0.762   0.671   6.986 -0.5587  0.0462  0.3451
   7823SM  H15A10259   0.842   0.743   6.987 -0.8971  0.4836 -1.3487
   7823SM  H15B10260   0.767   0.635   7.088  0.4088  1.1188  0.6907
   7823SM  H15C10261   0.667   0.721   6.973  0.0653  1.1097 -0.3036
   7823SM   C1410262   0.671   0.491   6.865  0.7011  0.2635 -0.1132
   7823SM  H14A10263   0.589   0.561   6.866 -1.3927 -1.9678 -2.2886
   7823SM  H14B10264   0.650   0.430   6.952 -2.2359  0.1200 -0.8426
   7823SM  H14C10265   0.662   0.426   6.779 -2.3579 -0.9930  1.0291
   7823SM   C1310266   0.835   0.634   6.758  0.3234  0.0272  0.0372
   7823SM  H13A10267   0.906   0.712   6.779  2.1213 -1.0886 -1.6217
   7823SM  H13B10268   0.752   0.680   6.705 -0.9699 -1.8654  0.3281
   7823SM  H13C10269   0.875   0.562   6.689  0.2834  1.1110 -1.1477
   7823SM   C1210270   0.904   0.475   6.933  0.0831 -0.3259 -0.5084
   7823SM  H12A10271   0.944   0.433   6.842 -0.0139  1.9695 -1.6813
   7823SM  H12B10272   0.862   0.404   7.003  0.4101  0.3942  0.4498
   7823SM   C1110273   1.037   0.531   7.003 -0.0166 -0.4714  0.5899
   7823SM  H11A10274   1.016   0.555   7.109 -0.9540 -1.5922  0.6821
   7823SM  H11B10275   1.066   0.620   6.944  1.8536 -0.4173  1.5367
   7823SM     P10276   1.140   0.290   7.043 -0.1724 -0.0263  0.8953
   7823SM   O1310277   1.248   0.274   7.138 -0.0309 -0.0065  0.0915
   7823SM   O1410278   1.007   0.265   7.096 -0.0942  0.2492  0.3911
   7823SM   O1110279   1.172   0.195   6.922  0.6343  0.8064  1.2912
   7823SM   O1210280   1.140   0.436   6.988  0.1909  0.0202 -0.3680
   7823SM   C1S10281   1.077   0.173   6.812  0.0674 -0.3777 -0.1205
   7823SM   H1S10282   0.986   0.236   6.822  0.5343  0.0372  2.0450
   7823SM   H1T10283   1.046   0.067   6.795  0.3336 -0.1410 -2.5053
   7823SM    NF10284   1.046   0.203   6.566  0.3790 -0.0856  0.0956
   7823SM   HNF10285   1.069   0.144   6.489 -0.2273  1.1076 -1.0305
   7823SM   C2S10286   1.144   0.222   6.679  0.2217 -0.7765  0.3213
   7823SM   H2S10287   1.178   0.327   6.695  0.2238 -0.9617  1.6707
   7823SM   C3S10288   1.274   0.134   6.659 -0.4657 -1.0831 -0.3677
   7823SM   H3S10289   1.243   0.030   6.633  2.5339 -1.8764 -1.1498
   7823SM    O310290   1.355   0.121   6.773  0.5901  0.0055 -1.0600
   7823SM   HO310291   1.290   0.140   6.841  1.2514 -4.7551  1.3169
   7823SM   C4S10292   1.360   0.197   6.559 -0.0381  0.9657 -0.5652
   7823SM   H4S10293   1.373   0.303   6.587 -3.6479  1.0118  1.5882
   7823SM   C5S10294   1.416   0.139   6.451  0.3795  0.2112 -0.2758
   7823SM   H5S10295   1.384   0.039   6.418  0.3976  0.8777 -2.4700
   7823SM   C6S10296   1.492   0.215   6.345 -0.1827  0.4836  0.1509
   7823SM   H6S10297   1.458   0.171   6.248 -1.5799  1.0371  0.3600
   7823SM   H6T10298   1.600   0.191   6.349 -0.4881 -1.1574 -0.4371
   7823SM   C7S10299   1.470   0.365   6.328 -0.3581  0.2936  0.7449
   7823SM   H7S10300   1.481   0.408   6.430 -0.3419  1.7640  0.1485
   7823SM   H7T10301   1.368   0.381   6.287  0.7034  2.3889 -1.3727
   7823SM   C8S10302   1.561   0.427   6.220 -0.5123  0.5321 -0.4640
   7823SM   H8S10303   1.622   0.355   6.162  2.9232  2.3528  0.6659
   7823SM   H8T10304   1.635   0.490   6.273 -0.7519  0.7872 -0.4289
   7823SM   C9S10305   1.477   0.512   6.120  0.1742 -0.2746  0.1846
   7823SM   H9S10306   1.399   0.561   6.182  0.6573 -1.1625  1.5474
   7823SM   H9T10307   1.420   0.438   6.060 -0.1062 -0.8711  1.1498
   7823SM  C10S10308   1.552   0.610   6.044  0.3942  0.0946  0.6948
   7823SM  H10S10309   1.653   0.567   6.026 -0.7968 -2.5663 -0.0888
   7823SM  H10T10310   1.557   0.704   6.102 -1.5383  1.1927 -0.8061
   7823SM  C11S10311   1.484   0.651   5.915  0.3728 -1.2552 -0.8062
   7823SM  H11S10312   1.390   0.707   5.936  0.8314 -0.7330 -0.0948
   7823SM  H11T10313   1.462   0.564   5.850  0.4134 -3.1862  1.5981
   7823SM  C12S10314   1.573   0.745   5.832  0.3346 -0.2755  0.2888
   7823SM  H12S10315   1.671   0.697   5.810  0.3838  0.2566 -0.7064
   7823SM  H12T10316   1.601   0.837   5.888  1.4091  0.1488 -0.8926
   7823SM  C13S10317   1.504   0.790   5.696 -0.4859  0.3838 -0.3969
   7823SM  H13S10318   1.411   0.848   5.714 -0.4767  0.5665 -0.9299
   7823SM  H13T10319   1.478   0.703   5.631  2.1730 -0.1488 -0.8595
   7823SM  C14S10320   1.587   0.896   5.623 -0.4454  0.9303  0.0630
   7823SM  H14S10321   1.680   0.839   5.600 -0.8526 -0.1663  1.0456
   7823SM  H14T10322   1.619   0.979   5.689  3.3952 -0.9242  0.8237
   7823SM  C15S10323   1.522   0.936   5.493  0.4967 -0.6598 -0.3774
   7823SM  H15S10324   1.438   1.001   5.524  1.9252 -0.4133  3.4043
   7823SM  H15T10325   1.492   0.848   5.432 -1.2654 -0.4591  0.1411
   7823SM  C16S10326   1.613   1.026   5.403  0.1057 -0.0557 -0.4409
   7823SM  H16S10327   1.709   0.976   5.379 -0.8333 -0.6857 -3.2645
   7823SM  H16T10328   1.638   1.116   5.463 -0.8940  0.2208 -0.4197
   7823SM  C17S10329   1.565   1.089   5.277 -0.0302 -0.2940  0.5899
   7823SM  H17S10330   1.581   1.014   5.197  1.2494  1.4806 -0.9146
   7823SM  H17T10331   1.638   1.171   5.256 -1.0347  0.5043  0.1669
   7823SM  C18S10332   1.415   1.127   5.279 -0.3132  0.0099  0.2161
   7823SM  H18S10333   1.347   1.039   5.283 -1.4587  0.8955  0.8241
   7823SM  H18T10334   1.388   1.204   5.203 -1.1324 -1.8518 -1.4567
   7823SM  H18U10335   1.391   1.173   5.377 -0.7665 -0.6818  0.4389
   7823SM   C1F10336   0.934   0.270   6.550 -0.8232 -0.7293 -1.2264
   7823SM    OF10337   0.907   0.360   6.630  0.6888  0.1797 -0.2281
   7823SM   C2F10338   0.848   0.238   6.429 -0.0139 -0.4324 -0.3435
   7823SM   H2F10339   0.812   0.137   6.459  2.7662 -1.1081  1.0335
   7823SM   H2G10340   0.918   0.232   6.343  1.0122 -1.0807  0.5129
   7823SM   C3F10341   0.732   0.331   6.408  0.5866 -0.1902 -0.2215
   7823SM   H3F10342   0.771   0.434   6.397 -0.8631  0.5584  1.1710
   7823SM   H3G10343   0.666   0.336   6.497  0.8922  1.1983 -0.0515
   7823SM   C4F10344   0.641   0.295   6.285 -0.3744 -0.1798  0.2880
   7823SM   H4F10345   0.688   0.261   6.190 -1.9384  0.7318 -0.8575
   7823SM   H4G10346   0.573   0.380   6.261  2.5612  2.4470  0.6043
   7823SM   C5F10347   0.554   0.168   6.317  0.6796  0.4663 -0.1661
   7823SM   H5F10348   0.490   0.193   6.405  0.7235  0.7427 -0.2135
   7823SM   H5G10349   0.624   0.090   6.353  1.0615  0.7025 -0.3845
   7823SM   C6F10350   0.467   0.120   6.202 -0.1963 -0.2918 -0.2956
   7823SM   H6F10351   0.393   0.050   6.247 -0.3443  0.7325  1.1011
   7823SM   H6G10352   0.529   0.061   6.131  0.7642 -1.2952  1.3025
   7823SM   C7F10353   0.395   0.228   6.118  0.1625  0.2258  0.5540
   7823SM   H7F10354   0.471   0.294   6.071  0.8643 -1.3833 -0.6869
   7823SM   H7G10355   0.325   0.281   6.186 -2.0245 -1.5581 -0.1898
   7823SM   C8F10356   0.314   0.173   6.002 -0.0784  0.3144  0.0305
   7823SM   H8F10357   0.219   0.120   6.026 -1.7029  2.2641 -1.6554
   7823SM   H8G10358   0.370   0.091   5.953  0.2174  0.4462  0.1506
   7823SM   C9F10359   0.281   0.280   5.891 -0.5129  0.1109  0.1058
   7823SM   H9F10360   0.372   0.323   5.842  0.5690 -2.8090 -0.6943
   7823SM   H9G10361   0.222   0.358   5.945 -0.4380  1.0946 -1.1719
   7823SM  C10F10362   0.185   0.228   5.782 -0.3056  0.5315 -0.3581
   7823SM  H10F10363   0.131   0.313   5.735  1.5619  0.9701 -1.8313
   7823SM  H10G10364   0.108   0.170   5.838  1.4484 -1.9926 -0.4261
   7823SM  C11F10365   0.246   0.141   5.675  0.0159  0.3368  0.2805
   7823SM  H11F10366   0.160   0.090   5.627  0.5848 -0.6489  0.2832
   7823SM  H11G10367   0.309   0.062   5.720 -0.7944  1.2027  3.1474
   7823SM  C12F10368   0.317   0.223   5.564 -0.8803  0.2253 -0.1900
   7823SM  H12F10369   0.411   0.260   5.609 -1.9387 -1.0576  3.4307
   7823SM  H12G10370   0.255   0.309   5.531 -1.1232 -0.4168 -1.4647
   7823SM  C13F10371   0.327   0.131   5.441 -0.0952  0.0497  0.1146
   7823SM  H13F10372   0.225   0.099   5.412 -0.5999  0.8845  0.9227
   7823SM  H13G10373   0.394   0.043   5.453 -0.7200 -0.3033  1.0228
   7823SM  C14F10374   0.368   0.209   5.312 -0.9981 -0.2634  0.0387
   7823SM  H14F10375   0.350   0.318   5.324  1.8451  0.1533  1.2754
   7823SM  H14G10376   0.322   0.170   5.219 -0.6430 -0.8608  0.1106
   7823SM  C15F10377   0.527   0.217   5.299  0.4144  0.0297  0.5464
   7823SM  H15F10378   0.579   0.120   5.317  2.0568  1.1774  2.3662
   7823SM  H15G10379   0.561   0.285   5.380  3.2082  1.0454 -1.3182
   7823SM  C16F10380   0.565   0.280   5.168 -0.4415 -0.0521 -0.1992
   7823SM  H16F10381   0.499   0.367   5.148  1.2022  1.3763  0.3113
   7823SM  H16G10382   0.552   0.216   5.078  0.0107 -1.3172  0.6030
   7823SM  C17F10383   0.709   0.328   5.173 -0.2141 -0.0841 -0.0450
   7823SM  H17F10384   0.776   0.240   5.186 -0.6342 -0.1271  2.3708
   7823SM  H17G10385   0.712   0.374   5.274 -0.4020  0.1951 -0.1659
   7823SM  C18F10386   0.734   0.441   5.069 -0.4457  0.2126  0.2186
   7823SM  H18F10387   0.646   0.507   5.086 -0.4637  0.3257 -0.2949
   7823SM  H18G10388   0.729   0.401   4.965 -0.2005  2.6096 -0.7940
   7823SM  C19F10389   0.860   0.530   5.082 -0.3532  0.6487 -0.2223
   7823SM  H19F10390   0.953   0.469   5.097  0.2008  1.4284 -0.4266
   7823SM  H19G10391   0.852   0.586   5.177 -0.0712  0.6895 -0.2199
   7823SM  C20F10392   0.874   0.635   4.977  0.4443  0.4111 -0.0973
   7823SM  H20F10393   0.946   0.716   5.000 -1.7516  2.4622 -0.0729
   7823SM  H20G10394   0.771   0.677   4.982  0.0884 -0.3954 -0.3719
   7823SM  C21F10395   0.919   0.589   4.833  0.7004  0.3943 -0.2961
   7823SM  H21F10396   0.836   0.533   4.786  2.4197 -1.0807 -1.7065
   7823SM  H21G10397   0.996   0.510   4.847 -0.5930 -0.7769  0.4262
   7823SM  C22F10398   0.957   0.708   4.751  0.2596  0.2801  0.3858
   7823SM  H22F10399   1.016   0.668   4.666  0.6937 -1.5334  1.4883
   7823SM  H22G10400   1.032   0.764   4.812 -0.2053 -0.2829  1.5087
   7823SM  C23F10401   0.839   0.793   4.713 -0.6864 -0.3607 -0.5680
   7823SM  H23F10402   0.878   0.893   4.686  1.1734 -0.1518  2.4208
   7823SM  H23G10403   0.773   0.811   4.800  1.0605 -1.0329  0.9569
   7823SM  H23H10404   0.781   0.762   4.623 -0.8649 -2.4384  0.1977
   7923SM     N10405   5.986   1.066   7.368 -0.2964  0.2024  0.6470
   7923SM   C1510406   5.971   0.999   7.230  0.0652  0.1219 -0.2810
   7923SM  H15A10407   5.937   0.896   7.234  2.1431 -0.6158 -0.5928
   7923SM  H15B10408   6.067   0.999   7.180  0.6995  1.7414  0.8593
   7923SM  H15C10409   5.901   1.045   7.161  1.5796  0.6652 -1.5113
   7923SM   C1410410   5.999   1.211   7.342  0.3057  0.3482  0.6248
   7923SM  H14A10411   5.908   1.240   7.292  0.2140 -1.2564 -0.2239
   7923SM  H14B10412   6.078   1.232   7.270 -0.0974 -1.8062 -0.5564
   7923SM  H14C10413   6.029   1.261   7.433  0.2837  2.2879 -0.3789
   7923SM   C1310414   5.859   1.035   7.450 -0.0038 -0.2163 -0.2577
   7923SM  H13A10415   5.863   1.072   7.551  0.2230 -2.1009  0.4750
   7923SM  H13B10416   5.835   0.931   7.469  0.3722 -0.1433  0.6662
   7923SM  H13C10417   5.780   1.082   7.394 -0.5628 -0.5560  0.2360
   7923SM   C1210418   6.104   1.000   7.448 -0.3880 -0.3194 -0.7156
   7923SM  H12A10419   6.087   1.030   7.550 -1.5307 -1.9065 -0.3928
   7923SM  H12B10420   6.197   1.038   7.410 -0.0521  0.6667  1.0148
   7923SM   C1110421   6.113   0.850   7.443 -0.1246  0.2705 -0.4887
   7923SM  H11A10422   6.202   0.820   7.503 -0.4935 -0.3176 -0.2212
   7923SM  H11B10423   6.133   0.820   7.338  2.1038 -0.9355  0.2129
   7923SM     P10424   5.986   0.638   7.493 -0.0283  0.1350 -0.3647
   7923SM   O1310425   6.066   0.600   7.612 -0.0082 -0.4713 -0.1174
   7923SM   O1410426   5.846   0.598   7.494  0.5170  0.4425 -0.7265
   7923SM   O1110427   6.060   0.577   7.360 -0.0004  0.5188 -0.6329
   7923SM   O1210428   5.993   0.789   7.494 -0.4357  0.2311  0.3131
   7923SM   C1S10429   5.985   0.590   7.237  0.7517 -0.0775  0.5452
   7923SM   H1S10430   5.982   0.698   7.210 -0.4838 -0.5407 -1.3879
   7923SM   H1T10431   5.882   0.549   7.246  1.0909 -0.8433  1.0726
   7923SM    NF10432   5.992   0.564   6.991  0.0673 -0.4263  0.6976
   7923SM   HNF10433   5.956   0.499   6.924  1.4016  0.5163 -1.0369
   7923SM   C2S10434   6.046   0.513   7.117  0.6242 -0.5381  0.3426
   7923SM   H2S10435   6.152   0.544   7.123  0.5796 -0.3299  0.0840
   7923SM   C3S10436   6.038   0.368   7.140 -0.3322  0.7219 -0.1994
   7923SM   H3S10437   5.933   0.338   7.118  0.6685 -0.5515 -4.1615
   7923SM    O310438   6.076   0.322   7.270  0.2368 -0.4462 -0.6099
   7923SM   HO310439   6.097   0.407   7.309  1.0561 -0.0126 -1.9264
   7923SM   C4S10440   6.114   0.284   7.042 -0.2141 -0.3039  0.8291
   7923SM   H4S10441   6.043   0.257   6.963 -1.2394 -2.3366  2.3771
   7923SM   C5S10442   6.244   0.249   7.052 -0.0569  0.1037 -0.6411
   7923SM   H5S10443   6.310   0.273   7.137 -1.0149 -0.4334  0.2791
   7923SM   C6S10444   6.319   0.170   6.949 -0.0208 -0.4141  0.1895
   7923SM   H6S10445   6.363   0.081   6.999  0.7965 -0.5640 -0.7662
   7923SM   H6T10446   6.405   0.232   6.916  0.1925 -1.2192 -0.8369
   7923SM   C7S10447   6.249   0.129   6.826  0.1519  0.9090  0.6351
   7923SM   H7S10448   6.208   0.221   6.779 -1.1621  0.2865  0.5332
   7923SM   H7T10449   6.162   0.064   6.848  0.5058  0.4679  0.7432
   7923SM   C8S10450   6.332   0.045   6.734 -0.6135  0.2615 -0.2961
   7923SM   H8S10451   6.366  -0.046   6.788  1.4093  1.3700  0.4027
   7923SM   H8T10452   6.417   0.110   6.704 -0.7134  0.5049 -0.0558
   7923SM   C9S10453   6.270   0.012   6.600 -0.6510  0.4431  0.1894
   7923SM   H9S10454   6.240   0.106   6.550 -1.0401  0.2724  0.1024
   7923SM   H9T10455   6.180  -0.049   6.620 -0.5277  0.0717 -0.3586
   7923SM  C10S10456   6.346  -0.093   6.513  0.3093  0.1236 -0.0269
   7923SM  H10S10457   6.366  -0.185   6.572  0.6182 -0.7915 -1.5247
   7923SM  H10T10458   6.445  -0.051   6.484 -0.1680  1.6177  0.3861
   7923SM  C11S10459   6.285  -0.116   6.375  0.4514 -0.5274 -0.7398
   7923SM  H11S10460   6.276  -0.015   6.330  1.5943  0.5757  1.3307
   7923SM  H11T10461   6.182  -0.148   6.402 -0.2250  0.6944 -1.7654
   7923SM  C12S10462   6.361  -0.216   6.296  0.1484  0.1857  0.2017
   7923SM  H12S10463   6.351  -0.319   6.335  1.7296  0.5125  1.5734
   7923SM  H12T10464   6.463  -0.174   6.302  0.0714  0.4304 -0.1449
   7923SM  C13S10465   6.330  -0.208   6.140  0.1150  0.6321 -0.2464
   7923SM  H13S10466   6.376  -0.119   6.092  2.0788 -1.0053 -1.5938
   7923SM  H13T10467   6.221  -0.195   6.125 -0.0264 -0.4896 -0.2407
   7923SM  C14S10468   6.372  -0.334   6.065  0.2948  0.1595 -0.6182
   7923SM  H14S10469   6.291  -0.357   5.992 -0.8796 -1.7846  1.1806
   7923SM  H14T10470   6.371  -0.424   6.130 -1.4645  0.7679  0.2629
   7923SM  C15S10471   6.510  -0.315   6.002 -0.3239 -0.4457 -0.5593
   7923SM  H15S10472   6.581  -0.276   6.078 -2.0240  0.4603  0.6235
   7923SM  H15T10473   6.487  -0.237   5.927 -0.2612 -0.8061 -0.9593
   7923SM  C16S10474   6.560  -0.437   5.928  0.1047 -0.0368 -1.1692
   7923SM  H16S10475   6.573  -0.521   6.000  0.7058  0.5238 -0.6086
   7923SM  H16T10476   6.661  -0.412   5.889  0.8070  1.1799  1.2373
   7923SM  C17S10477   6.484  -0.463   5.805 -0.3561 -0.2194  0.1731
   7923SM  H17S10478   6.483  -0.374   5.739  1.4810  0.0614  0.4998
   7923SM  H17T10479   6.379  -0.481   5.840 -0.1390 -0.8637  0.5136
   7923SM  C18S10480   6.534  -0.576   5.718  0.0353  0.3768  0.3880
   7923SM  H18S10481   6.639  -0.557   5.686  0.1727 -0.6229  0.2154
   7923SM  H18T10482   6.473  -0.590   5.626  0.5218  0.1070  0.1030
   7923SM  H18U10483   6.533  -0.670   5.776 -1.3060  0.5219  0.6281
   7923SM   C1F10484   6.030   0.682   6.940  0.8103 -0.5612  0.5846
   7923SM    OF10485   6.116   0.753   6.990 -0.0464 -0.5155  0.2008
   7923SM   C2F10486   5.976   0.710   6.803  0.7029  0.1608  0.0635
   7923SM   H2F10487   5.875   0.755   6.818  1.7472  1.5722  3.6578
   7923SM   H2G10488   5.963   0.611   6.753 -2.1215  1.8645 -3.0568
   7923SM   C3F10489   6.081   0.792   6.712  0.3061 -0.3998 -1.1434
   7923SM   H3F10490   6.180   0.744   6.723  0.6786  0.6504  0.4213
   7923SM   H3G10491   6.093   0.894   6.754 -1.8137 -1.3814  2.2113
   7923SM   C4F10492   6.044   0.783   6.566 -0.0980 -0.2979 -0.4357
   7923SM   H4F10493   5.937   0.807   6.546 -0.8474 -3.2949 -0.5142
   7923SM   H4G10494   6.069   0.677   6.543  3.2049  0.1623  0.5707
   7923SM   C5F10495   6.126   0.875   6.472 -0.0453 -0.4211 -0.1198
   7923SM   H5F10496   6.232   0.848   6.486 -0.0313 -0.3950 -0.1733
   7923SM   H5G10497   6.112   0.985   6.486  1.7649 -0.2105  0.2048
   7923SM   C6F10498   6.095   0.860   6.324  0.1972  0.3396 -0.0887
   7923SM   H6F10499   6.101   0.752   6.295 -0.6986 -1.0589  4.2595
   7923SM   H6G10500   6.168   0.919   6.265 -0.0820 -0.2352 -1.0350
   7923SM   C7F10501   5.955   0.915   6.279 -0.3985  0.1918  0.3651
   7923SM   H7F10502   5.933   1.020   6.307 -1.7762  1.2250 -3.8664
   7923SM   H7G10503   5.879   0.861   6.338  0.2711  0.7071  1.7616
   7923SM   C8F10504   5.939   0.900   6.128 -0.1688  0.0535 -0.3774
   7923SM   H8F10505   5.934   0.793   6.099 -4.8137  0.5590 -2.3514
   7923SM   H8G10506   6.034   0.937   6.083  0.8629  1.0949  2.4579
   7923SM   C9F10507   5.816   0.956   6.065  0.5074 -0.1647 -0.5054
   7923SM   H9F10508   5.808   1.064   6.091  0.3432 -0.5038  0.9693
   7923SM   H9G10509   5.722   0.918   6.112  0.9306  0.8307  1.2570
   7923SM  C10F10510   5.809   0.943   5.905  0.6575 -0.4405 -0.4319
   7923SM  H10F10511   5.802   0.835   5.878  2.4396 -1.0670  1.3866
   7923SM  H10G10512   5.903   0.973   5.855 -0.2265  0.0316 -1.8665
   7923SM  C11F10513   5.702   1.032   5.834  1.0680 -0.0828  0.4401
   7923SM  H11F10514   5.704   1.137   5.870  2.6902 -0.1844  0.7173
   7923SM  H11G10515   5.598   0.997   5.854  0.0252  2.6143  0.1898
   7923SM  C12F10516   5.724   1.044   5.678  0.3941 -0.5481 -0.4628
   7923SM  H12F10517   5.741   0.950   5.621  1.0780 -1.2600  0.8824
   7923SM  H12G10518   5.820   1.099   5.678 -0.4767  1.1132  1.7361
   7923SM  C13F10519   5.606   1.114   5.601 -0.6999 -0.8950  0.3680
   7923SM  H13F10520   5.579   1.206   5.658 -0.3849 -0.4667 -0.1547
   7923SM  H13G10521   5.516   1.049   5.606 -1.3483 -0.0734 -0.2028
   7923SM  C14F10522   5.642   1.148   5.454  0.0797  0.1747  0.7759
   7923SM  H14F10523   5.679   1.058   5.401 -1.2042 -0.3599  0.7502
   7923SM  H14G10524   5.730   1.215   5.440 -0.2643  0.4134 -0.3686
   7923SM  C15F10525   5.515   1.212   5.377 -0.2455  0.8874 -0.3874
   7923SM  H15F10526   5.485   1.304   5.432 -3.3536 -0.0809 -0.2925
   7923SM  H15G10527   5.431   1.144   5.399  0.6087 -0.0421  0.0622
   7923SM  C16F10528   5.547   1.263   5.233  0.1496  1.6383 -0.2652
   7923SM  H16F10529   5.543   1.178   5.161  0.0827  1.5537 -0.1620
   7923SM  H16G10530   5.655   1.287   5.245  0.3333  0.3553  0.8871
   7923SM  C17F10531   5.466   1.389   5.194  0.0905  0.5765  0.4222
   7923SM  H17F10532   5.379   1.406   5.261 -0.8937 -2.7270  0.1578
   7923SM  H17G10533   5.425   1.379   5.091  1.8809  2.5567 -0.5712
   7923SM  C18F10534   5.540   1.516   5.180 -0.3386  0.3731 -0.2691
   7923SM  H18F10535   5.605   1.492   5.093  0.2319 -2.0651  0.7375
   7923SM  H18G10536   5.608   1.546   5.262 -1.4751 -2.1725  1.7294
   7923SM  C19F10537   5.438   1.627   5.145  0.3608 -0.1691 -0.3466
   7923SM  H19F10538   5.377   1.630   5.238  1.1532 -0.4724  0.1910
   7923SM  H19G10539   5.374   1.585   5.064 -0.4974  0.1497  0.1443
   7923SM  C20F10540   5.487   1.760   5.102  0.4287  0.1212  0.2409
   7923SM  H20F10541   5.501   1.754   4.992  0.5923 -0.0705  0.2721
   7923SM  H20G10542   5.578   1.776   5.163  0.6751 -1.0112  0.1887
   7923SM  C21F10543   5.386   1.875   5.113 -0.0842 -0.3003  0.1870
   7923SM  H21F10544   5.346   1.873   5.217 -1.7416  0.9014 -0.3807
   7923SM  H21G10545   5.294   1.858   5.052 -2.1896  0.1465  3.0321
   7923SM  C22F10546   5.453   2.012   5.077  0.1013 -1.1835  0.9872
   7923SM  H22F10547   5.376   2.086   5.108  0.1417 -0.5291 -0.3705
   7923SM  H22G10548   5.464   2.019   4.966 -1.0261  0.5336  0.9464
   7923SM  C23F10549   5.583   2.035   5.149 -0.6513 -0.1466  0.2816
   7923SM  H23F10550   5.662   1.978   5.094  0.0523  0.5133  0.5934
   7923SM  H23G10551   5.573   1.997   5.253  0.4316 -1.6958 -0.1385
   7923SM  H23H10552   5.621   2.139   5.161  1.8754 -1.0085  0.5372
   8023SM     N10553   0.228   0.850   7.385 -0.0356  1.0370 -0.1427
   8023SM   C1510554   0.266   0.706   7.352  1.1789  0.6218  0.2234
   8023SM  H15A10555   0.215   0.635   7.415  1.4093  1.0721  0.9235
   8023SM  H15B10556   0.369   0.674   7.352  0.6459 -1.2543  1.8481
   8023SM  H15C10557   0.239   0.687   7.249  1.0101  0.1122  0.3578
   8023SM   C1410558   0.078   0.858   7.415  0.7783  0.4457 -0.3950
   8023SM  H14A10559   0.042   0.791   7.492 -0.1700  2.7561  1.2569
   8023SM  H14B10560   0.028   0.841   7.321  1.2099  1.0850 -0.7470
   8023SM  H14C10561   0.052   0.956   7.450 -0.3489  0.2400 -0.6356
   8023SM   C1310562   0.297   0.878   7.511  0.4007 -0.0998 -0.2036
   8023SM  H13A10563   0.403   0.884   7.493  0.3419 -0.1331 -0.5704
   8023SM  H13B10564   0.273   0.814   7.595 -1.2510  1.5221  0.6331
   8023SM  H13C10565   0.274   0.976   7.548 -0.3531 -0.0077 -0.9001
   8023SM   C1210566   0.275   0.945   7.283 -0.4343  0.1197 -0.0161
   8023SM  H12A10567   0.383   0.936   7.275 -0.5613 -1.3105 -0.3854
   8023SM  H12B10568   0.252   1.047   7.309 -1.2036 -0.1173  0.2652
   8023SM   C1110569   0.228   0.911   7.138  0.2906  0.2300  0.0994
   8023SM  H11A10570   0.232   0.994   7.065  2.3735 -0.5978 -0.8016
   8023SM  H11B10571   0.118   0.899   7.131  0.5092 -1.6548 -0.6510
   8023SM     P10572   0.411   0.774   7.035 -0.0770 -0.5700 -0.2121
   8023SM   O1310573   0.491   0.878   7.102  0.6117  0.2516  0.3738
   8023SM   O1410574   0.464   0.640   7.054 -0.3703  0.1068 -0.4837
   8023SM   O1110575   0.402   0.798   6.877 -0.0479  0.1730 -0.4643
   8023SM   O1210576   0.261   0.785   7.076 -0.2813  0.4261 -1.0423
   8023SM   C1S10577   0.302   0.714   6.813  0.1179  0.1574  0.0745
   8023SM   H1S10578   0.202   0.753   6.845 -0.0339  0.7969 -1.1189
   8023SM   H1T10579   0.315   0.608   6.843  2.2580  1.0236  2.4964
   8023SM    NF10580   0.176   0.677   6.604  0.3156  0.3568 -0.5132
   8023SM   HNF10581   0.175   0.581   6.577  0.2613  0.0982  0.3986
   8023SM   C2S10582   0.301   0.718   6.658 -0.3780  0.0813 -0.2547
   8023SM   H2S10583   0.313   0.825   6.629  0.4510 -0.0303 -0.3376
   8023SM   C3S10584   0.426   0.641   6.616 -0.3621 -0.4123 -0.4540
   8023SM   H3S10585   0.412   0.539   6.657 -4.4545  0.7468  1.6125
   8023SM    O310586   0.546   0.691   6.671  0.0854  0.6613  0.1270
   8023SM   HO310587   0.518   0.764   6.726 -0.0751  1.5328 -1.0904
   8023SM   C4S10588   0.438   0.631   6.463 -0.1819  0.2160 -0.8705
   8023SM   H4S10589   0.410   0.536   6.415  1.1061 -0.7938  0.2961
   8023SM   C5S10590   0.498   0.731   6.393  0.5104 -0.0066 -0.4184
   8023SM   H5S10591   0.543   0.819   6.442  1.5870 -0.2830 -0.8789
   8023SM   C6S10592   0.521   0.726   6.239  0.0471  0.5259 -0.5378
   8023SM   H6S10593   0.621   0.680   6.227  0.0521  0.0849  1.0204
   8023SM   H6T10594   0.528   0.830   6.199 -0.6261  0.7647 -0.0546
   8023SM   C7S10595   0.408   0.647   6.162  0.3475 -0.0645 -0.1077
   8023SM   H7S10596   0.395   0.540   6.190  0.2912  0.2239  1.0335
   8023SM   H7T10597   0.431   0.652   6.054 -0.7842  0.5267 -0.3441
   8023SM   C8S10598   0.264   0.708   6.177  0.0190 -0.8925  0.3210
   8023SM   H8S10599   0.269   0.818   6.163  1.4725 -1.1726 -1.8672
   8023SM   H8T10600   0.225   0.682   6.278  1.7692  0.4705  1.4168
   8023SM   C9S10601   0.171   0.665   6.058 -0.1417  0.1904  0.8119
   8023SM   H9S10602   0.151   0.555   6.063  0.1515 -0.0350 -1.5767
   8023SM   H9T10603   0.220   0.685   5.961 -0.9661 -0.1665  0.3096
   8023SM  C10S10604   0.034   0.732   6.069  0.1282  0.5061  0.5135
   8023SM  H10S10605   0.037   0.842   6.054 -1.5662  0.4736 -0.2655
   8023SM  H10T10606   0.000   0.716   6.173  1.5837 -2.3332  0.6575
   8023SM  C11S10607  -0.061   0.657   5.973  0.3178  0.2178 -0.1687
   8023SM  H11S10608  -0.042   0.548   5.976  0.7133  0.2553 -1.0572
   8023SM  H11T10609  -0.041   0.688   5.868  0.7436  0.7620  0.0680
   8023SM  C12S10610  -0.209   0.679   6.009  0.1655  0.1665  0.7536
   8023SM  H12S10611  -0.227   0.788   6.017 -1.2106 -0.0109  0.2447
   8023SM  H12T10612  -0.215   0.632   6.110 -1.8191 -0.3099  0.4504
   8023SM  C13S10613  -0.301   0.614   5.907  0.0316 -0.4936  0.5487
   8023SM  H13S10614  -0.265   0.514   5.875  0.7031  0.1560 -0.8320
   8023SM  H13T10615  -0.296   0.678   5.817 -2.8702 -1.6378 -0.5361
   8023SM  C14S10616  -0.448   0.611   5.953 -0.0936 -0.7879  0.1871
   8023SM  H14S10617  -0.478   0.707   6.000  0.8928 -1.5004  2.4005
   8023SM  H14T10618  -0.453   0.546   6.043 -1.0104  0.4087  1.0433
   8023SM  C15S10619  -0.541   0.569   5.839  0.3165  0.3895 -0.2087
   8023SM  H15S10620  -0.645   0.556   5.876  0.3909  0.9784  0.2087
   8023SM  H15T10621  -0.506   0.467   5.812 -3.5839 -1.2984  0.4907
   8023SM  C16S10622  -0.543   0.643   5.709  0.1552  0.3805 -0.2365
   8023SM  H16S10623  -0.453   0.649   5.644  0.0591 -1.4158 -0.5933
   8023SM  H16T10624  -0.576   0.747   5.730  1.7178  0.5543  1.6258
   8023SM  C17S10625  -0.637   0.582   5.608  0.1674 -0.1852  0.0666
   8023SM  H17S10626  -0.720   0.541   5.670  1.3747  0.1613  2.0123
   8023SM  H17T10627  -0.585   0.502   5.551  0.2282  0.5141 -0.8684
   8023SM  C18S10628  -0.691   0.681   5.512  0.2147 -0.3885 -1.0754
   8023SM  H18S10629  -0.606   0.743   5.478  0.7963 -1.0210 -0.8024
   8023SM  H18T10630  -0.785   0.730   5.547  1.1773  1.0200 -0.3616
   8023SM  H18U10631  -0.725   0.639   5.415 -1.3548  0.7775 -1.0719
   8023SM   C1F10632   0.071   0.759   6.572  0.5068  0.1219  0.2763
   8023SM    OF10633   0.058   0.868   6.624  0.7465 -0.3969  0.3280
   8023SM   C2F10634  -0.019   0.709   6.460 -0.2299  0.2592  0.5076
   8023SM   H2F10635   0.037   0.629   6.406 -1.2623 -0.2884  0.2356
   8023SM   H2G10636  -0.031   0.801   6.399  1.3184 -0.5164 -1.0538
   8023SM   C3F10637  -0.157   0.672   6.518  0.4525 -0.5177 -0.5437
   8023SM   H3F10638  -0.191   0.747   6.592  1.2330 -1.6306  1.0093
   8023SM   H3G10639  -0.153   0.584   6.586 -0.6689 -0.9960 -1.0750
   8023SM   C4F10640  -0.271   0.634   6.424  0.0233  0.1127  0.0534
   8023SM   H4F10641  -0.257   0.534   6.378  0.4831  1.3316 -2.6435
   8023SM   H4G10642  -0.265   0.701   6.335 -0.0047 -1.5437 -1.2455
   8023SM   C5F10643  -0.409   0.655   6.492 -1.0562  0.1882  0.2356
   8023SM   H5F10644  -0.433   0.763   6.493 -3.0207 -0.1749  2.6071
   8023SM   H5G10645  -0.422   0.611   6.593 -2.3863  0.9258  0.4152
   8023SM   C6F10646  -0.522   0.590   6.405 -0.5391 -0.2620  0.1076
   8023SM   H6F10647  -0.530   0.479   6.414 -1.9527 -0.3074 -1.3345
   8023SM   H6G10648  -0.508   0.628   6.302  1.7786  0.8658  0.7774
   8023SM   C7F10649  -0.665   0.645   6.449 -0.1921 -1.0607 -0.5042
   8023SM   H7F10650  -0.662   0.755   6.433  1.9350 -0.9641  0.1789
   8023SM   H7G10651  -0.674   0.620   6.557  0.5947 -0.2730 -0.2421
   8023SM   C8F10652  -0.781   0.587   6.370  0.2269 -0.2181  0.0890
   8023SM   H8F10653  -0.873   0.604   6.430 -0.3944 -0.8503 -0.6609
   8023SM   H8G10654  -0.785   0.476   6.367 -1.6116 -0.1778 -0.2628
   8023SM   C9F10655  -0.798   0.642   6.226 -1.2837  0.1061 -0.4067
   8023SM   H9F10656  -0.710   0.612   6.165 -0.6745  1.1483 -0.0664
   8023SM   H9G10657  -0.782   0.752   6.230 -0.4098 -0.0171 -0.3434
   8023SM  C10F10658  -0.935   0.611   6.155  0.0899  0.1534 -0.2671
   8023SM  H10F10659  -1.025   0.650   6.207 -0.9036 -0.0158 -1.7949
   8023SM  H10G10660  -0.953   0.501   6.158 -0.1765  0.1652 -1.1397
   8023SM  C11F10661  -0.942   0.657   6.016 -0.3445 -0.2136 -0.2088
   8023SM  H11F10662  -0.839   0.650   5.975 -0.1756  1.4962 -0.1529
   8023SM  H11G10663  -0.961   0.766   6.018  0.9494  0.0238  0.6902
   8023SM  C12F10664  -1.047   0.578   5.938  0.6325  0.2474 -0.1030
   8023SM  H12F10665  -1.149   0.606   5.970  0.6961 -0.5898  0.8976
   8023SM  H12G10666  -1.048   0.471   5.969  2.9065  0.1884 -0.0823
   8023SM  C13F10667  -1.028   0.586   5.787  0.2038 -0.5583  0.1737
   8023SM  H13F10668  -0.923   0.565   5.757  0.0646 -2.3670  0.8120
   8023SM  H13G10669  -1.055   0.691   5.764  0.0242 -0.4681  0.7782
   8023SM  C14F10670  -1.114   0.497   5.705 -0.4516  0.0492  0.0309
   8023SM  H14F10671  -1.214   0.534   5.735  0.1105  2.6459 -1.0487
   8023SM  H14G10672  -1.108   0.387   5.724  1.4214  0.3747  1.5752
   8023SM  C15F10673  -1.081   0.520   5.555 -0.3236  0.3761  0.2974
   8023SM  H15F10674  -0.980   0.481   5.527 -0.0802  0.5182  0.9670
   8023SM  H15G10675  -1.080   0.630   5.544  1.5413  0.3411 -0.3081
   8023SM  C16F10676  -1.185   0.466   5.456 -0.0189  0.1234 -0.9417
   8023SM  H16F10677  -1.182   0.355   5.466  1.1868  0.1514 -0.8809
   8023SM  H16G10678  -1.153   0.496   5.354 -2.7749  1.8311 -1.4185
   8023SM  C17F10679  -1.318   0.528   5.468  0.1907  0.8462 -0.1776
   8023SM  H17F10680  -1.323   0.638   5.450 -1.6640  0.4336 -2.6677
   8023SM  H17G10681  -1.365   0.504   5.566  0.4171 -0.3735 -0.3535
   8023SM  C18F10682  -1.412   0.474   5.364 -0.3152 -0.3758 -0.3610
   8023SM  H18F10683  -1.366   0.464   5.263  1.2896 -0.6901  0.3762
   8023SM  H18G10684  -1.492   0.549   5.344  1.9429  2.3262  0.2108
   8023SM  C19F10685  -1.476   0.338   5.409  0.2554  0.1364 -0.1721
   8023SM  H19F10686  -1.507   0.338   5.515  0.7699 -0.1878 -0.0196
   8023SM  H19G10687  -1.400   0.258   5.403 -1.9093 -2.1798  1.2396
   8023SM  C20F10688  -1.592   0.302   5.312 -0.1276 -0.0846  0.3463
   8023SM  H20F10689  -1.538   0.297   5.215 -0.7304 -0.3507  0.0203
   8023SM  H20G10690  -1.673   0.378   5.315  0.7935  0.9144  0.5206
   8023SM  C21F10691  -1.659   0.161   5.325  0.0460  0.1264  0.3246
   8023SM  H21F10692  -1.748   0.151   5.259  0.5486 -2.9362 -0.0350
   8023SM  H21G10693  -1.707   0.143   5.424  0.5304  0.7925  0.6900
   8023SM  C22F10694  -1.558   0.046   5.305 -0.6574 -0.0997  0.2513
   8023SM  H22F10695  -1.493   0.051   5.395 -1.1870  2.2715  0.5641
   8023SM  H22G10696  -1.497   0.064   5.215 -1.3763  2.2570  0.1669
   8023SM  C23F10697  -1.630  -0.095   5.295 -0.4845 -0.4213 -0.5525
   8023SM  H23F10698  -1.702  -0.085   5.211 -2.1227 -0.1490  0.8192
   8023SM  H23G10699  -1.689  -0.123   5.386  0.8262  0.7679  0.7089
   8023SM  H23H10700  -1.557  -0.178   5.282 -1.3450 -1.2066 -0.5354
   8123SM     N10701   1.551   4.573   2.611  0.5000 -0.2971  0.1027
   8123SM   C1510702   1.481   4.690   2.676  0.0328  0.1778  0.4312
   8123SM  H15A10703   1.549   4.769   2.703 -1.3560  1.3551  0.6281
   8123SM  H15B10704   1.458   4.664   2.778 -0.4651  2.6762  1.0078
   8123SM  H15C10705   1.398   4.726   2.616  0.5730 -1.1577 -1.2205
   8123SM   C1410706   1.457   4.458   2.604  0.7944 -0.2907 -0.1840
   8123SM  H14A10707   1.495   4.366   2.564  1.3373 -1.1171  2.0734
   8123SM  H14B10708   1.372   4.467   2.537 -1.4188 -1.3390  2.2890
   8123SM  H14C10709   1.424   4.437   2.705 -0.6084 -1.1667 -0.7937
   8123SM   C1310710   1.589   4.616   2.471  0.6639 -0.1204 -0.1070
   8123SM  H13A10711   1.524   4.693   2.432  2.6474  3.2143  2.5916
   8123SM  H13B10712   1.597   4.537   2.398  1.5850  1.1964 -1.4847
   8123SM  H13C10713   1.688   4.659   2.470  2.1179 -3.1817 -1.0261
   8123SM   C1210714   1.678   4.530   2.683 -0.0258  0.3188 -0.3484
   8123SM  H12A10715   1.754   4.607   2.678 -0.7990  1.0315 -1.9158
   8123SM  H12B10716   1.710   4.436   2.640  1.4647  1.0354 -0.8740
   8123SM   C1110717   1.665   4.498   2.837  0.3549  0.6471  0.6827
   8123SM  H11A10718   1.636   4.591   2.890 -0.1424  0.9244 -0.0708
   8123SM  H11B10719   1.767   4.470   2.873 -0.2052 -1.5802  0.6675
   8123SM     P10720   1.609   4.235   2.858 -0.1095 -0.5109 -0.2259
   8123SM   O1310721   1.504   4.164   2.937 -0.4459  0.0844  0.2102
   8123SM   O1410722   1.631   4.193   2.719  0.1987 -0.1051  0.0165
   8123SM   O1110723   1.747   4.236   2.933  0.1430 -0.1124  0.1932
   8123SM   O1210724   1.570   4.389   2.860  0.4602  0.0160  0.1606
   8123SM   C1S10725   1.769   4.292   3.062  0.4200  0.3421  0.1784
   8123SM   H1S10726   1.682   4.348   3.103 -0.7354 -0.7191 -0.7685
   8123SM   H1T10727   1.849   4.369   3.058  0.7348 -0.0181 -1.3861
   8123SM    NF10728   1.832   4.244   3.291 -0.2131 -0.2354 -0.4323
   8123SM   HNF10729   1.923   4.235   3.330 -0.4343  0.8113  0.3887
   8123SM   C2S10730   1.811   4.183   3.166 -0.2547  0.1141  0.0037
   8123SM   H2S10731   1.731   4.105   3.171 -0.2495  0.0737 -0.4930
   8123SM   C3S10732   1.941   4.110   3.101 -0.3718 -0.4392 -0.7034
   8123SM   H3S10733   2.032   4.173   3.095 -0.4061 -0.4504 -1.3747
   8123SM    O310734   1.924   4.056   2.971 -0.4826 -0.6563  0.2379
   8123SM   HO310735   1.844   4.104   2.949 -0.1816  0.1245  0.7934
   8123SM   C4S10736   1.978   3.996   3.193  0.0946  0.5016 -0.4282
   8123SM   H4S10737   2.075   4.011   3.242  0.0536 -0.5129 -0.0163
   8123SM   C5S10738   1.907   3.884   3.221 -0.3778  0.3796 -0.2802
   8123SM   H5S10739   1.815   3.866   3.163 -1.4966  0.3459  1.4209
   8123SM   C6S10740   1.936   3.778   3.324  0.7028 -0.4533 -0.2107
   8123SM   H6S10741   1.953   3.686   3.264  0.9308  0.2372 -1.2325
   8123SM   H6T10742   1.838   3.764   3.375  0.0825 -1.2245 -1.5403
   8123SM   C7S10743   2.052   3.791   3.419 -0.1250 -0.3462 -0.1761
   8123SM   H7S10744   2.046   3.884   3.480 -1.6955  0.3541 -1.3103
   8123SM   H7T10745   2.146   3.804   3.360  0.1467 -1.0791  0.0893
   8123SM   C8S10746   2.071   3.668   3.503 -0.3700  0.0469 -0.3243
   8123SM   H8S10747   2.073   3.582   3.432  1.8732  0.8976 -1.3790
   8123SM   H8T10748   1.986   3.670   3.575 -1.7736  0.3638 -1.9065
   8123SM   C9S10749   2.201   3.674   3.592  0.4742  0.1090  0.6453
   8123SM   H9S10750   2.206   3.778   3.629  0.7621  0.4489 -0.3359
   8123SM   H9T10751   2.291   3.655   3.530 -1.2839  0.4709 -2.1561
   8123SM  C10S10752   2.187   3.594   3.723  0.1664 -0.1557  0.3710
   8123SM  H10S10753   2.290   3.599   3.764  0.0023  2.0986  0.6731
   8123SM  H10T10754   2.155   3.490   3.703 -2.5957  0.6436  0.2696
   8123SM  C11S10755   2.099   3.663   3.822 -0.1837  0.3432 -0.6508
   8123SM  H11S10756   2.011   3.705   3.770 -1.7366  0.7792  2.0995
   8123SM  H11T10757   2.151   3.753   3.863  2.4320 -1.4941  0.3355
   8123SM  C12S10758   2.061   3.570   3.934  0.0851 -0.0557 -0.6605
   8123SM  H12S10759   2.156   3.531   3.977 -1.0423 -0.2911  1.7448
   8123SM  H12T10760   1.999   3.484   3.901  0.1794 -0.7141  0.7819
   8123SM  C13S10761   1.992   3.641   4.046  0.1696 -0.1958 -0.0353
   8123SM  H13S10762   1.894   3.676   4.006 -0.2044 -1.7565 -0.5564
   8123SM  H13T10763   2.042   3.732   4.085 -1.5002  1.0308 -0.6250
   8123SM  C14S10764   1.953   3.567   4.169  0.3079  0.0581 -0.3899
   8123SM  H14S10765   2.045   3.545   4.226  0.2348  0.3695 -0.1543
   8123SM  H14T10766   1.902   3.473   4.139 -0.9129  0.7011 -0.4068
   8123SM  C15S10767   1.863   3.644   4.258  0.7101  0.7450  0.0254
   8123SM  H15S10768   1.776   3.684   4.200  0.0639 -0.2435  0.3021
   8123SM  H15T10769   1.919   3.732   4.297  0.7328  1.5524 -1.6977
   8123SM  C16S10770   1.810   3.560   4.373  0.2045  0.1575  0.0546
   8123SM  H16S10771   1.882   3.506   4.436 -1.6741 -1.7894  0.6387
   8123SM  H16T10772   1.732   3.487   4.341 -0.3078  0.3740  0.7812
   8123SM  C17S10773   1.736   3.668   4.462 -0.1199  0.0205  0.2490
   8123SM  H17S10774   1.667   3.719   4.392  0.3954 -0.8779 -0.9276
   8123SM  H17T10775   1.811   3.746   4.489  0.1767 -0.8620  2.1272
   8123SM  C18S10776   1.659   3.613   4.586 -0.3320  0.5675  0.5867
   8123SM  H18S10777   1.604   3.696   4.637 -0.2498  1.1440 -0.2467
   8123SM  H18T10778   1.722   3.551   4.653 -0.3883  0.6400  0.7081
   8123SM  H18U10779   1.579   3.544   4.552 -1.3667  2.2137 -0.4950
   8123SM   C1F10780   1.738   4.308   3.361  0.0210 -0.4607  0.3297
   8123SM    OF10781   1.620   4.304   3.326 -0.3892 -0.0702  0.1640
   8123SM   C2F10782   1.783   4.380   3.491  0.1644 -0.3859  0.3088
   8123SM   H2F10783   1.880   4.434   3.480 -0.2934  0.8487  1.8916
   8123SM   H2G10784   1.808   4.303   3.567  1.9657  1.0069  1.2083
   8123SM   C3F10785   1.678   4.484   3.542  0.5153 -0.4958 -0.2139
   8123SM   H3F10786   1.581   4.432   3.528  0.8537 -1.4586  0.8359
   8123SM   H3G10787   1.677   4.566   3.467 -0.7030  0.8122  1.1566
   8123SM   C4F10788   1.690   4.538   3.684 -0.7259 -0.2036  0.2781
   8123SM   H4F10789   1.620   4.624   3.684  2.0615  2.3203 -2.3532
   8123SM   H4G10790   1.796   4.569   3.698 -0.3598 -0.5700 -1.4667
   8123SM   C5F10791   1.650   4.437   3.785  0.1941  0.6012 -0.5285
   8123SM   H5F10792   1.703   4.341   3.768 -0.3611  0.4552 -1.5030
   8123SM   H5G10793   1.546   4.400   3.768  0.1616  0.1518  0.5875
   8123SM   C6F10794   1.645   4.494   3.931 -0.3000 -0.5820  0.3581
   8123SM   H6F10795   1.560   4.566   3.938 -0.4273 -0.5445 -1.2257
   8123SM   H6G10796   1.741   4.545   3.957 -0.3076 -0.6484  0.5168
   8123SM   C7F10797   1.623   4.391   4.036  0.1438 -0.2287 -0.3916
   8123SM   H7F10798   1.710   4.322   4.041  1.2530  1.1232 -0.5109
   8123SM   H7G10799   1.536   4.333   3.998  0.1774 -1.3540  1.1508
   8123SM   C8F10800   1.595   4.439   4.176  0.1289 -0.4637  0.0295
   8123SM   H8F10801   1.505   4.503   4.168  0.9730  0.7999  0.2667
   8123SM   H8G10802   1.676   4.503   4.218 -1.0803  0.2649  1.3039
   8123SM   C9F10803   1.576   4.317   4.267  0.2709  1.0817 -0.8887
   8123SM   H9F10804   1.642   4.244   4.215 -1.7268  0.2141 -2.3285
   8123SM   H9G10805   1.476   4.271   4.252  0.1796  0.7170  0.6619
   8123SM  C10F10806   1.599   4.329   4.417 -0.4846 -0.1602 -0.7927
   8123SM  H10F10807   1.709   4.332   4.430 -0.5930  0.2696  0.0437
   8123SM  H10G10808   1.562   4.248   4.483 -0.1834 -0.2314 -0.7090
   8123SM  C11F10809   1.537   4.462   4.469  0.1743 -0.3816  0.4406
   8123SM  H11F10810   1.568   4.554   4.415 -1.7851 -0.9682 -1.8927
   8123SM  H11G10811   1.570   4.482   4.573 -1.7640 -0.0283  1.0175
   8123SM  C12F10812   1.379   4.472   4.461 -1.0591 -0.0549 -0.0636
   8123SM  H12F10813   1.352   4.461   4.354  1.3154 -1.0724 -0.6208
   8123SM  H12G10814   1.351   4.575   4.494  1.4187  0.8724 -0.6615
   8123SM  C13F10815   1.294   4.358   4.523 -0.2497  0.2627  0.1453
   8123SM  H13F10816   1.344   4.262   4.497  0.3445  1.4415 -3.5937
   8123SM  H13G10817   1.193   4.342   4.480  0.2388 -0.2220 -0.8543
   8123SM  C14F10818   1.282   4.382   4.672 -0.1060  0.3141  0.4927
   8123SM  H14F10819   1.244   4.485   4.688 -1.5715 -0.3176  1.2511
   8123SM  H14G10820   1.384   4.372   4.715  1.0520  0.2255 -2.0763
   8123SM  C15F10821   1.199   4.275   4.743  0.4378  0.0505  0.4046
   8123SM  H15F10822   1.246   4.177   4.718  0.5043 -0.0766  1.0048
   8123SM  H15G10823   1.100   4.275   4.693 -0.1120 -2.4709  1.3287
   8123SM  C16F10824   1.181   4.314   4.888 -0.5473  0.6257 -0.3471
   8123SM  H16F10825   1.107   4.395   4.906 -1.2749 -0.1486  0.2695
   8123SM  H16G10826   1.274   4.349   4.936 -0.5113 -1.5750  1.3586
   8123SM  C17F10827   1.149   4.187   4.966  0.8907  0.5581  0.1619
   8123SM  H17F10828   1.215   4.099   4.952  0.1696 -0.4072  2.3110
   8123SM  H17G10829   1.047   4.159   4.932  0.7843 -1.2340  1.7686
   8123SM  C18F10830   1.133   4.216   5.120 -0.2240  0.4716  0.0322
   8123SM  H18F10831   1.039   4.262   5.156 -0.1872 -0.5962  1.5778
   8123SM  H18G10832   1.216   4.286   5.145  1.3485 -1.2968 -0.0160
   8123SM  C19F10833   1.152   4.089   5.201 -0.2652 -0.4485  0.0039
   8123SM  H19F10834   1.250   4.044   5.175  1.0845  0.7785  2.5957
   8123SM  H19G10835   1.068   4.019   5.182 -1.5057  0.7235  0.9193
   8123SM  C20F10836   1.152   4.113   5.353 -0.1148 -0.1797  0.0649
   8123SM  H20F10837   1.050   4.149   5.378 -0.5546 -1.7729  0.7012
   8123SM  H20G10838   1.230   4.191   5.367  1.7196 -1.8214 -0.4190
   8123SM  C21F10839   1.182   3.993   5.440 -0.7213 -0.0184 -0.7020
   8123SM  H21F10840   1.283   3.965   5.403 -0.6901  2.3960 -2.7418
   8123SM  H21G10841   1.115   3.905   5.436  0.7052 -1.2874  1.6574
   8123SM  C22F10842   1.180   4.035   5.586  0.1230  0.1132  0.1685
   8123SM  H22F10843   1.228   4.134   5.598 -2.7328  1.4682  1.4281
   8123SM  H22G10844   1.241   3.963   5.644  0.3548 -0.2509 -0.5186
   8123SM  C23F10845   1.036   4.054   5.644 -0.1243  0.1960 -0.0232
   8123SM  H23F10846   0.985   3.956   5.657  1.1501 -0.4811  0.0534
   8123SM  H23G10847   0.982   4.113   5.567  0.6530  1.4364  0.3525
   8123SM  H23H10848   1.051   4.102   5.743 -0.4058  1.8806 -0.7648
   8223SM     N10849   2.896   5.771   2.494  0.1927  0.3596  0.5740
   8223SM   C1510850   3.007   5.840   2.434 -0.4625 -0.4273 -0.0530
   8223SM  H15A10851   3.098   5.823   2.490  0.8259 -0.2472 -2.0017
   8223SM  H15B10852   3.001   5.947   2.422 -1.4135 -0.6462 -1.8011
   8223SM  H15C10853   3.029   5.820   2.330  1.1886  3.4229 -0.6386
   8223SM   C1410854   2.773   5.804   2.413  0.0908 -0.7324 -0.6143
   8223SM  H14A10855   2.775   5.908   2.385  1.7485 -0.4933  0.3017
   8223SM  H14B10856   2.683   5.796   2.471  0.3523  1.7568  0.2297
   8223SM  H14C10857   2.772   5.750   2.319 -1.3803 -2.6463  0.4304
   8223SM   C1310858   2.922   5.624   2.486 -0.0807 -0.0431  0.4756
   8223SM  H13A10859   3.020   5.609   2.529 -1.0731  0.6115  3.1859
   8223SM  H13B10860   2.926   5.578   2.389 -1.4206 -0.0907  0.4251
   8223SM  H13C10861   2.851   5.580   2.554 -1.3300  1.4747  0.2220
   8223SM   C1210862   2.877   5.821   2.635 -0.3992  0.2241 -0.7915
   8223SM  H12A10863   2.856   5.927   2.639  0.8544  0.4882 -0.9863
   8223SM  H12B10864   2.971   5.816   2.688 -1.4271  0.0986  1.1186
   8223SM   C1110865   2.776   5.746   2.734  0.1856  0.0573  0.0209
   8223SM  H11A10866   2.674   5.752   2.691 -0.6187 -1.2338  1.6515
   8223SM  H11B10867   2.773   5.807   2.827  0.5750  0.6185 -0.3286
   8223SM     P10868   2.724   5.496   2.797  0.1653 -0.3161  0.0637
   8223SM   O1310869   2.618   5.492   2.699 -0.3600 -0.4147  0.5221
   8223SM   O1410870   2.799   5.375   2.829  0.2933 -0.8845 -0.5719
   8223SM   O1110871   2.657   5.552   2.926 -0.2911 -0.2487 -0.0719
   8223SM   O1210872   2.826   5.610   2.765  0.0173 -0.0323  0.0318
   8223SM   C1S10873   2.593   5.473   3.023 -0.0584 -0.3374  0.2143
   8223SM   H1S10874   2.679   5.413   3.059  0.3115  0.1669  0.1737
   8223SM   H1T10875   2.513   5.411   2.976  0.3567 -0.4891 -0.2879
   8223SM    NF10876   2.458   5.515   3.234  0.1898  0.1721 -0.3571
   8223SM   HNF10877   2.360   5.528   3.242  0.3436  0.5349  1.5059
   8223SM   C2S10878   2.525   5.575   3.124  0.1850  0.3059  0.8566
   8223SM   H2S10879   2.614   5.633   3.158 -0.0847  0.2545  1.6703
   8223SM   C3S10880   2.434   5.689   3.057  0.8844  0.4041  0.2935
   8223SM   H3S10881   2.361   5.631   2.996  0.9833 -0.3897  0.9158
   8223SM    O310882   2.508   5.770   2.965  0.0165  0.0516  0.5476
   8223SM   HO310883   2.582   5.716   2.938 -1.0975 -0.7257 -1.1352
   8223SM   C4S10884   2.376   5.786   3.148  0.3669  0.1771  0.4499
   8223SM   H4S10885   2.440   5.867   3.188  0.8939  0.7045 -1.3509
   8223SM   C5S10886   2.246   5.804   3.167 -0.5310 -0.5237  0.3068
   8223SM   H5S10887   2.171   5.738   3.120  0.8167 -2.4672  0.7747
   8223SM   C6S10888   2.186   5.906   3.265 -0.1045 -0.4802  0.4465
   8223SM   H6S10889   2.078   5.881   3.273 -1.0534  2.4070 -1.8272
   8223SM   H6T10890   2.187   6.011   3.229 -2.2591 -0.8902 -1.0137
   8223SM   C7S10891   2.243   5.890   3.409  0.3458  0.1130  0.5338
   8223SM   H7S10892   2.198   5.969   3.472 -2.4148  0.6241 -1.8685
   8223SM   H7T10893   2.353   5.903   3.414  0.5496 -1.8301  2.6296
   8223SM   C8S10894   2.216   5.751   3.475  0.1473  0.1867 -0.0043
   8223SM   H8S10895   2.272   5.667   3.427 -0.7330 -0.8530  0.7247
   8223SM   H8T10896   2.108   5.729   3.456 -0.1458  0.8263  0.9014
   8223SM   C9S10897   2.228   5.755   3.630  0.9546 -0.1058 -1.2375
   8223SM   H9S10898   2.167   5.841   3.666  2.0903  0.0953  0.2589
   8223SM   H9T10899   2.334   5.782   3.649  1.0655 -0.3495 -1.5061
   8223SM  C10S10900   2.185   5.629   3.702 -0.0726 -0.8097  0.0506
   8223SM  H10S10901   2.255   5.555   3.656  0.7098 -0.4898  0.7039
   8223SM  H10T10902   2.077   5.605   3.693 -0.1960  0.0938 -1.0632
   8223SM  C11S10903   2.207   5.640   3.857  0.5062 -0.4097  0.6810
   8223SM  H11S10904   2.150   5.729   3.891 -1.0030 -0.9009 -0.4440
   8223SM  H11T10905   2.313   5.671   3.872 -0.0226  1.4776  0.7598
   8223SM  C12S10906   2.176   5.515   3.929 -0.3564 -0.2012  0.0437
   8223SM  H12S10907   2.238   5.434   3.887 -1.4084 -1.4883  0.8802
   8223SM  H12T10908   2.069   5.489   3.913 -0.6262  2.1856 -3.0162
   8223SM  C13S10909   2.216   5.516   4.079 -0.7528  0.5329 -0.1446
   8223SM  H13S10910   2.324   5.540   4.087 -0.9700  1.6438 -0.4744
   8223SM  H13T10911   2.219   5.415   4.125 -0.0406  1.0810  1.0706
   8223SM  C14S10912   2.142   5.616   4.174 -0.2818  0.6474 -0.7700
   8223SM  H14S10913   2.033   5.596   4.163 -0.3334 -0.3097  1.1054
   8223SM  H14T10914   2.165   5.719   4.140 -1.5730  0.6784 -1.6333
   8223SM  C15S10915   2.177   5.601   4.318 -0.5727 -0.5198  0.0109
   8223SM  H15S10916   2.109   5.665   4.378 -2.4357 -2.0579 -0.3431
   8223SM  H15T10917   2.278   5.646   4.330  0.2810 -0.4391 -4.9870
   8223SM  C16S10918   2.176   5.455   4.370 -0.3640 -0.1167  0.1253
   8223SM  H16S10919   2.263   5.401   4.326  0.2355 -0.1740  1.3351
   8223SM  H16T10920   2.086   5.407   4.325 -1.3267  0.6257  1.2079
   8223SM  C17S10921   2.167   5.433   4.520  0.4612  0.0273 -0.5010
   8223SM  H17S10922   2.218   5.512   4.579 -2.9207  1.9589  0.1150
   8223SM  H17T10923   2.204   5.329   4.536  0.8963  0.0334 -1.4231
   8223SM  C18S10924   2.014   5.442   4.548 -0.6919  0.2220 -0.3552
   8223SM  H18S10925   1.962   5.361   4.492  1.9814  0.3915 -3.3842
   8223SM  H18T10926   1.961   5.535   4.518 -2.2126 -0.6683 -0.5548
   8223SM  H18U10927   1.987   5.422   4.654 -1.8694  0.3487 -0.6184
   8223SM   C1F10928   2.503   5.417   3.310 -0.0858  0.1298  0.1837
   8223SM    OF10929   2.623   5.391   3.313  0.5029  0.1336  0.4941
   8223SM   C2F10930   2.399   5.324   3.361  0.5128 -0.0729 -0.1206
   8223SM   H2F10931   2.331   5.292   3.279 -0.1687  1.1063 -0.0463
   8223SM   H2G10932   2.347   5.383   3.439  1.2124  1.3551 -0.6901
   8223SM   C3F10933   2.459   5.189   3.417 -0.3981 -0.5661  0.0263
   8223SM   H3F10934   2.536   5.216   3.492 -0.5185 -1.9255  0.6810
   8223SM   H3G10935   2.505   5.123   3.339  1.1528  0.5071 -0.0126
   8223SM   C4F10936   2.353   5.104   3.494 -0.1856  0.4846 -0.5556
   8223SM   H4F10937   2.389   5.000   3.512 -2.1528 -0.2773 -0.7688
   8223SM   H4G10938   2.268   5.105   3.422 -1.8063 -1.1122  1.1955
   8223SM   C5F10939   2.313   5.173   3.623 -0.4967 -0.4959 -0.2075
   8223SM   H5F10940   2.245   5.259   3.605 -0.4161  0.0105  1.6565
   8223SM   H5G10941   2.403   5.215   3.673 -1.2927  0.5774  0.3639
   8223SM   C6F10942   2.247   5.080   3.732 -0.3665  0.3380  1.1813
   8223SM   H6F10943   2.316   4.994   3.744  0.5038  1.1547  2.3048
   8223SM   H6G10944   2.151   5.033   3.701 -0.3460  1.0907 -0.1247
   8223SM   C7F10945   2.237   5.155   3.862  0.2366 -0.5197 -0.1325
   8223SM   H7F10946   2.157   5.232   3.864  0.9542  0.2713  2.6522
   8223SM   H7G10947   2.329   5.216   3.877  0.7291 -1.1493 -0.5216
   8223SM   C8F10948   2.218   5.060   3.986  0.4391 -0.4320 -0.5430
   8223SM   H8F10949   2.306   4.992   3.992 -0.2590 -1.4134 -0.9995
   8223SM   H8G10950   2.123   5.010   3.958  0.4492 -0.8878  0.1993
   8223SM   C9F10951   2.221   5.130   4.127 -0.2892 -0.0278  0.3501
   8223SM   H9F10952   2.137   5.202   4.124 -0.8516 -0.6677  0.4332
   8223SM   H9G10953   2.318   5.185   4.120  0.2903 -1.1943 -1.4958
   8223SM  C10F10954   2.210   5.030   4.244  0.6856  0.2542  0.1985
   8223SM  H10F10955   2.308   4.976   4.248  1.4488  1.4877 -1.0693
   8223SM  H10G10956   2.124   4.961   4.232  0.4480  0.6594 -0.4476
   8223SM  C11F10957   2.202   5.105   4.376  0.0738 -0.4083  0.4989
   8223SM  H11F10958   2.108   5.164   4.371  1.4191  1.7441 -0.9551
   8223SM  H11G10959   2.293   5.167   4.392  0.2780 -0.4621 -0.4374
   8223SM  C12F10960   2.186   5.010   4.494 -0.4085 -0.0512  0.1362
   8223SM  H12F10961   2.286   4.978   4.531 -1.5114 -1.0778  2.4089
   8223SM  H12G10962   2.130   4.917   4.471  2.2448 -2.1268  1.5959
   8223SM  C13F10963   2.114   5.075   4.613  0.7400 -0.1644 -0.0782
   8223SM  H13F10964   2.009   5.105   4.591  0.8696 -0.3683 -0.9968
   8223SM  H13G10965   2.170   5.167   4.639  1.9356 -1.0509  0.5407
   8223SM  C14F10966   2.116   4.986   4.746  0.3413  0.1870  0.8405
   8223SM  H14F10967   2.221   4.968   4.775 -0.4122 -1.6150  2.6872
   8223SM  H14G10968   2.072   4.884   4.738 -0.8380  0.7371 -0.0379
   8223SM  C15F10969   2.056   5.069   4.863  0.1852 -0.0348 -0.2547
   8223SM  H15F10970   1.949   5.091   4.839  0.0069  2.0807  2.0719
   8223SM  H15G10971   2.107   5.164   4.890  0.3122 -0.3083  0.4819
   8223SM  C16F10972   2.047   4.991   4.987 -0.0697 -0.2008 -0.7521
   8223SM  H16F10973   2.143   4.960   5.034 -1.1597 -1.6257  0.6325
   8223SM  H16G10974   1.985   4.902   4.964  1.2213 -1.2800 -0.2028
   8223SM  C17F10975   1.965   5.064   5.093  0.0966 -0.0593  0.8403
   8223SM  H17F10976   1.867   5.082   5.044  0.2833 -1.1303  0.0225
   8223SM  H17G10977   2.020   5.155   5.123 -0.9673  0.2875  1.7972
   8223SM  C18F10978   1.939   4.968   5.208  0.5504  0.0253  0.2090
   8223SM  H18F10979   2.035   4.970   5.265  0.8330 -1.3767 -0.1773
   8223SM  H18G10980   1.923   4.874   5.152 -2.0411  1.1823 -1.1396
   8223SM  C19F10981   1.817   5.008   5.292 -0.0297 -0.3301  0.2931
   8223SM  H19F10982   1.809   4.910   5.342  1.1645 -1.3996 -1.5026
   8223SM  H19G10983   1.722   5.027   5.237 -0.0433  0.1358  0.4705
   8223SM  C20F10984   1.834   5.118   5.392 -0.1877 -0.1537 -0.4531
   8223SM  H20F10985   1.834   5.214   5.336  0.3405 -0.2420 -0.6131
   8223SM  H20G10986   1.936   5.118   5.438 -0.6117 -2.5824  0.6193
   8223SM  C21F10987   1.725   5.139   5.500  0.4996 -0.8000  0.6276
   8223SM  H21F10988   1.699   5.046   5.554  1.1116 -0.9219  0.7154
   8223SM  H21G10989   1.625   5.163   5.458  0.9106  0.0166  0.1018
   8223SM  C22F10990   1.763   5.235   5.614  0.3873  0.2786 -0.0076
   8223SM  H22F10991   1.855   5.203   5.667  0.2009 -0.2249  0.0156
   8223SM  H22G10992   1.679   5.227   5.686  1.4443 -0.2496  1.1971
   8223SM  C23F10993   1.750   5.381   5.573 -0.3981 -0.0778  0.2706
   8223SM  H23F10994   1.829   5.414   5.503  1.4584 -0.2388  2.1828
   8223SM  H23G10995   1.768   5.444   5.663 -1.2807 -2.4943  2.2545
   8223SM  H23H10996   1.654   5.396   5.519  0.2521 -0.5205 -1.0312
   8323SM     N10997   2.516   4.693   2.871  0.0159  0.4104  0.4308
   8323SM   C1510998   2.541   4.593   2.761 -0.0091  0.0545 -0.8674
   8323SM  H15A10999   2.615   4.627   2.689 -1.7022  0.5619 -2.4625
   8323SM  H15B11000   2.449   4.580   2.705 -0.4160 -0.7502 -0.0213
   8323SM  H15C11001   2.572   4.502   2.810  0.2785  1.0563  0.8785
   8323SM   C1411002   2.640   4.730   2.950  0.0004  0.2487 -0.5529
   8323SM  H14A11003   2.667   4.644   3.010  2.6142  2.0980  1.1450
   8323SM  H14B11004   2.613   4.808   3.021 -0.3956 -1.1742  0.9298
   8323SM  H14C11005   2.722   4.760   2.887 -0.0712 -1.6792 -1.6418
   8323SM   C1311006   2.460   4.810   2.802 -0.7828  0.4514  0.0400
   8323SM  H13A11007   2.535   4.863   2.745  0.8733 -0.4798  1.2729
   8323SM  H13B11008   2.426   4.883   2.874  0.1900  1.1406 -0.1812
   8323SM  H13C11009   2.377   4.786   2.737 -2.3643  0.0233  2.1057
   8323SM   C1211010   2.411   4.647   2.972 -0.9768 -0.5279 -0.8795
   8323SM  H12A11011   2.318   4.613   2.927 -1.4990 -0.7996  0.3567
   8323SM  H12B11012   2.385   4.731   3.035 -0.1844 -0.3549 -0.7777
   8323SM   C1111013   2.445   4.521   3.061  0.9306  0.4624  0.3093
   8323SM  H11A11014   2.387   4.531   3.155 -0.0062 -2.3150  0.0901
   8323SM  H11B11015   2.551   4.511   3.092  0.8031 -2.8402  0.0053
   8323SM     P11016   2.267   4.330   3.006  0.0190 -0.1749  0.0222
   8323SM   O1311017   2.161   4.421   2.962  0.0136 -0.4502 -0.2903
   8323SM   O1411018   2.281   4.202   2.934  0.2244  0.4958  0.2311
   8323SM   O1111019   2.264   4.312   3.165 -0.1939  0.5358 -1.0359
   8323SM   O1211020   2.408   4.407   2.986 -0.9566  0.1078  0.2540
   8323SM   C1S11021   2.371   4.233   3.226  0.2849  0.7727 -0.7040
   8323SM   H1S11022   2.468   4.263   3.180  0.4476 -0.9228 -1.5791
   8323SM   H1T11023   2.351   4.125   3.208  3.7120 -0.0189 -0.4208
   8323SM    NF11024   2.480   4.195   3.444 -0.7876 -0.2769 -0.3696
   8323SM   HNF11025   2.460   4.115   3.500 -2.7619  2.2581  3.0174
   8323SM   C2S11026   2.367   4.256   3.379  0.5099 -0.4611 -0.6189
   8323SM   H2S11027   2.377   4.364   3.403 -2.1388 -0.3773  0.4890
   8323SM   C3S11028   2.225   4.208   3.433  0.2628  0.0050  0.1626
   8323SM   H3S11029   2.222   4.100   3.408  0.1054  0.0061  0.1796
   8323SM    O311030   2.112   4.265   3.361  0.4267  0.4893 -0.5631
   8323SM   HO311031   2.154   4.289   3.278  1.5402 -1.4869 -0.6442
   8323SM   C4S11032   2.224   4.229   3.588  0.2673 -0.0864  0.0984
   8323SM   H4S11033   2.216   4.332   3.627  1.2569  0.8511 -1.9918
   8323SM   C5S11034   2.246   4.122   3.668 -0.1886 -0.5283  0.1046
   8323SM   H5S11035   2.265   4.027   3.617  2.0638  1.9131 -4.1456
   8323SM   C6S11036   2.252   4.152   3.817 -0.1323  0.4079  0.2540
   8323SM   H6S11037   2.155   4.140   3.868  0.3083 -0.3986  0.9229
   8323SM   H6T11038   2.275   4.258   3.843 -0.5907 -0.0785  2.9756
   8323SM   C7S11039   2.340   4.064   3.903 -0.2102  0.8536 -0.1601
   8323SM   H7S11040   2.334   3.958   3.871  1.4688  0.1804  1.5182
   8323SM   H7T11041   2.311   4.076   4.010  0.3052  1.6234 -0.0911
   8323SM   C8S11042   2.486   4.111   3.900 -0.3184  0.2202 -0.7792
   8323SM   H8S11043   2.522   4.103   3.795 -1.2908  0.8200 -1.1752
   8323SM   H8T11044   2.542   4.032   3.954  1.5340  2.1556  0.2603
   8323SM   C9S11045   2.518   4.247   3.964 -0.4079  0.4230 -0.2966
   8323SM   H9S11046   2.488   4.329   3.896  2.3357  2.2138  0.4768
   8323SM   H9T11047   2.628   4.262   3.975 -0.7705  1.5147  2.8369
   8323SM  C10S11048   2.466   4.273   4.100 -0.1948 -0.3612 -0.9928
   8323SM  H10S11049   2.470   4.180   4.160 -1.2681 -0.0813 -0.4595
   8323SM  H10T11050   2.356   4.291   4.098 -0.6118 -2.4914  0.2157
   8323SM  C11S11051   2.548   4.394   4.162  0.4416  0.2124  0.1621
   8323SM  H11S11052   2.524   4.489   4.110 -1.4388 -0.1678  0.2678
   8323SM  H11T11053   2.656   4.373   4.149  1.5146  2.4253  4.0261
   8323SM  C12S11054   2.524   4.427   4.317  0.0730  0.1139  0.6667
   8323SM  H12S11055   2.525   4.327   4.366 -2.0422 -0.6510 -0.6975
   8323SM  H12T11056   2.425   4.473   4.334  0.4168  0.1964  2.6546
   8323SM  C13S11057   2.643   4.513   4.367 -0.0739 -1.0716 -0.7969
   8323SM  H13S11058   2.635   4.606   4.307 -1.4524 -1.0484 -0.5943
   8323SM  H13T11059   2.733   4.455   4.337  1.1454  0.6313 -0.5713
   8323SM  C14S11060   2.643   4.542   4.523  0.0088 -0.3382  0.2563
   8323SM  H14S11061   2.733   4.600   4.550 -1.1553  1.3092  0.7735
   8323SM  H14T11062   2.652   4.452   4.588  2.1687  2.0389  3.5415
   8323SM  C15S11063   2.538   4.636   4.575  0.0795  0.5047 -0.0817
   8323SM  H15S11064   2.433   4.615   4.546  0.0165  0.5335  0.1272
   8323SM  H15T11065   2.554   4.733   4.524  1.1465  0.6726  0.5605
   8323SM  C16S11066   2.538   4.647   4.730  0.3278 -0.2864 -0.3248
   8323SM  H16S11067   2.641   4.668   4.767  0.7102 -3.0172  0.3639
   8323SM  H16T11068   2.505   4.559   4.789 -2.7178  1.9374  1.5969
   8323SM  C17S11069   2.445   4.762   4.779  0.4302 -0.2768 -0.8169
   8323SM  H17S11070   2.353   4.770   4.717  0.0251  2.3640  0.0004
   8323SM  H17T11071   2.489   4.862   4.762  0.4289 -0.3240 -1.0971
   8323SM  C18S11072   2.401   4.745   4.921  0.0353  0.2779  0.3092
   8323SM  H18S11073   2.342   4.652   4.931  1.5736 -0.6490  1.2152
   8323SM  H18T11074   2.344   4.835   4.954  2.0372  1.9621 -0.5488
   8323SM  H18U11075   2.487   4.733   4.990  0.3493 -0.7119 -0.2363
   8323SM   C1F11076   2.609   4.237   3.424 -0.4176  0.6453  0.0083
   8323SM    OF11077   2.635   4.337   3.365 -0.0929 -0.3646  0.5965
   8323SM   C2F11078   2.715   4.138   3.466  0.2779  0.6849  0.3146
   8323SM   H2F11079   2.757   4.088   3.377 -1.9554 -1.3192  0.2804
   8323SM   H2G11080   2.674   4.063   3.536 -0.9707  1.7673  0.7860
   8323SM   C3F11081   2.831   4.221   3.529 -0.2862  0.4879  0.1396
   8323SM   H3F11082   2.895   4.270   3.452  0.3598  1.5774  1.3494
   8323SM   H3G11083   2.904   4.150   3.574  0.6338  1.3061 -0.0414
   8323SM   C4F11084   2.795   4.311   3.647 -1.2372 -0.1085 -0.4760
   8323SM   H4F11085   2.759   4.254   3.735  2.7134  0.0493  1.4985
   8323SM   H4G11086   2.720   4.384   3.609  0.0351  0.5246 -1.8874
   8323SM   C5F11087   2.921   4.390   3.692  0.2811  0.0405  0.1332
   8323SM   H5F11088   2.970   4.447   3.610 -0.2065 -0.9189 -0.8297
   8323SM   H5G11089   3.001   4.321   3.727  1.2071  0.6736 -0.6563
   8323SM   C6F11090   2.890   4.498   3.796  0.3436 -0.2902  0.8217
   8323SM   H6F11091   2.807   4.555   3.750 -0.9309 -1.4256  1.6431
   8323SM   H6G11092   2.976   4.563   3.825  0.5131 -0.1262 -0.0226
   8323SM   C7F11093   2.842   4.437   3.926 -0.0679 -0.5454  0.0272
   8323SM   H7F11094   2.890   4.337   3.932  1.4394  0.0985 -0.6484
   8323SM   H7G11095   2.731   4.440   3.927 -0.0593  0.5959 -0.4987
   8323SM   C8F11096   2.886   4.522   4.047 -0.5569  0.2110  0.8395
   8323SM   H8F11097   2.836   4.477   4.135 -0.0079  2.1197  2.2093
   8323SM   H8G11098   2.857   4.629   4.051  3.5059  1.4557  1.3346
   8323SM   C9F11099   3.032   4.521   4.074 -0.3778  0.1676 -0.3320
   8323SM   H9F11100   3.082   4.578   3.993 -0.2933  2.6216  1.3368
   8323SM   H9G11101   3.069   4.416   4.074 -2.6324 -0.6729 -0.5312
   8323SM  C10F11102   3.063   4.601   4.206 -0.3471  1.3031 -0.2959
   8323SM  H10F11103   3.035   4.534   4.290  0.4931 -1.2322 -1.8970
   8323SM  H10G11104   3.007   4.696   4.215 -1.5781  0.6844 -1.0701
   8323SM  C11F11105   3.213   4.621   4.220 -0.1347 -0.1653  0.0795
   8323SM  H11F11106   3.251   4.666   4.126 -0.5722 -1.8370 -0.9515
   8323SM  H11G11107   3.261   4.521   4.215  0.2510  0.0699 -1.6222
   8323SM  C12F11108   3.263   4.676   4.356 -0.3016 -0.4103 -0.0437
   8323SM  H12F11109   3.373   4.681   4.364 -0.3212  0.5780 -0.2905
   8323SM  H12G11110   3.222   4.609   4.435  0.1438  0.9668  1.4215
   8323SM  C13F11111   3.212   4.817   4.388 -0.3663  1.3429  0.2703
   8323SM  H13F11112   3.102   4.814   4.373 -0.1908  1.1356 -1.1331
   8323SM  H13G11113   3.259   4.879   4.308  2.4389 -1.5308 -0.5197
   8323SM  C14F11114   3.254   4.870   4.526 -0.0610 -0.0219  0.4718
   8323SM  H14F11115   3.223   4.977   4.529  0.2222  0.1378 -1.1431
   8323SM  H14G11116   3.365   4.868   4.518 -0.1550 -1.2557 -1.0966
   8323SM  C15F11117   3.209   4.785   4.640  0.7104 -0.5861  0.4555
   8323SM  H15F11118   3.244   4.681   4.622 -2.0569 -1.6404  0.6985
   8323SM  H15G11119   3.099   4.776   4.639  0.5618  0.9729 -0.0831
   8323SM  C16F11120   3.257   4.845   4.768 -0.1744  0.1512  0.0207
   8323SM  H16F11121   3.216   4.948   4.778 -0.1952  0.2918 -1.3612
   8323SM  H16G11122   3.368   4.843   4.761 -0.1188  2.4526 -0.6210
   8323SM  C17F11123   3.216   4.773   4.896 -0.4710 -0.3961  0.2412
   8323SM  H17F11124   3.107   4.759   4.909 -0.4310  0.2294  1.3800
   8323SM  H17G11125   3.233   4.843   4.981 -3.2034  0.0696  0.5127
   8323SM  C18F11126   3.294   4.643   4.916  0.3633  0.1473  0.5288
   8323SM  H18F11127   3.402   4.668   4.920  0.6439 -0.7439 -0.7295
   8323SM  H18G11128   3.278   4.574   4.830  3.0497 -0.1100  0.1657
   8323SM  C19F11129   3.245   4.571   5.040  0.1942 -0.7987  0.6114
   8323SM  H19F11130   3.135   4.554   5.033  0.2631 -0.7856 -1.2378
   8323SM  H19G11131   3.260   4.647   5.119 -2.2209  0.9703 -0.5147
   8323SM  C20F11132   3.320   4.444   5.065  0.4615  0.4507  0.5870
   8323SM  H20F11133   3.288   4.397   5.161 -0.3029 -0.5725 -0.1451
   8323SM  H20G11134   3.428   4.470   5.064  0.2656  1.3450 -0.7356
   8323SM  C21F11135   3.288   4.338   4.956 -0.4025 -0.0923 -0.2010
   8323SM  H21F11136   3.316   4.362   4.851  1.8110 -1.9285 -0.1025
   8323SM  H21G11137   3.177   4.332   4.960 -0.5332  1.0056 -1.5373
   8323SM  C22F11138   3.358   4.206   4.978  0.4103  0.5334 -0.4168
   8323SM  H22F11139   3.314   4.156   5.067 -0.4292 -2.2572 -2.2795
   8323SM  H22G11140   3.465   4.227   4.997  0.7113 -0.5876 -0.8046
   8323SM  C23F11141   3.331   4.116   4.850 -0.6654  0.5256 -0.2548
   8323SM  H23F11142   3.394   4.026   4.857 -1.4811 -0.0744 -0.4594
   8323SM  H23G11143   3.347   4.174   4.756  0.8507  1.3113  0.4491
   8323SM  H23H11144   3.229   4.072   4.849 -0.8656  0.9752  0.0858
   8423SM     N11145   3.208   2.490   3.135  0.2520 -0.5321 -0.5128
   8423SM   C1511146   3.141   2.591   3.213  0.6939  0.3797 -0.5834
   8423SM  H15A11147   3.167   2.590   3.318  0.0879 -0.6419 -0.4347
   8423SM  H15B11148   3.035   2.592   3.193  0.6571  0.7581 -0.3701
   8423SM  H15C11149   3.177   2.684   3.172  0.2946  0.7432 -0.1178
   8423SM   C1411150   3.182   2.356   3.188  0.7726 -0.2238 -0.2214
   8423SM  H14A11151   3.233   2.281   3.130  0.7352  0.8980 -1.7707
   8423SM  H14B11152   3.077   2.334   3.175  1.2775 -2.2327 -1.3543
   8423SM  H14C11153   3.207   2.361   3.293  0.9598  2.6370 -0.3271
   8423SM   C1311154   3.156   2.494   2.998  0.1792  0.2333  0.1576
   8423SM  H13A11155   3.051   2.470   2.993 -0.1976  1.5786  1.1740
   8423SM  H13B11156   3.211   2.420   2.941  0.6371  1.0679 -0.5024
   8423SM  H13C11157   3.170   2.588   2.948  0.9123  0.4083  0.6741
   8423SM   C1211158   3.357   2.523   3.130 -0.5850  0.1515 -0.4283
   8423SM  H12A11159   3.383   2.616   3.082 -0.9846 -0.3554 -1.6763
   8423SM  H12B11160   3.413   2.447   3.077  0.7049 -0.1580  1.2805
   8423SM   C1111161   3.425   2.521   3.274  0.3251  0.3235  0.3643
   8423SM  H11A11162   3.405   2.421   3.317 -0.3077 -0.2082 -1.1176
   8423SM  H11B11163   3.381   2.591   3.349  1.4791  1.9749 -0.4270
   8423SM     P11164   3.624   2.685   3.269 -0.4363  0.2227 -0.0878
   8423SM   O1311165   3.736   2.702   3.171 -0.7184  0.1830  0.8937
   8423SM   O1411166   3.517   2.781   3.264 -0.4540 -0.8292  0.3958
   8423SM   O1111167   3.693   2.688   3.406  0.1586 -0.1638 -0.2040
   8423SM   O1211168   3.564   2.543   3.251 -0.7184  0.0048 -0.4757
   8423SM   C1S11169   3.667   2.799   3.490  0.4438 -0.6079  0.0679
   8423SM   H1S11170   3.559   2.821   3.499  1.0368  1.8983  1.9449
   8423SM   H1T11171   3.720   2.891   3.459  0.8459 -0.6025  0.7590
   8423SM    NF11172   3.710   2.902   3.719 -0.7433  0.5914 -0.5518
   8423SM   HNF11173   3.773   2.980   3.715 -1.5339  1.2090 -3.4197
   8423SM   C2S11174   3.733   2.788   3.636 -0.7265  0.2496  0.8854
   8423SM   H2S11175   3.688   2.707   3.698  0.7938  0.0392  1.7613
   8423SM   C3S11176   3.887   2.742   3.616 -0.2827 -0.7918  0.5657
   8423SM   H3S11177   3.936   2.812   3.545 -0.2665 -1.6117 -0.2434
   8423SM    O311178   3.907   2.623   3.535 -0.3979 -0.5917  0.7397
   8423SM   HO311179   3.824   2.610   3.488  0.2017  2.0266 -1.2801
   8423SM   C4S11180   3.963   2.732   3.744  0.3160  0.2492  0.2986
   8423SM   H4S11181   4.042   2.808   3.751  0.8248 -0.2478  0.0463
   8423SM   C5S11182   3.976   2.620   3.822 -0.5822  0.2333  0.0135
   8423SM   H5S11183   3.927   2.526   3.792 -1.1518  0.4535  0.2566
   8423SM   C6S11184   4.081   2.605   3.929 -0.2501  0.4147  0.4903
   8423SM   H6S11185   4.172   2.562   3.882 -1.9080 -1.8114 -0.8494
   8423SM   H6T11186   4.043   2.528   3.999  0.9381  1.4512  2.3574
   8423SM   C7S11187   4.113   2.744   4.001  0.0334 -0.3898 -0.7617
   8423SM   H7S11188   4.019   2.801   4.019 -0.3215 -1.0177 -0.6190
   8423SM   H7T11189   4.181   2.794   3.929  0.8131 -0.2052  0.0773
   8423SM   C8S11190   4.195   2.720   4.132 -0.2592 -0.5307  0.5723
   8423SM   H8S11191   4.268   2.638   4.116 -1.1508 -1.4566  1.1346
   8423SM   H8T11192   4.133   2.667   4.207  2.9199 -1.6728  2.5912
   8423SM   C9S11193   4.259   2.849   4.202  0.3886 -0.0671  0.1258
   8423SM   H9S11194   4.179   2.919   4.232 -0.3149 -0.2198 -1.2852
   8423SM   H9T11195   4.311   2.903   4.120  0.7669 -0.4307  0.1235
   8423SM  C10S11196   4.346   2.822   4.321 -0.7012 -0.5116 -0.1036
   8423SM  H10S11197   4.431   2.764   4.280 -1.0635 -0.2420 -1.2926
   8423SM  H10T11198   4.281   2.750   4.375 -3.7618  1.0293 -1.4691
   8423SM  C11S11199   4.399   2.951   4.385 -0.2880  0.0178 -0.2709
   8423SM  H11S11200   4.311   3.017   4.405  1.4131  2.3224 -0.0664
   8423SM  H11T11201   4.468   3.005   4.318 -0.1197  1.9311  1.3503
   8423SM  C12S11202   4.472   2.918   4.516  0.2194 -0.4191  0.6181
   8423SM  H12S11203   4.552   2.844   4.495  0.7293  0.8449 -2.4155
   8423SM  H12T11204   4.395   2.865   4.575 -1.0422 -1.1494 -1.5945
   8423SM  C13S11205   4.528   3.045   4.590  0.3812  0.5831 -0.3623
   8423SM  H13S11206   4.446   3.110   4.629  0.6970  0.1687  1.0615
   8423SM  H13T11207   4.585   3.112   4.523  0.2763  3.0488  1.8720
   8423SM  C14S11208   4.609   2.992   4.712 -0.0936  0.4374 -0.9311
   8423SM  H14S11209   4.702   2.936   4.689 -0.5146 -1.7606  2.1668
   8423SM  H14T11210   4.546   2.921   4.770  0.5023  0.2799 -0.4650
   8423SM  C15S11211   4.634   3.106   4.813 -0.0568 -0.3073  0.6729
   8423SM  H15S11212   4.539   3.153   4.846 -0.9726 -1.5490 -0.0698
   8423SM  H15T11213   4.689   3.184   4.757  1.2223 -2.0555 -0.6138
   8423SM  C16S11214   4.695   3.058   4.948  0.4111  0.1286 -0.0640
   8423SM  H16S11215   4.794   3.025   4.912  0.0613  2.0453 -3.1080
   8423SM  H16T11216   4.640   2.971   4.990  0.0842  0.1168 -0.5125
   8423SM  C17S11217   4.707   3.173   5.050 -0.0023  0.1474 -0.2152
   8423SM  H17S11218   4.602   3.199   5.077 -0.8192 -2.1490 -0.9189
   8423SM  H17T11219   4.749   3.261   4.997  2.0971 -1.1055 -0.7167
   8423SM  C18S11220   4.790   3.149   5.179  0.1608  0.5523 -0.0070
   8423SM  H18S11221   4.898   3.137   5.159 -0.3767 -1.7472 -2.0937
   8423SM  H18T11222   4.745   3.060   5.228  0.3218 -1.4257 -3.1491
   8423SM  H18U11223   4.763   3.227   5.253 -0.0809 -0.9020  1.5045
   8423SM   C1F11224   3.592   2.915   3.778 -0.5897 -0.3656  1.0225
   8423SM    OF11225   3.495   2.842   3.754  0.2250 -0.1271  0.0197
   8423SM   C2F11226   3.576   3.028   3.875  0.2736  0.3908  0.2686
   8423SM   H2F11227   3.481   3.078   3.845  0.1909 -1.2829 -2.5454
   8423SM   H2G11228   3.665   3.092   3.860  2.3161 -2.3394 -0.0658
   8423SM   C3F11229   3.566   2.981   4.025 -0.0165 -1.3305 -0.1682
   8423SM   H3F11230   3.667   2.954   4.062  1.9813  0.8983 -3.4304
   8423SM   H3G11231   3.506   2.888   4.036  2.0690 -2.6490  0.6916
   8423SM   C4F11232   3.491   3.077   4.122 -0.3059  0.4704  0.3204
   8423SM   H4F11233   3.389   3.097   4.081 -0.9343 -0.7204  1.2526
   8423SM   H4G11234   3.550   3.171   4.114  2.6113 -1.3233 -0.9969
   8423SM   C5F11235   3.496   3.025   4.263 -0.6769  0.4571 -0.4920
   8423SM   H5F11236   3.601   3.020   4.298 -0.6895  2.5376 -0.0796
   8423SM   H5G11237   3.445   2.926   4.262 -0.2773  0.2396  0.2226
   8423SM   C6F11238   3.426   3.106   4.377  0.2105 -0.3495 -0.6446
   8423SM   H6F11239   3.456   3.213   4.385 -0.0773 -0.3770  1.4271
   8423SM   H6G11240   3.452   3.069   4.478 -2.4130  1.3582  0.7924
   8423SM   C7F11241   3.271   3.115   4.371  0.3387  0.0861  0.3428
   8423SM   H7F11242   3.258   3.005   4.384  0.4340  0.0155 -0.1078
   8423SM   H7G11243   3.223   3.152   4.277 -0.9812 -1.0425  0.5397
   8423SM   C8F11244   3.205   3.197   4.483 -0.1968 -0.6500 -0.0590
   8423SM   H8F11245   3.099   3.193   4.452  0.2361  0.8219 -1.8921
   8423SM   H8G11246   3.244   3.299   4.464  1.1757 -1.3159 -1.0209
   8423SM   C9F11247   3.236   3.137   4.625 -0.6148  0.0380  0.3236
   8423SM   H9F11248   3.346   3.131   4.639 -0.7015  2.0729  2.4972
   8423SM   H9G11249   3.196   3.034   4.621 -0.2500 -0.1144  0.5289
   8423SM  C10F11250   3.165   3.209   4.736  0.1861 -0.2014  0.1329
   8423SM  H10F11251   3.058   3.181   4.743 -0.2782  1.4356  0.0041
   8423SM  H10G11252   3.168   3.318   4.719  1.7501 -0.3548 -0.6978
   8423SM  C11F11253   3.224   3.163   4.870 -0.2876 -0.0803  0.1809
   8423SM  H11F11254   3.335   3.161   4.859 -0.2748 -0.6682  0.3894
   8423SM  H11G11255   3.172   3.070   4.900 -0.8610  1.3730  4.2768
   8423SM  C12F11256   3.183   3.261   4.986 -0.3581 -0.6022  0.0287
   8423SM  H12F11257   3.255   3.345   4.985 -1.7427  0.6164 -0.8453
   8423SM  H12G11258   3.202   3.200   5.077 -1.1025  1.4323  1.6268
   8423SM  C13F11259   3.039   3.320   4.973  0.0180  0.2912 -0.6286
   8423SM  H13F11260   2.978   3.229   4.953  0.3281 -0.6696  2.3642
   8423SM  H13G11261   3.037   3.392   4.888  1.2819 -0.2427 -1.1448
   8423SM  C14F11262   2.990   3.390   5.103  0.2015 -0.3684 -0.3765
   8423SM  H14F11263   3.031   3.493   5.100  0.2278 -0.3551  0.3374
   8423SM  H14G11264   3.017   3.343   5.200  0.1223  0.9213  0.2838
   8423SM  C15F11265   2.832   3.396   5.090 -0.0976 -0.2318 -0.3141
   8423SM  H15F11266   2.798   3.427   5.191  0.6371  0.5560 -0.2970
   8423SM  H15G11267   2.779   3.304   5.057 -0.5057 -0.3457  0.6313
   8423SM  C16F11268   2.796   3.508   4.996  0.2177  0.0975  0.1486
   8423SM  H16F11269   2.819   3.470   4.894 -1.5268 -0.1135 -0.2027
   8423SM  H16G11270   2.868   3.593   5.001  3.6621 -2.6319  0.7790
   8423SM  C17F11271   2.650   3.560   4.985  0.6261  0.6907 -0.1101
   8423SM  H17F11272   2.648   3.670   5.004  1.8840  1.0581 -1.8232
   8423SM  H17G11273   2.591   3.499   5.056 -0.4065 -1.3829 -2.5766
   8423SM  C18F11274   2.589   3.546   4.848 -0.3901  0.3116  0.4399
   8423SM  H18F11275   2.658   3.586   4.771 -1.6356 -0.5018 -1.1598
   8423SM  H18G11276   2.497   3.605   4.828 -0.7141 -0.0762  0.7780
   8423SM  C19F11277   2.542   3.410   4.814  0.7313  0.1014  0.8157
   8423SM  H19F11278   2.476   3.372   4.894 -0.5397  2.4191  0.9325
   8423SM  H19G11279   2.626   3.337   4.806 -0.5068 -1.1861 -2.8486
   8423SM  C20F11280   2.450   3.387   4.686 -0.1186  0.5122 -0.0477
   8423SM  H20F11281   2.380   3.473   4.692 -0.2971  0.4103 -0.5930
   8423SM  H20G11282   2.387   3.297   4.701 -0.0952  0.0458 -2.4059
   8423SM  C21F11283   2.521   3.379   4.551 -0.0495  0.1122  0.1336
   8423SM  H21F11284   2.580   3.286   4.536  0.1755  0.6880 -3.1692
   8423SM  H21G11285   2.589   3.465   4.533  1.1980 -0.6546  1.0144
   8423SM  C22F11286   2.423   3.374   4.436 -0.1440 -0.0345  0.2605
   8423SM  H22F11287   2.344   3.297   4.449  0.7061 -0.8392  0.7416
   8423SM  H22G11288   2.469   3.352   4.338 -0.6285 -1.5508  0.3595
   8423SM  C23F11289   2.360   3.514   4.416  0.4430  0.2592 -0.1127
   8423SM  H23F11290   2.308   3.554   4.506  0.1494  0.8995 -0.5533
   8423SM  H23G11291   2.280   3.510   4.338  0.6229 -0.8788 -0.2499
   8423SM  H23H11292   2.438   3.583   4.378 -2.2602  3.4116 -0.4323
   8523SM     N11293   5.838   3.818   2.975  0.0692  0.4024  0.2961
   8523SM   C1511294   5.739   3.902   3.048  0.2928 -0.3137 -0.5121
   8523SM  H15A11295   5.662   3.923   2.975 -1.1650  0.6085  1.2038
   8523SM  H15B11296   5.778   3.990   3.097 -0.5835  0.1224 -0.5819
   8523SM  H15C11297   5.693   3.841   3.124  1.3983  0.3062  0.6945
   8523SM   C1411298   5.774   3.710   2.891 -0.0070 -0.3935  0.0020
   8523SM  H14A11299   5.725   3.632   2.947 -1.0779 -0.6660 -1.2449
   8523SM  H14B11300   5.849   3.654   2.837 -1.5227 -3.0538  0.4654
   8523SM  H14C11301   5.705   3.758   2.822  0.1735 -1.1604 -0.7287
   8523SM   C1311302   5.890   3.907   2.873 -0.0069 -0.9614 -0.7062
   8523SM  H13A11303   5.950   3.983   2.920  1.4108 -1.5907 -1.4213
   8523SM  H13B11304   5.804   3.944   2.821  0.1724 -0.3800 -0.5932
   8523SM  H13C11305   5.958   3.869   2.798 -0.5409 -2.7461 -0.3307
   8523SM   C1211306   5.947   3.761   3.057  0.5689  0.0653 -0.5123
   8523SM  H12A11307   6.010   3.835   3.104 -1.4229  0.3180  2.0233
   8523SM  H12B11308   6.009   3.704   2.991  0.0016 -0.5881 -0.4934
   8523SM   C1111309   5.899   3.669   3.176 -0.2991  0.4729 -0.9169
   8523SM  H11A11310   5.851   3.737   3.250  0.1202 -0.8016  0.5889
   8523SM  H11B11311   5.987   3.622   3.225 -0.5665 -0.2493 -1.1206
   8523SM     P11312   5.683   3.521   3.229 -0.0309 -0.3130 -0.1344
   8523SM   O1311313   5.617   3.648   3.267  0.0365  0.2864  0.4801
   8523SM   O1411314   5.609   3.432   3.146  1.0413  0.5167  0.3322
   8523SM   O1111315   5.718   3.448   3.367 -0.6329  0.0884  0.2182
   8523SM   O1211316   5.812   3.555   3.149 -0.3687 -0.3066 -0.3209
   8523SM   C1S11317   5.814   3.496   3.461  0.7316  0.1964 -0.4272
   8523SM   H1S11318   5.771   3.588   3.504 -0.5185 -0.0360 -1.1423
   8523SM   H1T11319   5.917   3.506   3.420  0.6406  2.4667 -0.2187
   8523SM    NF11320   5.870   3.467   3.697 -0.3676  0.7504  0.0291
   8523SM   HNF11321   5.962   3.442   3.724 -0.4033  0.5617 -0.0204
   8523SM   C2S11322   5.819   3.395   3.584  0.1017 -0.1153  0.3668
   8523SM   H2S11323   5.714   3.366   3.610 -0.5083  2.4510  1.0857
   8523SM   C3S11324   5.891   3.259   3.545  0.3670  0.4816  0.5507
   8523SM   H3S11325   5.998   3.290   3.549 -0.2187  3.4885 -2.5339
   8523SM    O311326   5.876   3.217   3.414 -0.6127  0.6484  0.4565
   8523SM   HO311327   5.812   3.280   3.379 -1.0345  1.5641  2.7122
   8523SM   C4S11328   5.871   3.145   3.643 -0.0589 -0.4184  0.4374
   8523SM   H4S11329   5.951   3.136   3.719  0.5486 -2.1446 -0.3539
   8523SM   C5S11330   5.774   3.050   3.632 -0.0863  1.1822  0.0885
   8523SM   H5S11331   5.707   3.037   3.546  1.8306 -1.1242 -1.1914
   8523SM   C6S11332   5.763   2.927   3.713 -0.3229 -0.3878  0.4180
   8523SM   H6S11333   5.763   2.839   3.645 -0.8810 -0.5292  0.5881
   8523SM   H6T11334   5.661   2.926   3.758 -0.6461  0.1152 -0.2916
   8523SM   C7S11335   5.876   2.906   3.817  0.3269 -0.1624 -0.2675
   8523SM   H7S11336   5.872   2.985   3.895 -1.2152 -1.9082  1.5258
   8523SM   H7T11337   5.972   2.906   3.761 -0.5238 -1.0556 -1.8066
   8523SM   C8S11338   5.874   2.762   3.878 -0.2867 -0.0276 -0.2459
   8523SM   H8S11339   5.835   2.682   3.811 -0.5565 -0.0460 -0.0677
   8523SM   H8T11340   5.800   2.772   3.961 -0.2741  0.5114 -0.2978
   8523SM   C9S11341   6.010   2.715   3.941  0.8179 -0.7108 -0.2108
   8523SM   H9S11342   6.093   2.731   3.869  1.2188  1.9625  0.7188
   8523SM   H9T11343   6.008   2.607   3.968  2.7927 -0.8109 -0.3586
   8523SM  C10S11344   6.047   2.787   4.076  0.1180  0.7637  0.3269
   8523SM  H10S11345   5.985   2.747   4.160 -1.5012 -0.3981 -1.3604
   8523SM  H10T11346   6.016   2.893   4.063 -2.4284 -0.1226 -1.5350
   8523SM  C11S11347   6.192   2.743   4.113  0.4415  0.2269 -0.3420
   8523SM  H11S11348   6.258   2.752   4.024  1.7140 -1.2204  0.4031
   8523SM  H11T11349   6.182   2.633   4.129  1.5266  0.3756  1.7579
   8523SM  C12S11350   6.243   2.813   4.240  0.2387 -0.0794 -0.0170
   8523SM  H12S11351   6.219   2.921   4.228  0.8113  0.5283  3.4494
   8523SM  H12T11352   6.353   2.798   4.236  0.2308 -0.0070 -0.5671
   8523SM  C13S11353   6.188   2.751   4.373 -0.4164  0.6690  0.2579
   8523SM  H13S11354   6.234   2.650   4.375  3.5866  2.2541 -1.1508
   8523SM  H13T11355   6.077   2.753   4.372 -0.4112  1.1699 -0.1379
   8523SM  C14S11356   6.234   2.822   4.493 -0.1342  0.1273  0.3440
   8523SM  H14S11357   6.212   2.929   4.472 -0.4196 -0.1829 -1.0351
   8523SM  H14T11358   6.344   2.810   4.502 -0.2768  0.2908  3.0169
   8523SM  C15S11359   6.162   2.791   4.623  0.0205 -0.5835  0.0405
   8523SM  H15S11360   6.146   2.685   4.649 -2.0148 -0.5993 -1.0588
   8523SM  H15T11361   6.060   2.826   4.597  0.0635 -1.3097 -1.1668
   8523SM  C16S11362   6.222   2.881   4.739 -1.1293  0.3136 -0.4269
   8523SM  H16S11363   6.261   2.977   4.699 -0.2659  0.6125  1.0637
   8523SM  H16T11364   6.306   2.824   4.785 -1.4387 -0.6363 -0.9863
   8523SM  C17S11365   6.135   2.915   4.857  0.3436 -0.3518  0.2193
   8523SM  H17S11366   6.081   2.825   4.892  0.1043  0.4269  1.9545
   8523SM  H17T11367   6.065   2.991   4.817 -0.2611 -1.6791 -1.3075
   8523SM  C18S11368   6.204   2.990   4.973 -0.8404  0.0128 -0.1724
   8523SM  H18S11369   6.306   2.950   4.989 -0.7071  0.4503  0.0910
   8523SM  H18T11370   6.155   3.000   5.072 -3.5187  2.5408 -1.5766
   8523SM  H18U11371   6.224   3.096   4.947 -0.2308  0.2268  1.1014
   8523SM   C1F11372   5.814   3.573   3.750  1.3295 -1.0978 -0.1514
   8523SM    OF11373   5.693   3.598   3.737 -0.5114 -0.6200 -0.4574
   8523SM   C2F11374   5.893   3.665   3.836 -0.0067  0.3973  0.1246
   8523SM   H2F11375   5.852   3.768   3.842  1.6069  1.0785  0.0158
   8523SM   H2G11376   5.997   3.674   3.799  0.6551 -2.2113  1.1234
   8523SM   C3F11377   5.900   3.627   3.991  0.4274 -0.0612 -0.4046
   8523SM   H3F11378   5.946   3.526   4.004  1.3634  0.1665 -1.6932
   8523SM   H3G11379   5.794   3.626   4.023 -0.9043 -0.2396 -4.2346
   8523SM   C4F11380   5.961   3.742   4.082 -0.2038 -0.2139  0.4761
   8523SM   H4F11381   5.929   3.840   4.041 -1.5528 -1.5036 -1.8092
   8523SM   H4G11382   6.071   3.733   4.076 -0.0762  0.6191  1.3350
   8523SM   C5F11383   5.904   3.726   4.228  0.2517  0.3258  0.3656
   8523SM   H5F11384   5.932   3.630   4.276  0.2864  0.8621  1.4509
   8523SM   H5G11385   5.794   3.716   4.224  0.3107 -0.3630  0.2859
   8523SM   C6F11386   5.936   3.854   4.320  0.2541  0.0020  0.3144
   8523SM   H6F11387   5.873   3.936   4.279 -0.3581 -0.0744  1.0727
   8523SM   H6G11388   6.044   3.877   4.307  0.4562 -0.6493  0.8095
   8523SM   C7F11389   5.895   3.841   4.467  0.2969  0.0594  0.4937
   8523SM   H7F11390   5.787   3.817   4.471  0.4263 -0.4690  0.9286
   8523SM   H7G11391   5.905   3.943   4.510  0.5134 -0.6686  2.2264
   8523SM   C8F11392   5.990   3.752   4.552 -1.2150 -0.2482 -0.4815
   8523SM   H8F11393   6.094   3.779   4.524 -1.3945  0.1025 -0.8200
   8523SM   H8G11394   5.990   3.643   4.532  0.0951 -0.3838  0.1085
   8523SM   C9F11395   5.977   3.784   4.703  0.0330  0.0467  0.3641
   8523SM   H9F11396   5.884   3.734   4.738  1.0918 -1.6985  0.7812
   8523SM   H9G11397   5.962   3.893   4.716  1.4482  0.5455 -1.6008
   8523SM  C10F11398   6.093   3.735   4.791 -0.1655 -0.2384  0.0678
   8523SM  H10F11399   6.190   3.783   4.764  0.3208 -1.8869 -1.2920
   8523SM  H10G11400   6.118   3.628   4.776  2.0429 -0.0162  1.6924
   8523SM  C11F11401   6.055   3.745   4.932 -0.2712  0.1443  0.9802
   8523SM  H11F11402   5.992   3.658   4.962  0.4999 -0.5160  0.7141
   8523SM  H11G11403   5.992   3.836   4.931  2.4784  2.3735 -3.7778
   8523SM  C12F11404   6.178   3.766   5.020  0.0947 -0.5202  0.4449
   8523SM  H12F11405   6.246   3.844   4.979  0.1824  0.2049  1.9033
   8523SM  H12G11406   6.248   3.682   5.037  0.9090  0.1351  0.4170
   8523SM  C13F11407   6.142   3.813   5.165 -1.1731 -0.5682 -0.6331
   8523SM  H13F11408   6.099   3.915   5.158  1.7985  1.0902  2.4339
   8523SM  H13G11409   6.230   3.813   5.232 -1.3080  0.7863 -0.4399
   8523SM  C14F11410   6.039   3.718   5.227  0.3183 -0.2799  1.1659
   8523SM  H14F11411   6.090   3.620   5.220 -2.9113 -2.0920  1.5262
   8523SM  H14G11412   5.941   3.728   5.177  0.8126  2.3390  0.5412
   8523SM  C15F11413   6.039   3.750   5.380 -0.2809 -0.0093  0.3236
   8523SM  H15F11414   6.016   3.858   5.397 -3.4188 -0.6446  0.7462
   8523SM  H15G11415   6.141   3.726   5.417  0.4327 -0.2212 -1.6865
   8523SM  C16F11416   5.933   3.662   5.449  0.0515 -0.6088 -0.3244
   8523SM  H16F11417   5.955   3.555   5.431 -0.1342 -1.0896  1.9941
   8523SM  H16G11418   5.827   3.672   5.416  0.1822 -3.9737 -2.1458
   8523SM  C17F11419   5.921   3.684   5.601  0.0842  0.2761 -0.6653
   8523SM  H17F11420   5.832   3.638   5.648  0.3862  1.5004  1.2384
   8523SM  H17G11421   5.908   3.791   5.628 -0.8273 -0.6607  3.2231
   8523SM  C18F11422   6.047   3.619   5.676  0.2840 -0.3093  0.3594
   8523SM  H18F11423   6.133   3.606   5.606 -1.9708 -2.1649 -2.3049
   8523SM  H18G11424   6.011   3.515   5.693 -1.6732  0.0890 -1.0220
   8523SM  C19F11425   6.081   3.690   5.806  0.3332  0.5994 -0.6746
   8523SM  H19F11426   6.145   3.628   5.872 -0.2392 -0.3717 -1.0023
   8523SM  H19G11427   5.989   3.706   5.867  1.4967 -1.0999  1.7125
   8523SM  C20F11428   6.157   3.829   5.786 -0.7175  0.0340  0.4173
   8523SM  H20F11429   6.080   3.900   5.749 -0.0870 -0.4599 -2.0384
   8523SM  H20G11430   6.234   3.824   5.707 -0.2215 -0.3527  0.9161
   8523SM  C21F11431   6.204   3.899   5.912 -0.2818  0.2592  0.2124
   8523SM  H21F11432   6.285   3.849   5.969  0.5727  0.6664 -0.6245
   8523SM  H21G11433   6.123   3.905   5.988 -2.9133  0.4716 -2.4286
   8523SM  C22F11434   6.254   4.044   5.885  0.7590  0.5490  0.2009
   8523SM  H22F11435   6.181   4.101   5.823 -0.7290 -0.6482  0.7854
   8523SM  H22G11436   6.340   4.040   5.815 -1.0100 -0.0624 -2.0628
   8523SM  C23F11437   6.295   4.121   6.012  0.2016 -0.5909  0.1199
   8523SM  H23F11438   6.224   4.108   6.097  0.8504 -0.9337  0.6158
   8523SM  H23G11439   6.304   4.227   5.981 -1.2484 -0.7660 -1.0332
   8523SM  H23H11440   6.389   4.077   6.051  0.1204 -1.2450 -0.3818
   8623SM     N11441   2.546   2.166   3.519 -0.1666  0.0326 -0.1198
   8623SM   C1511442   2.416   2.160   3.449 -0.0787  0.7209 -0.3824
   8623SM  H15A11443   2.417   2.120   3.348  0.7174  0.8589 -0.4376
   8623SM  H15B11444   2.367   2.256   3.439 -1.5441 -0.1404 -2.3455
   8623SM  H15C11445   2.346   2.092   3.495  0.2972  1.1661  0.8783
   8623SM   C1411446   2.646   2.253   3.455  0.1446 -0.3873 -0.0589
   8623SM  H14A11447   2.666   2.216   3.355 -1.2821 -0.4713 -0.3247
   8623SM  H14B11448   2.739   2.256   3.510 -1.1100 -0.1035  2.1413
   8623SM  H14C11449   2.613   2.353   3.434  0.8638 -0.6068 -2.5408
   8623SM   C1311450   2.520   2.228   3.649  0.2568 -0.1788 -0.3556
   8623SM  H13A11451   2.484   2.328   3.628 -0.8768 -0.7771 -1.3766
   8623SM  H13B11452   2.613   2.236   3.703 -1.7668  1.4518  3.3636
   8623SM  H13C11453   2.450   2.175   3.713  0.9033 -1.1265 -0.4259
   8623SM   C1211454   2.610   2.027   3.536 -0.1492  0.3816 -0.5725
   8623SM  H12A11455   2.540   1.968   3.593 -0.6292 -0.1706 -1.7117
   8623SM  H12B11456   2.698   2.022   3.599 -0.4579 -2.1395 -0.2526
   8623SM   C1111457   2.650   1.938   3.417  0.3251 -0.3085  0.6562
   8623SM  H11A11458   2.689   2.007   3.339 -0.8487  1.0237  1.1986
   8623SM  H11B11459   2.553   1.906   3.374  0.6647 -1.7062  0.8973
   8623SM     P11460   2.878   1.848   3.479  0.4107 -0.1987 -0.1405
   8623SM   O1311461   2.942   1.717   3.504  0.4394  0.4846 -0.4307
   8623SM   O1411462   2.940   1.935   3.377 -0.6708 -0.0872  0.2136
   8623SM   O1111463   2.878   1.939   3.611  0.2203  0.2817 -0.5477
   8623SM   O1211464   2.728   1.831   3.460  0.1279  0.1412  0.0970
   8623SM   C1S11465   2.847   1.897   3.742  0.0206  0.0047 -0.8298
   8623SM   H1S11466   2.873   1.791   3.761 -0.6532 -0.4831 -2.4517
   8623SM   H1T11467   2.738   1.914   3.757  0.0486 -1.1415  0.8869
   8623SM    NF11468   2.916   1.943   3.987  0.4051  0.0708 -0.1078
   8623SM   HNF11469   2.894   2.001   4.065  1.1095 -1.0671  0.9764
   8623SM   C2S11470   2.923   1.992   3.848 -0.3582 -0.1049 -0.0094
   8623SM   H2S11471   3.031   1.990   3.823 -0.4189  0.9037 -0.3613
   8623SM   C3S11472   2.871   2.141   3.832 -0.3936 -0.0571 -0.1286
   8623SM   H3S11473   2.766   2.144   3.867  0.0919 -0.1160  1.4088
   8623SM    O311474   2.866   2.191   3.700 -0.0625  0.6672 -0.3989
   8623SM   HO311475   2.885   2.116   3.643 -1.4000 -2.3450  2.7426
   8623SM   C4S11476   2.953   2.229   3.913  0.5031 -0.6151  0.6119
   8623SM   H4S11477   2.906   2.257   4.009  1.0978  2.2294  0.1664
   8623SM   C5S11478   3.075   2.284   3.874  1.1285 -0.1139 -0.0933
   8623SM   H5S11479   3.110   2.266   3.771 -0.9000 -1.5399 -0.5848
   8623SM   C6S11480   3.167   2.375   3.944 -1.0916 -0.4251  0.2162
   8623SM   H6S11481   3.173   2.467   3.881  0.1817  1.0214  2.3269
   8623SM   H6T11482   3.257   2.312   3.932 -1.0191  0.0501 -2.2961
   8623SM   C7S11483   3.142   2.411   4.093  0.5445 -0.0729 -0.0821
   8623SM   H7S11484   3.154   2.316   4.150 -3.4559  0.2276  1.6077
   8623SM   H7T11485   3.041   2.455   4.105  0.1037 -0.4137 -2.1387
   8623SM   C8S11486   3.236   2.519   4.148  0.7216 -0.6793 -0.3987
   8623SM   H8S11487   3.237   2.600   4.073  0.1805  1.0204  1.3379
   8623SM   H8T11488   3.338   2.476   4.160  0.3548 -1.9287 -1.4122
   8623SM   C9S11489   3.187   2.571   4.285  0.1904 -0.3692 -0.2699
   8623SM   H9S11490   3.160   2.484   4.349 -0.1965  0.7428  1.1109
   8623SM   H9T11491   3.093   2.628   4.272  0.4095  0.1563  0.3724
   8623SM  C10S11492   3.285   2.665   4.364  0.0975 -0.0805  0.0515
   8623SM  H10S11493   3.293   2.760   4.307 -0.6831 -0.3082 -0.4573
   8623SM  H10T11494   3.382   2.610   4.357  0.9811  1.5593 -1.8032
   8623SM  C11S11495   3.249   2.685   4.512  0.6743 -0.4916 -0.2442
   8623SM  H11S11496   3.214   2.588   4.553  0.5285 -0.3332  0.0097
   8623SM  H11T11497   3.162   2.753   4.514 -0.4795 -1.8316 -1.8313
   8623SM  C12S11498   3.371   2.746   4.594  0.1385  0.2014 -0.1489
   8623SM  H12S11499   3.400   2.839   4.541 -0.0347  0.6240  0.4884
   8623SM  H12T11500   3.452   2.670   4.590  1.5706  1.6352  0.4561
   8623SM  C13S11501   3.326   2.761   4.744 -0.2003 -0.5469  0.8796
   8623SM  H13S11502   3.254   2.680   4.766 -0.0654 -0.4337  1.7492
   8623SM  H13T11503   3.287   2.864   4.759  1.0783 -0.0633  1.0841
   8623SM  C14S11504   3.443   2.744   4.848 -0.1680  0.4024 -0.1095
   8623SM  H14S11505   3.532   2.782   4.793  0.9319 -0.2324  1.1955
   8623SM  H14T11506   3.453   2.635   4.863  1.7203  0.4861 -0.4299
   8623SM  C15S11507   3.411   2.832   4.973 -0.2225 -1.0701  0.1929
   8623SM  H15S11508   3.301   2.830   4.983 -0.1501 -0.9775  1.0968
   8623SM  H15T11509   3.442   2.938   4.958  0.7655 -1.3480  0.1791
   8623SM  C16S11510   3.466   2.769   5.095  1.2548 -0.1222 -1.0328
   8623SM  H16S11511   3.574   2.744   5.087  2.0824  1.7432  2.3860
   8623SM  H16T11512   3.408   2.675   5.110  0.3852  0.1787 -2.3251
   8623SM  C17S11513   3.434   2.866   5.222  0.0227  0.6509 -0.0264
   8623SM  H17S11514   3.331   2.905   5.205 -0.6278 -1.3371 -1.0021
   8623SM  H17T11515   3.499   2.955   5.226  0.6498  0.1540  1.6634
   8623SM  C18S11516   3.449   2.793   5.354  0.5090 -0.5408 -0.0072
   8623SM  H18S11517   3.552   2.756   5.368 -0.2135 -2.6034  0.2374
   8623SM  H18T11518   3.378   2.707   5.348 -0.1259  0.0036 -0.5244
   8623SM  H18U11519   3.424   2.860   5.439  1.7587 -0.3197  0.1927
   8623SM   C1F11520   2.966   1.825   4.027  0.0005 -0.9306 -0.1462
   8623SM    OF11521   3.034   1.755   3.953  0.4481  0.3778  0.3546
   8623SM   C2F11522   2.953   1.792   4.169 -0.2327 -0.7063 -0.7557
   8623SM   H2F11523   2.892   1.699   4.177  0.7779 -1.2243  1.8231
   8623SM   H2G11524   2.901   1.870   4.228  0.7614 -0.6826  0.1164
   8623SM   C3F11525   3.092   1.778   4.248 -0.3206  0.6254  0.7898
   8623SM   H3F11526   3.138   1.877   4.267 -0.0034  0.3165  1.6617
   8623SM   H3G11527   3.162   1.720   4.184 -2.2176 -2.4674  1.3392
   8623SM   C4F11528   3.091   1.697   4.383 -0.2592 -0.2115  0.2526
   8623SM   H4F11529   3.194   1.721   4.418  0.1501 -0.0785 -0.9739
   8623SM   H4G11530   3.069   1.591   4.356 -2.1215 -0.7533  3.4364
   8623SM   C5F11531   3.002   1.760   4.499 -0.0793  0.0820  0.7547
   8623SM   H5F11532   2.898   1.748   4.461 -0.1831 -2.4152  1.6370
   8623SM   H5G11533   3.022   1.868   4.490 -0.5083  0.1715  0.8322
   8623SM   C6F11534   3.019   1.712   4.642  0.0498  0.0278  0.2642
   8623SM   H6F11535   3.126   1.684   4.651 -0.4963 -1.9817  0.8951
   8623SM   H6G11536   2.956   1.622   4.660  0.8259 -0.5483  0.1276
   8623SM   C7F11537   2.981   1.813   4.748  0.1311  0.0311 -0.5116
   8623SM   H7F11538   2.883   1.863   4.732 -0.5622 -1.2441 -0.3482
   8623SM   H7G11539   3.063   1.887   4.762 -0.0342 -0.1513  1.9452
   8623SM   C8F11540   2.960   1.754   4.890  0.1282  0.0764 -0.0803
   8623SM   H8F11541   2.872   1.688   4.880 -0.2531 -0.0047  2.8393
   8623SM   H8G11542   2.928   1.837   4.956  0.4684  0.7614 -0.7665
   8623SM   C9F11543   3.082   1.700   4.953  0.0398  0.2597 -0.0163
   8623SM   H9F11544   3.179   1.753   4.941  0.0456  0.5188  1.0396
   8623SM   H9G11545   3.092   1.598   4.909 -1.5394 -0.5972  1.4611
   8623SM  C10F11546   3.071   1.684   5.105 -0.8210  0.3012 -0.6262
   8623SM  H10F11547   3.079   1.781   5.158 -0.9918 -0.3395  0.5930
   8623SM  H10G11548   3.151   1.615   5.137  2.0972  2.9151 -1.7431
   8623SM  C11F11549   2.950   1.610   5.162  0.2128  0.7480 -0.3904
   8623SM  H11F11550   2.941   1.509   5.118  0.2209  0.8014 -0.5132
   8623SM  H11G11551   2.865   1.670   5.124  0.8399  2.2039  0.3930
   8623SM  C12F11552   2.951   1.607   5.316 -0.4351 -0.0065 -0.3208
   8623SM  H12F11553   2.856   1.630   5.368  0.8277  0.4035  1.9159
   8623SM  H12G11554   3.020   1.685   5.354 -1.1081  0.6840 -0.4761
   8623SM  C13F11555   2.992   1.464   5.364 -0.5781 -0.0717 -0.4396
   8623SM  H13F11556   3.074   1.437   5.294 -0.3396  1.6638 -0.8578
   8623SM  H13G11557   2.918   1.384   5.343 -0.3267 -0.2801 -0.5517
   8623SM  C14F11558   3.041   1.456   5.511 -0.1883  0.1048  0.2689
   8623SM  H14F11559   3.116   1.538   5.517 -0.5360  0.4141  0.4209
   8623SM  H14G11560   3.092   1.358   5.519 -1.7621 -0.8298 -0.5836
   8623SM  C15F11561   2.934   1.484   5.613  0.3308  0.5000 -0.1377
   8623SM  H15F11562   2.854   1.407   5.613  0.4823  0.2743  1.8315
   8623SM  H15G11563   2.893   1.586   5.595 -0.4998 -0.0588 -1.5456
   8623SM  C16F11564   3.000   1.496   5.752  0.5899  0.7174 -0.4729
   8623SM  H16F11565   3.077   1.575   5.756  2.1668 -0.8097  2.1597
   8623SM  H16G11566   3.047   1.397   5.770  0.0573  0.4960 -0.2613
   8623SM  C17F11567   2.886   1.509   5.860  0.2592 -0.0432 -0.2824
   8623SM  H17F11568   2.817   1.424   5.843 -0.1990  0.7683 -2.9274
   8623SM  H17G11569   2.823   1.597   5.833  2.6043  1.3303 -1.6268
   8623SM  C18F11570   2.943   1.511   5.999 -0.2164  0.7328 -0.1281
   8623SM  H18F11571   2.980   1.613   6.025 -1.6059  1.4539 -0.8408
   8623SM  H18G11572   3.022   1.436   6.017  1.5716  1.8853 -2.6721
   8623SM  C19F11573   2.854   1.476   6.118  0.0951  0.1619  0.0373
   8623SM  H19F11574   2.911   1.500   6.211  0.2578  1.2801 -0.3332
   8623SM  H19G11575   2.844   1.366   6.126 -1.2263  0.1372 -1.4490
   8623SM  C20F11576   2.714   1.545   6.114  0.3487  0.5776  0.0484
   8623SM  H20F11577   2.652   1.503   6.032  0.1136  0.4261  0.2994
   8623SM  H20G11578   2.720   1.654   6.096  0.4021  0.9989  2.3432
   8623SM  C21F11579   2.644   1.512   6.244 -0.1318 -1.0436  0.2849
   8623SM  H21F11580   2.693   1.573   6.323 -0.4949  2.7087 -2.1387
   8623SM  H21G11581   2.663   1.404   6.262  0.7908 -1.0907 -0.8707
   8623SM  C22F11582   2.493   1.545   6.246  0.7205  0.2588  0.0182
   8623SM  H22F11583   2.434   1.462   6.200 -1.2080  1.2546  0.5789
   8623SM  H22G11584   2.463   1.638   6.195 -0.5613  0.4708  1.0991
   8623SM  C23F11585   2.431   1.546   6.389  0.6886  0.1473  0.5261
   8623SM  H23F11586   2.321   1.559   6.388  0.3650 -1.9135  2.1553
   8623SM  H23G11587   2.477   1.620   6.459 -1.8155  1.3499  1.0224
   8623SM  H23H11588   2.441   1.444   6.431  0.1124 -0.5604 -0.9945
   8723SM     N11589   3.809   2.398   2.963  0.1301 -0.0843 -0.0718
   8723SM   C1511590   3.824   2.326   2.820  0.4218 -0.6016 -0.9004
   8723SM  H15A11591   3.924   2.341   2.783  0.9329  1.5881  1.1212
   8723SM  H15B11592   3.746   2.367   2.757 -1.4125 -0.2359  1.4472
   8723SM  H15C11593   3.816   2.219   2.827 -2.1013 -0.4068  0.7763
   8723SM   C1411594   3.920   2.353   3.054 -0.5620  0.5074 -0.8017
   8723SM  H14A11595   3.941   2.428   3.129 -1.1136 -0.3023  0.1892
   8723SM  H14B11596   4.009   2.343   2.994 -1.1797 -3.6068 -1.3520
   8723SM  H14C11597   3.895   2.256   3.095  1.5738 -0.7981 -2.3862
   8723SM   C1311598   3.817   2.542   2.934 -0.3910 -0.4282  0.1800
   8723SM  H13A11599   3.742   2.576   2.863 -1.1323  2.7240  2.2383
   8723SM  H13B11600   3.910   2.571   2.889 -0.8203  0.4530 -0.1718
   8723SM  H13C11601   3.793   2.607   3.017 -0.6225 -0.7318  0.3539
   8723SM   C1211602   3.678   2.359   3.025 -0.2721 -0.6845 -0.6411
   8723SM  H12A11603   3.594   2.404   2.974 -1.0226  0.1631  1.2241
   8723SM  H12B11604   3.675   2.392   3.128  2.9920  2.2941 -1.3123
   8723SM   C1111605   3.646   2.210   3.035 -0.5310  0.5386 -0.3365
   8723SM  H11A11606   3.621   2.168   2.935 -1.7868 -0.7596  0.4832
   8723SM  H11B11607   3.555   2.210   3.098 -0.9354  0.2797 -0.9059
   8723SM     P11608   3.703   1.991   3.157 -0.2343 -0.3492  0.1117
   8723SM   O1311609   3.559   1.967   3.127  0.4722  0.3245 -0.0953
   8723SM   O1411610   3.795   1.881   3.123  0.2687  0.3774  0.3982
   8723SM   O1111611   3.718   2.025   3.313 -0.5586 -0.0438  0.0223
   8723SM   O1211612   3.755   2.129   3.096 -0.0679  0.3524 -0.0545
   8723SM   C1S11613   3.667   2.151   3.363  0.1460  0.0650  0.6515
   8723SM   H1S11614   3.561   2.136   3.393 -0.4759  0.9198 -0.9448
   8723SM   H1T11615   3.660   2.239   3.294 -0.9962  1.4458  2.4367
   8723SM    NF11616   3.691   2.306   3.545 -0.2639  0.2652 -0.2620
   8723SM   HNF11617   3.687   2.399   3.509 -0.9834 -0.1452 -1.3210
   8723SM   C2S11618   3.754   2.191   3.482  0.0364  0.1564  0.2113
   8723SM   H2S11619   3.775   2.105   3.549  0.2541  0.3478  0.3913
   8723SM   C3S11620   3.889   2.233   3.417 -0.0738 -0.2145 -0.3812
   8723SM   H3S11621   3.871   2.306   3.335  2.6020 -0.2183 -1.0408
   8723SM    O311622   3.946   2.130   3.336 -0.6673 -0.4540 -0.0033
   8723SM   HO311623   3.871   2.081   3.302 -0.3525  0.4011 -2.1060
   8723SM   C4S11624   3.973   2.292   3.523 -0.0105  0.2526  0.0083
   8723SM   H4S11625   3.998   2.399   3.512  0.9012  0.0828  0.3031
   8723SM   C5S11626   4.044   2.218   3.619  0.5607 -0.0304  0.2064
   8723SM   H5S11627   4.047   2.108   3.613 -0.5649 -0.0972  0.6129
   8723SM   C6S11628   4.152   2.287   3.701 -0.3514 -0.1793  0.0955
   8723SM   H6S11629   4.143   2.242   3.801  1.2562  1.4183  1.0212
   8723SM   H6T11630   4.125   2.393   3.723 -1.4357 -0.9148  2.6690
   8723SM   C7S11631   4.291   2.271   3.653 -0.1877 -0.2226  0.4131
   8723SM   H7S11632   4.304   2.323   3.556 -2.3213 -1.2003 -0.4479
   8723SM   H7T11633   4.308   2.162   3.638 -0.5924 -0.3943  1.1578
   8723SM   C8S11634   4.393   2.334   3.747 -0.0539  0.6395 -0.5825
   8723SM   H8S11635   4.355   2.428   3.794  2.3657  0.3731  2.1199
   8723SM   H8T11636   4.489   2.335   3.692  0.4227  1.1571  0.2536
   8723SM   C9S11637   4.427   2.239   3.870 -0.0467 -0.6702 -0.1629
   8723SM   H9S11638   4.458   2.140   3.829 -1.4511 -1.8652  1.5529
   8723SM   H9T11639   4.334   2.212   3.925  0.6585 -1.9254  0.4736
   8723SM  C10S11640   4.528   2.305   3.967  0.1467  0.0338 -0.6391
   8723SM  H10S11641   4.573   2.384   3.903 -0.3486 -1.2762 -2.7301
   8723SM  H10T11642   4.604   2.236   4.009 -1.3215 -1.5526 -0.4542
   8723SM  C11S11643   4.453   2.374   4.082  0.3309  0.2510  0.2164
   8723SM  H11S11644   4.411   2.311   4.163  2.5901 -0.1465  1.1635
   8723SM  H11T11645   4.369   2.423   4.027  1.4220  1.4354 -0.4520
   8723SM  C12S11646   4.541   2.478   4.149 -0.7756  0.1068 -0.6754
   8723SM  H12S11647   4.476   2.562   4.181 -0.0335  0.1088  0.9273
   8723SM  H12T11648   4.614   2.531   4.084 -1.9807  1.1638 -1.2098
   8723SM  C13S11649   4.622   2.430   4.275  0.1957  0.9248 -0.1343
   8723SM  H13S11650   4.715   2.375   4.247 -0.0125  0.7205 -0.4298
   8723SM  H13T11651   4.563   2.362   4.340  1.0708  0.9680  0.7298
   8723SM  C14S11652   4.669   2.545   4.358  0.0160  0.2187 -0.3110
   8723SM  H14S11653   4.580   2.600   4.394  0.0552 -1.0205  1.8471
   8723SM  H14T11654   4.735   2.610   4.297 -0.8183 -0.9822 -2.6050
   8723SM  C15S11655   4.740   2.496   4.486  0.3387 -0.6573  1.0370
   8723SM  H15S11656   4.831   2.438   4.459 -1.6258 -2.3732 -2.7465
   8723SM  H15T11657   4.674   2.427   4.542  1.0730 -3.0250 -0.8073
   8723SM  C16S11658   4.792   2.621   4.569 -0.1638 -0.5757  0.0561
   8723SM  H16S11659   4.721   2.703   4.545  2.3183  1.4259 -0.9444
   8723SM  H16T11660   4.887   2.652   4.520 -0.6540  1.7773  0.4361
   8723SM  C17S11661   4.804   2.595   4.717 -0.5756 -0.2613 -0.1588
   8723SM  H17S11662   4.853   2.497   4.737 -0.6887 -0.4853 -0.9697
   8723SM  H17T11663   4.703   2.594   4.764  1.0202  1.8478  3.8082
   8723SM  C18S11664   4.866   2.709   4.807 -0.5140  0.0925  0.6527
   8723SM  H18S11665   4.977   2.712   4.794 -0.6330  0.9366 -0.2595
   8723SM  H18T11666   4.857   2.681   4.914  1.5745  1.0870  1.1497
   8723SM  H18U11667   4.826   2.808   4.780 -1.5749 -0.2109  1.0751
   8723SM   C1F11668   3.598   2.286   3.637 -0.2554  1.0585  0.6087
   8723SM    OF11669   3.572   2.166   3.658 -0.2824 -0.6080  0.0418
   8723SM   C2F11670   3.515   2.395   3.687 -0.4369  0.2022  0.3232
   8723SM   H2F11671   3.406   2.379   3.676 -0.3575  0.7345 -1.4879
   8723SM   H2G11672   3.537   2.491   3.635 -3.0333  0.8862  0.3640
   8723SM   C3F11673   3.530   2.408   3.835 -0.7585 -0.1733  0.1575
   8723SM   H3F11674   3.502   2.314   3.887  1.4939 -0.1022  1.6351
   8723SM   H3G11675   3.461   2.489   3.869  1.2409  1.4113  0.6539
   8723SM   C4F11676   3.673   2.436   3.885  0.7200  0.2327 -0.5412
   8723SM   H4F11677   3.717   2.528   3.840  2.1847  0.7208  1.7015
   8723SM   H4G11678   3.740   2.352   3.855  1.5160  0.2383  1.1084
   8723SM   C5F11679   3.691   2.473   4.036 -0.6034  0.5933  0.5779
   8723SM   H5F11680   3.793   2.441   4.065  1.1731  2.7194 -2.6722
   8723SM   H5G11681   3.613   2.419   4.094 -1.9837  2.0876  0.1916
   8723SM   C6F11682   3.679   2.628   4.046  0.5244  0.2205 -0.7704
   8723SM   H6F11683   3.589   2.655   3.986 -0.0382 -2.9752 -1.5611
   8723SM   H6G11684   3.767   2.686   4.011  0.3320  0.0532 -1.5656
   8723SM   C7F11685   3.658   2.663   4.201  0.1171 -0.1777  0.6558
   8723SM   H7F11686   3.588   2.584   4.236 -0.2156  0.1413  0.7103
   8723SM   H7G11687   3.611   2.763   4.203 -0.7256 -0.5724  1.1958
   8723SM   C8F11688   3.781   2.653   4.291 -0.1679  0.1839 -0.3894
   8723SM   H8F11689   3.855   2.730   4.262 -0.1646  0.4306  0.2549
   8723SM   H8G11690   3.837   2.557   4.286  0.0796  0.2872  0.3590
   8723SM   C9F11691   3.737   2.682   4.436 -0.7337 -0.3420  0.1534
   8723SM   H9F11692   3.648   2.617   4.445 -0.8911  0.0832  1.9587
   8723SM   H9G11693   3.702   2.788   4.437 -0.0040 -0.1056  1.3117
   8723SM  C10F11694   3.838   2.652   4.540 -0.4491  0.0308 -0.2178
   8723SM  H10F11695   3.926   2.720   4.531 -2.2737  2.6877  0.7523
   8723SM  H10G11696   3.872   2.549   4.516 -1.2949 -0.3250  0.0831
   8723SM  C11F11697   3.775   2.665   4.677 -0.1883 -0.8878 -0.0822
   8723SM  H11F11698   3.698   2.587   4.693  0.4537 -1.6026 -0.4175
   8723SM  H11G11699   3.735   2.769   4.683 -0.5247 -1.0180 -0.0789
   8723SM  C12F11700   3.876   2.662   4.797 -0.3964  0.3233  0.2352
   8723SM  H12F11701   3.931   2.758   4.787 -0.1675  0.3025  1.1920
   8723SM  H12G11702   3.947   2.576   4.792  0.6920  1.2497 -0.7826
   8723SM  C13F11703   3.810   2.683   4.930 -0.3929 -0.1790 -0.3661
   8723SM  H13F11704   3.728   2.611   4.951 -0.1653 -0.5195 -0.6369
   8723SM  H13G11705   3.760   2.783   4.931 -1.0518 -0.4983 -0.9425
   8723SM  C14F11706   3.907   2.673   5.047  0.2514  0.1305  0.3149
   8723SM  H14F11707   3.852   2.714   5.135 -0.9299 -0.1502 -0.2649
   8723SM  H14G11708   3.993   2.742   5.036  0.8853 -0.3433  2.0432
   8723SM  C15F11709   3.948   2.526   5.075 -0.0706 -0.0419 -0.2966
   8723SM  H15F11710   3.999   2.469   4.995  0.3726  0.0150 -0.0542
   8723SM  H15G11711   3.861   2.465   5.109  1.6294 -1.9158  0.8725
   8723SM  C16F11712   4.057   2.516   5.186  0.3908 -0.2353  0.1335
   8723SM  H16F11713   4.029   2.560   5.284  1.5625 -0.7756  0.7302
   8723SM  H16G11714   4.149   2.570   5.152 -1.4577  1.8064 -2.0084
   8723SM  C17F11715   4.098   2.368   5.216  0.2126 -0.4981  1.0549
   8723SM  H17F11716   4.196   2.379   5.268  0.7983  1.5284 -0.3521
   8723SM  H17G11717   4.126   2.335   5.113  1.2364 -3.0329  2.0525
   8723SM  C18F11718   3.993   2.275   5.267 -0.0716 -0.1386  0.3045
   8723SM  H18F11719   4.038   2.175   5.286 -0.2923 -0.3369 -0.1739
   8723SM  H18G11720   3.918   2.243   5.191 -0.0182 -3.4978  1.4982
   8723SM  C19F11721   3.912   2.308   5.393  0.0958 -0.1927 -0.6098
   8723SM  H19F11722   3.878   2.413   5.386  1.3848  0.3306  0.5945
   8723SM  H19G11723   3.987   2.321   5.474  3.0287  4.5252 -3.6152
   8723SM  C20F11724   3.812   2.206   5.440 -0.7628  0.3963 -0.4122
   8723SM  H20F11725   3.777   2.232   5.542 -0.7883 -1.4056  0.0803
   8723SM  H20G11726   3.844   2.099   5.436 -2.5870 -0.1903 -0.2990
   8723SM  C21F11727   3.679   2.215   5.360  0.6079  1.0733 -0.5752
   8723SM  H21F11728   3.609   2.129   5.367  0.1938  1.4811  0.8176
   8723SM  H21G11729   3.713   2.205   5.255  1.8790 -0.3740 -0.0537
   8723SM  C22F11730   3.602   2.348   5.388  0.1166  0.1755 -0.2363
   8723SM  H22F11731   3.656   2.430   5.336 -2.9465  0.5486 -3.2056
   8723SM  H22G11732   3.590   2.376   5.494 -0.9123 -0.8671 -0.0517
   8723SM  C23F11733   3.463   2.333   5.314 -0.0743 -0.0086 -0.0233
   8723SM  H23F11734   3.426   2.435   5.293 -3.1968 -1.3112 -1.3947
   8723SM  H23G11735   3.387   2.280   5.376 -0.3024  0.5064  0.1425
   8723SM  H23H11736   3.488   2.282   5.218 -1.4460  0.1023 -0.4533
   8823SM     N11737   7.649   1.630   2.398  0.1528  0.1119 -0.4084
   8823SM   C1511738   7.523   1.643   2.323 -0.3406  0.1510  0.3913
   8823SM  H15A11739   7.467   1.551   2.319  0.9784 -0.6230 -2.3708
   8823SM  H15B11740   7.537   1.669   2.219 -0.6443 -0.2949  0.2363
   8823SM  H15C11741   7.453   1.711   2.368 -1.3555 -0.6661  0.0772
   8823SM   C1411742   7.744   1.549   2.323  0.0234  0.0878 -0.9525
   8823SM  H14A11743   7.701   1.453   2.299  0.1436 -0.3281  0.4180
   8823SM  H14B11744   7.842   1.530   2.365 -0.1163  1.2466 -0.0616
   8823SM  H14C11745   7.764   1.587   2.224  1.0417 -1.3192 -1.3318
   8823SM   C1311746   7.690   1.772   2.423 -0.0634  0.3669 -0.3722
   8823SM  H13A11747   7.676   1.832   2.334  0.8850  2.1634  0.6264
   8823SM  H13B11748   7.796   1.772   2.445  0.4461 -1.0653 -2.4935
   8823SM  H13C11749   7.636   1.811   2.508 -1.2618  0.7659 -1.2881
   8823SM   C1211750   7.616   1.568   2.535  0.7440  0.1734 -0.7518
   8823SM  H12A11751   7.705   1.542   2.590 -0.5722 -1.8554  0.5302
   8823SM  H12B11752   7.563   1.475   2.521  2.7010 -0.8161 -2.1709
   8823SM   C1111753   7.522   1.645   2.629  0.0448 -0.0784  0.5820
   8823SM  H11A11754   7.491   1.574   2.709  0.6547  0.6000  1.4368
   8823SM  H11B11755   7.424   1.669   2.583 -0.1784  2.1996  2.0903
   8823SM     P11756   7.542   1.833   2.810  0.2464 -0.3586  0.4263
   8823SM   O1311757   7.643   1.916   2.871 -0.1138 -0.4835  0.0100
   8823SM   O1411758   7.419   1.904   2.761  0.5307  0.5512 -0.5289
   8823SM   O1111759   7.491   1.734   2.919 -0.5013 -0.0398  0.1593
   8823SM   O1211760   7.600   1.750   2.696  0.1978  0.1243 -0.1153
   8823SM   C1S11761   7.567   1.644   2.995  0.0734 -0.1876 -0.0928
   8823SM   H1S11762   7.675   1.673   2.997  0.6376 -2.1654  0.8215
   8823SM   H1T11763   7.560   1.543   2.949  0.1203  0.4877 -1.6476
   8823SM    NF11764   7.619   1.553   3.228  0.0477  0.0447  0.0546
   8823SM   HNF11765   7.571   1.492   3.291 -1.4209  2.5216  1.5061
   8823SM   C2S11766   7.532   1.638   3.147 -0.1085 -0.4253  0.4499
   8823SM   H2S11767   7.543   1.742   3.182 -0.7582  0.3598 -1.5519
   8823SM   C3S11768   7.380   1.605   3.156  0.5353 -0.0357  0.1432
   8823SM   H3S11769   7.359   1.497   3.139 -3.0249  0.7854 -1.9022
   8823SM    O311770   7.295   1.660   3.057  0.6233 -0.8428  0.4574
   8823SM   HO311771   7.347   1.719   3.002 -0.1304 -0.0993  0.5315
   8823SM   C4S11772   7.334   1.628   3.299  0.1357 -0.5290  0.3968
   8823SM   H4S11773   7.352   1.538   3.359 -1.1483 -2.1288 -1.4751
   8823SM   C5S11774   7.271   1.735   3.354 -0.1467  0.7123 -0.3928
   8823SM   H5S11775   7.234   1.811   3.284  1.4556  0.8496 -1.1305
   8823SM   C6S11776   7.211   1.742   3.493  0.2063  0.4595  0.5308
   8823SM   H6S11777   7.101   1.743   3.473  0.3774  0.9129 -0.4207
   8823SM   H6T11778   7.239   1.837   3.542  0.9732  1.3344 -1.5313
   8823SM   C7S11779   7.239   1.624   3.580  0.3717 -0.5349  0.4083
   8823SM   H7S11780   7.348   1.604   3.587  0.5523  0.1228 -0.3918
   8823SM   H7T11781   7.193   1.540   3.523  1.1124 -1.3853  1.0272
   8823SM   C8S11782   7.164   1.629   3.721  0.3238  0.4804  0.1865
   8823SM   H8S11783   7.190   1.538   3.780 -1.1748  0.8148  1.4074
   8823SM   H8T11784   7.057   1.616   3.692 -0.4798  1.1268  2.6976
   8823SM   C9S11785   7.182   1.750   3.808 -0.1330  0.2313 -0.1731
   8823SM   H9S11786   7.148   1.841   3.755  0.1335  0.8702  0.7247
   8823SM   H9T11787   7.291   1.765   3.826  0.2424 -0.2572 -1.8701
   8823SM  C10S11788   7.113   1.740   3.946 -0.1841  0.6274  0.0623
   8823SM  H10S11789   7.169   1.662   4.001  1.1224  1.1426 -0.4865
   8823SM  H10T11790   7.011   1.699   3.929  0.7988 -2.1554  0.4710
   8823SM  C11S11791   7.107   1.864   4.036 -0.2310  0.4302 -0.0804
   8823SM  H11S11792   7.061   1.938   3.967  2.0998  0.1083 -2.0937
   8823SM  H11T11793   7.215   1.882   4.049  0.5765 -2.9321 -1.0650
   8823SM  C12S11794   7.040   1.849   4.172  0.2266 -0.0216 -0.0626
   8823SM  H12S11795   7.115   1.806   4.240 -2.0124 -1.0665  1.8793
   8823SM  H12T11796   6.966   1.766   4.171  2.3208 -1.9877 -0.3742
   8823SM  C13S11797   6.995   1.983   4.229 -0.0719 -0.0737  0.2157
   8823SM  H13S11798   6.928   2.028   4.153  0.2074 -0.2880 -0.1584
   8823SM  H13T11799   7.087   2.045   4.239 -0.5766  0.5204  1.3540
   8823SM  C14S11800   6.930   1.963   4.361 -0.2599  0.1488 -0.5542
   8823SM  H14S11801   7.005   1.919   4.429 -1.0666 -0.1713  0.1560
   8823SM  H14T11802   6.844   1.892   4.354 -1.0434  1.2272 -3.4423
   8823SM  C15S11803   6.904   2.091   4.436 -0.0437  0.0184  0.2848
   8823SM  H15S11804   6.828   2.146   4.377 -1.1797 -0.3169  1.3834
   8823SM  H15T11805   6.999   2.149   4.442  0.2605 -0.4336 -0.1032
   8823SM  C16S11806   6.855   2.081   4.584  0.3455  0.1308 -0.3804
   8823SM  H16S11807   6.779   2.001   4.603 -1.2554  1.7586  0.3383
   8823SM  H16T11808   6.803   2.177   4.603 -0.9339 -0.6461  0.2097
   8823SM  C17S11809   6.965   2.070   4.685  0.1745 -0.1595  0.6801
   8823SM  H17S11810   7.060   2.128   4.675  0.4040 -0.6491 -0.0379
   8823SM  H17T11811   6.997   1.963   4.691 -2.1644 -0.8397  2.5626
   8823SM  C18S11812   6.911   2.096   4.830 -0.1713  0.1711 -0.4110
   8823SM  H18S11813   6.998   2.088   4.899 -0.5564 -0.1364  0.0469
   8823SM  H18T11814   6.824   2.035   4.861 -1.6356  1.6723 -1.3838
   8823SM  H18U11815   6.867   2.198   4.838  1.1494  0.6876  0.9368
   8823SM   C1F11816   7.749   1.587   3.254 -0.3275 -0.3870 -0.1910
   8823SM    OF11817   7.802   1.692   3.207  0.4692  0.6966 -0.2590
   8823SM   C2F11818   7.842   1.505   3.353  0.4355  0.1747  0.4079
   8823SM   H2F11819   7.938   1.514   3.299 -1.2773  1.4794 -2.6538
   8823SM   H2G11820   7.801   1.402   3.345 -4.0209  1.8480 -1.5938
   8823SM   C3F11821   7.838   1.566   3.496 -0.5287  0.9004 -0.1228
   8823SM   H3F11822   7.869   1.672   3.498  0.0567  0.7312 -0.0986
   8823SM   H3G11823   7.916   1.505   3.547  0.1170  0.5419 -1.4926
   8823SM   C4F11824   7.706   1.533   3.565 -0.6672  0.2411  0.6932
   8823SM   H4F11825   7.657   1.447   3.513  0.9965 -1.0861  1.2006
   8823SM   H4G11826   7.647   1.623   3.541  0.6771  0.8942 -0.3102
   8823SM   C5F11827   7.711   1.520   3.716  0.5678  0.2157  0.0178
   8823SM   H5F11828   7.784   1.594   3.755 -1.0804  2.0725 -0.2599
   8823SM   H5G11829   7.736   1.425   3.767 -1.0195  1.1306  2.7244
   8823SM   C6F11830   7.573   1.552   3.776 -0.6653  0.1888 -1.0073
   8823SM   H6F11831   7.504   1.472   3.741 -0.1043  0.3475 -2.5325
   8823SM   H6G11832   7.526   1.650   3.750 -1.6331  0.3086  1.0152
   8823SM   C7F11833   7.576   1.537   3.929 -0.0150  0.4705  0.2914
   8823SM   H7F11834   7.604   1.624   3.993 -1.6402  1.9390 -0.8950
   8823SM   H7G11835   7.642   1.453   3.959 -1.8007 -0.7454  0.9818
   8823SM   C8F11836   7.436   1.494   3.976 -0.6481  0.1246 -0.2850
   8823SM   H8F11837   7.411   1.401   3.921  0.0445  0.2019 -0.7557
   8823SM   H8G11838   7.362   1.575   3.960  1.1342  1.7866 -0.6412
   8823SM   C9F11839   7.427   1.462   4.126  0.0205  0.3631 -0.1269
   8823SM   H9F11840   7.513   1.396   4.151 -1.4831 -1.4266  0.5111
   8823SM   H9G11841   7.334   1.414   4.163  1.3595 -1.3037  1.2842
   8823SM  C10F11842   7.429   1.591   4.207  0.1889 -0.5548  0.2673
   8823SM  H10F11843   7.361   1.673   4.177  0.1029 -0.1147  1.5900
   8823SM  H10G11844   7.535   1.624   4.200  0.6042 -1.9438 -0.4307
   8823SM  C11F11845   7.390   1.572   4.351 -0.5460 -0.1510  0.3725
   8823SM  H11F11846   7.433   1.475   4.382 -1.9470 -1.1539 -0.7135
   8823SM  H11G11847   7.282   1.553   4.362 -0.2418 -0.9268  2.5311
   8823SM  C12F11848   7.440   1.700   4.435  1.0161 -0.5797  0.1466
   8823SM  H12F11849   7.361   1.777   4.423 -0.7538 -1.9088  2.3442
   8823SM  H12G11850   7.541   1.736   4.409  0.2286  1.6480 -0.0434
   8823SM  C13F11851   7.425   1.689   4.587  0.0372 -0.1017 -0.5097
   8823SM  H13F11852   7.510   1.634   4.631 -0.9124  0.4196  2.1397
   8823SM  H13G11853   7.333   1.630   4.609 -0.3480  0.2465 -1.1593
   8823SM  C14F11854   7.417   1.825   4.659  0.4439  1.0704  0.4314
   8823SM  H14F11855   7.348   1.894   4.605  1.2459 -0.0274 -2.1378
   8823SM  H14G11856   7.518   1.869   4.649  0.3162  1.8134  2.1577
   8823SM  C15F11857   7.385   1.803   4.805 -0.0462  0.0284 -0.1032
   8823SM  H15F11858   7.403   1.698   4.836  0.4849 -0.0357 -0.6056
   8823SM  H15G11859   7.276   1.821   4.816 -0.3890 -1.5134 -0.6442
   8823SM  C16F11860   7.464   1.899   4.893 -0.5376 -0.7387 -0.9887
   8823SM  H16F11861   7.404   1.903   4.987 -1.6484  1.8351 -1.7085
   8823SM  H16G11862   7.458   2.000   4.847 -0.0763 -0.5679 -0.6784
   8823SM  C17F11863   7.610   1.863   4.935  0.6096 -0.1543  0.6517
   8823SM  H17F11864   7.656   1.870   4.834  0.2060 -0.6158  0.4291
   8823SM  H17G11865   7.621   1.756   4.961 -1.6249 -0.3643  0.9837
   8823SM  C18F11866   7.669   1.958   5.039  0.6512 -0.4088  0.5882
   8823SM  H18F11867   7.676   2.057   4.991  0.2983 -0.9958 -0.7279
   8823SM  H18G11868   7.778   1.941   5.050  1.1506  1.9765 -0.1999
   8823SM  C19F11869   7.596   1.951   5.179  0.2960 -0.0875  0.0401
   8823SM  H19F11870   7.486   1.964   5.176  0.3978  1.5539  1.5082
   8823SM  H19G11871   7.635   2.037   5.238  0.4162  0.0447 -0.2310
   8823SM  C20F11872   7.630   1.828   5.261 -0.1808 -0.3219 -0.5950
   8823SM  H20F11873   7.739   1.818   5.283 -0.7993 -4.0515  1.6579
   8823SM  H20G11874   7.606   1.737   5.202  0.4614 -0.9763  0.1245
   8823SM  C21F11875   7.556   1.839   5.396  0.1414 -0.3372 -0.1634
   8823SM  H21F11876   7.449   1.861   5.377  0.2613  1.5975  1.1690
   8823SM  H21G11877   7.604   1.928   5.442 -0.9125  0.1488  0.0403
   8823SM  C22F11878   7.577   1.729   5.485 -0.5736  0.7499 -0.5407
   8823SM  H22F11879   7.682   1.727   5.521 -0.5819  0.0825 -0.5292
   8823SM  H22G11880   7.550   1.629   5.445 -0.4445 -1.2857  3.7961
   8823SM  C23F11881   7.492   1.749   5.609  0.3007  0.1959  0.0980
   8823SM  H23F11882   7.480   1.660   5.674 -0.8326  0.2409 -0.0313
   8823SM  H23G11883   7.391   1.782   5.578  0.7301 -0.2361 -1.9220
   8823SM  H23H11884   7.533   1.835   5.666  0.8233 -0.9003  1.4487
   8923SM     N11885   4.970   2.404   2.738  0.1023  0.8433 -0.0097
   8923SM   C1511886   4.880   2.496   2.665  0.2977  0.0559 -0.1638
   8923SM  H15A11887   4.836   2.453   2.577 -0.7923  1.5968 -0.4223
   8923SM  H15B11888   4.935   2.585   2.636 -1.6554  1.8320  1.2612
   8923SM  H15C11889   4.795   2.524   2.725 -1.6130 -1.6013 -1.9240
   8923SM   C1411890   5.058   2.330   2.648  0.0990  0.3510 -0.2073
   8923SM  H14A11891   5.114   2.256   2.703 -0.6605  1.1043  1.6526
   8923SM  H14B11892   5.117   2.402   2.592  1.1330  0.2322  0.7004
   8923SM  H14C11893   5.009   2.271   2.573 -1.9866 -0.5321  1.7512
   8923SM   C1311894   5.062   2.480   2.830 -0.1673  0.6357 -0.6312
   8923SM  H13A11895   5.122   2.549   2.773 -1.9904  0.4382 -2.9334
   8923SM  H13B11896   5.125   2.414   2.889 -1.1414  0.1365 -0.1212
   8923SM  H13C11897   5.009   2.544   2.899 -0.5222  0.8847 -1.1311
   8923SM   C1211898   4.883   2.307   2.824 -0.3714 -0.7457  0.5324
   8923SM  H12A11899   4.832   2.233   2.764 -0.1626 -0.7501  0.3601
   8923SM  H12B11900   4.797   2.357   2.864 -0.8575 -1.3938  0.3167
   8923SM   C1111901   4.947   2.221   2.927 -0.4211  0.4498  0.6094
   8923SM  H11A11902   4.879   2.161   2.991  0.2564  0.7915  1.6691
   8923SM  H11B11903   5.003   2.288   2.996 -1.1776  0.9064  0.7888
   8923SM     P11904   5.011   1.981   2.834  0.1245  0.0396 -0.2707
   8923SM   O1311905   4.884   1.983   2.750 -1.2010 -0.3368 -0.3188
   8923SM   O1411906   5.128   1.912   2.773  0.2259 -0.6013  0.1572
   8923SM   O1111907   4.985   1.914   2.984 -0.3652  0.1868  0.7723
   8923SM   O1211908   5.049   2.135   2.863 -0.3513 -0.4300  0.2182
   8923SM   C1S11909   5.082   1.939   3.088 -0.0947 -0.3255  0.8224
   8923SM   H1S11910   5.163   2.012   3.064 -0.9781  1.9242  4.0750
   8923SM   H1T11911   5.111   1.836   3.115 -3.4253 -1.8807 -0.9239
   8923SM    NF11912   5.100   2.005   3.330 -0.5410 -0.1618  0.2045
   8923SM   HNF11913   5.100   1.930   3.395 -0.9911  0.7678  1.3029
   8923SM   C2S11914   5.014   1.996   3.215  0.3191 -0.3541  0.2789
   8923SM   H2S11915   4.981   2.098   3.187  1.1211  0.3120  1.6736
   8923SM   C3S11916   4.872   1.918   3.240 -0.5290  0.0140 -0.0062
   8923SM   H3S11917   4.882   1.808   3.238 -1.7049 -0.1201 -2.4421
   8923SM    O311918   4.777   1.951   3.138 -0.0842  0.2793  0.7379
   8923SM   HO311919   4.825   1.980   3.061 -0.1121 -0.0179  0.6101
   8923SM   C4S11920   4.814   1.971   3.368 -0.2720  0.0360  0.4098
   8923SM   H4S11921   4.798   2.080   3.366 -0.8606 -0.0555  0.0798
   8923SM   C5S11922   4.794   1.905   3.487  0.0274  0.0165 -0.6526
   8923SM   H5S11923   4.831   1.802   3.498  0.4363  0.1754 -0.5291
   8923SM   C6S11924   4.750   1.975   3.614 -0.1032 -0.2620 -0.4498
   8923SM   H6S11925   4.640   1.981   3.603 -0.3451 -2.1291  0.5109
   8923SM   H6T11926   4.786   2.080   3.617  1.8663 -0.6380 -4.3151
   8923SM   C7S11927   4.779   1.899   3.741  0.7328  0.3695 -0.4143
   8923SM   H7S11928   4.886   1.875   3.753  0.9316  2.1945  2.5320
   8923SM   H7T11929   4.728   1.802   3.758  0.0992  1.0614  2.2320
   8923SM   C8S11930   4.758   1.992   3.866  0.5529  0.1931 -1.4926
   8923SM   H8S11931   4.650   2.017   3.876  0.3686 -1.2851  1.0300
   8923SM   H8T11932   4.832   2.074   3.856  2.8098 -1.7146 -1.3932
   8923SM   C9S11933   4.788   1.919   4.003 -0.1510 -0.0761  0.0573
   8923SM   H9S11934   4.891   1.879   4.000  0.3613  1.1596  0.3361
   8923SM   H9T11935   4.713   1.840   4.026  0.1571 -0.5482 -0.5617
   8923SM  C10S11936   4.798   2.026   4.113 -0.1649 -0.6159 -0.1708
   8923SM  H10S11937   4.693   2.050   4.142 -0.4078 -0.9543 -0.7598
   8923SM  H10T11938   4.843   2.114   4.061  0.7771 -0.7276  0.4324
   8923SM  C11S11939   4.876   1.972   4.230  0.3485 -0.2827 -0.1506
   8923SM  H11S11940   4.981   1.953   4.199  0.7300 -1.0811  1.5237
   8923SM  H11T11941   4.824   1.881   4.268  1.7311 -0.4499  1.4693
   8923SM  C12S11942   4.877   2.077   4.341 -0.0824  0.6590  0.1929
   8923SM  H12S11943   4.774   2.113   4.364  0.5531  1.7734  1.4520
   8923SM  H12T11944   4.923   2.172   4.307  0.3183 -0.5014 -2.7550
   8923SM  C13S11945   4.945   2.038   4.473 -0.1141  0.4398 -0.3318
   8923SM  H13S11946   5.054   2.018   4.460  0.0732  1.1811  0.0521
   8923SM  H13T11947   4.891   1.943   4.496  1.4060 -0.9669 -2.2002
   8923SM  C14S11948   4.924   2.139   4.584  0.0572  0.4410  0.0294
   8923SM  H14S11949   4.815   2.155   4.597 -0.1731  0.7748 -2.0035
   8923SM  H14T11950   4.953   2.236   4.539  1.4667  1.1240  2.2387
   8923SM  C15S11951   4.999   2.101   4.704 -0.0657 -0.7612 -0.3975
   8923SM  H15S11952   5.102   2.070   4.679  0.2437  0.5168 -0.8072
   8923SM  H15T11953   4.940   2.021   4.754 -0.6620 -0.9576 -1.3930
   8923SM  C16S11954   5.015   2.221   4.806  0.5086  0.7287  0.6550
   8923SM  H16S11955   5.045   2.172   4.901  2.0206 -1.7924 -1.0118
   8923SM  H16T11956   4.917   2.272   4.822  0.4979  0.7202  0.6169
   8923SM  C17S11957   5.124   2.320   4.758  0.8068 -0.2811 -0.1987
   8923SM  H17S11958   5.094   2.373   4.665  2.5254 -0.1198 -0.7019
   8923SM  H17T11959   5.218   2.271   4.725  0.0332 -1.5098 -0.6661
   8923SM  C18S11960   5.154   2.431   4.862  0.1947 -0.0994  0.4890
   8923SM  H18S11961   5.192   2.392   4.959  1.2100  0.9549  0.5323
   8923SM  H18T11962   5.068   2.498   4.888  0.2598 -0.2003  0.9851
   8923SM  H18U11963   5.226   2.500   4.814 -1.2897  0.9108 -0.3641
   8923SM   C1F11964   5.201   2.093   3.332  0.4429  0.3842  0.0351
   8923SM    OF11965   5.203   2.196   3.256 -0.7467  0.2685  0.2262
   8923SM   C2F11966   5.313   2.066   3.435  0.1923 -0.0277  0.1370
   8923SM   H2F11967   5.263   2.035   3.529  0.6342  3.9977  1.9417
   8923SM   H2G11968   5.349   2.170   3.452  0.5312  0.0123 -0.7839
   8923SM   C3F11969   5.418   1.970   3.382  0.3443  0.3918 -0.0702
   8923SM   H3F11970   5.462   2.002   3.285  2.7728 -1.0100  0.4834
   8923SM   H3G11971   5.366   1.873   3.372  2.4710 -1.0225  1.6932
   8923SM   C4F11972   5.538   1.950   3.478  0.7532  0.0941  0.0917
   8923SM   H4F11973   5.604   1.869   3.440 -0.9873 -0.8082 -1.1449
   8923SM   H4G11974   5.488   1.918   3.572  0.5027  3.2093  1.1216
   8923SM   C5F11975   5.624   2.073   3.519  0.2190  0.2288  0.0248
   8923SM   H5F11976   5.559   2.133   3.586 -0.4224  1.5528 -1.7125
   8923SM   H5G11977   5.654   2.129   3.428  1.1455  0.4759  0.4705
   8923SM   C6F11978   5.756   2.047   3.588 -0.4678 -0.0961 -0.0237
   8923SM   H6F11979   5.797   2.147   3.614 -1.5374 -0.1044  1.9677
   8923SM   H6G11980   5.842   2.000   3.536  0.1655 -1.2790  1.9436
   8923SM   C7F11981   5.735   1.960   3.717  0.0379  0.4536 -0.2289
   8923SM   H7F11982   5.703   1.855   3.699  0.9350 -0.0290  0.8746
   8923SM   H7G11983   5.657   2.018   3.771  2.2208  2.7203  0.6565
   8923SM   C8F11984   5.857   1.945   3.801 -0.0336 -0.6386  0.1113
   8923SM   H8F11985   5.913   2.038   3.824  1.5200 -1.4183 -0.3719
   8923SM   H8G11986   5.925   1.888   3.734 -1.4397 -2.8968  0.4760
   8923SM   C9F11987   5.835   1.862   3.936 -0.8113 -0.9928  0.4201
   8923SM   H9F11988   5.833   1.755   3.909 -0.3951 -0.9103  0.0497
   8923SM   H9G11989   5.735   1.894   3.972 -1.8197 -2.3602 -1.0659
   8923SM  C10F11990   5.935   1.901   4.050  0.2614 -0.1680 -0.6389
   8923SM  H10F11991   5.952   2.010   4.056 -1.2305  0.1001 -0.7220
   8923SM  H10G11992   6.031   1.861   4.011 -0.0004 -0.2805 -1.1694
   8923SM  C11F11993   5.896   1.858   4.193  0.0709  0.2890 -0.1626
   8923SM  H11F11994   5.981   1.857   4.264  0.7932 -1.5211 -0.9840
   8923SM  H11G11995   5.869   1.750   4.190 -0.8193  0.3525  2.5728
   8923SM  C12F11996   5.788   1.947   4.255 -0.3654  0.5620  0.3257
   8923SM  H12F11997   5.686   1.922   4.220 -0.3787 -2.3761  2.0840
   8923SM  H12G11998   5.803   2.052   4.222  0.7213  1.0451  2.1976
   8923SM  C13F11999   5.780   1.941   4.403  0.1381  0.2389 -0.1234
   8923SM  H13F12000   5.873   1.982   4.449 -0.2664  0.0715  0.8703
   8923SM  H13G12001   5.781   1.834   4.434  3.7703 -0.2373 -1.3983
   8923SM  C14F12002   5.663   2.010   4.472 -0.2314 -0.4945 -0.2698
   8923SM  H14F12003   5.582   1.934   4.478 -1.5873  1.0212  2.6772
   8923SM  H14G12004   5.621   2.095   4.414  0.1888 -1.0986 -1.5055
   8923SM  C15F12005   5.700   2.052   4.615 -0.1421  0.1211  0.0233
   8923SM  H15F12006   5.799   2.101   4.610  0.6294 -1.4601 -1.1862
   8923SM  H15G12007   5.716   1.962   4.679  0.8920  1.6787  2.0438
   8923SM  C16F12008   5.591   2.144   4.680  0.0020  0.0342  0.2596
   8923SM  H16F12009   5.502   2.078   4.683  0.6933 -0.9422 -0.0888
   8923SM  H16G12010   5.569   2.222   4.603  1.0471  0.6266  0.5352
   8923SM  C17F12011   5.632   2.211   4.810  0.3532  0.2215 -0.0192
   8923SM  H17F12012   5.726   2.266   4.789 -1.4372  2.9304 -1.6158
   8923SM  H17G12013   5.650   2.139   4.893 -1.7370  0.1964  0.4759
   8923SM  C18F12014   5.528   2.304   4.870 -0.0462  0.1127  0.5338
   8923SM  H18F12015   5.433   2.255   4.898 -0.0057  1.1204  2.7022
   8923SM  H18G12016   5.509   2.384   4.796  1.3228 -0.6521 -0.6971
   8923SM  C19F12017   5.581   2.383   4.988  0.7585  0.2675  0.2036
   8923SM  H19F12018   5.685   2.422   4.984  0.0319  2.5548  1.5768
   8923SM  H19G12019   5.574   2.324   5.081 -1.2849  0.4982  0.2301
   8923SM  C20F12020   5.505   2.508   5.030 -0.3636  0.1911  0.5637
   8923SM  H20F12021   5.399   2.491   5.058  0.0769  1.0715  3.0659
   8923SM  H20G12022   5.533   2.584   4.954  2.1941  1.7963  2.8889
   8923SM  C21F12023   5.575   2.564   5.159  0.2103  0.0447  0.0766
   8923SM  H21F12024   5.678   2.594   5.132  0.0624  1.9612  1.4255
   8923SM  H21G12025   5.572   2.483   5.236 -1.8294 -1.3290 -1.3404
   8923SM  C22F12026   5.501   2.688   5.209  0.3590 -0.7015  0.5906
   8923SM  H22F12027   5.392   2.675   5.227  0.3733  0.2203  1.4618
   8923SM  H22G12028   5.503   2.766   5.131 -1.8326 -0.2621  0.8890
   8923SM  C23F12029   5.581   2.740   5.326  0.6061  0.1247  0.7248
   8923SM  H23F12030   5.669   2.800   5.293  0.0220  1.0571  0.8264
   8923SM  H23G12031   5.631   2.650   5.368  2.2403 -0.5944 -2.4056
   8923SM  H23H12032   5.514   2.799   5.392 -0.9903 -0.7850 -0.0334
   9023SM     N12033   4.113   1.852   2.948  0.0483 -0.9915  0.6157
   9023SM   C1512034   4.030   1.922   2.851  0.2988  0.0353 -0.8859
   9023SM  H15A12035   4.066   2.024   2.840 -2.5021  1.4397  1.4807
   9023SM  H15B12036   3.933   1.942   2.895  0.9229 -0.9979  1.0612
   9023SM  H15C12037   4.020   1.880   2.753  0.1735  1.0311 -1.3164
   9023SM   C1412038   4.252   1.829   2.900  0.3277 -0.0049 -0.3850
   9023SM  H14A12039   4.322   1.808   2.980 -0.7041 -1.3355  0.2138
   9023SM  H14B12040   4.295   1.913   2.847  0.0579  1.3974  1.5293
   9023SM  H14C12041   4.250   1.744   2.833 -1.8924  1.5994 -2.5276
   9023SM   C1312042   4.117   1.945   3.068  0.6177  0.1912  0.1553
   9023SM  H13A12043   4.181   1.906   3.147 -0.5190  0.6281  1.3177
   9023SM  H13B12044   4.020   1.969   3.107  1.2686  0.4313  1.7238
   9023SM  H13C12045   4.145   2.046   3.042  0.8402  0.3955  1.1204
   9023SM   C1212046   4.061   1.719   2.994 -0.1450  0.1717  0.9820
   9023SM  H12A12047   3.960   1.731   3.030 -0.9438 -0.3157 -0.9471
   9023SM  H12B12048   4.126   1.684   3.073  1.7465 -2.2848 -1.4328
   9023SM   C1112049   4.050   1.603   2.900  0.3552  0.6066  0.2877
   9023SM  H11A12050   4.011   1.648   2.806  1.0553  1.4435  0.3875
   9023SM  H11B12051   3.965   1.536   2.928  0.5658  1.1499  2.3736
   9023SM     P12052   4.244   1.442   2.981 -0.2064 -0.1996 -0.3186
   9023SM   O1312053   4.176   1.312   2.988 -0.2328 -0.0266  0.1731
   9023SM   O1412054   4.385   1.428   2.942  0.3830  0.1721  0.0792
   9023SM   O1112055   4.227   1.511   3.125 -0.0592  0.4425 -0.1529
   9023SM   O1212056   4.171   1.539   2.877 -0.7782  0.1652  0.6810
   9023SM   C1S12057   4.135   1.476   3.223 -0.6843  0.6420 -0.4592
   9023SM   H1S12058   4.153   1.370   3.252  1.8277  1.1004 -0.1569
   9023SM   H1T12059   4.029   1.480   3.188 -0.5700 -0.8065 -1.0657
   9023SM    NF12060   4.054   1.496   3.448  0.2817 -0.6636  0.3268
   9023SM   HNF12061   3.998   1.567   3.489 -1.6159 -1.9678  0.1440
   9023SM   C2S12062   4.160   1.545   3.360  0.2559  0.1889 -0.2920
   9023SM   H2S12063   4.256   1.501   3.394 -0.2792  0.5058  1.7429
   9023SM   C3S12064   4.181   1.695   3.362 -0.3826  0.3196  0.2862
   9023SM   H3S12065   4.086   1.733   3.318 -2.2478 -1.1119  2.7922
   9023SM    O312066   4.284   1.736   3.274 -0.4307 -0.2520 -0.0902
   9023SM   HO312067   4.299   1.661   3.217 -1.4808  0.6414 -1.6099
   9023SM   C4S12068   4.206   1.751   3.502 -0.3460  0.1130 -0.0178
   9023SM   H4S12069   4.114   1.777   3.557 -0.1515  1.9347 -0.4909
   9023SM   C5S12070   4.330   1.775   3.555  0.6152 -0.2139  0.2941
   9023SM   H5S12071   4.419   1.752   3.495 -0.3451  1.0643 -1.7162
   9023SM   C6S12072   4.348   1.836   3.692 -0.8949 -0.5630  0.0995
   9023SM   H6S12073   4.259   1.879   3.743  0.4660  1.4050  0.9290
   9023SM   H6T12074   4.408   1.929   3.681  0.0352 -1.1817 -0.1995
   9023SM   C7S12075   4.412   1.733   3.787  0.2123  0.9517  0.3339
   9023SM   H7S12076   4.508   1.695   3.746  0.0714 -0.3170  1.1055
   9023SM   H7T12077   4.343   1.647   3.802  1.4926  0.0389  1.0835
   9023SM   C8S12078   4.437   1.791   3.921  0.2633  0.3159  0.0398
   9023SM   H8S12079   4.444   1.901   3.911 -2.6558  0.3680 -3.8613
   9023SM   H8T12080   4.531   1.751   3.964  1.3787  1.0172 -1.6403
   9023SM   C9S12081   4.311   1.758   4.007  0.4207  0.3545  0.1156
   9023SM   H9S12082   4.320   1.659   4.057 -0.4348  0.7101  1.0112
   9023SM   H9T12083   4.228   1.758   3.933 -0.6364  1.8691  1.2448
   9023SM  C10S12084   4.269   1.856   4.118  0.0277 -0.2442 -0.2332
   9023SM  H10S12085   4.162   1.847   4.148  0.1438  0.1446  0.2890
   9023SM  H10T12086   4.282   1.960   4.083 -0.5483 -0.0818  0.0194
   9023SM  C11S12087   4.348   1.836   4.247 -0.3243  0.0290 -0.7066
   9023SM  H11S12088   4.447   1.791   4.226  0.5734  1.6966 -0.1774
   9023SM  H11T12089   4.294   1.762   4.311  0.1310  0.9362  0.7643
   9023SM  C12S12090   4.376   1.971   4.327 -0.2387  0.5906  0.5340
   9023SM  H12S12091   4.274   2.003   4.358  0.1301  3.1878 -0.6531
   9023SM  H12T12092   4.419   2.047   4.259 -0.3549  1.3557  1.2897
   9023SM  C13S12093   4.471   1.967   4.447  0.4283 -0.4412  0.3730
   9023SM  H13S12094   4.566   1.937   4.398 -0.2586  0.2247 -1.4519
   9023SM  H13T12095   4.431   1.885   4.511 -0.6183 -0.7017 -0.5952
   9023SM  C14S12096   4.485   2.102   4.523 -0.5579 -0.4009 -0.5894
   9023SM  H14S12097   4.386   2.145   4.547  1.5193  4.1780  0.8639
   9023SM  H14T12098   4.550   2.173   4.468 -0.7173 -1.0909 -1.6969
   9023SM  C15S12099   4.543   2.077   4.668  0.5071 -0.3025 -0.3647
   9023SM  H15S12100   4.646   2.038   4.656  1.1029  0.1468  2.5717
   9023SM  H15T12101   4.491   1.994   4.721  0.6026 -0.1238  0.0099
   9023SM  C16S12102   4.560   2.210   4.747  0.1876  0.5145 -0.8921
   9023SM  H16S12103   4.461   2.259   4.761  0.9965  1.7344  1.0807
   9023SM  H16T12104   4.625   2.284   4.694  2.6955 -0.7506  0.2438
   9023SM  C17S12105   4.620   2.176   4.894  0.2485 -0.8850  0.3969
   9023SM  H17S12106   4.716   2.121   4.887  2.0718  2.1762 -0.1902
   9023SM  H17T12107   4.547   2.106   4.941 -1.5421  0.3948 -0.3597
   9023SM  C18S12108   4.634   2.299   4.982  0.0905 -0.3200  0.5085
   9023SM  H18S12109   4.669   2.278   5.085 -0.7286  0.8908  1.0502
   9023SM  H18T12110   4.533   2.345   4.988 -0.4364 -1.0884 -1.5962
   9023SM  H18U12111   4.710   2.370   4.942 -0.4751 -0.2307 -0.4389
   9023SM   C1F12112   4.039   1.366   3.477 -0.0545 -0.1758 -0.6950
   9023SM    OF12113   4.126   1.281   3.465  0.1723 -0.7003  0.1269
   9023SM   C2F12114   3.901   1.333   3.530  0.0123  0.0853 -0.2084
   9023SM   H2F12115   3.856   1.253   3.467 -0.7401 -0.2767  0.7692
   9023SM   H2G12116   3.825   1.413   3.530 -0.7921 -0.6302 -1.9210
   9023SM   C3F12117   3.900   1.287   3.676 -0.0871  0.1709 -0.3113
   9023SM   H3F12118   3.971   1.202   3.682 -0.3125  0.0538  1.1795
   9023SM   H3G12119   3.803   1.240   3.703  0.1966  0.9270  2.2999
   9023SM   C4F12120   3.962   1.387   3.776 -0.5240 -0.4253 -0.5131
   9023SM   H4F12121   3.897   1.478   3.771 -0.9353 -0.7110 -0.4357
   9023SM   H4G12122   4.069   1.410   3.757 -0.3493 -1.6432 -1.0806
   9023SM   C5F12123   3.954   1.328   3.925 -0.6489  0.0473 -0.1544
   9023SM   H5F12124   4.005   1.230   3.935  0.2028  0.5962  1.0939
   9023SM   H5G12125   3.847   1.305   3.941 -0.7121  1.5501  1.9591
   9023SM   C6F12126   4.018   1.425   4.020  0.0037  0.6590 -0.2453
   9023SM   H6F12127   3.974   1.525   4.002  1.9324  1.7346  0.6460
   9023SM   H6G12128   4.126   1.434   3.995 -0.2704  1.0913 -1.3182
   9023SM   C7F12129   3.998   1.380   4.171  0.2179  0.1624 -0.2269
   9023SM   H7F12130   4.047   1.281   4.172 -0.1782 -0.0257  0.8912
   9023SM   H7G12131   3.891   1.368   4.198  0.3263 -0.9515 -0.2392
   9023SM   C8F12132   4.053   1.485   4.272 -0.5167 -0.2596  0.5108
   9023SM   H8F12133   4.014   1.584   4.240  0.2221 -0.0696  0.1682
   9023SM   H8G12134   4.164   1.486   4.269 -0.4895  2.0356  0.4381
   9023SM   C9F12135   4.000   1.461   4.414  0.0967  0.3290 -0.1057
   9023SM   H9F12136   4.042   1.361   4.435  1.0317  1.0920  1.8850
   9023SM   H9G12137   3.890   1.447   4.420 -0.4531  4.1521  2.0027
   9023SM  C10F12138   4.046   1.570   4.511 -0.1584  0.1312 -0.2436
   9023SM  H10F12139   4.020   1.668   4.466 -0.6743 -0.0036 -0.2391
   9023SM  H10G12140   4.156   1.567   4.526 -0.1534  1.6306  0.1822
   9023SM  C11F12141   3.984   1.553   4.647 -0.0658 -0.3932  0.4698
   9023SM  H11F12142   3.877   1.577   4.634  0.0367  0.0560  0.4298
   9023SM  H11G12143   4.032   1.632   4.709  0.9316  0.7946 -1.6745
   9023SM  C12F12144   3.998   1.416   4.714  0.0692 -0.6312 -0.2704
   9023SM  H12F12145   4.102   1.377   4.707  0.0047 -1.0944  1.0134
   9023SM  H12G12146   3.938   1.352   4.646 -0.5582  0.7982 -1.1316
   9023SM  C13F12147   3.944   1.406   4.863 -0.4558  0.2870  0.1137
   9023SM  H13F12148   3.839   1.440   4.879 -0.1317  1.1275  0.4916
   9023SM  H13G12149   4.022   1.471   4.907  1.0893 -0.8537 -0.8539
   9023SM  C14F12150   3.950   1.261   4.920 -0.1303 -0.0610 -0.1390
   9023SM  H14F12151   4.050   1.216   4.906  0.2468  1.1425 -1.5203
   9023SM  H14G12152   3.874   1.204   4.862 -0.5691  1.0770 -0.7055
   9023SM  C15F12153   3.932   1.252   5.066  0.8620 -0.8311 -0.0751
   9023SM  H15F12154   3.995   1.325   5.121  0.9325 -1.2564  0.4272
   9023SM  H15G12155   3.956   1.149   5.101 -1.0913 -0.8951  1.2651
   9023SM  C16F12156   3.782   1.255   5.109  0.1180 -0.7044 -0.8507
   9023SM  H16F12157   3.743   1.155   5.081  1.8418 -1.7264  0.2148
   9023SM  H16G12158   3.737   1.341   5.055  2.5404  1.5106  0.4737
   9023SM  C17F12159   3.757   1.278   5.261 -0.0508 -0.6074  0.3738
   9023SM  H17F12160   3.647   1.277   5.277 -0.1380  1.1577  0.1416
   9023SM  H17G12161   3.798   1.375   5.297 -0.2569 -0.5072  0.3400
   9023SM  C18F12162   3.832   1.178   5.349  0.2663  0.3995  0.1335
   9023SM  H18F12163   3.942   1.187   5.341  0.2256  1.6506  0.8064
   9023SM  H18G12164   3.801   1.085   5.296 -1.8277  1.3234 -0.3675
   9023SM  C19F12165   3.789   1.168   5.492 -0.2649 -0.4089  0.3133
   9023SM  H19F12166   3.680   1.179   5.509 -0.0686  0.5460  1.0891
   9023SM  H19G12167   3.835   1.256   5.543 -0.6336  0.5158 -0.9004
   9023SM  C20F12168   3.843   1.045   5.573 -0.4903  0.2416  0.3026
   9023SM  H20F12169   3.953   1.053   5.577 -0.3263 -1.2112 -0.5316
   9023SM  H20G12170   3.823   0.946   5.527  0.8521 -0.9213  2.1253
   9023SM  C21F12171   3.783   1.038   5.712 -0.0131  0.2755 -0.0545
   9023SM  H21F12172   3.685   0.985   5.709  0.1814 -0.0571 -1.3643
   9023SM  H21G12173   3.760   1.138   5.755 -2.8392 -1.4397  2.9341
   9023SM  C22F12174   3.882   0.976   5.814 -0.1308  0.1941 -0.2097
   9023SM  H22F12175   3.958   1.055   5.832 -1.5805  1.2802  1.4745
   9023SM  H22G12176   3.915   0.884   5.761 -2.0749 -0.8136  0.2351
   9023SM  C23F12177   3.823   0.936   5.950  0.3604  0.2848  0.0480
   9023SM  H23F12178   3.809   1.025   6.015  0.8666 -0.8570  1.8015
   9023SM  H23G12179   3.901   0.880   6.006  1.5011 -0.0434 -1.7741
   9023SM  H23H12180   3.726   0.888   5.929  0.2076  0.6483 -0.0796
   9123SM     N12181   4.968   4.263   3.192  0.0722  0.5565  0.2959
   9123SM   C1512182   4.973   4.393   3.253 -0.3070 -0.6824 -0.8747
   9123SM  H15A12183   4.982   4.469   3.177  0.0500 -1.0335 -1.1830
   9123SM  H15B12184   5.057   4.390   3.320 -1.5627 -0.9458  0.7480
   9123SM  H15C12185   4.883   4.409   3.312  0.6364  0.8187  0.2400
   9123SM   C1412186   4.853   4.267   3.092  0.0064  0.6141  0.5347
   9123SM  H14A12187   4.862   4.354   3.029 -1.1473  0.7949  0.6032
   9123SM  H14B12188   4.760   4.289   3.142  0.0477  3.0124 -0.3539
   9123SM  H14C12189   4.834   4.177   3.036  0.1289 -0.3275  1.9489
   9123SM   C1312190   5.092   4.224   3.120 -0.3719  0.3620 -0.2090
   9123SM  H13A12191   5.079   4.124   3.081 -3.1668 -0.5138  2.5619
   9123SM  H13B12192   5.180   4.212   3.182  1.0647 -1.8596 -2.4464
   9123SM  H13C12193   5.108   4.287   3.033 -4.3204  0.4217 -1.0871
   9123SM   C1212194   4.931   4.165   3.304 -0.2346  0.1965 -0.0931
   9123SM  H12A12195   4.889   4.074   3.264 -1.6371  0.4153  0.8156
   9123SM  H12B12196   4.845   4.209   3.352 -0.3890 -0.5940  0.3700
   9123SM   C1112197   5.032   4.132   3.416 -0.0670 -0.1720  0.0932
   9123SM  H11A12198   4.984   4.085   3.504  2.3002 -2.1770  0.4063
   9123SM  H11B12199   5.081   4.229   3.440  1.6932 -1.3743  1.6054
   9123SM     P12200   5.105   3.904   3.313 -0.0015  0.6149  0.1287
   9123SM   O1312201   5.019   3.908   3.194  0.3384 -0.5482 -0.8024
   9123SM   O1412202   5.230   3.821   3.295  0.2196  0.3385 -0.0583
   9123SM   O1112203   5.021   3.846   3.438  0.2473 -0.3593 -0.2378
   9123SM   O1212204   5.137   4.048   3.367  0.6420  0.0204 -0.4135
   9123SM   C1S12205   5.077   3.802   3.563 -0.3558  0.7027 -0.4057
   9123SM   H1S12206   5.159   3.869   3.598 -1.5749  0.4995  3.2282
   9123SM   H1T12207   5.116   3.698   3.556  0.0741  0.6720  1.7123
   9123SM    NF12208   5.052   3.785   3.809  0.3104  0.3967 -0.4610
   9123SM   HNF12209   5.045   3.700   3.859  0.6689  0.0561 -0.9691
   9123SM   C2S12210   4.976   3.810   3.683  0.3262 -0.4098 -0.1194
   9123SM   H2S12211   4.938   3.914   3.695 -0.7250 -0.9535  1.6685
   9123SM   C3S12212   4.846   3.723   3.659 -0.5141 -0.0604 -0.4413
   9123SM   H3S12213   4.881   3.617   3.662 -0.2786  0.0324  0.1405
   9123SM    O312214   4.791   3.742   3.528 -0.6157  0.0714  0.3602
   9123SM   HO312215   4.858   3.803   3.495  1.6742 -2.6400 -0.3351
   9123SM   C4S12216   4.743   3.746   3.762  0.2269  0.7262 -0.0753
   9123SM   H4S12217   4.776   3.714   3.862 -0.0582 -0.5819 -0.3749
   9123SM   C5S12218   4.617   3.798   3.757  1.0194 -0.0534  0.1961
   9123SM   H5S12219   4.574   3.818   3.658 -0.6838  0.3767  0.9792
   9123SM   C6S12220   4.521   3.816   3.870  0.8466 -0.0232  0.6401
   9123SM   H6S12221   4.418   3.833   3.833  0.7119 -0.6705  0.7028
   9123SM   H6T12222   4.548   3.914   3.915  1.6698 -1.0707  2.5376
   9123SM   C7S12223   4.501   3.699   3.968 -1.2127 -0.3339  0.5042
   9123SM   H7S12224   4.603   3.678   4.006 -0.5544  0.1716 -0.9170
   9123SM   H7T12225   4.475   3.605   3.915  0.7416 -1.1944  0.9726
   9123SM   C8S12226   4.401   3.719   4.081  0.7698 -0.0397 -0.1099
   9123SM   H8S12227   4.391   3.614   4.117 -0.5836  0.3642  0.8141
   9123SM   H8T12228   4.300   3.735   4.037 -0.1958 -2.0882  1.1753
   9123SM   C9S12229   4.449   3.820   4.181 -0.7800  0.2275  0.2927
   9123SM   H9S12230   4.428   3.920   4.138  0.3131  0.6101  0.6216
   9123SM   H9T12231   4.557   3.799   4.196 -0.4520  0.3973 -1.6461
   9123SM  C10S12232   4.384   3.808   4.320 -0.5838  0.4047  0.0209
   9123SM  H10S12233   4.425   3.713   4.358 -1.3513 -0.0720 -0.3240
   9123SM  H10T12234   4.274   3.804   4.304 -0.3054 -1.6850 -1.8919
   9123SM  C11S12235   4.413   3.927   4.414  0.1619  0.1464  0.5414
   9123SM  H11S12236   4.338   3.922   4.497  0.0510 -0.3938  0.4087
   9123SM  H11T12237   4.400   4.019   4.353 -0.2925  0.2056  0.7236
   9123SM  C12S12238   4.558   3.927   4.478  0.1572  1.0205  0.1181
   9123SM  H12S12239   4.642   3.932   4.405  0.6747  0.5737  0.6666
   9123SM  H12T12240   4.563   3.830   4.533 -0.3403  1.3816  0.8129
   9123SM  C13S12241   4.582   4.035   4.582 -0.5696  0.3798  0.9662
   9123SM  H13S12242   4.691   4.044   4.604 -0.1783  0.8331 -0.9900
   9123SM  H13T12243   4.526   3.990   4.668  0.9714  0.5547  2.1092
   9123SM  C14S12244   4.540   4.175   4.548 -0.1480 -0.3878 -0.1927
   9123SM  H14S12245   4.430   4.180   4.540 -0.2651 -1.4177  0.5159
   9123SM  H14T12246   4.597   4.212   4.460 -2.1718 -0.5205 -1.6104
   9123SM  C15S12247   4.571   4.283   4.655 -0.2637 -0.3376  0.1377
   9123SM  H15S12248   4.505   4.264   4.742  0.7780  1.6302  1.4132
   9123SM  H15T12249   4.555   4.387   4.621 -3.3993 -0.3032  1.3635
   9123SM  C16S12250   4.714   4.271   4.716 -0.0715 -0.1019 -0.7365
   9123SM  H16S12251   4.783   4.295   4.632  1.1495  1.9669  0.7693
   9123SM  H16T12252   4.739   4.176   4.768  2.2376  0.5888 -0.4601
   9123SM  C17S12253   4.738   4.385   4.814 -0.7327 -0.0804 -0.0754
   9123SM  H17S12254   4.667   4.389   4.900  0.6023  1.4076  1.0101
   9123SM  H17T12255   4.731   4.478   4.753  1.7656 -0.3142 -0.8140
   9123SM  C18S12256   4.876   4.384   4.877  0.7947 -0.1062  0.5757
   9123SM  H18S12257   4.959   4.376   4.803 -0.2168 -2.9191 -0.3813
   9123SM  H18T12258   4.885   4.288   4.931  3.1750  0.7580  1.8688
   9123SM  H18U12259   4.891   4.472   4.943  1.2852 -0.6223  1.1611
   9123SM   C1F12260   5.153   3.864   3.845  0.3039  0.4336 -0.1244
   9123SM    OF12261   5.167   3.976   3.797 -0.2265 -0.1717  0.1656
   9123SM   C2F12262   5.256   3.812   3.949 -0.3896  0.1815 -0.2939
   9123SM   H2F12263   5.297   3.723   3.898 -1.4642 -2.5806  3.2451
   9123SM   H2G12264   5.202   3.774   4.038  0.1523 -1.4802 -0.6378
   9123SM   C3F12265   5.357   3.926   3.984 -0.0502 -0.1303  0.7983
   9123SM   H3F12266   5.293   4.013   4.010 -2.7143 -1.7543  0.1509
   9123SM   H3G12267   5.429   3.948   3.903  2.8028 -2.3950  2.5167
   9123SM   C4F12268   5.452   3.888   4.092  0.3154 -1.1368  0.6812
   9123SM   H4F12269   5.524   3.971   4.087 -1.2160  0.2770  1.2868
   9123SM   H4G12270   5.499   3.795   4.054  0.4921 -0.6055 -0.4536
   9123SM   C5F12271   5.381   3.866   4.229 -0.7822  0.1176  0.2614
   9123SM   H5F12272   5.324   3.771   4.226  0.7527 -0.8178 -1.2117
   9123SM   H5G12273   5.298   3.939   4.248 -2.8255 -1.4872 -1.8845
   9123SM   C6F12274   5.488   3.861   4.337  0.3553 -0.3907 -0.3323
   9123SM   H6F12275   5.570   3.790   4.312 -0.8396 -2.3906  1.0862
   9123SM   H6G12276   5.447   3.862   4.440  0.1482  0.2914 -0.4193
   9123SM   C7F12277   5.569   3.991   4.343  0.4963 -0.3080 -0.2291
   9123SM   H7F12278   5.632   4.003   4.251  1.3035 -1.1527  0.1962
   9123SM   H7G12279   5.633   3.968   4.430 -0.8170 -2.8492  0.1497
   9123SM   C8F12280   5.487   4.123   4.373 -0.1112  0.3536  0.2134
   9123SM   H8F12281   5.402   4.112   4.444 -0.7130  0.2857 -0.5128
   9123SM   H8G12282   5.435   4.146   4.278 -0.6873  2.0180  0.8948
   9123SM   C9F12283   5.585   4.239   4.385 -0.1113  0.0791 -0.1973
   9123SM   H9F12284   5.649   4.248   4.294  1.8639 -1.6048  0.9320
   9123SM   H9G12285   5.642   4.225   4.479  1.0400 -0.0113 -0.8862
   9123SM  C10F12286   5.507   4.374   4.397  0.6833  0.2868 -0.0146
   9123SM  H10F12287   5.435   4.350   4.478  2.0198  0.9087  1.4023
   9123SM  H10G12288   5.447   4.385   4.304  0.3841 -1.1568 -0.0120
   9123SM  C11F12289   5.601   4.488   4.423 -0.3556  1.0229  0.7539
   9123SM  H11F12290   5.662   4.498   4.330  1.3179 -1.0839  1.5603
   9123SM  H11G12291   5.671   4.455   4.502 -0.5181  1.9364  1.3044
   9123SM  C12F12292   5.523   4.618   4.449  0.1931  0.4935  0.9225
   9123SM  H12F12293   5.442   4.605   4.523 -1.2338  0.6580 -0.5450
   9123SM  H12G12294   5.469   4.641   4.355  0.6987 -1.4899  0.0886
   9123SM  C13F12295   5.613   4.738   4.479  0.0692  0.4970 -0.0203
   9123SM  H13F12296   5.538   4.819   4.494 -0.8867 -0.3886  0.1265
   9123SM  H13G12297   5.672   4.755   4.387 -0.0563 -0.4388 -0.2832
   9123SM  C14F12298   5.699   4.729   4.609 -0.3424 -0.8247  0.1514
   9123SM  H14F12299   5.749   4.630   4.611  0.8950 -0.2327 -0.2922
   9123SM  H14G12300   5.627   4.731   4.693 -1.4884 -1.7811 -0.7751
   9123SM  C15F12301   5.810   4.837   4.626  0.2425  0.9025 -0.7321
   9123SM  H15F12302   5.761   4.936   4.639 -0.1405  0.9403 -2.3229
   9123SM  H15G12303   5.881   4.836   4.541  1.2133 -0.8118  0.0534
   9123SM  C16F12304   5.886   4.821   4.764 -0.1869  1.2686  0.0918
   9123SM  H16F12305   5.815   4.841   4.847 -1.4293 -1.9378 -0.0758
   9123SM  H16G12306   5.957   4.906   4.771  0.3875  0.7468  0.6587
   9123SM  C17F12307   5.970   4.693   4.773 -0.9879  0.2333  0.6475
   9123SM  H17F12308   6.043   4.699   4.690  0.4940 -0.4940  1.8658
   9123SM  H17G12309   5.909   4.601   4.758  0.1831 -0.4828  0.1266
   9123SM  C18F12310   6.051   4.683   4.904 -0.0883  0.5277 -0.1083
   9123SM  H18F12311   6.000   4.625   4.985 -0.3950 -0.5110 -1.0243
   9123SM  H18G12312   6.053   4.790   4.932 -1.0497  0.6834 -0.5981
   9123SM  C19F12313   6.193   4.632   4.887  0.1028 -0.2175  0.5404
   9123SM  H19F12314   6.236   4.703   4.814  1.5925 -0.6749  0.9235
   9123SM  H19G12315   6.210   4.528   4.853  0.4617  0.2029 -0.5878
   9123SM  C20F12316   6.283   4.648   5.009 -0.2898  0.8346  0.0963
   9123SM  H20F12317   6.257   4.573   5.087  0.4874  0.1037 -0.3459
   9123SM  H20G12318   6.245   4.741   5.057  0.9985  1.6508 -0.4204
   9123SM  C21F12319   6.434   4.661   4.982  0.8915  0.0746  0.1017
   9123SM  H21F12320   6.490   4.688   5.074 -1.8387  0.9648  1.6317
   9123SM  H21G12321   6.447   4.741   4.906  1.8069 -0.0943  0.0795
   9123SM  C22F12322   6.493   4.535   4.922  1.0114  1.0783 -0.2552
   9123SM  H22F12323   6.581   4.553   4.857  1.3098 -1.5206 -0.6947
   9123SM  H22G12324   6.419   4.490   4.853  1.9461 -0.6927 -0.1659
   9123SM  C23F12325   6.530   4.431   5.028 -0.5390  0.7184 -0.1291
   9123SM  H23F12326   6.552   4.331   4.984 -1.9670  0.8958 -1.3429
   9123SM  H23G12327   6.447   4.406   5.098 -0.4071 -0.8628 -0.5075
   9123SM  H23H12328   6.612   4.455   5.099 -0.0865 -2.2659  0.5039
   9223SM     N12329   3.404   1.149   3.564 -0.1730 -0.3322 -0.5459
   9223SM   C1512330   3.446   1.200   3.698  0.0922 -0.0249  0.6061
   9223SM  H15A12331   3.358   1.215   3.759 -0.5537  1.4522 -0.6468
   9223SM  H15B12332   3.489   1.298   3.684 -0.8293  0.2721 -0.2077
   9223SM  H15C12333   3.514   1.138   3.755  1.0688  1.0493  0.6424
   9223SM   C1412334   3.527   1.102   3.483 -0.4402  0.1472 -0.3268
   9223SM  H14A12335   3.496   1.070   3.385 -2.2676  0.3231  0.1431
   9223SM  H14B12336   3.568   1.018   3.538  1.1301  0.4387 -1.0080
   9223SM  H14C12337   3.603   1.178   3.485  1.3053 -1.5266  0.9391
   9223SM   C1312338   3.307   1.032   3.586  0.3354 -0.2752 -0.3175
   9223SM  H13A12339   3.216   1.057   3.639  0.6002 -0.7070  0.3462
   9223SM  H13B12340   3.350   0.945   3.632  1.7629 -1.4849 -3.6542
   9223SM  H13C12341   3.275   1.000   3.488 -1.2335  1.0089 -0.2704
   9223SM   C1212342   3.322   1.260   3.499  0.2124 -0.6858 -0.3654
   9223SM  H12A12343   3.242   1.282   3.568  0.5921 -3.5196  1.1305
   9223SM  H12B12344   3.288   1.240   3.398 -2.1765  0.5632  0.1173
   9223SM   C1112345   3.406   1.386   3.476 -0.1693 -0.2367 -0.5587
   9223SM  H11A12346   3.443   1.430   3.571  1.6560  0.0919 -1.3953
   9223SM  H11B12347   3.334   1.459   3.432 -2.2639 -2.6008 -1.3105
   9223SM     P12348   3.592   1.510   3.351 -0.0425 -0.4845 -0.2719
   9223SM   O1312349   3.726   1.492   3.299 -0.0101  0.2742  0.2826
   9223SM   O1412350   3.499   1.589   3.268  0.3899  0.2768  0.0447
   9223SM   O1112351   3.600   1.584   3.496 -0.4450 -0.0553  0.2501
   9223SM   O1212352   3.524   1.374   3.385 -0.1026 -0.0689 -0.3580
   9223SM   C1S12353   3.547   1.715   3.507 -0.2940  0.3156  0.2188
   9223SM   H1S12354   3.436   1.715   3.507 -0.4392 -2.5767  2.6008
   9223SM   H1T12355   3.582   1.787   3.429  2.0045 -0.3950  0.5083
   9223SM    NF12356   3.511   1.883   3.675 -0.3978  0.1887 -0.4553
   9223SM   HNF12357   3.537   1.977   3.652  1.7921  0.0015  1.0009
   9223SM   C2S12358   3.603   1.776   3.642 -0.1063  0.1528  0.6012
   9223SM   H2S12359   3.601   1.702   3.724  2.4558 -0.9186 -0.1992
   9223SM   C3S12360   3.755   1.811   3.633 -0.3122 -0.3413  0.1862
   9223SM   H3S12361   3.758   1.903   3.570 -1.0092  1.3071  2.4100
   9223SM    O312362   3.842   1.718   3.563  0.0296  0.0001 -0.0512
   9223SM   HO312363   3.785   1.643   3.544 -0.3545  0.1571  0.4742
   9223SM   C4S12364   3.803   1.855   3.774  0.7195  0.3083 -0.6158
   9223SM   H4S12365   3.741   1.933   3.820  0.0024 -0.6804  0.1573
   9223SM   C5S12366   3.892   1.787   3.848 -0.0855  0.2355  0.1303
   9223SM   H5S12367   3.939   1.696   3.807 -1.8026  0.1244 -1.7242
   9223SM   C6S12368   3.930   1.822   3.986  0.0508  0.1235 -0.6563
   9223SM   H6S12369   4.039   1.805   3.978  0.3082  1.2554  0.3055
   9223SM   H6T12370   3.891   1.741   4.051  0.8048  0.6276  0.4466
   9223SM   C7S12371   3.907   1.960   4.052  0.9169  0.1744  0.2787
   9223SM   H7S12372   3.951   1.958   4.154 -0.3912  0.3347  0.8585
   9223SM   H7T12373   3.800   1.988   4.063 -0.1788 -2.6076 -1.9166
   9223SM   C8S12374   3.992   2.062   3.978  0.8204  0.3426  0.0033
   9223SM   H8S12375   3.948   2.080   3.877  0.5701  1.8433  0.3588
   9223SM   H8T12376   4.092   2.020   3.957  0.3493  0.4988 -3.0919
   9223SM   C9S12377   4.015   2.199   4.047  0.2998  0.5589  0.5046
   9223SM   H9S12378   3.919   2.257   4.049  0.4071  0.8077 -0.5890
   9223SM   H9T12379   4.081   2.262   3.984 -0.1509  0.9389  0.3994
   9223SM  C10S12380   4.068   2.189   4.182  0.0665 -0.1637 -0.5917
   9223SM  H10S12381   4.159   2.125   4.176  0.9419  0.7179  1.9136
   9223SM  H10T12382   3.991   2.143   4.248 -1.5179  2.2779 -0.5956
   9223SM  C11S12383   4.118   2.333   4.237 -0.1322 -0.8020  0.5914
   9223SM  H11S12384   4.037   2.410   4.246  0.3717 -0.2103  0.1642
   9223SM  H11T12385   4.180   2.389   4.164 -2.6996  4.5837  1.9471
   9223SM  C12S12386   4.186   2.314   4.369  0.1868 -0.3173  0.4403
   9223SM  H12S12387   4.289   2.280   4.344 -0.3099 -2.0136  0.5166
   9223SM  H12T12388   4.139   2.230   4.425 -1.5062  1.2334  1.4510
   9223SM  C13S12389   4.186   2.436   4.462 -0.1543 -0.0347 -0.3244
   9223SM  H13S12390   4.080   2.440   4.495 -0.6602 -0.4143 -1.7963
   9223SM  H13T12391   4.208   2.528   4.403 -2.8163  1.3138  0.6122
   9223SM  C14S12392   4.286   2.429   4.587 -0.2039  0.1169 -0.1837
   9223SM  H14S12393   4.386   2.411   4.542  0.4612  3.0321 -0.0432
   9223SM  H14T12394   4.249   2.353   4.658  0.0682 -0.6666 -0.8660
   9223SM  C15S12395   4.280   2.555   4.674  0.0038 -0.2550 -0.6830
   9223SM  H15S12396   4.172   2.563   4.700  0.3594  0.6490  0.5988
   9223SM  H15T12397   4.323   2.642   4.619  0.2939  0.9454  1.3474
   9223SM  C16S12398   4.348   2.542   4.811  0.0336  0.7024  0.5493
   9223SM  H16S12399   4.440   2.482   4.796 -1.4583 -2.0332  1.7544
   9223SM  H16T12400   4.297   2.469   4.877 -2.0593  2.3213  0.8330
   9223SM  C17S12401   4.394   2.680   4.871  0.3592  0.2859  0.7552
   9223SM  H17S12402   4.486   2.715   4.819  0.8613  0.9369  2.0411
   9223SM  H17T12403   4.430   2.654   4.973  1.6642 -0.2705  0.1853
   9223SM  C18S12404   4.292   2.796   4.870 -0.7735 -0.9892 -0.2495
   9223SM  H18S12405   4.343   2.886   4.910  2.5262 -2.3031 -1.1090
   9223SM  H18T12406   4.207   2.771   4.937  1.0671  0.3570  2.8512
   9223SM  H18U12407   4.265   2.817   4.765  0.7224 -0.3105 -0.5296
   9223SM   C1F12408   3.385   1.857   3.715  0.2282  0.1185 -0.1579
   9223SM    OF12409   3.339   1.747   3.716 -0.0983 -0.5675 -0.5374
   9223SM   C2F12410   3.308   1.977   3.762 -0.1488 -0.2466 -0.3239
   9223SM   H2F12411   3.210   1.967   3.709 -0.5581  1.4253  0.0592
   9223SM   H2G12412   3.363   2.064   3.719 -2.3856  1.1653 -0.5093
   9223SM   C3F12413   3.294   1.974   3.917 -0.3779 -0.2461  0.2036
   9223SM   H3F12414   3.239   1.881   3.941 -1.1505  0.3715  0.8761
   9223SM   H3G12415   3.222   2.057   3.936  0.0343  0.4916 -1.2628
   9223SM   C4F12416   3.422   1.991   3.994 -0.3030 -0.2002  0.8157
   9223SM   H4F12417   3.472   2.085   3.961  0.8598 -0.6044  1.4135
   9223SM   H4G12418   3.504   1.927   3.956  0.3511  0.4768  1.0654
   9223SM   C5F12419   3.401   1.983   4.143  0.0329  0.1106  0.3071
   9223SM   H5F12420   3.379   1.875   4.158 -3.0580  0.1988 -2.4818
   9223SM   H5G12421   3.303   2.028   4.171 -0.6802 -1.9736  1.3842
   9223SM   C6F12422   3.509   2.031   4.239  0.1363  0.6365  0.3677
   9223SM   H6F12423   3.597   1.966   4.220 -0.7426 -0.5232  0.1460
   9223SM   H6G12424   3.478   2.003   4.342 -0.0648  3.0969  1.0401
   9223SM   C7F12425   3.556   2.177   4.248  0.0676  0.4122  0.6835
   9223SM   H7F12426   3.485   2.249   4.294  1.4519  1.0264  1.9411
   9223SM   H7G12427   3.576   2.217   4.147  0.8109 -2.6551 -0.4995
   9223SM   C8F12428   3.688   2.190   4.328 -0.3008 -0.0354 -0.3679
   9223SM   H8F12429   3.737   2.281   4.289 -3.5774  1.9547 -0.1055
   9223SM   H8G12430   3.755   2.106   4.298  2.2684  1.9568 -0.6177
   9223SM   C9F12431   3.674   2.202   4.480 -1.0967  0.5265 -1.2315
   9223SM   H9F12432   3.614   2.118   4.521  0.8074 -0.9393 -1.3175
   9223SM   H9G12433   3.620   2.289   4.525 -1.4205 -0.4456  0.3531
   9223SM  C10F12434   3.808   2.186   4.556  0.2249 -0.7093 -0.0835
   9223SM  H10F12435   3.881   2.248   4.499  0.2429  0.9544  1.6475
   9223SM  H10G12436   3.832   2.078   4.551 -0.6134 -0.8600 -1.1084
   9223SM  C11F12437   3.815   2.252   4.701 -0.3100 -0.3356  0.4697
   9223SM  H11F12438   3.741   2.192   4.758 -1.3449  0.5656  0.1140
   9223SM  H11G12439   3.777   2.356   4.693  1.7681  0.4179 -0.3953
   9223SM  C12F12440   3.958   2.259   4.751  0.2257 -0.9191  0.0881
   9223SM  H12F12441   3.969   2.310   4.848  0.5767  0.2847 -0.5627
   9223SM  H12G12442   4.019   2.313   4.675 -0.6549 -0.0773 -0.0435
   9223SM  C13F12443   4.019   2.121   4.776  0.7674 -0.5701 -0.4291
   9223SM  H13F12444   3.993   2.049   4.697 -0.7726 -0.5179 -0.0036
   9223SM  H13G12445   3.966   2.084   4.866 -0.3437 -0.7647 -1.1517
   9223SM  C14F12446   4.174   2.132   4.801 -0.4859  0.4689  0.0430
   9223SM  H14F12447   4.185   2.222   4.864 -0.7883  1.6020 -1.4652
   9223SM  H14G12448   4.229   2.151   4.706  2.0073 -2.8083  0.6534
   9223SM  C15F12449   4.225   2.010   4.880  0.2225  0.3758 -0.0147
   9223SM  H15F12450   4.160   1.995   4.968 -0.4149  0.3413 -0.4836
   9223SM  H15G12451   4.329   2.031   4.913  1.2623 -2.0106 -1.5207
   9223SM  C16F12452   4.222   1.873   4.807  0.7053  0.2251 -0.3947
   9223SM  H16F12453   4.244   1.878   4.698 -0.8657 -0.8554 -0.7961
   9223SM  H16G12454   4.115   1.846   4.815  0.6033  0.6015 -0.4844
   9223SM  C17F12455   4.307   1.765   4.879  0.5484  0.2653 -0.7578
   9223SM  H17F12456   4.271   1.766   4.984 -0.3468  0.6927 -1.0579
   9223SM  H17G12457   4.411   1.804   4.880  0.1531  1.3698  0.2436
   9223SM  C18F12458   4.296   1.622   4.820  0.6084 -0.0486 -0.0292
   9223SM  H18F12459   4.295   1.636   4.710  1.7739 -0.4392 -0.1034
   9223SM  H18G12460   4.209   1.566   4.861  0.1735  1.1521  0.7383
   9223SM  C19F12461   4.430   1.540   4.835 -0.7010 -0.8201 -0.0179
   9223SM  H19F12462   4.451   1.527   4.943  1.7020  1.3191 -0.1516
   9223SM  H19G12463   4.516   1.598   4.797 -1.2650 -0.8277 -1.3436
   9223SM  C20F12464   4.425   1.396   4.782  0.8999  0.4486  0.1007
   9223SM  H20F12465   4.523   1.345   4.770  1.4669  1.4175  0.5371
   9223SM  H20G12466   4.378   1.401   4.682 -4.8093  1.7053  2.4435
   9223SM  C21F12467   4.336   1.302   4.863  0.5758  0.2990 -0.5490
   9223SM  H21F12468   4.239   1.352   4.884  0.4126 -1.0679  2.4744
   9223SM  H21G12469   4.386   1.299   4.962 -3.3633  0.9157  1.6874
   9223SM  C22F12470   4.325   1.159   4.815 -0.4589  0.0166  0.4262
   9223SM  H22F12471   4.235   1.117   4.866 -0.5593 -0.2809  0.0135
   9223SM  H22G12472   4.422   1.121   4.852  0.2624  1.7661  0.4189
   9223SM  C23F12473   4.325   1.123   4.668 -0.2028 -0.4508 -0.0434
   9223SM  H23F12474   4.242   1.177   4.618  0.7844 -1.0555 -2.4851
   9223SM  H23G12475   4.294   1.017   4.657  0.1183 -0.5079 -0.4387
   9223SM  H23H12476   4.417   1.143   4.608  0.7096 -2.1474  0.7207
   9323SM     N12477   6.102   4.363   2.799 -0.0583  0.6641  0.5745
   9323SM   C1512478   6.176   4.228   2.776  0.2637 -0.1422 -0.0650
   9323SM  H15A12479   6.201   4.216   2.671 -0.0989 -1.9898  0.0337
   9323SM  H15B12480   6.108   4.151   2.807  0.7763 -0.7678 -0.4502
   9323SM  H15C12481   6.269   4.239   2.829  0.7550 -1.0356 -0.7135
   9323SM   C1412482   6.210   4.463   2.779 -0.4574 -0.5216  0.5583
   9323SM  H14A12483   6.260   4.457   2.684 -0.9006  0.0751  0.2809
   9323SM  H14B12484   6.295   4.449   2.844 -0.8086 -0.4704  1.0384
   9323SM  H14C12485   6.179   4.566   2.790  0.8316  0.0070 -0.5214
   9323SM   C1312486   5.999   4.364   2.691  0.5731 -0.3864  0.3121
   9323SM  H13A12487   6.037   4.351   2.591 -0.1571  0.7795 -0.1424
   9323SM  H13B12488   5.949   4.460   2.688 -0.6227 -0.9454  1.4473
   9323SM  H13C12489   5.919   4.292   2.699  1.6616 -1.7229 -0.3952
   9323SM   C1212490   6.049   4.375   2.941 -0.2908 -0.2010 -0.9976
   9323SM  H12A12491   5.993   4.467   2.955  1.4738  0.9487 -1.0750
   9323SM  H12B12492   6.131   4.378   3.012 -2.1407 -3.8282  1.5529
   9323SM   C1112493   5.967   4.252   2.995 -0.0717  0.1780  0.2895
   9323SM  H11A12494   5.882   4.234   2.925 -0.5966 -2.2032  1.4521
   9323SM  H11B12495   5.918   4.273   3.092  0.9735 -1.4179  1.1961
   9323SM     P12496   6.137   4.089   3.120 -0.0738  0.0275  0.5570
   9323SM   O1312497   6.212   3.966   3.074  0.5830  0.7202 -0.4589
   9323SM   O1412498   6.223   4.205   3.173  0.0450  0.6915 -0.3781
   9323SM   O1112499   6.038   4.047   3.240 -0.3871  0.0411  0.6682
   9323SM   O1212500   6.047   4.134   3.001  0.1574  0.2424  0.2466
   9323SM   C1S12501   6.099   3.964   3.344  0.0128 -0.6989  0.3195
   9323SM   H1S12502   6.210   3.970   3.350  0.2440 -0.6854 -2.5842
   9323SM   H1T12503   6.078   3.857   3.322  1.6639 -0.7220 -1.3698
   9323SM    NF12504   6.115   3.937   3.578 -0.1016  0.7254 -0.9647
   9323SM   HNF12505   6.100   3.842   3.602  2.7414 -0.3045 -2.7682
   9323SM   C2S12506   6.028   3.995   3.472 -0.3753 -0.3380 -0.1207
   9323SM   H2S12507   6.021   4.105   3.487  1.7633 -0.0607 -0.7066
   9323SM   C3S12508   5.882   3.939   3.453 -0.0729 -0.1197 -0.8372
   9323SM   H3S12509   5.890   3.830   3.432 -0.2729 -0.1106 -0.9700
   9323SM    O312510   5.811   3.996   3.342 -0.8885 -0.3063 -0.0182
   9323SM   HO312511   5.885   4.037   3.295 -1.9358 -0.3026 -1.7605
   9323SM   C4S12512   5.800   3.937   3.578  0.2381 -0.8071  0.8976
   9323SM   H4S12513   5.794   3.836   3.621  0.8225 -0.4320  1.8982
   9323SM   C5S12514   5.731   4.033   3.640 -0.3320  0.1456 -0.3741
   9323SM   H5S12515   5.732   4.135   3.598 -2.1239  0.1207 -0.5211
   9323SM   C6S12516   5.668   4.014   3.776 -0.6192  0.0478 -0.6828
   9323SM   H6S12517   5.664   3.907   3.806  0.2417  0.3778  0.6671
   9323SM   H6T12518   5.559   4.038   3.773 -0.9064 -0.9413  0.7744
   9323SM   C7S12519   5.750   4.092   3.892 -0.1656 -0.6235  0.1080
   9323SM   H7S12520   5.854   4.061   3.871  0.2490 -0.3003  1.5751
   9323SM   H7T12521   5.730   4.051   3.994 -3.1552 -0.1068 -0.1620
   9323SM   C8S12522   5.732   4.247   3.887 -0.4208  0.5255 -0.5035
   9323SM   H8S12523   5.695   4.268   3.784 -2.3007 -0.1638 -0.0091
   9323SM   H8T12524   5.826   4.303   3.904  1.5850 -2.8337  0.5077
   9323SM   C9S12525   5.615   4.300   3.969 -0.0395  0.1492  0.3149
   9323SM   H9S12526   5.638   4.291   4.077  0.7672 -2.9772 -0.0263
   9323SM   H9T12527   5.521   4.243   3.949  0.2202 -0.1825  0.0302
   9323SM  C10S12528   5.571   4.436   3.931  0.2261  0.3861  0.7386
   9323SM  H10S12529   5.532   4.450   3.828  0.6019  2.3794  0.8305
   9323SM  H10T12530   5.656   4.507   3.933 -1.5464  2.7176 -0.6122
   9323SM  C11S12531   5.456   4.494   4.017 -0.1849 -0.7440 -0.1243
   9323SM  H11S12532   5.404   4.580   3.969  0.4546 -0.4456 -0.2830
   9323SM  H11T12533   5.497   4.528   4.115 -1.5723 -1.8888  0.9151
   9323SM  C12S12534   5.346   4.384   4.031 -0.1974 -0.7093  0.1451
   9323SM  H12S12535   5.379   4.310   4.107 -1.1714 -1.0401  0.2589
   9323SM  H12T12536   5.325   4.331   3.935 -0.4221 -0.4900  0.0742
   9323SM  C13S12537   5.225   4.446   4.094 -0.1892  0.1213  0.3980
   9323SM  H13S12538   5.194   4.518   4.016  1.0541 -0.0281 -0.2531
   9323SM  H13T12539   5.243   4.501   4.189  0.0776  0.3096  0.2386
   9323SM  C14S12540   5.109   4.354   4.129  0.0155  0.7820 -0.5790
   9323SM  H14S12541   5.053   4.314   4.041 -1.9644 -1.8835  1.7240
   9323SM  H14T12542   5.028   4.417   4.171  0.0266 -0.2790  1.1313
   9323SM  C15S12543   5.127   4.239   4.224  0.2758  0.3982 -0.0671
   9323SM  H15S12544   5.212   4.180   4.184  2.2832  3.8284 -1.3664
   9323SM  H15T12545   5.135   4.274   4.330 -1.3868 -1.2795  0.6691
   9323SM  C16S12546   4.997   4.155   4.232  0.7314  0.4005  0.1883
   9323SM  H16S12547   4.912   4.224   4.252 -0.4755 -1.2093  0.8154
   9323SM  H16T12548   4.999   4.098   4.327  1.1438 -0.7088 -0.4693
   9323SM  C17S12549   4.971   4.059   4.116  0.5258  0.6806  0.1338
   9323SM  H17S12550   5.066   4.008   4.091 -0.0216 -0.2053 -0.1661
   9323SM  H17T12551   4.943   4.121   4.028 -0.3229  0.1826  0.0431
   9323SM  C18S12552   4.860   3.950   4.151  0.1645 -0.0437 -0.0564
   9323SM  H18S12553   4.884   3.862   4.087  0.4688  0.5981 -0.8455
   9323SM  H18T12554   4.757   3.986   4.128 -0.9898 -3.5935 -1.2692
   9323SM  H18U12555   4.854   3.916   4.256  2.2582  0.4520  0.2586
   9323SM   C1F12556   6.226   4.000   3.624 -0.8722  0.4548 -0.0055
   9323SM    OF12557   6.259   4.110   3.581 -0.4080 -0.7833  0.2728
   9323SM   C2F12558   6.327   3.925   3.711  0.5873 -0.0912  0.7564
   9323SM   H2F12559   6.434   3.930   3.682 -0.4220 -0.1594 -3.7345
   9323SM   H2G12560   6.296   3.819   3.698  2.4132 -0.6006  0.2280
   9323SM   C3F12561   6.290   3.967   3.855 -0.3255  0.6889  0.0286
   9323SM   H3F12562   6.181   3.979   3.872 -0.4326  2.1140 -1.4010
   9323SM   H3G12563   6.330   4.067   3.883 -0.3147  1.2684 -1.8988
   9323SM   C4F12564   6.344   3.858   3.948 -0.1111 -0.1587 -0.0211
   9323SM   H4F12565   6.451   3.843   3.923  0.0323 -0.6343  0.8046
   9323SM   H4G12566   6.293   3.760   3.934 -0.3625 -0.1342  0.6505
   9323SM   C5F12567   6.328   3.901   4.094  0.0014  0.4981 -0.6346
   9323SM   H5F12568   6.218   3.908   4.103 -0.1314 -2.3195  0.6882
   9323SM   H5G12569   6.377   4.001   4.099 -0.8970  0.9165  0.0443
   9323SM   C6F12570   6.355   3.795   4.205 -0.3950  0.6447 -0.3412
   9323SM   H6F12571   6.456   3.749   4.194  0.6509  2.1681  2.0859
   9323SM   H6G12572   6.288   3.707   4.205  0.3959  0.0155  0.2289
   9323SM   C7F12573   6.359   3.850   4.354 -0.3464 -0.2526 -0.1590
   9323SM   H7F12574   6.257   3.889   4.375  0.0203  0.2751  0.6994
   9323SM   H7G12575   6.425   3.940   4.352 -3.8502  2.5233 -1.1622
   9323SM   C8F12576   6.390   3.751   4.462 -0.7502  0.6546  0.4762
   9323SM   H8F12577   6.470   3.684   4.422 -0.6121  0.4729  1.0458
   9323SM   H8G12578   6.297   3.691   4.460  0.9342 -2.2199  1.1076
   9323SM   C9F12579   6.429   3.798   4.597 -0.5630  0.0708 -0.6360
   9323SM   H9F12580   6.346   3.864   4.631  0.1255  0.2181  0.8623
   9323SM   H9G12581   6.527   3.850   4.600 -0.5213 -0.0386  0.2526
   9323SM  C10F12582   6.438   3.678   4.689  0.2414  1.0536 -0.2687
   9323SM  H10F12583   6.508   3.600   4.652 -2.2584 -0.9385 -1.0923
   9323SM  H10G12584   6.342   3.631   4.719  0.7876  0.0131 -0.1098
   9323SM  C11F12585   6.503   3.707   4.827  0.0958 -0.0048 -0.6569
   9323SM  H11F12586   6.454   3.774   4.901  0.1917 -0.3743 -0.2562
   9323SM  H11G12587   6.602   3.749   4.797  0.7898 -0.9474  0.2579
   9323SM  C12F12588   6.539   3.578   4.906  0.2862 -0.1910  0.2075
   9323SM  H12F12589   6.448   3.521   4.936  1.3522 -1.5209  1.0833
   9323SM  H12G12590   6.582   3.610   5.003  0.1767 -2.2441  0.9901
   9323SM  C13F12591   6.619   3.462   4.840  0.0403 -0.2676 -0.4556
   9323SM  H13F12592   6.709   3.502   4.788  0.3781  3.1534  2.3461
   9323SM  H13G12593   6.553   3.420   4.761 -0.1057  1.4946 -1.3072
   9323SM  C14F12594   6.662   3.349   4.932  0.0981  0.3498  0.5770
   9323SM  H14F12595   6.584   3.324   5.008  0.6323  0.5949  1.2199
   9323SM  H14G12596   6.741   3.376   5.006  0.5579 -0.5964  0.4470
   9323SM  C15F12597   6.722   3.236   4.849  0.1985  0.2209  0.2196
   9323SM  H15F12598   6.805   3.272   4.785 -0.3661 -0.0664 -0.6919
   9323SM  H15G12599   6.656   3.186   4.775  0.6751 -1.0119  0.5910
   9323SM  C16F12600   6.797   3.136   4.941  0.4043  0.2123 -0.2304
   9323SM  H16F12601   6.881   3.190   4.991  0.9356 -3.0673  2.7942
   9323SM  H16G12602   6.840   3.061   4.871 -0.0908 -1.7912  1.5048
   9323SM  C17F12603   6.716   3.060   5.048 -0.8153  0.2340  0.1970
   9323SM  H17F12604   6.680   3.136   5.120  1.1098  0.8814  0.5369
   9323SM  H17G12605   6.786   2.994   5.102 -0.2736  1.2626  0.7882
   9323SM  C18F12606   6.602   2.972   4.983  0.1030  0.3684 -0.1534
   9323SM  H18F12607   6.532   3.047   4.941  0.5194  0.6554 -0.3357
   9323SM  H18G12608   6.549   2.917   5.064 -1.7231  0.9845 -0.8647
   9323SM  C19F12609   6.635   2.874   4.868  0.5337  0.6002 -0.0892
   9323SM  H19F12610   6.676   2.923   4.778  1.9990 -1.9717 -0.9274
   9323SM  H19G12611   6.540   2.824   4.839 -1.0511  1.6503  2.8388
   9323SM  C20F12612   6.742   2.763   4.909 -0.6121 -0.2099  0.2075
   9323SM  H20F12613   6.699   2.698   4.988 -0.3065  1.1394  1.5204
   9323SM  H20G12614   6.836   2.816   4.932 -0.5899 -0.1212 -0.0737
   9323SM  C21F12615   6.769   2.677   4.788 -0.2195 -0.4557 -0.0579
   9323SM  H21F12616   6.820   2.744   4.715 -2.0962 -0.2439 -1.2420
   9323SM  H21G12617   6.672   2.635   4.756  0.7313 -2.9877  0.1526
   9323SM  C22F12618   6.847   2.562   4.829 -0.8260 -0.6812 -0.1667
   9323SM  H22F12619   6.794   2.492   4.899  0.6747  0.3356  2.1114
   9323SM  H22G12620   6.934   2.611   4.877 -0.4609  0.8774 -2.2871
   9323SM  C23F12621   6.893   2.476   4.704 -0.1324 -0.1370  0.0491
   9323SM  H23F12622   6.924   2.532   4.613  0.2161 -1.0509 -0.4057
   9323SM  H23G12623   6.817   2.399   4.681 -0.0022 -0.4815  0.7582
   9323SM  H23H12624   6.975   2.416   4.748 -2.1877 -2.0806  1.4312
   9423SM     N12625   4.585   6.635   2.819  0.4696  0.5353 -0.0839
   9423SM   C1512626   4.727   6.604   2.845 -0.1449 -0.1060  1.0437
   9423SM  H15A12627   4.733   6.537   2.929 -0.0561 -0.9240  0.4014
   9423SM  H15B12628   4.784   6.694   2.864  1.5969 -0.9408 -0.0145
   9423SM  H15C12629   4.779   6.549   2.768 -0.6313 -1.2661  1.5279
   9423SM   C1412630   4.576   6.697   2.683  0.3293 -0.1357  0.0356
   9423SM  H14A12631   4.634   6.645   2.607 -1.7053 -0.5939 -1.2876
   9423SM  H14B12632   4.624   6.792   2.700  0.0752 -0.1413  0.8155
   9423SM  H14C12633   4.472   6.716   2.662  0.5913  2.0696  0.5579
   9423SM   C1312634   4.517   6.496   2.797  0.2822 -0.2753 -0.9279
   9423SM  H13A12635   4.410   6.506   2.787 -0.0737 -0.6480  1.7982
   9423SM  H13B12636   4.532   6.436   2.885 -1.1127  1.3358  0.4804
   9423SM  H13C12637   4.559   6.442   2.713  0.1691  1.7895 -2.4174
   9423SM   C1212638   4.525   6.713   2.930  0.3435  0.2487 -0.5080
   9423SM  H12A12639   4.420   6.719   2.906  0.2558  0.6544 -0.0136
   9423SM  H12B12640   4.557   6.816   2.932  1.2200 -0.0185  0.2131
   9423SM   C1112641   4.540   6.657   3.075  0.0858 -0.3776  0.0296
   9423SM  H11A12642   4.494   6.730   3.145 -0.2189 -0.0952 -0.4524
   9423SM  H11B12643   4.646   6.658   3.107  0.2259  1.8111 -0.3194
   9423SM     P12644   4.346   6.481   3.144  0.3492  0.1866  0.4444
   9423SM   O1312645   4.240   6.561   3.084  0.4590  0.2537 -0.5212
   9423SM   O1412646   4.329   6.332   3.122  0.0420  0.6010 -0.1367
   9423SM   O1112647   4.351   6.518   3.294 -0.3587 -0.5293  0.1024
   9423SM   O1212648   4.499   6.519   3.088 -0.1659  0.2719  0.2668
   9423SM   C1S12649   4.417   6.430   3.386  0.2566  0.4753  0.1857
   9423SM   H1S12650   4.522   6.418   3.353  0.7606  0.1064  1.8301
   9423SM   H1T12651   4.364   6.332   3.389 -2.1005  1.5460 -2.1389
   9423SM    NF12652   4.511   6.404   3.620  0.2603  0.1181  0.8780
   9423SM   HNF12653   4.474   6.343   3.690 -1.7083 -0.2716 -0.4300
   9423SM   C2S12654   4.422   6.485   3.530  0.7001  0.6366 -1.0188
   9423SM   H2S12655   4.466   6.587   3.522  1.4555  0.3444 -0.6780
   9423SM   C3S12656   4.281   6.487   3.585  0.6654 -0.3443  0.0757
   9423SM   H3S12657   4.252   6.382   3.605 -0.3650  0.1102  1.0588
   9423SM    O312658   4.183   6.525   3.487 -0.5076  0.4014  0.4851
   9423SM   HO312659   4.229   6.532   3.403  2.8385  1.5349  2.1989
   9423SM   C4S12660   4.266   6.568   3.718 -0.1121 -0.2296  0.9755
   9423SM   H4S12661   4.309   6.506   3.798  2.4059 -0.7470 -0.6528
   9423SM   C5S12662   4.214   6.693   3.744  0.0285  0.3832  0.3276
   9423SM   H5S12663   4.161   6.740   3.660 -2.5491  0.1736  1.7212
   9423SM   C6S12664   4.194   6.755   3.881  0.2058 -0.9841 -0.2694
   9423SM   H6S12665   4.091   6.730   3.914  1.1496 -1.8829  2.1822
   9423SM   H6T12666   4.205   6.864   3.865 -2.5457 -0.8909 -2.3722
   9423SM   C7S12667   4.284   6.689   3.993 -0.7176 -0.5628  0.3638
   9423SM   H7S12668   4.389   6.679   3.958 -0.1062 -0.0570  1.9362
   9423SM   H7T12669   4.258   6.583   4.013 -1.7987 -0.3011  0.4304
   9423SM   C8S12670   4.267   6.764   4.133 -0.4362 -0.0826  0.3591
   9423SM   H8S12671   4.268   6.874   4.122 -2.1565 -0.2272 -1.8291
   9423SM   H8T12672   4.360   6.744   4.191  0.3255 -0.1602 -0.8569
   9423SM   C9S12673   4.137   6.714   4.208 -0.8838 -0.3338 -0.5119
   9423SM   H9S12674   4.155   6.614   4.253  0.3094 -1.4131 -3.2138
   9423SM   H9T12675   4.059   6.727   4.130 -1.4842  1.2759  0.2984
   9423SM  C10S12676   4.094   6.822   4.306 -0.4521 -0.4195  0.2446
   9423SM  H10S12677   3.993   6.805   4.348 -0.9501 -1.8518 -1.4398
   9423SM  H10T12678   4.081   6.909   4.239 -1.7099 -0.0822  0.9057
   9423SM  C11S12679   4.194   6.856   4.420 -0.7700 -0.1037 -0.0228
   9423SM  H11S12680   4.157   6.950   4.466  0.5802  0.1521  0.5830
   9423SM  H11T12681   4.296   6.878   4.382 -1.1550  1.3936 -0.2516
   9423SM  C12S12682   4.213   6.745   4.528  0.0950 -0.1903 -0.2624
   9423SM  H12S12683   4.299   6.770   4.593  0.9546 -2.0417 -0.6148
   9423SM  H12T12684   4.246   6.661   4.462 -0.4301 -0.6985  0.1107
   9423SM  C13S12685   4.090   6.689   4.606  0.1061  0.1639 -0.1518
   9423SM  H13S12686   4.130   6.603   4.662  1.0056 -0.1344 -1.2142
   9423SM  H13T12687   4.020   6.656   4.526  2.1193 -0.9572 -1.5637
   9423SM  C14S12688   4.012   6.783   4.703 -0.0729 -0.2346 -0.1209
   9423SM  H14S12689   3.977   6.864   4.635 -1.9111 -0.9987 -0.1346
   9423SM  H14T12690   4.091   6.809   4.777 -0.9030 -0.5999  0.9141
   9423SM  C15S12691   3.891   6.713   4.767  1.0252  1.1094  0.6150
   9423SM  H15S12692   3.832   6.790   4.821  2.2275  1.5855  1.2860
   9423SM  H15T12693   3.916   6.623   4.826  1.2330  0.0643 -1.0212
   9423SM  C16S12694   3.782   6.679   4.658 -0.3240  0.1370 -0.3843
   9423SM  H16S12695   3.822   6.580   4.627  0.5386  0.3277  0.0874
   9423SM  H16T12696   3.783   6.743   4.567  1.6932 -0.0403 -0.5165
   9423SM  C17S12697   3.640   6.663   4.709 -0.6749  0.9189  0.3342
   9423SM  H17S12698   3.612   6.762   4.753 -0.5981  0.1234  2.2650
   9423SM  H17T12699   3.637   6.596   4.798  0.5242 -0.2050 -0.4455
   9423SM  C18S12700   3.538   6.631   4.604 -0.0313 -0.2042  0.0805
   9423SM  H18S12701   3.439   6.675   4.628  0.4478  0.4306  0.9756
   9423SM  H18T12702   3.511   6.524   4.589  0.7762 -0.4898  0.5876
   9423SM  H18U12703   3.562   6.672   4.504  0.1273  0.2312  0.2937
   9423SM   C1F12704   4.638   6.388   3.589  0.5116 -0.6986 -0.2640
   9423SM    OF12705   4.697   6.469   3.516 -0.2911 -0.5606  0.3837
   9423SM   C2F12706   4.706   6.274   3.655 -0.7585  0.3018  0.3181
   9423SM   H2F12707   4.696   6.276   3.765  1.4596 -1.4436  0.6425
   9423SM   H2G12708   4.813   6.280   3.623 -0.7721  3.1774  0.6122
   9423SM   C3F12709   4.651   6.132   3.615 -0.1329  0.0752 -0.0649
   9423SM   H3F12710   4.664   6.125   3.505 -0.7685  1.4149 -0.2577
   9423SM   H3G12711   4.540   6.135   3.623 -0.0484  2.1132  1.0259
   9423SM   C4F12712   4.710   5.994   3.672  0.7045  0.3237 -0.3419
   9423SM   H4F12713   4.818   5.992   3.646  1.3836 -0.2408  2.2561
   9423SM   H4G12714   4.678   5.902   3.619 -0.9287  0.2468  0.6989
   9423SM   C5F12715   4.690   5.971   3.822 -0.2677 -0.5673  0.2149
   9423SM   H5F12716   4.581   5.986   3.834 -0.2722  0.6769 -1.0637
   9423SM   H5G12717   4.728   6.056   3.882 -0.6089 -0.1447 -0.1630
   9423SM   C6F12718   4.748   5.840   3.860  0.7075 -0.1894  0.7159
   9423SM   H6F12719   4.854   5.845   3.826 -0.1322 -1.6563 -2.4722
   9423SM   H6G12720   4.692   5.755   3.816 -2.0402  2.6521 -1.7197
   9423SM   C7F12721   4.733   5.813   4.010 -0.2826 -0.0490  0.0968
   9423SM   H7F12722   4.626   5.803   4.040  0.0322 -2.9971  0.5730
   9423SM   H7G12723   4.785   5.899   4.057 -0.0236  2.1819 -3.8510
   9423SM   C8F12724   4.817   5.695   4.060  0.5695  0.2032  0.3051
   9423SM   H8F12725   4.919   5.705   4.017 -0.4078 -1.3301 -2.5734
   9423SM   H8G12726   4.770   5.611   4.004 -1.8148  1.0808  0.8860
   9423SM   C9F12727   4.817   5.683   4.213  0.0751  0.0444 -0.2156
   9423SM   H9F12728   4.896   5.743   4.263 -0.8737  0.4693  0.7921
   9423SM   H9G12729   4.846   5.579   4.241 -3.6019 -0.6523  1.5122
   9423SM  C10F12730   4.691   5.719   4.284  0.0885 -0.2958 -0.4948
   9423SM  H10F12731   4.659   5.821   4.257  2.6673  0.6026 -0.3876
   9423SM  H10G12732   4.703   5.715   4.395  1.0732 -0.3411 -0.5890
   9423SM  C11F12733   4.576   5.618   4.255  0.5098 -0.6371 -0.2297
   9423SM  H11F12734   4.605   5.513   4.279  1.8364 -0.6009 -1.5319
   9423SM  H11G12735   4.548   5.618   4.147 -0.3135 -0.4440 -0.0188
   9423SM  C12F12736   4.445   5.667   4.318  0.0582 -0.1268 -0.3505
   9423SM  H12F12737   4.355   5.617   4.277  0.3831 -0.6372 -0.4471
   9423SM  H12G12738   4.429   5.775   4.298 -0.7369 -0.3090 -0.7304
   9423SM  C13F12739   4.449   5.656   4.475  0.5555  0.0985 -0.1977
   9423SM  H13F12740   4.348   5.698   4.498  0.5885  0.3782 -0.5586
   9423SM  H13G12741   4.524   5.732   4.506  1.4512 -0.3180 -1.2895
   9423SM  C14F12742   4.467   5.517   4.539 -0.7909  0.3701  0.1357
   9423SM  H14F12743   4.419   5.512   4.639 -0.4930  0.1435  0.2729
   9423SM  H14G12744   4.577   5.498   4.539 -1.0300 -1.1872  0.7887
   9423SM  C15F12745   4.398   5.402   4.467 -0.2963 -0.5254 -0.1738
   9423SM  H15F12746   4.437   5.304   4.502  1.0233 -0.4576 -1.3103
   9423SM  H15G12747   4.419   5.416   4.358 -1.4824  3.4134 -0.0634
   9423SM  C16F12748   4.252   5.401   4.492  0.6500  0.4100  0.4262
   9423SM  H16F12749   4.222   5.508   4.484 -2.0566 -0.2495  0.8455
   9423SM  H16G12750   4.224   5.359   4.590 -2.7937 -2.5831 -1.5805
   9423SM  C17F12751   4.168   5.317   4.390  0.5366  0.4533 -0.1018
   9423SM  H17F12752   4.184   5.350   4.285  0.9860  2.0045  0.4280
   9423SM  H17G12753   4.065   5.354   4.407 -0.1183 -1.5984  0.7242
   9423SM  C18F12754   4.180   5.161   4.411  0.3844 -0.6903 -0.2694
   9423SM  H18F12755   4.078   5.117   4.414 -0.5827  1.4299  2.4614
   9423SM  H18G12756   4.214   5.136   4.513  0.9647 -0.6762 -0.4593
   9423SM  C19F12757   4.270   5.090   4.312  0.1912 -0.8388 -0.2018
   9423SM  H19F12758   4.372   5.104   4.355 -0.2047  4.2431 -0.2662
   9423SM  H19G12759   4.273   5.142   4.215 -2.9703  0.3007  0.1982
   9423SM  C20F12760   4.225   4.943   4.289 -0.1953  0.8879  0.0243
   9423SM  H20F12761   4.127   4.943   4.237 -0.0434  1.2174 -0.2760
   9423SM  H20G12762   4.217   4.890   4.386  1.5272  0.6459  0.0805
   9423SM  C21F12763   4.333   4.862   4.209 -0.1265 -0.5186 -0.8334
   9423SM  H21F12764   4.418   4.837   4.276  0.2849 -1.4955 -1.6866
   9423SM  H21G12765   4.371   4.922   4.124 -0.5335  2.5224  0.9702
   9423SM  C22F12766   4.270   4.731   4.153 -0.6104 -0.8004 -0.2794
   9423SM  H22F12767   4.198   4.762   4.074  0.7118 -0.9582 -1.5955
   9423SM  H22G12768   4.220   4.674   4.234 -1.4841  0.0587 -0.2000
   9423SM  C23F12769   4.373   4.644   4.071 -0.4878 -0.5344  0.4671
   9423SM  H23F12770   4.412   4.695   3.980 -2.4250 -0.3986 -0.3293
   9423SM  H23G12771   4.319   4.554   4.033  0.2313 -0.0910 -1.8063
   9423SM  H23H12772   4.452   4.606   4.140  0.5849 -3.1908 -1.9690
   9523SM     N12773   7.506   0.805   2.269 -0.3672 -0.2165  0.0760
   9523SM   C1512774   7.642   0.742   2.275 -0.0250  0.0118  0.1396
   9523SM  H15A12775   7.633   0.636   2.255  0.1438 -0.5090  2.5404
   9523SM  H15B12776   7.678   0.758   2.375 -1.6915  1.9361  0.5174
   9523SM  H15C12777   7.714   0.785   2.207 -0.2866  0.0711 -0.1044
   9523SM   C1412778   7.521   0.956   2.267  0.0816  0.4495 -0.2321
   9523SM  H14A12779   7.599   0.985   2.198 -0.6940  0.4590 -1.1214
   9523SM  H14B12780   7.552   0.993   2.364  0.0295  2.3995 -0.9289
   9523SM  H14C12781   7.429   1.005   2.242  0.4429  1.6902  0.7707
   9523SM   C1312782   7.455   0.759   2.136  0.2100 -0.2070  0.1575
   9523SM  H13A12783   7.362   0.798   2.098  1.2177 -0.3507 -2.7207
   9523SM  H13B12784   7.446   0.651   2.131  1.4716 -0.2906 -1.1272
   9523SM  H13C12785   7.528   0.785   2.061 -0.3748 -0.7967 -0.6352
   9523SM   C1212786   7.415   0.761   2.379 -0.2879  0.5662  0.7212
   9523SM  H12A12787   7.388   0.660   2.353  3.8945 -0.3161 -0.9863
   9523SM  H12B12788   7.331   0.826   2.359 -0.0601  1.1015  1.4707
   9523SM   C1112789   7.461   0.775   2.521  0.7983  0.1797  0.3919
   9523SM  H11A12790   7.560   0.725   2.531  0.8491 -0.4242 -2.3535
   9523SM  H11B12791   7.391   0.723   2.589  3.3667  0.1043  3.2009
   9523SM     P12792   7.366   0.980   2.666 -0.0154  0.3390 -0.3011
   9523SM   O1312793   7.375   1.129   2.658 -0.1800  0.2707 -0.0919
   9523SM   O1412794   7.231   0.931   2.631  0.3241 -0.3724 -0.5170
   9523SM   O1112795   7.415   0.933   2.810  0.0344  0.0819 -0.3357
   9523SM   O1212796   7.470   0.914   2.562  0.1881 -0.3134 -0.1914
   9523SM   C1S12797   7.555   0.930   2.852  0.2073  0.5690 -0.0788
   9523SM   H1S12798   7.618   1.008   2.804  1.7009 -1.3005 -1.3388
   9523SM   H1T12799   7.595   0.830   2.824  3.3055  1.3017  1.3572
   9523SM    NF12800   7.716   0.955   3.038 -0.4490  0.0807  0.1223
   9523SM   HNF12801   7.775   0.876   3.049 -3.3337 -2.1106  1.1183
   9523SM   C2S12802   7.579   0.939   3.009 -0.1911  0.3067 -0.4169
   9523SM   H2S12803   7.519   1.025   3.045 -1.0935 -0.5137  0.0843
   9523SM   C3S12804   7.506   0.814   3.077 -0.2377 -0.4077 -0.2335
   9523SM   H3S12805   7.559   0.721   3.049  1.0372  0.1878  0.1371
   9523SM    O312806   7.373   0.791   3.042  0.1174 -0.3636  0.1963
   9523SM   HO312807   7.364   0.855   2.971  0.9635 -0.3301  0.1091
   9523SM   C4S12808   7.524   0.812   3.225 -1.0688  0.5813  0.0771
   9523SM   H4S12809   7.608   0.752   3.263 -0.0727  2.8640  1.7205
   9523SM   C5S12810   7.450   0.875   3.320 -0.3192 -0.0440  0.3737
   9523SM   H5S12811   7.367   0.934   3.280 -1.0872 -1.3188  0.0080
   9523SM   C6S12812   7.474   0.864   3.467 -0.1685 -0.2061 -0.3147
   9523SM   H6S12813   7.553   0.788   3.488  0.6865  0.7888  0.1271
   9523SM   H6T12814   7.380   0.835   3.519  1.2038 -0.7351  2.0229
   9523SM   C7S12815   7.518   0.995   3.535 -0.4568 -0.0142  0.5429
   9523SM   H7S12816   7.459   1.085   3.510  0.2073  0.8014  1.7903
   9523SM   H7T12817   7.617   1.026   3.494 -0.0720 -0.4716  1.1101
   9523SM   C8S12818   7.542   0.999   3.695  0.2619  0.0822 -0.3067
   9523SM   H8S12819   7.617   0.920   3.717  3.2116  2.6467 -0.5127
   9523SM   H8T12820   7.451   0.978   3.756  0.6764  0.9603  0.6450
   9523SM   C9S12821   7.603   1.125   3.759  0.1559 -0.1851  0.2434
   9523SM   H9S12822   7.531   1.210   3.758  2.2300  1.6608 -0.6653
   9523SM   H9T12823   7.690   1.157   3.698 -0.5880  2.4209  0.3962
   9523SM  C10S12824   7.646   1.111   3.908  0.1494 -0.1508  0.0906
   9523SM  H10S12825   7.697   1.205   3.937 -2.5338  1.6460 -0.6191
   9523SM  H10T12826   7.726   1.035   3.924 -0.8358 -0.8692  1.8864
   9523SM  C11S12827   7.537   1.092   4.008 -0.1191 -0.4257 -0.3360
   9523SM  H11S12828   7.487   0.997   3.980 -0.5047 -0.1152 -0.7073
   9523SM  H11T12829   7.472   1.180   3.992 -1.3893 -1.1467  0.6090
   9523SM  C12S12830   7.590   1.082   4.156  0.1777  0.2359 -0.1481
   9523SM  H12S12831   7.636   1.181   4.178 -0.8670  0.3920  1.4588
   9523SM  H12T12832   7.642   0.987   4.179 -1.2781 -0.7675 -0.8680
   9523SM  C13S12833   7.464   1.066   4.249 -0.1446 -0.2097  0.0920
   9523SM  H13S12834   7.439   0.959   4.264 -0.7241  0.0205  0.8320
   9523SM  H13T12835   7.378   1.120   4.204  0.3828  1.5827  1.1277
   9523SM  C14S12836   7.488   1.142   4.379  0.1220  0.2410  0.7416
   9523SM  H14S12837   7.517   1.246   4.355  0.0862 -0.4473 -2.7851
   9523SM  H14T12838   7.579   1.095   4.423 -0.6674 -0.8038  1.3092
   9523SM  C15S12839   7.373   1.134   4.476  0.4599 -0.4639  0.3280
   9523SM  H15S12840   7.327   1.033   4.469 -2.2898  0.7553 -0.3767
   9523SM  H15T12841   7.293   1.202   4.440  0.2831 -1.7020 -1.7746
   9523SM  C16S12842   7.423   1.168   4.616 -0.1346 -0.1865 -0.2875
   9523SM  H16S12843   7.476   1.265   4.626 -0.1597 -0.2880  0.9190
   9523SM  H16T12844   7.506   1.096   4.631  0.1952  0.2389 -0.0583
   9523SM  C17S12845   7.331   1.147   4.733 -0.0962  0.5983  0.2028
   9523SM  H17S12846   7.393   1.135   4.824  1.9262  0.6091 -1.1240
   9523SM  H17T12847   7.271   1.056   4.712  0.8406  0.4716 -2.1982
   9523SM  C18S12848   7.240   1.265   4.764 -0.0046 -0.2583 -0.6036
   9523SM  H18S12849   7.293   1.348   4.816 -0.6314  0.4808 -1.1360
   9523SM  H18T12850   7.150   1.242   4.825  2.2847 -1.9847  2.4806
   9523SM  H18U12851   7.208   1.314   4.670 -0.3918  2.6054  0.9126
   9523SM   C1F12852   7.769   1.077   3.043  0.0337  0.3244  0.6546
   9523SM    OF12853   7.706   1.173   2.992 -0.8223  0.6481 -0.5501
   9523SM   C2F12854   7.911   1.090   3.096 -0.1211 -0.1263  0.0854
   9523SM   H2F12855   7.971   1.128   3.010 -0.1683  4.3659  1.7912
   9523SM   H2G12856   7.943   0.985   3.116  0.9553  0.2491  0.3708
   9523SM   C3F12857   7.934   1.178   3.223 -0.2708 -0.2591 -0.8071
   9523SM   H3F12858   7.925   1.288   3.205  2.9208  0.5291  1.4736
   9523SM   H3G12859   8.040   1.165   3.253  0.4076  0.1068 -2.9067
   9523SM   C4F12860   7.857   1.121   3.342  0.2941 -0.5329 -0.2068
   9523SM   H4F12861   7.867   1.011   3.340 -2.1164 -0.9370  2.6040
   9523SM   H4G12862   7.747   1.124   3.324  0.0851 -0.8561  0.9218
   9523SM   C5F12863   7.894   1.171   3.479 -0.2597 -0.1548  0.0578
   9523SM   H5F12864   7.810   1.228   3.524 -0.6801  1.4180 -2.4847
   9523SM   H5G12865   7.987   1.231   3.467  0.0778 -0.9905 -2.0255
   9523SM   C6F12866   7.933   1.056   3.574 -0.0148 -0.3094  0.6758
   9523SM   H6F12867   8.010   1.002   3.515  1.0984  0.4286  1.4002
   9523SM   H6G12868   7.843   0.993   3.590 -0.0574 -0.2254  0.7642
   9523SM   C7F12869   7.990   1.101   3.712 -0.5596 -0.7255 -0.8644
   9523SM   H7F12870   7.923   1.177   3.757 -1.4605 -1.9427 -0.0887
   9523SM   H7G12871   8.090   1.148   3.704 -1.6148  2.4484  2.0293
   9523SM   C8F12872   8.001   0.984   3.816 -0.2722  0.7929 -1.0563
   9523SM   H8F12873   8.085   0.916   3.791  0.7120  1.9539 -1.0385
   9523SM   H8G12874   7.909   0.923   3.820  1.5953 -2.2116 -0.5336
   9523SM   C9F12875   8.028   1.043   3.959  0.4981  0.1348 -0.1196
   9523SM   H9F12876   7.934   1.097   3.983  0.3959  1.0095 -2.2294
   9523SM   H9G12877   8.100   1.128   3.956 -0.7979  1.2473 -0.5033
   9523SM  C10F12878   8.056   0.944   4.066 -1.1303 -0.4798  0.3805
   9523SM  H10F12879   8.159   0.907   4.048 -0.8702 -0.2678  1.3676
   9523SM  H10G12880   7.984   0.859   4.059 -1.3795 -0.2739  0.4137
   9523SM  C11F12881   8.059   1.016   4.205  0.2501  0.5197  0.6344
   9523SM  H11F12882   7.966   1.076   4.213 -1.9077 -2.1268 -2.2297
   9523SM  H11G12883   8.146   1.086   4.205  1.6288 -1.0054 -2.5421
   9523SM  C12F12884   8.082   0.909   4.316 -0.1793 -0.1919 -0.4796
   9523SM  H12F12885   8.180   0.860   4.298 -0.5510 -1.1762  0.0894
   9523SM  H12G12886   8.005   0.829   4.309 -1.2917  0.5941  1.7546
   9523SM  C13F12887   8.075   0.983   4.455  0.0304  0.1927 -0.8438
   9523SM  H13F12888   7.971   1.015   4.476  0.1015  0.2341 -0.5520
   9523SM  H13G12889   8.139   1.073   4.462  1.1007 -0.5365 -0.9346
   9523SM  C14F12890   8.119   0.887   4.564  0.0574  0.2251  0.8052
   9523SM  H14F12891   8.218   0.851   4.528 -0.3744 -1.5345  1.2672
   9523SM  H14G12892   8.050   0.801   4.552  0.7413  0.0236 -2.8907
   9523SM  C15F12893   8.123   0.950   4.703  0.3513 -0.5405  0.6827
   9523SM  H15F12894   8.165   0.874   4.771 -0.8714 -1.8570  0.0184
   9523SM  H15G12895   8.019   0.974   4.733 -0.8099 -2.6695 -1.2939
   9523SM  C16F12896   8.201   1.084   4.717 -0.1852 -0.4765 -0.5378
   9523SM  H16F12897   8.144   1.164   4.666  1.5707  1.5505  0.5180
   9523SM  H16G12898   8.300   1.084   4.666  0.6837  4.4838  0.6219
   9523SM  C17F12899   8.229   1.125   4.859 -0.4263 -0.0082  0.1376
   9523SM  H17F12900   8.137   1.149   4.916 -0.9533  0.2482 -0.7954
   9523SM  H17G12901   8.280   1.222   4.842 -0.3288 -0.0622  0.1217
   9523SM  C18F12902   8.299   1.018   4.942  0.3768 -0.3595 -0.1954
   9523SM  H18F12903   8.394   0.987   4.892  0.8552 -0.5519  0.8011
   9523SM  H18G12904   8.226   0.936   4.956 -0.5782  0.7358  1.6042
   9523SM  C19F12905   8.328   1.062   5.078 -0.3390  0.3063 -0.6513
   9523SM  H19F12906   8.240   1.117   5.117 -0.9982  0.5724 -2.4234
   9523SM  H19G12907   8.416   1.130   5.072  0.1281 -0.3296 -1.1474
   9523SM  C20F12908   8.364   0.945   5.175  1.3809 -0.5509  0.2759
   9523SM  H20F12909   8.457   0.899   5.135  1.4890  0.0543 -0.1841
   9523SM  H20G12910   8.297   0.857   5.169  1.3442 -0.4461 -1.2753
   9523SM  C21F12911   8.391   0.981   5.323  0.0028  0.1550  0.1068
   9523SM  H21F12912   8.300   1.024   5.370 -1.5441 -1.6451 -1.0822
   9523SM  H21G12913   8.471   1.057   5.332  1.8428 -1.4501 -1.7708
   9523SM  C22F12914   8.424   0.858   5.416 -0.0996 -0.5919  0.0078
   9523SM  H22F12915   8.525   0.824   5.385 -0.8341 -0.9400 -2.1276
   9523SM  H22G12916   8.362   0.768   5.393  0.1818 -0.5019 -1.1443
   9523SM  C23F12917   8.417   0.911   5.558 -0.4166  0.1079  0.7470
   9523SM  H23F12918   8.503   0.980   5.574 -0.5627  0.1161  1.5663
   9523SM  H23G12919   8.442   0.827   5.626  1.2672  0.5694  0.7585
   9523SM  H23H12920   8.319   0.954   5.588 -1.0701 -0.7612 -0.0776
   9623SM     N12921   2.716   0.608   3.399 -0.3614 -0.3549 -1.0186
   9623SM   C1512922   2.792   0.734   3.432 -0.2872 -1.2935  0.4177
   9623SM  H15A12923   2.838   0.770   3.341  2.6414 -0.5857  2.0525
   9623SM  H15B12924   2.875   0.709   3.496  0.6685  2.9825  1.1756
   9623SM  H15C12925   2.740   0.813   3.484  0.0460 -0.9556  0.2381
   9623SM   C1412926   2.608   0.638   3.301 -0.5855  0.2569 -0.1946
   9623SM  H14A12927   2.539   0.557   3.282 -2.8927  2.1559 -0.4942
   9623SM  H14B12928   2.651   0.680   3.211  0.4292 -2.0795 -0.8807
   9623SM  H14C12929   2.537   0.706   3.346  0.5383  0.2808  1.5984
   9623SM   C1312930   2.827   0.533   3.334  0.6244 -0.5057  0.0282
   9623SM  H13A12931   2.799   0.439   3.290  1.3434  0.0341 -1.6856
   9623SM  H13B12932   2.911   0.516   3.400  1.0049  0.4046 -0.2049
   9623SM  H13C12933   2.869   0.596   3.257  2.4334 -0.9945  0.5517
   9623SM   C1212934   2.672   0.529   3.522  0.5261  0.0675  0.8024
   9623SM  H12A12935   2.756   0.513   3.588  1.2046 -0.6027 -0.1951
   9623SM  H12B12936   2.640   0.432   3.487  3.2006  0.1105 -2.1593
   9623SM   C1112937   2.557   0.593   3.600 -0.3565 -0.8137 -0.0445
   9623SM  H11A12938   2.594   0.695   3.625 -2.2980 -0.4254  1.4808
   9623SM  H11B12939   2.547   0.547   3.700  0.1440  1.2907  1.0297
   9623SM     P12940   2.324   0.502   3.526 -0.0458  0.3042 -0.1082
   9623SM   O1312941   2.263   0.494   3.393 -0.3753 -0.0345 -0.0271
   9623SM   O1412942   2.368   0.376   3.589  0.2505  0.9973 -0.3104
   9623SM   O1112943   2.220   0.574   3.617  0.4477  0.2233  0.4370
   9623SM   O1212944   2.434   0.613   3.529 -0.5264  0.5381 -0.3539
   9623SM   C1S12945   2.101   0.507   3.666  0.1825 -0.6108 -0.4069
   9623SM   H1S12946   2.069   0.420   3.605  0.4471 -1.2059  0.2862
   9623SM   H1T12947   2.017   0.575   3.643  0.7147 -0.0351 -0.6888
   9623SM    NF12948   1.994   0.405   3.863  0.5434  0.3643 -0.9709
   9623SM   HNF12949   1.918   0.457   3.901  1.5504  1.0189  0.2303
   9623SM   C2S12950   2.114   0.476   3.816  0.3949  0.7868 -0.5689
   9623SM   H2S12951   2.206   0.413   3.824  0.1630  0.6832  2.2351
   9623SM   C3S12952   2.150   0.605   3.899  0.4069  0.8162  0.5011
   9623SM   H3S12953   2.058   0.665   3.914  0.9946  2.3202 -1.4996
   9623SM    O312954   2.252   0.685   3.845  0.1324  0.0387  0.0495
   9623SM   HO312955   2.269   0.639   3.762 -2.5030 -3.8718  1.3699
   9623SM   C4S12956   2.194   0.564   4.044 -0.1437 -0.0912 -0.1042
   9623SM   H4S12957   2.295   0.524   4.058 -0.2113  0.2255  1.4445
   9623SM   C5S12958   2.117   0.572   4.157 -0.2250  0.2764  0.2363
   9623SM   H5S12959   2.012   0.605   4.150 -0.4571 -0.7396 -2.8185
   9623SM   C6S12960   2.178   0.536   4.292  0.4823  0.0532  0.3547
   9623SM   H6S12961   2.287   0.515   4.290  0.3323 -1.2482 -3.7783
   9623SM   H6T12962   2.143   0.433   4.314  0.1547 -0.3182 -1.7076
   9623SM   C7S12963   2.141   0.618   4.417  0.5000  0.2567 -0.0569
   9623SM   H7S12964   2.030   0.625   4.420  0.5001  0.4277 -0.3893
   9623SM   H7T12965   2.191   0.715   4.398 -0.0690  0.2975 -1.4638
   9623SM   C8S12966   2.197   0.556   4.543 -0.9511 -0.2588 -0.2828
   9623SM   H8S12967   2.307   0.566   4.534 -1.1813  1.3724 -1.6547
   9623SM   H8T12968   2.170   0.448   4.548  2.3945 -1.2103 -0.7916
   9623SM   C9S12969   2.160   0.628   4.677  0.0064  0.3650  0.0372
   9623SM   H9S12970   2.060   0.606   4.720  0.5028 -1.5217  0.2992
   9623SM   H9T12971   2.170   0.739   4.675  0.7232  0.3539  1.5211
   9623SM  C10S12972   2.249   0.587   4.803 -0.1011 -0.5995 -0.3431
   9623SM  H10S12973   2.272   0.674   4.868 -2.1243  0.9543 -1.5717
   9623SM  H10T12974   2.350   0.548   4.776  0.6641  1.2832 -0.3699
   9623SM  C11S12975   2.175   0.483   4.889  0.6950  0.1910  0.2891
   9623SM  H11S12976   2.159   0.381   4.847  0.9250 -0.1303  0.9762
   9623SM  H11T12977   2.069   0.516   4.896 -0.2759 -2.7175  0.7360
   9623SM  C12S12978   2.226   0.467   5.038 -1.0162  0.5000  0.2176
   9623SM  H12S12979   2.162   0.403   5.103  0.4067 -0.7270  0.4663
   9623SM  H12T12980   2.230   0.566   5.089  2.2339  0.2671  0.6317
   9623SM  C13S12981   2.372   0.409   5.041 -0.3837 -0.2192 -0.4990
   9623SM  H13S12982   2.442   0.495   5.041 -0.9432  0.2747  1.0982
   9623SM  H13T12983   2.391   0.345   4.953  2.6831 -1.9897  1.3001
   9623SM  C14S12984   2.404   0.324   5.174 -1.0803 -0.7774 -0.1242
   9623SM  H14S12985   2.370   0.219   5.163  1.1539 -1.4608 -0.8394
   9623SM  H14T12986   2.358   0.368   5.265  0.6213  1.4506 -0.2674
   9623SM  C15S12987   2.559   0.316   5.188 -0.7623 -0.3465  0.9394
   9623SM  H15S12988   2.600   0.415   5.214 -0.2250 -0.1421 -0.6039
   9623SM  H15T12989   2.604   0.292   5.089 -0.8805  1.3714  0.4392
   9623SM  C16S12990   2.619   0.213   5.280 -0.4374  0.0753 -0.4169
   9623SM  H16S12991   2.590   0.115   5.237  1.2877 -0.1355 -1.1938
   9623SM  H16T12992   2.580   0.212   5.383  1.7340 -2.4786  0.5092
   9623SM  C17S12993   2.771   0.204   5.286  0.3629 -0.2673 -0.0372
   9623SM  H17S12994   2.820   0.192   5.187 -0.1722  2.0788 -0.6430
   9623SM  H17T12995   2.808   0.117   5.344  0.1926  0.2062  0.7954
   9623SM  C18S12996   2.842   0.319   5.351 -0.4431 -0.0737  0.4315
   9623SM  H18S12997   2.826   0.408   5.285  0.0896 -0.2770  0.0141
   9623SM  H18T12998   2.949   0.302   5.376 -0.9849 -0.7715  2.4107
   9623SM  H18U12999   2.792   0.330   5.449 -1.1461 -1.1254  0.1987
   9623SM   C1F13000   1.986   0.274   3.855 -0.9004  0.8485  0.3146
   9623SM    OF13001   2.084   0.215   3.802 -0.3614 -0.1228  0.1468
   9623SM   C2F13002   1.858   0.207   3.886 -0.4276 -0.4317 -0.2355
   9623SM   H2F13003   1.804   0.190   3.790 -1.2781  0.0963  0.1344
   9623SM   H2G13004   1.790   0.271   3.946  0.2426  1.9087 -1.8262
   9623SM   C3F13005   1.884   0.080   3.964 -0.2031  0.4170 -0.1512
   9623SM   H3F13006   1.932   0.096   4.063  0.3881  1.3334 -0.5822
   9623SM   H3G13007   1.953   0.013   3.909 -0.3093  0.6625 -0.5874
   9623SM   C4F13008   1.760  -0.004   3.995  0.1724  0.1514 -0.2713
   9623SM   H4F13009   1.801  -0.101   4.031 -1.1765 -1.6686 -3.3037
   9623SM   H4G13010   1.711  -0.024   3.898  0.8368 -0.8991 -0.3983
   9623SM   C5F13011   1.652   0.047   4.100 -0.2486  0.4047  0.4105
   9623SM   H5F13012   1.563  -0.019   4.086  0.5021 -0.6570  0.5263
   9623SM   H5G13013   1.632   0.154   4.076  1.6833  1.3789  2.7656
   9623SM   C6F13014   1.685   0.043   4.252  0.6898  0.2610  0.1297
   9623SM   H6F13015   1.625   0.115   4.310  0.3674  0.7008 -0.7321
   9623SM   H6G13016   1.793   0.070   4.259  0.7313  0.1866 -0.1902
   9623SM   C7F13017   1.656  -0.099   4.303  0.1426 -0.7316 -0.5903
   9623SM   H7F13018   1.728  -0.166   4.252  2.1512 -0.5325  1.7807
   9623SM   H7G13019   1.548  -0.126   4.293 -1.0410  2.2769  2.0685
   9623SM   C8F13020   1.680  -0.110   4.457 -0.1903  1.3519  0.2100
   9623SM   H8F13021   1.788  -0.095   4.476 -0.0522 -0.0040  0.6113
   9623SM   H8G13022   1.670  -0.218   4.482 -0.1948  0.6976 -2.2816
   9623SM   C9F13023   1.586  -0.019   4.542 -0.7280 -0.0995  0.2271
   9623SM   H9F13024   1.477  -0.020   4.522 -0.6009  0.3767 -0.5268
   9623SM   H9G13025   1.619   0.086   4.529 -0.2565  0.0706  2.3970
   9623SM  C10F13026   1.603  -0.051   4.690  0.0413 -0.3747  0.2827
   9623SM  H10F13027   1.708  -0.022   4.713 -0.6564  1.1338  1.8062
   9623SM  H10G13028   1.582  -0.159   4.706 -0.2019 -0.5991 -1.3623
   9623SM  C11F13029   1.504   0.030   4.772  0.5182  0.7364 -0.6270
   9623SM  H11F13030   1.401   0.001   4.742  0.5383  0.6445 -0.6072
   9623SM  H11G13031   1.533   0.136   4.758  0.9445  0.8797  1.0701
   9623SM  C12F13032   1.524  -0.007   4.925 -0.6171 -0.5225 -0.1766
   9623SM  H12F13033   1.626   0.028   4.954 -0.2583 -1.6049 -0.0993
   9623SM  H12G13034   1.528  -0.117   4.936  0.2118 -0.5575 -0.7120
   9623SM  C13F13035   1.405   0.031   5.011 -0.0320 -0.0222 -0.0556
   9623SM  H13F13036   1.309   0.013   4.959  0.1967  1.8112 -1.1992
   9623SM  H13G13037   1.411   0.141   5.024  1.4730  0.0738 -1.2121
   9623SM  C14F13038   1.379  -0.041   5.148 -0.0731 -0.6572  0.0139
   9623SM  H14F13039   1.386  -0.151   5.138  1.3306 -0.5787  0.0393
   9623SM  H14G13040   1.278  -0.015   5.188  0.2468  1.5627 -0.4893
   9623SM  C15F13041   1.466   0.019   5.265  0.9836  0.9767  0.2493
   9623SM  H15F13042   1.436  -0.023   5.364 -0.0528 -1.4802 -1.0135
   9623SM  H15G13043   1.448   0.128   5.263  0.5783  0.9045 -0.9508
   9623SM  C16F13044   1.607  -0.044   5.256  0.0466 -0.1565 -0.0504
   9623SM  H16F13045   1.679   0.001   5.328  1.3111 -0.4574 -1.0752
   9623SM  H16G13046   1.658  -0.014   5.161 -1.6291  2.1177 -0.3216
   9623SM  C17F13047   1.618  -0.197   5.263  0.6807  0.1966 -0.1625
   9623SM  H17F13048   1.723  -0.227   5.242  0.6712 -0.1561  0.2966
   9623SM  H17G13049   1.562  -0.237   5.176  1.5430  0.9183 -1.0781
   9623SM  C18F13050   1.566  -0.251   5.402 -0.2372 -0.4468  0.4013
   9623SM  H18F13051   1.457  -0.229   5.401 -0.2273 -0.1158 -2.1388
   9623SM  H18G13052   1.629  -0.201   5.478  1.0019  0.4982 -1.1734
   9623SM  C19F13053   1.578  -0.404   5.408  0.3473  0.1557  0.1396
   9623SM  H19F13054   1.540  -0.441   5.310  1.0995 -1.0440  0.2851
   9623SM  H19G13055   1.518  -0.443   5.493  0.6699  0.6617  0.6081
   9623SM  C20F13056   1.719  -0.447   5.439 -0.5189  0.2935  0.0393
   9623SM  H20F13057   1.759  -0.386   5.523  1.7085  0.2199 -0.9053
   9623SM  H20G13058   1.787  -0.425   5.354 -0.1060  0.8087  0.4951
   9623SM  C21F13059   1.722  -0.594   5.482  0.1490  0.0666  0.2391
   9623SM  H21F13060   1.670  -0.648   5.400  1.8563 -2.0553  0.4593
   9623SM  H21G13061   1.666  -0.620   5.574  0.1800 -0.8833 -0.0035
   9623SM  C22F13062   1.856  -0.657   5.509 -0.4718  0.1403 -0.0298
   9623SM  H22F13063   1.896  -0.585   5.584 -2.6733  1.7507 -0.3016
   9623SM  H22G13064   1.930  -0.652   5.427  1.7402  2.2314  1.9117
   9623SM  C23F13065   1.842  -0.794   5.569 -0.6477 -0.4024 -0.3444
   9623SM  H23F13066   1.768  -0.856   5.514 -1.0935 -0.1722 -0.0152
   9623SM  H23G13067   1.822  -0.788   5.678 -1.7566  0.3674 -0.5750
   9623SM  H23H13068   1.940  -0.845   5.560 -1.2207 -1.3755 -1.1781
   9723SM     N13069   2.856   7.589   2.891 -0.2654 -0.3348  0.0857
   9723SM   C1513070   2.997   7.591   2.929  0.2529  0.2411  0.2179
   9723SM  H15A13071   3.035   7.490   2.934 -0.3357 -0.0484 -0.8991
   9723SM  H15B13072   3.006   7.645   3.022  0.8519  0.8933 -0.2033
   9723SM  H15C13073   3.067   7.633   2.858  0.5173  0.7197  0.7512
   9723SM   C1413074   2.818   7.734   2.862 -0.6263  0.5295 -0.0441
   9723SM  H14A13075   2.716   7.749   2.832 -1.3054  1.2004  2.3445
   9723SM  H14B13076   2.878   7.769   2.779 -1.1682 -1.2965 -1.2656
   9723SM  H14C13077   2.842   7.791   2.951 -0.0011  0.5184 -0.2000
   9723SM   C1313078   2.837   7.503   2.770  0.0791  0.0391 -0.2894
   9723SM  H13A13079   2.857   7.399   2.792 -1.0091 -0.1380 -0.0757
   9723SM  H13B13080   2.899   7.534   2.688  0.7756 -0.2012  0.1342
   9723SM  H13C13081   2.736   7.507   2.731  0.0992  1.8904 -0.1966
   9723SM   C1213082   2.780   7.520   3.005 -0.4186 -0.8276 -0.2714
   9723SM  H12A13083   2.830   7.433   3.045  1.3129  0.8757  1.5243
   9723SM  H12B13084   2.686   7.488   2.962 -0.6984 -1.4234  0.7433
   9723SM   C1113085   2.740   7.602   3.124 -0.0597 -0.0135 -0.6349
   9723SM  H11A13086   2.653   7.552   3.171 -1.3293  0.1908 -2.6378
   9723SM  H11B13087   2.693   7.701   3.100 -1.0925 -0.2761  0.2163
   9723SM     P13088   2.906   7.488   3.284 -0.2095  0.2104  0.1810
   9723SM   O1313089   2.940   7.383   3.187 -0.6512 -0.3267  0.3290
   9723SM   O1413090   3.007   7.531   3.384  0.4080 -0.1335  0.2009
   9723SM   O1113091   2.792   7.423   3.365  0.4402  0.0928  0.0266
   9723SM   O1213092   2.849   7.618   3.215 -0.2779 -0.1738 -0.0238
   9723SM   C1S13093   2.824   7.376   3.498 -0.0041  0.1577 -0.6925
   9723SM   H1S13094   2.927   7.397   3.533 -1.0926  1.2951  2.1385
   9723SM   H1T13095   2.810   7.266   3.498 -1.3604  0.3126 -0.4996
   9723SM    NF13096   2.758   7.408   3.745 -0.6789 -0.0027 -0.2457
   9723SM   HNF13097   2.688   7.360   3.799  1.1076 -1.2327  1.0883
   9723SM   C2S13098   2.729   7.449   3.604  0.0403  0.0419  0.4579
   9723SM   H2S13099   2.759   7.554   3.589 -0.4027  0.3685  1.6970
   9723SM   C3S13100   2.577   7.430   3.556 -0.0095  0.5609  0.4606
   9723SM   H3S13101   2.555   7.321   3.552  3.3906 -0.2184 -0.5424
   9723SM    O313102   2.552   7.477   3.421  0.2971 -0.1035 -0.2445
   9723SM   HO313103   2.636   7.500   3.380  0.4038 -1.7123 -1.0220
   9723SM   C4S13104   2.486   7.504   3.647  0.2297 -0.2870 -0.0848
   9723SM   H4S13105   2.484   7.614   3.640  0.2930 -0.1870  1.2540
   9723SM   C5S13106   2.397   7.446   3.731 -0.4369  0.7244 -0.2859
   9723SM   H5S13107   2.397   7.336   3.719  2.1664  0.4914  1.2552
   9723SM   C6S13108   2.298   7.526   3.810 -0.3467 -0.1416 -0.3998
   9723SM   H6S13109   2.193   7.499   3.783 -1.6295  2.6341  1.3293
   9723SM   H6T13110   2.297   7.634   3.783  0.9080  0.1683  0.7320
   9723SM   C7S13111   2.327   7.516   3.956  0.3531 -0.3608 -0.3890
   9723SM   H7S13112   2.419   7.574   3.977 -0.2295  1.3527 -2.2003
   9723SM   H7T13113   2.354   7.411   3.977 -0.5190 -0.6224 -0.5448
   9723SM   C8S13114   2.200   7.564   4.031 -0.7588  0.2227  0.1800
   9723SM   H8S13115   2.108   7.516   3.990 -0.9761  0.8758 -0.1095
   9723SM   H8T13116   2.182   7.671   4.009  2.1811  0.5579 -1.0740
   9723SM   C9S13117   2.204   7.554   4.186  0.9248  0.1273  0.2173
   9723SM   H9S13118   2.306   7.578   4.222  0.7718  2.8284 -0.8941
   9723SM   H9T13119   2.185   7.448   4.213 -0.0422 -0.1697 -1.4603
   9723SM  C10S13120   2.103   7.643   4.263  0.2325  0.0949 -0.2370
   9723SM  H10S13121   2.001   7.606   4.240  1.0605 -3.3403  1.0095
   9723SM  H10T13122   2.107   7.748   4.226 -0.1814  0.1905 -0.0095
   9723SM  C11S13123   2.139   7.661   4.418 -0.2953  0.0934  0.1964
   9723SM  H11S13124   2.248   7.679   4.433  0.0460  0.9421 -2.7800
   9723SM  H11T13125   2.123   7.560   4.462  2.6049  0.0403  1.4122
   9723SM  C12S13126   2.048   7.765   4.478  0.6712 -0.5287  0.9701
   9723SM  H12S13127   1.949   7.766   4.427  1.3378 -2.2390 -0.4636
   9723SM  H12T13128   2.087   7.868   4.475 -0.5597 -0.0533  0.6391
   9723SM  C13S13129   2.014   7.724   4.624 -0.2272 -0.4155 -0.1427
   9723SM  H13S13130   1.997   7.617   4.643  1.1825 -0.6871 -0.2464
   9723SM  H13T13131   1.925   7.785   4.650  0.4017  0.8012 -0.7339
   9723SM  C14S13132   2.122   7.763   4.727  0.1591  0.4361  0.7715
   9723SM  H14S13133   2.138   7.870   4.703 -1.0670  0.6182  0.7345
   9723SM  H14T13134   2.218   7.713   4.700  0.2234  0.7655  0.3897
   9723SM  C15S13135   2.082   7.743   4.871  0.6679 -0.6557 -0.3465
   9723SM  H15S13136   2.166   7.758   4.941 -1.7999  3.2559  2.1605
   9723SM  H15T13137   2.044   7.640   4.888  0.2934 -0.2300  1.6373
   9723SM  C16S13138   1.968   7.838   4.911 -0.1107  0.4384 -0.0891
   9723SM  H16S13139   1.878   7.810   4.853  0.7817 -1.1191 -0.7903
   9723SM  H16T13140   1.996   7.944   4.895  3.1444 -0.3668 -0.4158
   9723SM  C17S13141   1.936   7.836   5.064 -0.0740  0.5941 -0.2290
   9723SM  H17S13142   2.037   7.837   5.109  0.0739 -0.1294 -0.5354
   9723SM  H17T13143   1.878   7.749   5.103  0.7072  1.6954  3.8272
   9723SM  C18S13144   1.855   7.961   5.113  0.2298  0.0738 -0.2430
   9723SM  H18S13145   1.840   7.965   5.223  0.5298  1.4791 -0.2296
   9723SM  H18T13146   1.755   7.967   5.065 -0.9273 -0.8182  1.9081
   9723SM  H18U13147   1.923   8.046   5.093 -1.1410  0.8917 -1.6229
   9723SM   C1F13148   2.875   7.434   3.811  0.2847 -0.3745  0.6453
   9723SM    OF13149   2.951   7.505   3.748  0.0904 -0.2268 -0.0275
   9723SM   C2F13150   2.899   7.382   3.945 -0.6520  0.2608  0.1959
   9723SM   H2F13151   2.892   7.272   3.938 -1.8121  0.1838  1.9182
   9723SM   H2G13152   2.820   7.422   4.012 -0.9863  1.4216 -0.8500
   9723SM   C3F13153   3.042   7.428   3.999 -0.0949 -0.0646  0.4066
   9723SM   H3F13154   3.034   7.535   4.028 -1.0776 -0.1771  0.5976
   9723SM   H3G13155   3.115   7.419   3.916 -0.2845 -0.6103  0.2939
   9723SM   C4F13156   3.079   7.342   4.126 -0.0272  0.7788  0.8195
   9723SM   H4F13157   3.190   7.342   4.140 -0.2314 -0.8734  2.8386
   9723SM   H4G13158   3.036   7.242   4.107  1.8888 -0.0853  0.8282
   9723SM   C5F13159   3.020   7.413   4.251  0.8436  0.1397 -0.0368
   9723SM   H5F13160   2.910   7.428   4.245  0.9137  0.5910 -0.1763
   9723SM   H5G13161   3.058   7.517   4.247 -0.3233  0.5532 -0.6804
   9723SM   C6F13162   3.064   7.343   4.378 -0.2817 -0.4036  0.3822
   9723SM   H6F13163   3.055   7.232   4.373 -0.7366 -0.3137 -1.4685
   9723SM   H6G13164   2.997   7.387   4.455  0.3115  1.2682 -0.0325
   9723SM   C7F13165   3.207   7.385   4.411 -0.2264 -0.2862 -0.8030
   9723SM   H7F13166   3.219   7.492   4.386  1.8060 -0.0853  0.8049
   9723SM   H7G13167   3.280   7.334   4.344  0.5867  1.8252 -1.5885
   9723SM   C8F13168   3.248   7.370   4.554 -0.6096 -0.4117 -0.7915
   9723SM   H8F13169   3.205   7.461   4.602 -0.2988  0.7583 -2.6180
   9723SM   H8G13170   3.357   7.386   4.562 -0.6195 -1.0803  1.3541
   9723SM   C9F13171   3.217   7.239   4.635  0.2252  0.2690 -0.5555
   9723SM   H9F13172   3.266   7.153   4.584  1.1353  0.0921  0.5769
   9723SM   H9G13173   3.109   7.217   4.624  0.3362 -0.3964 -0.3736
   9723SM  C10F13174   3.258   7.240   4.785  0.0929  0.3105 -0.6007
   9723SM  H10F13175   3.177   7.201   4.850  0.8571 -1.3211 -0.5906
   9723SM  H10G13176   3.295   7.341   4.815  2.6161 -1.0284  1.1853
   9723SM  C11F13177   3.390   7.148   4.808  0.9148 -0.7878 -0.0420
   9723SM  H11F13178   3.469   7.191   4.743 -1.0118  0.1559 -1.8974
   9723SM  H11G13179   3.370   7.044   4.773 -0.0336 -0.5498 -0.2319
   9723SM  C12F13180   3.425   7.152   4.955 -0.3714 -0.1754 -1.3917
   9723SM  H12F13181   3.348   7.110   5.023  2.7468  1.1490  3.4267
   9723SM  H12G13182   3.435   7.259   4.981 -1.6164 -0.7593  2.0467
   9723SM  C13F13183   3.560   7.085   4.988  1.2263  0.6064  0.7417
   9723SM  H13F13184   3.626   7.117   4.905 -0.5688 -0.0997 -1.0400
   9723SM  H13G13185   3.567   6.976   4.972 -0.1673  0.8624 -2.2879
   9723SM  C14F13186   3.626   7.136   5.115 -0.5865  0.1155 -0.7798
   9723SM  H14F13187   3.581   7.083   5.201 -2.0891 -0.6517 -1.9934
   9723SM  H14G13188   3.615   7.246   5.126  1.2267  0.3403 -0.9058
   9723SM  C15F13189   3.778   7.122   5.126 -0.1426 -0.3593  0.3815
   9723SM  H15F13190   3.817   7.200   5.194  1.7067 -2.3391  1.7480
   9723SM  H15G13191   3.831   7.141   5.031  0.6349  1.9058  1.2056
   9723SM  C16F13192   3.822   6.989   5.187 -0.6857  0.1837 -0.3315
   9723SM  H16F13193   3.814   6.903   5.118  1.1429 -0.5958  0.3660
   9723SM  H16G13194   3.768   6.973   5.283  2.6776 -2.0086  1.3677
   9723SM  C17F13195   3.966   6.988   5.244 -0.3731  0.3349  0.2922
   9723SM  H17F13196   3.988   6.882   5.269 -0.6221 -0.1123 -1.2642
   9723SM  H17G13197   3.981   7.044   5.339  1.0427 -1.6230  1.3029
   9723SM  C18F13198   4.076   7.045   5.150  0.2428  0.1379 -0.1427
   9723SM  H18F13199   4.055   7.153   5.134  0.3493  0.0635 -0.8089
   9723SM  H18G13200   4.070   6.992   5.052  0.5134 -0.6937  0.2840
   9723SM  C19F13201   4.226   7.023   5.194  0.1736 -0.3003 -0.2692
   9723SM  H19F13202   4.292   7.037   5.105  0.6950 -3.0222 -0.3806
   9723SM  H19G13203   4.252   6.918   5.216  0.1556 -0.4558 -0.9567
   9723SM  C20F13204   4.277   7.115   5.304 -0.3909  0.9521 -0.1631
   9723SM  H20F13205   4.191   7.138   5.371  1.7434 -1.6272  3.8222
   9723SM  H20G13206   4.329   7.203   5.258  1.3705  0.4490  0.7956
   9723SM  C21F13207   4.387   7.042   5.390 -0.2745  1.0772 -0.0134
   9723SM  H21F13208   4.458   7.119   5.427  1.4973 -1.3379  1.9300
   9723SM  H21G13209   4.454   6.987   5.320  0.8231  1.4854  0.6833
   9723SM  C22F13210   4.329   6.951   5.496 -0.1987 -0.1635  0.5776
   9723SM  H22F13211   4.267   6.874   5.445  1.6603 -0.5143 -1.2900
   9723SM  H22G13212   4.258   7.012   5.555 -0.6399 -0.0547 -0.0506
   9723SM  C23F13213   4.421   6.883   5.598 -0.5773 -0.7661  0.1167
   9723SM  H23F13214   4.522   6.854   5.563  0.1023 -0.7054  1.9016
   9723SM  H23G13215   4.377   6.801   5.660  1.2086 -0.4326  1.9095
   9723SM  H23H13216   4.433   6.950   5.686 -0.6653 -1.6889  0.8524
   9823SM     N13217   5.219   7.548   2.708  0.8959  0.3293 -0.3049
   9823SM   C1513218   5.176   7.453   2.805  0.3721  0.1124 -0.9943
   9823SM  H15A13219   5.259   7.385   2.819  0.4183  0.2931 -0.3925
   9823SM  H15B13220   5.102   7.377   2.781  1.8264 -1.7893  0.2889
   9823SM  H15C13221   5.148   7.503   2.896 -1.2200 -2.2112 -0.1158
   9823SM   C1413222   5.239   7.482   2.579  0.0348 -0.3898  0.3728
   9823SM  H14A13223   5.248   7.554   2.498 -0.4240  0.4924  1.0886
   9823SM  H14B13224   5.150   7.430   2.547 -1.0589  1.9046 -0.6228
   9823SM  H14C13225   5.328   7.423   2.591  1.7424  2.0895  0.7012
   9823SM   C1313226   5.104   7.651   2.682 -0.7925  0.3510 -0.2175
   9823SM  H13A13227   5.100   7.716   2.768 -2.3549 -1.1054  0.8866
   9823SM  H13B13228   5.001   7.620   2.674 -0.4485 -0.7100 -0.6649
   9823SM  H13C13229   5.122   7.696   2.586  1.0107 -1.8610 -1.0012
   9823SM   C1213230   5.348   7.615   2.754 -0.0429  0.2393  0.3736
   9823SM  H12A13231   5.332   7.664   2.849 -0.6457  1.1360 -0.1665
   9823SM  H12B13232   5.382   7.692   2.687  1.1972 -0.3221  0.3467
   9823SM   C1113233   5.471   7.531   2.786 -0.3587 -0.2228  0.0725
   9823SM  H11A13234   5.555   7.601   2.809 -1.4763  0.8152  1.1792
   9823SM  H11B13235   5.492   7.480   2.690 -0.0492  1.2795 -0.6963
   9823SM     P13236   5.505   7.292   2.892  0.0911  0.0213  0.3093
   9823SM   O1313237   5.433   7.202   2.794 -0.3602 -0.3684  0.0081
   9823SM   O1413238   5.653   7.327   2.879  0.0952  0.0301 -0.0785
   9823SM   O1113239   5.464   7.248   3.046 -0.7787  0.0635 -0.1923
   9823SM   O1213240   5.435   7.438   2.891 -0.0439 -0.0437  0.4094
   9823SM   C1S13241   5.576   7.198   3.110 -0.3246  0.1731 -0.5017
   9823SM   H1S13242   5.661   7.270   3.118  0.1185  0.0732 -3.3019
   9823SM   H1T13243   5.618   7.107   3.062 -0.0862  0.8861 -1.6883
   9823SM    NF13244   5.660   7.137   3.337 -0.3405 -0.4810 -0.0177
   9823SM   HNF13245   5.683   7.047   3.373 -0.0610 -0.4851 -0.1985
   9823SM   C2S13246   5.542   7.144   3.254  0.5798 -0.9466  0.1872
   9823SM   H2S13247   5.474   7.220   3.298  2.7855  1.0316  0.3771
   9823SM   C3S13248   5.468   7.008   3.232  0.1314  0.4905 -0.1037
   9823SM   H3S13249   5.551   6.934   3.226 -1.0873 -0.9028 -0.5372
   9823SM    O313250   5.396   6.983   3.110 -0.0707  0.1802 -0.2999
   9823SM   HO313251   5.407   7.063   3.057 -1.0986  0.2194 -0.4834
   9823SM   C4S13252   5.370   6.970   3.339 -0.1688  0.7543 -0.6156
   9823SM   H4S13253   5.277   7.029   3.349 -0.5916 -0.0458  0.2479
   9823SM   C5S13254   5.397   6.865   3.417 -0.4159 -0.6587  0.1767
   9823SM   H5S13255   5.486   6.807   3.390  0.3786 -0.5599  2.3812
   9823SM   C6S13256   5.309   6.821   3.530  0.4799  0.1609  0.3510
   9823SM   H6S13257   5.347   6.726   3.575  2.6079  1.2704  1.0464
   9823SM   H6T13258   5.208   6.810   3.484 -0.1647  0.1774  1.7235
   9823SM   C7S13259   5.290   6.925   3.640  0.3249 -0.5585  0.2214
   9823SM   H7S13260   5.233   7.015   3.610  0.1853 -0.0245  1.9486
   9823SM   H7T13261   5.391   6.961   3.666  0.2148 -1.1834  1.6421
   9823SM   C8S13262   5.238   6.856   3.766  0.1486  0.3972 -0.1742
   9823SM   H8S13263   5.251   6.747   3.780  0.6894  0.0797 -2.7265
   9823SM   H8T13264   5.129   6.869   3.749  0.0330 -1.8661 -1.4482
   9823SM   C9S13265   5.281   6.932   3.892  0.2968  1.2534  0.0810
   9823SM   H9S13266   5.253   7.038   3.872 -2.3706  0.1318 -2.8663
   9823SM   H9T13267   5.391   6.928   3.911  0.6783  0.5489 -2.0658
   9823SM  C10S13268   5.211   6.903   4.021  0.7222 -0.5461  0.2323
   9823SM  H10S13269   5.221   6.795   4.045 -2.7262 -1.0568 -0.0564
   9823SM  H10T13270   5.103   6.921   4.003  0.5137 -1.1678  0.7884
   9823SM  C11S13271   5.255   7.000   4.130  0.3875  0.4482 -0.4497
   9823SM  H11S13272   5.173   7.017   4.204  1.5222  0.6467  0.8096
   9823SM  H11T13273   5.283   7.103   4.099 -0.8932  0.3045 -2.2540
   9823SM  C12S13274   5.361   6.932   4.220  0.1794  0.7548  1.1213
   9823SM  H12S13275   5.456   6.912   4.166 -0.1340  0.0243  0.8158
   9823SM  H12T13276   5.317   6.841   4.266 -1.0599  0.8294  0.1419
   9823SM  C13S13277   5.396   7.017   4.339 -0.6566  0.6997 -0.0483
   9823SM  H13S13278   5.305   7.054   4.391 -1.1365 -0.0285 -0.3578
   9823SM  H13T13279   5.456   7.097   4.292 -0.7416  0.6970 -0.1613
   9823SM  C14S13280   5.484   6.951   4.447  0.4912 -0.1511 -0.3906
   9823SM  H14S13281   5.551   7.026   4.495  2.1037 -1.2999 -0.7466
   9823SM  H14T13282   5.547   6.872   4.402 -0.5245 -1.0673 -0.2502
   9823SM  C15S13283   5.392   6.901   4.561 -0.7794  0.7230 -0.0454
   9823SM  H15S13284   5.308   6.855   4.505  0.0415 -2.8995  1.4056
   9823SM  H15T13285   5.353   6.988   4.618 -1.1195  0.7915 -0.3778
   9823SM  C16S13286   5.477   6.807   4.654  0.7279  0.5717  0.1218
   9823SM  H16S13287   5.411   6.797   4.742  0.2344 -0.8671 -0.3786
   9823SM  H16T13288   5.574   6.858   4.675  0.8491 -0.0171  1.0100
   9823SM  C17S13289   5.499   6.670   4.595 -0.8025 -0.3629  0.8143
   9823SM  H17S13290   5.569   6.686   4.510  0.8476 -2.8993  1.5791
   9823SM  H17T13291   5.400   6.637   4.556 -1.8313  1.1723  2.0026
   9823SM  C18S13292   5.546   6.562   4.691 -0.0840  0.5643 -0.3075
   9823SM  H18S13293   5.651   6.558   4.725 -0.3100  0.6367  0.4178
   9823SM  H18T13294   5.522   6.466   4.640 -1.7482  1.8262 -2.0883
   9823SM  H18U13295   5.482   6.558   4.782 -0.2797  1.8494 -0.3776
   9823SM   C1F13296   5.716   7.251   3.379 -0.8287 -0.0530  1.0089
   9823SM    OF13297   5.679   7.360   3.340 -0.4326  0.0180  0.2536
   9823SM   C2F13298   5.822   7.238   3.485 -0.6750  0.4679 -0.0411
   9823SM   H2F13299   5.922   7.248   3.437 -0.8059 -0.5200 -0.5403
   9823SM   H2G13300   5.824   7.134   3.524  2.9944  0.6595  0.6296
   9823SM   C3F13301   5.806   7.346   3.601  0.1436  0.5781  0.0581
   9823SM   H3F13302   5.708   7.319   3.646 -0.8408  0.6846 -1.8808
   9823SM   H3G13303   5.799   7.447   3.556 -1.9973  0.8281  0.8033
   9823SM   C4F13304   5.924   7.346   3.701  0.2747  0.0527 -0.4646
   9823SM   H4F13305   6.023   7.325   3.654  0.6047 -1.1070  0.7007
   9823SM   H4G13306   5.903   7.266   3.774  0.1650  0.3486 -0.1696
   9823SM   C5F13307   5.940   7.486   3.765 -0.1078 -0.0400 -0.0207
   9823SM   H5F13308   5.836   7.523   3.782 -0.6126 -1.4844  0.1795
   9823SM   H5G13309   5.983   7.545   3.681  0.0588 -2.1948 -1.5652
   9823SM   C6F13310   6.026   7.495   3.893 -0.0888  0.4820 -0.6747
   9823SM   H6F13311   6.077   7.593   3.892  0.1872  0.3908  1.0595
   9823SM   H6G13312   6.102   7.414   3.888 -1.7939 -1.1833 -0.7418
   9823SM   C7F13313   5.930   7.487   4.021 -1.1008  0.0729  0.1746
   9823SM   H7F13314   5.858   7.404   4.008  2.2021 -3.1160  0.7378
   9823SM   H7G13315   5.867   7.576   4.045  1.7122  2.1859  0.1893
   9823SM   C8F13316   6.021   7.477   4.152 -0.0260 -0.2418 -0.0780
   9823SM   H8F13317   6.084   7.565   4.176 -0.4374 -0.3248  1.4213
   9823SM   H8G13318   6.101   7.403   4.135  0.7684  0.6967 -0.5249
   9823SM   C9F13319   5.935   7.435   4.271  0.3008  0.1430  0.6863
   9823SM   H9F13320   5.884   7.348   4.224 -0.8058  1.2059 -0.1125
   9823SM   H9G13321   5.854   7.507   4.292 -1.1726 -1.3331  0.2507
   9823SM  C10F13322   6.022   7.392   4.393  1.3485 -0.0218 -0.1597
   9823SM  H10F13323   6.111   7.459   4.400  0.9654  0.8010 -2.3614
   9823SM  H10G13324   6.063   7.295   4.357 -0.6859 -0.8907 -0.2316
   9823SM  C11F13325   5.946   7.389   4.531 -0.0327  0.7032  0.9632
   9823SM  H11F13326   6.006   7.342   4.612  0.5568 -1.5429 -0.6745
   9823SM  H11G13327   5.858   7.321   4.520  1.7285 -1.5995  0.1463
   9823SM  C12F13328   5.891   7.526   4.583 -0.2052  0.5124 -0.8855
   9823SM  H12F13329   5.826   7.512   4.672  0.4898  0.2169 -0.4205
   9823SM  H12G13330   5.826   7.575   4.507  0.4600  3.5893  0.3810
   9823SM  C13F13331   6.018   7.624   4.597  0.6599 -0.2198  0.0431
   9823SM  H13F13332   6.062   7.651   4.499  0.4631 -1.6933 -0.4759
   9823SM  H13G13333   6.100   7.575   4.652  2.3277  2.7337  0.3784
   9823SM  C14F13334   5.986   7.748   4.679  0.7316 -0.0152  1.0029
   9823SM  H14F13335   5.914   7.814   4.626 -1.2210 -2.2135  0.7642
   9823SM  H14G13336   6.083   7.800   4.689 -0.6375  3.0939 -0.5589
   9823SM  C15F13337   5.916   7.714   4.816  0.1077  0.1866 -0.0348
   9823SM  H15F13338   5.972   7.636   4.871 -0.7995 -0.5709 -0.1787
   9823SM  H15G13339   5.817   7.671   4.794  0.6881 -0.8816 -0.6189
   9823SM  C16F13340   5.881   7.844   4.884 -0.2581  0.3400  0.2739
   9823SM  H16F13341   5.848   7.929   4.820 -0.2349  0.1711  0.0362
   9823SM  H16G13342   5.977   7.875   4.929  0.5219 -0.1118 -1.0287
   9823SM  C17F13343   5.775   7.817   4.995  0.7927  0.2794  0.3725
   9823SM  H17F13344   5.835   7.767   5.074  1.6026 -0.3006 -0.5954
   9823SM  H17G13345   5.702   7.747   4.949  0.2769  0.3933  1.0014
   9823SM  C18F13346   5.712   7.950   5.033  0.5559 -0.5749 -0.7072
   9823SM  H18F13347   5.651   8.007   4.960  0.0088  2.8746  2.1249
   9823SM  H18G13348   5.800   8.018   5.039  0.5855 -0.5937 -0.9312
   9823SM  C19F13349   5.622   7.943   5.161  0.0581 -0.5959  0.1632
   9823SM  H19F13350   5.682   7.921   5.252  0.7449  1.8936  0.3764
   9823SM  H19G13351   5.556   7.855   5.147 -1.1113 -0.0540  1.9642
   9823SM  C20F13352   5.554   8.078   5.195  0.1043  0.0334  0.3695
   9823SM  H20F13353   5.495   8.075   5.290 -2.5198  0.2110 -1.1464
   9823SM  H20G13354   5.478   8.067   5.114  0.0648  1.3701  0.2105
   9823SM  C21F13355   5.646   8.202   5.188  0.3023  0.4549 -0.3404
   9823SM  H21F13356   5.711   8.198   5.098 -0.0654 -0.3950 -0.5732
   9823SM  H21G13357   5.707   8.200   5.280 -0.3246 -1.3799  0.0673
   9823SM  C22F13358   5.570   8.333   5.192 -0.3671 -0.1916 -0.6090
   9823SM  H22F13359   5.504   8.333   5.281  2.5460  1.2877  1.7178
   9823SM  H22G13360   5.514   8.347   5.097 -2.9062 -1.0018  0.6855
   9823SM  C23F13361   5.664   8.440   5.230 -0.7006 -0.1493  0.5817
   9823SM  H23F13362   5.605   8.529   5.260 -2.8243 -1.7843  1.5932
   9823SM  H23G13363   5.736   8.456   5.147 -1.8175 -1.5295 -0.7212
   9823SM  H23H13364   5.724   8.411   5.320 -0.5887  0.6382  0.7650
   9923SM     N13365   7.569   7.339   2.654  0.5294  0.1468  0.4294
   9923SM   C1513366   7.566   7.345   2.498 -0.2328  0.0748 -0.6928
   9923SM  H15A13367   7.657   7.304   2.455  0.5211  1.7026 -0.7443
   9923SM  H15B13368   7.557   7.445   2.458  2.2579  0.3721 -0.6764
   9923SM  H15C13369   7.495   7.273   2.461  0.2603 -0.8817  0.1640
   9923SM   C1413370   7.680   7.417   2.709 -0.0227  0.1607  0.1345
   9923SM  H14A13371   7.651   7.522   2.708 -0.9273 -0.0520  1.3780
   9923SM  H14B13372   7.776   7.393   2.667 -0.0628  0.5498 -0.1912
   9923SM  H14C13373   7.688   7.389   2.813  1.2697 -0.6601 -0.1703
   9923SM   C1313374   7.435   7.397   2.694  0.3795  0.6503  0.0783
   9923SM  H13A13375   7.362   7.321   2.670  1.3098  0.0716 -1.0390
   9923SM  H13B13376   7.418   7.496   2.654  1.6790  1.5014  1.5069
   9923SM  H13C13377   7.429   7.425   2.798  0.7357  1.0814 -0.0121
   9923SM   C1213378   7.592   7.200   2.701  0.4103 -0.3751 -0.4740
   9923SM  H12A13379   7.633   7.196   2.801  1.4335  2.1809 -0.7225
   9923SM  H12B13380   7.672   7.166   2.636  1.7045  1.8398 -0.1450
   9923SM   C1113381   7.480   7.090   2.685 -0.1162 -0.4357  0.1636
   9923SM  H11A13382   7.526   6.998   2.726  0.0216  0.0771  1.1968
   9923SM  H11B13383   7.466   7.067   2.578  1.4725  1.2447 -0.4712
   9923SM     P13384   7.243   7.036   2.728 -0.0431  0.3210  0.3270
   9923SM   O1313385   7.180   7.083   2.604 -0.0337  0.2782  0.1667
   9923SM   O1413386   7.283   6.888   2.737 -0.1834  0.8039  0.7746
   9923SM   O1113387   7.138   7.059   2.850 -0.7144 -0.6505 -0.1079
   9923SM   O1213388   7.361   7.128   2.760  0.2594  0.1581  0.3027
   9923SM   C1S13389   7.177   7.089   2.981 -0.6853  0.1570  0.1781
   9923SM   H1S13390   7.192   7.199   2.988  1.0860 -0.0613  0.2945
   9923SM   H1T13391   7.268   7.035   3.014 -0.2892  0.2559 -0.7443
   9923SM    NF13392   7.068   7.133   3.196  0.4501  0.5858  0.0880
   9923SM   HNF13393   7.100   7.090   3.280 -2.4289 -0.0723  0.9464
   9923SM   C2S13394   7.061   7.052   3.079  0.3860 -0.7731  0.1838
   9923SM   H2S13395   6.963   7.082   3.036  2.1634  0.9221 -3.0624
   9923SM   C3S13396   7.065   6.897   3.101 -0.1281  0.1846 -0.3714
   9923SM   H3S13397   7.169   6.879   3.136 -1.2087 -1.2127  2.4452
   9923SM    O313398   7.029   6.825   2.985 -0.3247 -0.0883 -0.4525
   9923SM   HO313399   7.070   6.881   2.920 -0.3474  0.8620  0.3323
   9923SM   C4S13400   6.969   6.858   3.212 -0.1808  0.5589 -0.0997
   9923SM   H4S13401   7.023   6.840   3.307  0.8402 -1.9927 -1.0665
   9923SM   C5S13402   6.836   6.832   3.208  0.2485  0.8078  1.1740
   9923SM   H5S13403   6.784   6.832   3.111  1.3571  1.1374  0.5691
   9923SM   C6S13404   6.749   6.784   3.324 -0.4046 -0.1097  0.5830
   9923SM   H6S13405   6.674   6.710   3.289  1.4211 -1.1234 -1.4205
   9923SM   H6T13406   6.711   6.872   3.379 -1.5937 -1.1093  1.4168
   9923SM   C7S13407   6.839   6.716   3.436 -0.5436  0.3777 -1.0342
   9923SM   H7S13408   6.891   6.802   3.484  0.0062  1.0772 -2.8114
   9923SM   H7T13409   6.915   6.653   3.384 -2.2260 -0.7711 -2.2273
   9923SM   C8S13410   6.756   6.637   3.543 -0.3811 -0.1225  0.4309
   9923SM   H8S13411   6.824   6.569   3.597  0.4626  0.8363  0.5963
   9923SM   H8T13412   6.681   6.574   3.490  1.0120 -0.8850 -0.7133
   9923SM   C9S13413   6.683   6.724   3.649 -0.0793 -0.0804  0.2505
   9923SM   H9S13414   6.631   6.802   3.589  0.1338 -0.3465 -0.2845
   9923SM   H9T13415   6.762   6.755   3.721 -0.1718  1.0884 -0.1323
   9923SM  C10S13416   6.576   6.647   3.733  0.2761 -0.1516 -0.3596
   9923SM  H10S13417   6.611   6.547   3.765 -3.4912 -1.2087  1.0014
   9923SM  H10T13418   6.484   6.627   3.673 -0.4503 -0.7982  0.9205
   9923SM  C11S13419   6.518   6.719   3.852  1.0807 -0.2590  0.0588
   9923SM  H11S13420   6.497   6.823   3.819 -1.3552 -0.5959  0.3547
   9923SM  H11T13421   6.600   6.736   3.925  2.0925 -0.8785 -0.9059
   9923SM  C12S13422   6.385   6.654   3.898  0.3115 -0.1220 -0.2192
   9923SM  H12S13423   6.401   6.544   3.887  2.9924 -0.0428  1.9047
   9923SM  H12T13424   6.296   6.679   3.836  0.2979 -1.6341 -0.8702
   9923SM  C13S13425   6.352   6.677   4.045 -0.4218 -0.4402 -0.3688
   9923SM  H13S13426   6.365   6.786   4.062 -1.3442 -0.4175  0.2997
   9923SM  H13T13427   6.423   6.625   4.112 -2.6612 -1.8146  1.0509
   9923SM  C14S13428   6.211   6.625   4.082  0.2326 -0.0352  0.6153
   9923SM  H14S13429   6.207   6.523   4.038 -1.1634  0.0392  0.5417
   9923SM  H14T13430   6.134   6.687   4.031  0.0463  0.8948  1.9874
   9923SM  C15S13431   6.174   6.623   4.229 -0.2038  0.3971 -0.5734
   9923SM  H15S13432   6.156   6.727   4.264 -0.8173  0.8643 -2.1971
   9923SM  H15T13433   6.253   6.576   4.291 -0.2885 -1.5377 -1.8624
   9923SM  C16S13434   6.052   6.544   4.264 -0.3231  0.3204 -0.4114
   9923SM  H16S13435   6.049   6.542   4.375  2.8251  1.2821 -0.1967
   9923SM  H16T13436   6.060   6.438   4.230 -0.9632  0.7093 -1.8277
   9923SM  C17S13437   5.923   6.599   4.211  0.4160  0.1949  0.5337
   9923SM  H17S13438   5.916   6.589   4.101 -2.4392 -4.4901  0.8600
   9923SM  H17T13439   5.906   6.708   4.224  0.1461  0.5464 -2.2109
   9923SM  C18S13440   5.793   6.547   4.270 -0.1685  0.1989  0.4866
   9923SM  H18S13441   5.694   6.581   4.234  0.1552 -0.3958 -1.0270
   9923SM  H18T13442   5.796   6.567   4.379 -2.5891  3.2870  0.1221
   9923SM  H18U13443   5.790   6.436   4.256 -0.8864  0.2916 -0.1525
   9923SM   C1F13444   7.032   7.257   3.196 -0.1190 -0.6010  0.5127
   9923SM    OF13445   6.975   7.310   3.098 -0.2243  0.4267 -0.6065
   9923SM   C2F13446   7.063   7.331   3.320  0.1538 -0.5910  0.1364
   9923SM   H2F13447   7.078   7.438   3.294 -0.2342 -0.2282  1.3611
   9923SM   H2G13448   7.154   7.304   3.378 -0.8665  0.2547  2.1846
   9923SM   C3F13449   6.939   7.334   3.417 -0.5846 -0.0267 -0.1871
   9923SM   H3F13450   6.847   7.355   3.358  0.1470  0.1667 -1.2966
   9923SM   H3G13451   6.943   7.420   3.486 -0.3516  0.4147 -0.7464
   9923SM   C4F13452   6.922   7.206   3.503 -0.2315 -0.0027 -0.2475
   9923SM   H4F13453   7.027   7.183   3.530  0.5725 -2.3750 -4.4608
   9923SM   H4G13454   6.880   7.117   3.452 -1.8361 -2.0755  4.1942
   9923SM   C5F13455   6.834   7.231   3.622  0.6872 -0.1398 -0.3358
   9923SM   H5F13456   6.744   7.290   3.593  0.5149  0.3022  0.9955
   9923SM   H5G13457   6.891   7.281   3.704  2.6272 -2.6296 -0.0712
   9923SM   C6F13458   6.770   7.104   3.675 -0.0243  1.2481  0.6241
   9923SM   H6F13459   6.853   7.031   3.689  0.3841  1.5976  0.0146
   9923SM   H6G13460   6.704   7.064   3.595  0.4047  0.5016  0.6287
   9923SM   C7F13461   6.707   7.117   3.810  0.6282  0.9283 -0.0367
   9923SM   H7F13462   6.626   7.040   3.813 -0.3778  1.9517 -0.1732
   9923SM   H7G13463   6.659   7.217   3.816 -0.5998  0.4450 -1.2037
   9923SM   C8F13464   6.806   7.084   3.920 -0.8247  0.0825 -0.1500
   9923SM   H8F13465   6.899   7.146   3.911  0.4071 -1.4750  1.2600
   9923SM   H8G13466   6.852   6.984   3.908  1.2137  1.0026 -0.5079
   9923SM   C9F13467   6.743   7.082   4.058 -0.0506  0.7334 -0.3468
   9923SM   H9F13468   6.653   7.016   4.056  0.7599 -0.3997 -0.2000
   9923SM   H9G13469   6.712   7.185   4.083 -2.9552 -0.1121 -0.1307
   9923SM  C10F13470   6.837   7.029   4.165  0.9262 -0.4850 -0.1528
   9923SM  H10F13471   6.934   7.083   4.154 -0.5048  2.5817  1.2640
   9923SM  H10G13472   6.861   6.921   4.155  1.5118 -0.3983  0.2480
   9923SM  C11F13473   6.786   7.051   4.308  0.5632  0.7907 -0.1982
   9923SM  H11F13474   6.705   6.980   4.337 -0.3892  1.9890  0.1581
   9923SM  H11G13475   6.741   7.152   4.306 -0.2967  0.4177 -0.4918
   9923SM  C12F13476   6.895   7.044   4.413  0.1860  0.1285 -0.0802
   9923SM  H12F13477   6.978   6.975   4.387 -0.1836 -1.1948  2.0320
   9923SM  H12G13478   6.851   7.005   4.507  0.8812  3.9980  2.0633
   9923SM  C13F13479   6.948   7.184   4.455 -1.1177  0.3270  0.0982
   9923SM  H13F13480   6.867   7.257   4.477 -0.7159  0.8118 -0.0215
   9923SM  H13G13481   7.015   7.226   4.377 -0.0717 -1.8238 -0.2144
   9923SM  C14F13482   7.044   7.176   4.576 -0.4393  0.3622  0.1949
   9923SM  H14F13483   7.144   7.142   4.540 -1.3939  0.9707 -3.4763
   9923SM  H14G13484   7.009   7.099   4.648  2.8131 -1.6792 -0.1984
   9923SM  C15F13485   7.071   7.304   4.653 -0.5549  0.5749 -0.1264
   9923SM  H15F13486   6.968   7.336   4.679 -0.2462  0.5760  1.1864
   9923SM  H15G13487   7.111   7.381   4.584 -1.1800 -0.7054 -2.0189
   9923SM  C16F13488   7.158   7.298   4.778 -0.6308 -0.3733 -0.1614
   9923SM  H16F13489   7.085   7.248   4.847  0.4119 -1.5412  0.1215
   9923SM  H16G13490   7.187   7.400   4.810 -0.1317 -0.9114  1.1850
   9923SM  C17F13491   7.298   7.223   4.779 -0.3376 -0.0254 -0.0567
   9923SM  H17F13492   7.351   7.277   4.697 -1.6246  0.5888 -0.5152
   9923SM  H17G13493   7.288   7.120   4.740 -2.0557  0.4303 -0.9238
   9923SM  C18F13494   7.372   7.225   4.912  0.5592 -0.1638  0.2006
   9923SM  H18F13495   7.309   7.172   4.986  1.0632 -1.4385 -0.2514
   9923SM  H18G13496   7.370   7.332   4.944 -0.5327  0.0290 -0.4524
   9923SM  C19F13497   7.511   7.175   4.909 -0.1124 -0.2545 -0.6003
   9923SM  H19F13498   7.564   7.238   4.835 -1.4861  1.5881 -0.0897
   9923SM  H19G13499   7.520   7.068   4.882  1.2852 -0.1928 -0.4501
   9923SM  C20F13500   7.582   7.199   5.033 -0.2491 -0.3501 -0.7379
   9923SM  H20F13501   7.525   7.140   5.107  1.4198 -1.6880 -0.4531
   9923SM  H20G13502   7.583   7.309   5.053 -2.7526 -0.1128 -1.6260
   9923SM  C21F13503   7.725   7.138   5.042 -0.1845 -0.5527 -0.0600
   9923SM  H21F13504   7.723   7.027   5.035 -1.4353 -0.6486  1.2356
   9923SM  H21G13505   7.769   7.171   5.139 -0.5467  0.9873 -0.3850
   9923SM  C22F13506   7.817   7.186   4.937  0.2785 -1.1170 -0.0737
   9923SM  H22F13507   7.827   7.296   4.941 -0.6470 -0.9671 -1.2315
   9923SM  H22G13508   7.796   7.151   4.833  3.9543  1.8895 -2.0678
   9923SM  C23F13509   7.962   7.139   4.958  0.3656  0.5468  0.6073
   9923SM  H23F13510   8.029   7.155   4.871 -0.2204 -0.1489  0.0150
   9923SM  H23G13511   7.955   7.030   4.980 -1.8093  0.2010 -1.3881
   9923SM  H23H13512   8.010   7.194   5.041  1.5664  2.6694 -1.3891
  10023SM     N13513   5.506   0.111   3.097 -0.2229 -0.0698  0.0378
  10023SM   C1513514   5.480   0.180   2.973  0.2627  0.2324 -0.3492
  10023SM  H15A13515   5.374   0.190   2.958  0.0479 -0.6570  0.5272
  10023SM  H15B13516   5.508   0.125   2.884  2.9410  1.3713 -0.3078
  10023SM  H15C13517   5.540   0.270   2.959 -0.0081  0.4687  0.0060
  10023SM   C1413518   5.461   0.208   3.204  0.2358 -0.5056 -0.4001
  10023SM  H14A13519   5.477   0.168   3.303 -1.8186  0.7585  0.5284
  10023SM  H14B13520   5.356   0.233   3.204  0.1831 -0.7156 -0.0409
  10023SM  H14C13521   5.509   0.305   3.207  0.0874 -0.1883 -4.0838
  10023SM   C1313522   5.431  -0.010   3.113  0.1481  0.0361 -0.4086
  10023SM  H13A13523   5.448  -0.046   3.213 -1.2516  0.6851  0.0941
  10023SM  H13B13524   5.454  -0.089   3.043  0.2411 -1.1539  0.9096
  10023SM  H13C13525   5.327   0.015   3.099  0.6739  2.3029 -0.6399
  10023SM   C1213526   5.653   0.085   3.115 -0.2330 -0.1888 -0.0728
  10023SM  H12A13527   5.700   0.015   3.048  2.5224  0.3195  1.1624
  10023SM  H12B13528   5.661   0.043   3.215 -1.7395  1.4197  0.7786
  10023SM   C1113529   5.747   0.217   3.091 -0.5133 -0.5419  0.0900
  10023SM  H11A13530   5.833   0.189   3.155 -0.9083 -3.7988 -0.6089
  10023SM  H11B13531   5.702   0.310   3.132  0.9498  0.0073  0.4960
  10023SM     P13532   5.883   0.336   2.901  0.2175  0.2513 -0.0922
  10023SM   O1313533   6.007   0.272   2.853 -0.2813 -0.3707  0.0352
  10023SM   O1413534   5.815   0.430   2.811 -0.3142 -0.0186  0.6574
  10023SM   O1113535   5.912   0.407   3.035 -0.0913 -0.0027  0.0769
  10023SM   O1213536   5.780   0.224   2.950 -0.1331  0.2479 -0.3045
  10023SM   C1S13537   5.990   0.528   3.041  0.4849  0.1821 -0.2782
  10023SM   H1S13538   5.930   0.617   3.012  1.1758  0.8407  0.2643
  10023SM   H1T13539   6.079   0.537   2.974  0.7029  2.7192  0.2459
  10023SM    NF13540   6.091   0.708   3.208  0.8529 -0.0069  0.2325
  10023SM   HNF13541   6.175   0.726   3.258  1.2898  0.4127 -0.6351
  10023SM   C2S13542   6.043   0.563   3.192 -0.0079  0.2606 -0.3396
  10023SM   H2S13543   5.955   0.551   3.258  0.1876  0.5187 -0.0288
  10023SM   C3S13544   6.145   0.454   3.231 -0.3919 -0.3170 -0.1753
  10023SM   H3S13545   6.242   0.475   3.180 -2.2728  0.0824 -3.8467
  10023SM    O313546   6.125   0.316   3.196  0.0155 -0.1169 -0.2371
  10023SM   HO313547   6.041   0.320   3.148  0.2526 -2.9082 -1.0899
  10023SM   C4S13548   6.159   0.462   3.376 -0.4494  0.4276  0.0727
  10023SM   H4S13549   6.237   0.532   3.410 -0.0129 -0.3663  0.7217
  10023SM   C5S13550   6.095   0.403   3.485 -0.1549 -0.5129  0.7988
  10023SM   H5S13551   6.030   0.315   3.469  1.7694 -1.9868  0.6653
  10023SM   C6S13552   6.147   0.433   3.625  0.5584 -0.7838  0.0937
  10023SM   H6S13553   6.063   0.474   3.684  0.0284 -1.1541 -0.3936
  10023SM   H6T13554   6.213   0.523   3.620  0.1234 -0.5134 -1.6006
  10023SM   C7S13555   6.208   0.321   3.710  0.6734 -0.0580  0.1481
  10023SM   H7S13556   6.291   0.276   3.650 -0.9996  0.1017 -2.4726
  10023SM   H7T13557   6.131   0.242   3.719 -2.1499  2.4719 -0.5261
  10023SM   C8S13558   6.251   0.347   3.857  0.4248 -0.5706 -0.4577
  10023SM   H8S13559   6.166   0.376   3.922  0.2413 -0.4359 -0.7579
  10023SM   H8T13560   6.328   0.427   3.855  0.3913 -0.5216  0.2314
  10023SM   C9S13561   6.318   0.226   3.924 -0.0734  0.5840  0.1694
  10023SM   H9S13562   6.403   0.206   3.854  0.3006  1.3889  0.3862
  10023SM   H9T13563   6.253   0.136   3.914  0.5358  0.1702 -0.1370
  10023SM  C10S13564   6.371   0.237   4.065 -0.5333 -0.6658  0.3093
  10023SM  H10S13565   6.410   0.339   4.088  2.3453 -1.7875  0.8354
  10023SM  H10T13566   6.463   0.176   4.061  0.7928  1.3144 -1.2681
  10023SM  C11S13567   6.265   0.193   4.160 -0.2814 -0.7647 -0.3652
  10023SM  H11S13568   6.212   0.104   4.119 -1.5419  1.3092 -3.5962
  10023SM  H11T13569   6.195   0.275   4.186 -0.0537 -0.5396 -0.4607
  10023SM  C12S13570   6.319   0.148   4.298  0.7138 -0.2596  0.0198
  10023SM  H12S13571   6.242   0.134   4.377  3.6612  1.5364  3.5080
  10023SM  H12T13572   6.393   0.219   4.340  1.6506 -1.4039  0.3499
  10023SM  C13S13573   6.392   0.009   4.292 -0.0846 -0.2329  0.4794
  10023SM  H13S13574   6.488   0.013   4.237  0.0012  0.6696  0.6675
  10023SM  H13T13575   6.329  -0.059   4.232  0.7732  0.1984 -0.9769
  10023SM  C14S13576   6.434  -0.053   4.427  0.6130  0.3870  0.5477
  10023SM  H14S13577   6.393  -0.155   4.419  0.2687  0.6372 -1.0440
  10023SM  H14T13578   6.379  -0.008   4.513 -1.5460 -1.3182  0.1386
  10023SM  C15S13579   6.582  -0.069   4.447 -0.0570  0.6061 -0.2570
  10023SM  H15S13580   6.628   0.026   4.410 -1.2729  0.7561 -1.4746
  10023SM  H15T13581   6.620  -0.148   4.379  1.0578  1.7304 -0.9885
  10023SM  C16S13582   6.618  -0.086   4.594 -0.2005 -0.7354  0.2256
  10023SM  H16S13583   6.572  -0.178   4.637  2.0997 -1.3613  1.5324
  10023SM  H16T13584   6.581  -0.002   4.657  0.8834 -0.7785  0.9509
  10023SM  C17S13585   6.771  -0.092   4.624  0.5180 -0.1225 -0.2769
  10023SM  H17S13586   6.821  -0.011   4.567 -1.2539  3.8406  3.2133
  10023SM  H17T13587   6.807  -0.190   4.588  2.1545 -0.1100  1.1844
  10023SM  C18S13588   6.814  -0.084   4.777 -0.0553 -0.6076  0.5994
  10023SM  H18S13589   6.893  -0.006   4.785 -0.1839 -0.4901  0.7266
  10023SM  H18T13590   6.852  -0.183   4.807  0.8253  0.0434  1.7178
  10023SM  H18U13591   6.718  -0.059   4.827 -1.4202  3.1825 -3.2737
  10023SM   C1F13592   6.017   0.814   3.173  0.1858 -0.1929  0.3066
  10023SM    OF13593   5.897   0.802   3.142 -0.0562 -0.0572 -0.3712
  10023SM   C2F13594   6.083   0.950   3.177 -0.4449  0.0179 -0.1965
  10023SM   H2F13595   6.096   0.986   3.073  0.3540  2.2557  0.6122
  10023SM   H2G13596   6.184   0.951   3.224  1.5067  2.1770 -3.9084
  10023SM   C3F13597   5.986   1.053   3.250 -0.1730 -0.4533 -0.2489
  10023SM   H3F13598   5.902   1.063   3.179  1.1047  0.0461 -1.7473
  10023SM   H3G13599   6.040   1.150   3.253  1.9480 -1.5905  1.1435
  10023SM   C4F13600   5.929   1.004   3.388 -0.0033  0.4682  0.2074
  10023SM   H4F13601   5.868   0.912   3.376  1.1609 -0.4657  1.1630
  10023SM   H4G13602   5.860   1.081   3.429 -0.2861 -0.2145  1.0583
  10023SM   C5F13603   6.037   0.982   3.494  0.0327  0.2253 -0.1338
  10023SM   H5F13604   6.061   1.067   3.562  0.7466  0.3680 -0.5462
  10023SM   H5G13605   6.127   0.968   3.430 -0.1835  0.2549 -0.4437
  10023SM   C6F13606   6.003   0.858   3.582 -0.0810  0.2216  0.6041
  10023SM   H6F13607   5.995   0.768   3.518  1.7067  0.6591 -0.2931
  10023SM   H6G13608   5.910   0.858   3.643  0.2602 -0.4328  1.1334
  10023SM   C7F13609   6.115   0.831   3.683 -0.0075 -0.2180  0.6530
  10023SM   H7F13610   6.163   0.929   3.703  1.1545 -0.5290 -0.4355
  10023SM   H7G13611   6.196   0.777   3.628  0.1807  2.6113 -2.1354
  10023SM   C8F13612   6.072   0.766   3.806 -0.3473  0.0114  0.0730
  10023SM   H8F13613   6.005   0.680   3.788 -0.9141  0.3057  0.7128
  10023SM   H8G13614   6.008   0.837   3.863  0.6529  0.9932 -0.0050
  10023SM   C9F13615   6.193   0.731   3.882  0.3224 -0.1949  0.7858
  10023SM   H9F13616   6.260   0.819   3.890  0.9837 -0.6061 -0.0495
  10023SM   H9G13617   6.250   0.661   3.818  0.6281  1.2999 -0.6371
  10023SM  C10F13618   6.146   0.661   4.004  0.6255 -0.0675 -0.0697
  10023SM  H10F13619   6.080   0.575   3.979 -0.9307  0.4610  1.9713
  10023SM  H10G13620   6.079   0.730   4.061 -0.4336 -0.5849 -0.6555
  10023SM  C11F13621   6.258   0.621   4.102  0.1655  0.0173 -0.5243
  10023SM  H11F13622   6.334   0.701   4.114  0.9408 -1.0255  2.7632
  10023SM  H11G13623   6.324   0.536   4.073 -0.1813 -1.2686  2.1018
  10023SM  C12F13624   6.195   0.584   4.244  0.0246  0.1569  0.5808
  10023SM  H12F13625   6.117   0.509   4.223 -1.2019  1.6141 -0.2391
  10023SM  H12G13626   6.141   0.672   4.285 -0.1859  0.4671 -0.3274
  10023SM  C13F13627   6.297   0.530   4.343 -0.3016  0.1493  0.1782
  10023SM  H13F13628   6.381   0.601   4.359 -0.4407 -0.3164  3.5934
  10023SM  H13G13629   6.338   0.432   4.311  1.6670  0.5660  1.2540
  10023SM  C14F13630   6.235   0.497   4.483  0.5904 -0.1681 -0.9932
  10023SM  H14F13631   6.137   0.446   4.469  0.6215 -0.5692  0.1288
  10023SM  H14G13632   6.207   0.597   4.522  1.5330  0.1723 -1.1508
  10023SM  C15F13633   6.327   0.428   4.583  0.3111 -0.0488  0.1580
  10023SM  H15F13634   6.420   0.487   4.597  0.0061  0.7672 -1.1342
  10023SM  H15G13635   6.358   0.331   4.538  2.5210  1.4340 -1.7607
  10023SM  C16F13636   6.280   0.424   4.732  0.3355 -0.1334 -0.0206
  10023SM  H16F13637   6.172   0.395   4.724  0.1718  0.7981 -1.8958
  10023SM  H16G13638   6.267   0.527   4.771  0.0127  0.2575 -1.1085
  10023SM  C17F13639   6.361   0.326   4.815 -0.8441  0.4545 -0.3981
  10023SM  H17F13640   6.469   0.350   4.805 -1.0754  2.2058  0.7881
  10023SM  H17G13641   6.357   0.220   4.784  3.8564 -0.4765  1.3848
  10023SM  C18F13642   6.321   0.336   4.965  0.2407  0.3051 -0.8502
  10023SM  H18F13643   6.211   0.346   4.963  0.1252 -0.5782  0.1859
  10023SM  H18G13644   6.359   0.435   4.997  0.5818  0.0068 -0.3053
  10023SM  C19F13645   6.386   0.215   5.036  0.6685  0.6563  0.5004
  10023SM  H19F13646   6.379   0.123   4.974 -0.0051  1.2279 -0.2912
  10023SM  H19G13647   6.329   0.189   5.129 -0.1170  2.6285  0.6302
  10023SM  C20F13648   6.534   0.232   5.079 -0.1297 -0.0160  0.0235
  10023SM  H20F13649   6.537   0.334   5.123  0.6639  0.1271 -0.3341
  10023SM  H20G13650   6.596   0.225   4.987  0.9085  3.5721  0.2771
  10023SM  C21F13651   6.577   0.122   5.174  0.2224 -0.5021  0.3234
  10023SM  H21F13652   6.564   0.021   5.130  2.9593 -0.1038 -1.6965
  10023SM  H21G13653   6.507   0.131   5.260  2.8461  1.5210  2.4500
  10023SM  C22F13654   6.715   0.142   5.225  1.1248  0.0166 -0.6201
  10023SM  H22F13655   6.771   0.127   5.131 -0.8466 -0.9921 -1.7102
  10023SM  H22G13656   6.729   0.067   5.306  0.6371 -0.0119 -0.5553
  10023SM  C23F13657   6.756   0.273   5.296 -0.3696 -0.0910 -0.3429
  10023SM  H23F13658   6.864   0.275   5.322 -0.4458 -0.7448  0.0627
  10023SM  H23G13659   6.702   0.287   5.392  1.9384 -0.1968  1.0354
  10023SM  H23H13660   6.736   0.354   5.223  0.4812 -1.0875 -1.7350
  101CHL1    C313661   2.511   5.131   6.345  0.2187  0.8727 -0.1476
  101CHL1    H313662   2.430   5.204   6.323  0.4003  1.6853  1.7252
  101CHL1    O313663   2.490   5.051   6.459  0.0352 -0.1041 -0.0392
  101CHL1   H3'13664   2.579   5.019   6.477 -0.3799 -1.5970 -0.5073
  101CHL1    C413665   2.533   5.033   6.225  0.5042  0.3462 -0.4911
  101CHL1   H4A13666   2.611   4.960   6.256 -1.2308 -1.1905  0.4776
  101CHL1   H4B13667   2.433   4.986   6.211 -0.0321  1.7235 -1.4660
  101CHL1    C513668   2.594   5.098   6.106 -0.9882 -0.7173  0.3880
  101CHL1    C613669   2.543   5.086   5.982 -0.6429 -0.3604 -0.4708
  101CHL1    H613670   2.451   5.025   5.976 -0.2938 -0.8805 -0.6509
  101CHL1    C713671   2.604   5.143   5.857 -0.1925 -0.0177 -0.1971
  101CHL1   H7A13672   2.602   5.070   5.773  1.5942  0.7650 -0.9720
  101CHL1   H7B13673   2.549   5.231   5.819  1.0644  0.5625 -0.7313
  101CHL1    C813674   2.752   5.176   5.878 -0.2713 -0.3139 -0.4051
  101CHL1    H813675   2.813   5.085   5.895  1.0729  0.8477  1.3270
  101CHL1   C1413676   2.807   5.250   5.754  0.2918  0.1382 -0.3334
  101CHL1   H1413677   2.741   5.338   5.738  1.4149  0.8251 -1.3841
  101CHL1   C1513678   2.804   5.175   5.620  0.2493  1.0092  0.1450
  101CHL1  H15A13679   2.855   5.078   5.636 -0.7999  0.4671  0.3339
  101CHL1  H15B13680   2.701   5.169   5.579  0.0756  1.9984  0.3963
  101CHL1   C1613681   2.891   5.249   5.521 -0.3073 -0.5517  0.0577
  101CHL1  H16A13682   2.968   5.175   5.490  1.5967  1.6431 -0.7955
  101CHL1  H16B13683   2.830   5.289   5.437  0.9837  0.4460 -0.4482
  101CHL1   C1713684   2.955   5.359   5.616  0.5593 -0.4308  0.7726
  101CHL1   H1713685   2.878   5.439   5.606 -0.5000 -1.6106 -1.1196
  101CHL1   C1313686   2.949   5.307   5.759  0.2363  1.1505  0.0490
  101CHL1   C1813687   3.052   5.197   5.788 -0.0883 -0.0451  0.4003
  101CHL1  H18A13688   3.074   5.150   5.690  0.2353 -0.2681  0.5773
  101CHL1  H18B13689   3.152   5.241   5.811  1.1441 -0.9293 -2.7842
  101CHL1  H18C13690   3.010   5.128   5.864  0.9269 -0.4238  0.6378
  101CHL1   C1213691   2.949   5.400   5.880 -0.6522  0.7227 -0.1521
  101CHL1  H12A13692   3.052   5.441   5.890 -0.3394 -0.0406 -0.1755
  101CHL1  H12B13693   2.886   5.486   5.849 -1.3144  0.1608 -0.3925
  101CHL1   C1113694   2.906   5.334   6.006  0.4336  0.5306 -0.5084
  101CHL1  H11A13695   2.994   5.278   6.043  0.7786  1.7083  0.5364
  101CHL1  H11B13696   2.892   5.414   6.082  2.6241  0.6250 -0.1528
  101CHL1    C913697   2.768   5.261   6.002 -0.0335 -0.2816 -0.1231
  101CHL1    H913698   2.695   5.343   5.988 -2.1922 -1.6943  2.0770
  101CHL1   C1013699   2.722   5.179   6.133 -0.4596 -0.2595 -0.2995
  101CHL1   C1913700   2.845   5.090   6.179  0.0401 -0.2375  0.2721
  101CHL1  H19A13701   2.881   5.025   6.097 -1.3427 -1.8242  0.8569
  101CHL1  H19B13702   2.925   5.155   6.222  1.0683 -0.5156 -1.1364
  101CHL1  H19C13703   2.815   5.020   6.260 -1.3580 -1.6090 -1.3814
  101CHL1    C113704   2.689   5.280   6.247  0.1443 -0.2144  0.3330
  101CHL1   H1A13705   2.771   5.353   6.261 -1.2931  1.4016  0.7583
  101CHL1   H1B13706   2.609   5.340   6.196  0.6786  0.4468  0.2574
  101CHL1    C213707   2.632   5.220   6.374 -0.3085 -0.0228  0.0536
  101CHL1   H2A13708   2.605   5.289   6.457  0.9685  0.1310  0.3558
  101CHL1   H2B13709   2.712   5.157   6.419 -3.5967 -2.6983  2.7804
  101CHL1   C2013710   3.085   5.413   5.559 -0.2220  0.3542  0.5848
  101CHL1   H2013711   3.169   5.356   5.605  0.3013  1.7354  1.4136
  101CHL1   C2113712   3.097   5.553   5.619 -0.7897 -0.1183  0.9492
  101CHL1  H21A13713   3.054   5.568   5.720 -3.2817 -1.1979  0.1412
  101CHL1  H21B13714   3.040   5.630   5.563  0.1106  0.6575  1.0683
  101CHL1  H21C13715   3.201   5.590   5.633 -2.2584  4.0410  2.5226
  101CHL1   C2213716   3.100   5.423   5.404  0.8641  0.2037 -0.1985
  101CHL1  H22A13717   3.093   5.318   5.368  0.0144 -0.2099  1.1038
  101CHL1  H22B13718   3.013   5.478   5.361  0.5543  1.0648  1.4603
  101CHL1   C2313719   3.233   5.494   5.364 -1.0148  0.3020  0.5027
  101CHL1  H23A13720   3.228   5.602   5.389  1.8184  1.1268 -1.9016
  101CHL1  H23B13721   3.318   5.440   5.411 -1.7633 -1.2044  0.2191
  101CHL1   C2413722   3.247   5.490   5.209  0.1559  0.0072 -0.0759
  101CHL1  H24A13723   3.276   5.391   5.168  1.9213  0.5440 -0.2000
  101CHL1  H24B13724   3.144   5.501   5.168 -0.9950 -0.9694  2.3576
  101CHL1   C2513725   3.346   5.590   5.139  0.5365 -0.1141 -0.6911
  101CHL1   H2513726   3.340   5.692   5.184 -3.6227 -0.5691  0.1573
  101CHL1   C2613727   3.485   5.536   5.162  0.4273 -0.5474  0.1114
  101CHL1  H26A13728   3.560   5.603   5.116 -0.0282  0.0640  0.2374
  101CHL1  H26B13729   3.494   5.517   5.271 -0.6234  1.4730  0.6007
  101CHL1  H26C13730   3.485   5.438   5.109  0.1169 -1.1351  1.1713
  101CHL1   C2713731   3.306   5.598   4.990  0.2011  0.1366  1.0647
  101CHL1  H27A13732   3.202   5.631   4.973  0.1491  0.3429  1.7453
  101CHL1  H27B13733   3.378   5.652   4.924 -1.5719  1.7963  0.4231
  101CHL1  H27C13734   3.307   5.495   4.948 -0.9671  0.8806 -0.9193
  102CHL1    C313735   2.007   5.974   6.845 -0.0935  0.5371  0.4791
  102CHL1    H313736   2.116   5.971   6.827  0.2110  1.0302  2.0830
  102CHL1    O313737   1.989   5.923   6.975  0.0880  0.0531 -0.4374
  102CHL1   H3'13738   1.900   5.888   6.982  1.1745 -2.6292  4.2596
  102CHL1    C413739   1.964   6.121   6.846  0.4022 -0.4971 -0.1395
  102CHL1   H4A13740   1.857   6.113   6.872  0.6967 -1.6082  0.8237
  102CHL1   H4B13741   2.019   6.175   6.926  1.4594 -0.0713 -1.1179
  102CHL1    C513742   1.989   6.178   6.704  0.0669  0.5758  0.2276
  102CHL1    C613743   2.075   6.282   6.685  0.9855  0.2786  0.5740
  102CHL1    H613744   2.110   6.342   6.771  0.1301  1.2403  0.2749
  102CHL1    C713745   2.108   6.335   6.544  0.1937  0.1000  0.3249
  102CHL1   H7A13746   2.103   6.445   6.554  1.3539  0.5602 -2.8377
  102CHL1   H7B13747   2.205   6.295   6.506  1.2577  1.3636  1.6380
  102CHL1    C813748   2.010   6.285   6.428 -0.5785 -0.0519 -0.0523
  102CHL1    H813749   1.914   6.339   6.431 -1.1886 -1.1196  0.5859
  102CHL1   C1413750   2.077   6.300   6.293 -0.3835  0.4185 -0.4443
  102CHL1   H1413751   2.168   6.237   6.295  0.0386  0.9618 -1.5291
  102CHL1   C1513752   2.128   6.441   6.263 -0.1763  0.5107 -0.4683
  102CHL1  H15A13753   2.060   6.523   6.294  1.1729  1.5787 -0.2589
  102CHL1  H15B13754   2.229   6.456   6.306  0.3764  1.4558 -2.0338
  102CHL1   C1613755   2.140   6.441   6.113  0.5586 -0.7825 -0.4103
  102CHL1  H16A13756   2.089   6.531   6.074  0.9599 -0.9901 -1.4764
  102CHL1  H16B13757   2.240   6.455   6.066  1.1895 -1.6722  0.6078
  102CHL1   C1713758   2.084   6.308   6.066  0.2230  0.4698  0.5095
  102CHL1   H1713759   2.163   6.231   6.075 -0.6941 -0.4260  1.1958
  102CHL1   C1313760   1.994   6.255   6.179  0.0400 -0.3049 -0.7899
  102CHL1   C1813761   1.858   6.335   6.164  0.4450  0.4069  1.0750
  102CHL1  H18A13762   1.818   6.348   6.267 -0.3079  1.6005  0.6540
  102CHL1  H18B13763   1.882   6.436   6.124  0.6691  1.2171  3.1330
  102CHL1  H18C13764   1.785   6.283   6.099  2.2493  1.6044 -2.1202
  102CHL1   C1213765   1.968   6.104   6.189 -0.5533  1.0800 -0.1001
  102CHL1  H12A13766   1.905   6.067   6.106  0.0017 -0.7482  0.2431
  102CHL1  H12B13767   2.071   6.061   6.180 -0.2244  1.4999  1.3045
  102CHL1   C1113768   1.902   6.068   6.322 -0.6324  0.2085 -0.0443
  102CHL1  H11A13769   1.797   6.105   6.321 -0.7962 -0.2035  0.7553
  102CHL1  H11B13770   1.896   5.957   6.328  0.0064  0.1530 -0.4119
  102CHL1    C913771   1.980   6.133   6.448  0.3061  0.2222  0.9622
  102CHL1    H913772   2.078   6.082   6.441 -0.2643 -0.7759 -0.0405
  102CHL1   C1013773   1.922   6.098   6.591 -0.1399  0.0146  1.0536
  102CHL1   C1913774   1.775   6.134   6.609 -0.1420 -0.7261  0.5334
  102CHL1  H19A13775   1.758   6.243   6.599  1.8976 -0.4792 -0.7275
  102CHL1  H19B13776   1.705   6.088   6.535 -0.1612  1.0698 -0.6103
  102CHL1  H19C13777   1.739   6.115   6.712  1.2717  1.9692  1.6201
  102CHL1    C113778   1.949   5.945   6.612  0.5684  0.6197  0.5661
  102CHL1   H1A13779   1.893   5.899   6.528  0.8519  0.8857  0.2287
  102CHL1   H1B13780   2.057   5.927   6.594  0.7028  1.3745  0.6022
  102CHL1    C213781   1.921   5.893   6.749 -0.3675 -0.0851 -0.6303
  102CHL1   H2A13782   1.958   5.788   6.755 -2.1673 -0.6553  1.3859
  102CHL1   H2B13783   1.813   5.896   6.773 -0.0288 -1.4708  1.2945
  102CHL1   C2013784   2.032   6.294   5.923 -0.2608  0.4048  0.9911
  102CHL1   H2013785   1.955   6.215   5.913 -0.6778  0.9950 -0.8931
  102CHL1   C2113786   2.150   6.230   5.843  0.0662  0.0330 -0.2695
  102CHL1  H21A13787   2.129   6.227   5.733  2.1588  0.2181 -0.7127
  102CHL1  H21B13788   2.166   6.130   5.889  0.9456  0.6346  0.7454
  102CHL1  H21C13789   2.245   6.282   5.866  0.2244 -0.5424  0.4111
  102CHL1   C2213790   1.980   6.421   5.846 -0.4381 -0.2230  0.0870
  102CHL1  H22A13791   1.889   6.462   5.895 -0.6609  1.1478 -1.3888
  102CHL1  H22B13792   2.059   6.500   5.842  0.2142 -0.9182 -2.0187
  102CHL1   C2313793   1.945   6.402   5.699  0.3313  0.7939  0.2310
  102CHL1  H23A13794   2.036   6.387   5.638 -0.0763 -0.2999 -0.1446
  102CHL1  H23B13795   1.884   6.309   5.687 -0.5885  1.4640 -0.4061
  102CHL1   C2413796   1.862   6.517   5.643  0.3105 -0.4383 -0.2708
  102CHL1  H24A13797   1.783   6.542   5.718 -0.5566 -0.8666 -1.0145
  102CHL1  H24B13798   1.928   6.607   5.643 -2.1092  1.5073  1.8012
  102CHL1   C2513799   1.817   6.496   5.499 -0.4237 -0.3260 -0.1317
  102CHL1   H2513800   1.791   6.600   5.470  2.1724  0.3537 -0.3082
  102CHL1   C2613801   1.929   6.461   5.403 -0.1164 -0.0409 -0.4190
  102CHL1  H26A13802   1.883   6.485   5.305 -1.7291  0.3873  0.4128
  102CHL1  H26B13803   2.012   6.535   5.412 -0.4753  0.1988  1.1830
  102CHL1  H26C13804   1.968   6.358   5.412  0.0744 -0.1002 -1.6843
  102CHL1   C2713805   1.694   6.406   5.476 -0.0391 -0.7995  0.1415
  102CHL1  H27A13806   1.713   6.299   5.499 -2.5622 -1.4813 -0.6309
  102CHL1  H27B13807   1.606   6.436   5.538 -0.8829 -0.0989 -1.3379
  102CHL1  H27C13808   1.661   6.408   5.370 -1.3184  0.3566  0.5323
  103CHL1    C313809   1.895   3.710   6.380  0.0498 -0.0658 -0.9293
  103CHL1    H313810   1.840   3.804   6.358 -1.1394 -0.3978  0.4186
  103CHL1    O313811   1.918   3.703   6.519  0.2474  0.3423  0.3379
  103CHL1   H3'13812   1.967   3.622   6.534 -0.3192 -0.5412 -2.0823
  103CHL1    C413813   1.813   3.585   6.339  0.3222 -0.3715  0.1190
  103CHL1   H4A13814   1.863   3.498   6.386 -0.5679 -1.3602 -0.6978
  103CHL1   H4B13815   1.720   3.584   6.399  0.3024  0.4313  0.1218
  103CHL1    C513816   1.806   3.562   6.195 -0.1512  0.7912  0.4881
  103CHL1    C613817   1.686   3.532   6.143 -0.1641  0.1136 -0.5373
  103CHL1    H613818   1.597   3.527   6.208  1.3381 -1.1673  1.5542
  103CHL1    C713819   1.668   3.502   5.998 -0.8598  0.0765 -0.4318
  103CHL1   H7A13820   1.613   3.406   5.998  1.0052 -1.1256  2.3315
  103CHL1   H7B13821   1.601   3.579   5.955 -0.7246  0.5063  0.1099
  103CHL1    C813822   1.797   3.485   5.914  0.7432 -0.5770 -0.5405
  103CHL1    H813823   1.826   3.381   5.937 -0.6111 -1.0896 -1.0369
  103CHL1   C1413824   1.763   3.500   5.771  0.0955  0.3982  0.4456
  103CHL1   H1413825   1.737   3.607   5.764 -1.2839  0.0487  0.0067
  103CHL1   C1513826   1.649   3.424   5.714  0.8028  0.7196 -0.1147
  103CHL1  H15A13827   1.657   3.317   5.742 -0.8734  0.7685  0.6743
  103CHL1  H15B13828   1.545   3.454   5.741  0.3623  0.3538 -1.3292
  103CHL1   C1613829   1.672   3.440   5.563  0.8671 -0.2929 -0.1768
  103CHL1  H16A13830   1.671   3.334   5.532  0.9966 -0.7799  1.3697
  103CHL1  H16B13831   1.583   3.495   5.524  1.1799  0.4533  0.1361
  103CHL1   C1713832   1.805   3.516   5.544 -0.9482 -0.3691  0.0613
  103CHL1   H1713833   1.779   3.624   5.555 -0.3115 -0.3255  1.3718
  103CHL1   C1313834   1.878   3.477   5.667 -0.6356  0.2552 -0.1962
  103CHL1   C1813835   1.917   3.319   5.664  0.0138 -0.3391 -0.4799
  103CHL1  H18A13836   1.865   3.268   5.580 -0.6589 -0.3258 -0.0763
  103CHL1  H18B13837   2.027   3.316   5.647 -0.0102 -0.3907 -0.6292
  103CHL1  H18C13838   1.893   3.256   5.752 -0.6253 -0.4979 -0.7634
  103CHL1   C1213839   2.001   3.562   5.713 -0.3170  0.8884  0.5992
  103CHL1  H12A13840   2.082   3.532   5.643 -0.2547  2.7495 -0.1822
  103CHL1  H12B13841   1.983   3.671   5.701 -2.4327  0.3809 -1.4706
  103CHL1   C1113842   2.033   3.539   5.863 -0.9325 -0.4860 -0.6320
  103CHL1  H11A13843   2.059   3.432   5.880 -1.9254 -0.6906 -0.3001
  103CHL1  H11B13844   2.125   3.598   5.884  0.1735 -2.1429 -0.6030
  103CHL1    C913845   1.917   3.572   5.959  0.9749 -0.0185 -0.0511
  103CHL1    H913846   1.888   3.679   5.948  0.0717  0.3426  4.0566
  103CHL1   C1013847   1.935   3.576   6.108 -0.7848  1.2887  0.2769
  103CHL1   C1913848   2.025   3.453   6.141  0.9599 -0.2304  0.2954
  103CHL1  H19A13849   2.016   3.427   6.249  0.4898 -2.4226 -0.2266
  103CHL1  H19B13850   1.997   3.360   6.088  0.6001 -0.4933  0.9342
  103CHL1  H19C13851   2.127   3.479   6.105  0.0912  0.9390 -1.4429
  103CHL1    C113852   2.017   3.701   6.155 -0.1162 -0.5469  0.4061
  103CHL1   H1A13853   2.113   3.686   6.101 -1.5414 -3.5076 -1.5521
  103CHL1   H1B13854   1.960   3.793   6.128 -1.3669 -1.5647 -0.4817
  103CHL1    C213855   2.027   3.706   6.308 -0.4075  0.1912  0.0772
  103CHL1   H2A13856   2.079   3.801   6.332  2.8466 -0.2533 -4.0616
  103CHL1   H2B13857   2.091   3.623   6.344  0.6488  0.7831 -0.3946
  103CHL1   C2013858   1.874   3.502   5.407  0.3288  0.5015 -1.1008
  103CHL1   H2013859   1.946   3.418   5.406 -0.3650 -0.1112 -0.6608
  103CHL1   C2113860   1.963   3.623   5.373  0.0469 -0.1700  0.1137
  103CHL1  H21A13861   2.047   3.632   5.446  0.4215  0.3674 -0.3689
  103CHL1  H21B13862   1.905   3.718   5.375 -1.1872 -0.9160  0.4456
  103CHL1  H21C13863   2.004   3.618   5.270 -0.9221  1.2444 -0.3564
  103CHL1   C2213864   1.770   3.490   5.298 -0.4100 -0.5151  0.6395
  103CHL1  H22A13865   1.673   3.542   5.315  1.3438  2.3688  2.7075
  103CHL1  H22B13866   1.810   3.537   5.206 -1.0879  0.5726  0.8753
  103CHL1   C2313867   1.731   3.342   5.262 -0.3778 -0.4665  0.3946
  103CHL1  H23A13868   1.662   3.288   5.331  0.5895 -1.3804  0.6743
  103CHL1  H23B13869   1.690   3.350   5.159  2.6848  1.5057 -0.7978
  103CHL1   C2413870   1.849   3.249   5.247  0.8972 -0.5754  0.1004
  103CHL1  H24A13871   1.905   3.296   5.163 -0.4649  0.0434 -0.4820
  103CHL1  H24B13872   1.910   3.238   5.339 -1.6163 -2.9902  1.6122
  103CHL1   C2513873   1.817   3.104   5.209  0.0979 -0.3775  0.0783
  103CHL1   H2513874   1.769   3.063   5.301  1.1922  0.7545  1.1976
  103CHL1   C2613875   1.718   3.095   5.091  0.4130  0.1935  0.5320
  103CHL1  H26A13876   1.692   2.992   5.059 -2.7555  0.6729  1.1697
  103CHL1  H26B13877   1.621   3.136   5.128  1.4209  0.4055  3.2030
  103CHL1  H26C13878   1.755   3.148   5.002  0.8210  1.0816  1.2148
  103CHL1   C2713879   1.943   3.019   5.182 -0.1545 -0.8919 -0.3050
  103CHL1  H27A13880   2.015   3.021   5.267 -0.8381  0.8047  0.2807
  103CHL1  H27B13881   1.917   2.915   5.154 -1.8768 -0.6154  0.1440
  103CHL1  H27C13882   1.989   3.063   5.091 -3.3450  0.6306 -1.3323
  104CHL1    C313883   5.351   5.051   6.555  0.0451 -1.0749 -0.3472
  104CHL1    H313884   5.439   4.985   6.565  0.2725 -0.4741  2.4953
  104CHL1    O313885   5.323   5.119   6.678  0.0150  0.2613 -0.0066
  104CHL1   H3'13886   5.229   5.137   6.675 -0.2709 -0.9476  0.9001
  104CHL1    C413887   5.380   5.159   6.449 -0.4093  0.7470  0.2071
  104CHL1   H4A13888   5.296   5.232   6.439 -0.9150  0.2891  0.9880
  104CHL1   H4B13889   5.459   5.230   6.484  0.0740  0.5753 -0.5246
  104CHL1    C513890   5.404   5.095   6.312 -0.1237  0.4586  0.0748
  104CHL1    C613891   5.513   5.124   6.241  0.1049 -0.0804 -0.0166
  104CHL1    H613892   5.585   5.196   6.283 -3.4192  3.5008  0.3862
  104CHL1    C713893   5.555   5.048   6.120 -0.1776  0.4894  1.1484
  104CHL1   H7A13894   5.592   5.112   6.037 -1.5516 -1.4149 -1.0322
  104CHL1   H7B13895   5.642   4.982   6.143  0.1005 -1.3332 -3.7980
  104CHL1    C813896   5.453   4.963   6.055  0.4599 -0.3499 -0.3482
  104CHL1    H813897   5.380   5.028   6.001 -1.9945 -0.6960  2.3476
  104CHL1   C1413898   5.513   4.864   5.947 -0.2296  0.4527 -0.1069
  104CHL1   H1413899   5.581   4.799   6.007  0.0928  1.7964  1.0447
  104CHL1   C1513900   5.600   4.927   5.840 -0.8616 -0.1890 -0.5673
  104CHL1  H15A13901   5.549   5.019   5.801  0.5202  1.5896  1.5988
  104CHL1  H15B13902   5.701   4.942   5.881 -0.0305 -1.3439 -2.0755
  104CHL1   C1613903   5.612   4.819   5.728 -0.3455  0.1654 -0.3935
  104CHL1  H16A13904   5.562   4.866   5.641  0.5085 -0.4222 -1.2225
  104CHL1  H16B13905   5.716   4.793   5.697  0.0984  0.8238  0.4928
  104CHL1   C1713906   5.513   4.707   5.779  0.0969 -0.2817  0.0396
  104CHL1   H1713907   5.572   4.640   5.845 -1.6296 -1.4157  0.5086
  104CHL1   C1313908   5.414   4.771   5.883 -0.2749  0.6418  0.8107
  104CHL1   C1813909   5.311   4.848   5.801 -0.3341  0.2773 -0.8693
  104CHL1  H18A13910   5.242   4.774   5.756 -1.3482  0.2602  0.6261
  104CHL1  H18B13911   5.246   4.907   5.869 -3.7871 -1.2693 -2.5755
  104CHL1  H18C13912   5.349   4.921   5.726 -2.1935  0.7221 -1.4339
  104CHL1   C1213913   5.353   4.684   5.992 -0.0429 -0.7654 -0.1049
  104CHL1  H12A13914   5.267   4.622   5.957  1.3502 -1.7012 -2.0390
  104CHL1  H12B13915   5.428   4.609   6.025  0.0584 -0.4868  0.3018
  104CHL1   C1113916   5.280   4.774   6.101 -0.4364  0.1165 -0.6418
  104CHL1  H11A13917   5.193   4.813   6.044 -0.9631  1.3815  0.9352
  104CHL1  H11B13918   5.231   4.716   6.182  0.9904  1.2863  1.1505
  104CHL1    C913919   5.372   4.887   6.162 -0.1789 -0.2778 -0.9616
  104CHL1    H913920   5.454   4.838   6.219 -0.9083  0.0136  0.3917
  104CHL1   C1013921   5.301   4.979   6.266 -0.6661 -0.2516  0.2877
  104CHL1   C1913922   5.174   5.037   6.196 -0.4179 -0.4499  0.3228
  104CHL1  H19A13923   5.101   4.959   6.164  0.9817 -0.3921 -3.4810
  104CHL1  H19B13924   5.132   5.106   6.273 -1.0269 -0.6684  0.1929
  104CHL1  H19C13925   5.195   5.098   6.107  1.4537 -0.7548  0.5263
  104CHL1    C113926   5.266   4.890   6.383 -0.3869  0.6853 -0.1861
  104CHL1   H1A13927   5.178   4.830   6.351  0.2358 -0.5553  0.3488
  104CHL1   H1B13928   5.351   4.825   6.412  0.7328  2.1402 -0.0831
  104CHL1    C213929   5.228   4.972   6.511  0.3167  1.0119  0.7529
  104CHL1   H2A13930   5.208   4.884   6.575 -1.6456  1.1250  0.3666
  104CHL1   H2B13931   5.138   5.035   6.495  0.1858  0.9879  1.3622
  104CHL1   C2013932   5.460   4.618   5.667 -0.7060 -0.3478  0.3944
  104CHL1   H2013933   5.379   4.674   5.616 -0.7086 -1.8312 -1.3324
  104CHL1   C2113934   5.388   4.499   5.735 -0.7858  0.0564  0.4802
  104CHL1  H21A13935   5.449   4.447   5.812 -1.1292  1.0156  1.4413
  104CHL1  H21B13936   5.353   4.421   5.664  1.1856  0.4245 -0.9640
  104CHL1  H21C13937   5.297   4.534   5.788 -1.0825  0.6036 -0.3730
  104CHL1   C2213938   5.568   4.571   5.563 -0.0270 -0.6523 -0.3139
  104CHL1  H22A13939   5.617   4.662   5.522 -0.8724 -0.3303 -0.6388
  104CHL1  H22B13940   5.642   4.523   5.631  1.3358 -0.3919 -1.5567
  104CHL1   C2313941   5.523   4.467   5.462 -0.6536  0.6490  0.2623
  104CHL1  H23A13942   5.618   4.439   5.413  0.0923  1.4132  1.2118
  104CHL1  H23B13943   5.484   4.375   5.510 -3.9433  0.7952 -1.8635
  104CHL1   C2413944   5.429   4.521   5.360 -0.2270 -0.3711  0.0720
  104CHL1  H24A13945   5.327   4.546   5.398 -0.3271  0.6647 -0.8256
  104CHL1  H24B13946   5.467   4.610   5.306  0.0536 -0.0884  0.7256
  104CHL1   C2513947   5.423   4.435   5.234 -0.1149  0.4728  0.0556
  104CHL1   H2513948   5.356   4.499   5.173 -1.0237 -0.5889 -0.0907
  104CHL1   C2613949   5.558   4.421   5.161  1.2553 -0.2733  0.5117
  104CHL1  H26A13950   5.609   4.325   5.187  2.8948 -0.2669 -2.2969
  104CHL1  H26B13951   5.544   4.408   5.051  0.5501 -0.4196  0.6165
  104CHL1  H26C13952   5.632   4.503   5.168  0.6120  0.3814 -0.2155
  104CHL1   C2713953   5.363   4.299   5.267  0.1032  0.4739 -0.5968
  104CHL1  H27A13954   5.328   4.244   5.178 -0.9640 -2.0586  1.2556
  104CHL1  H27B13955   5.437   4.225   5.303 -0.1382  0.6074  0.1956
  104CHL1  H27C13956   5.280   4.319   5.339 -2.1641 -1.9986 -2.3485
  105CHL1    C313957   4.481   4.305   6.846  0.2225  0.1275 -0.0174
  105CHL1    H313958   4.569   4.360   6.884  1.2267 -0.3230 -1.6077
  105CHL1    O313959   4.422   4.257   6.962 -0.4303  0.2816  0.1447
  105CHL1   H3'13960   4.346   4.204   6.937 -0.3252  0.0225  0.3733
  105CHL1    C413961   4.372   4.398   6.792  0.2394 -0.2231 -0.0337
  105CHL1   H4A13962   4.268   4.358   6.796  0.5863 -1.1227  0.2348
  105CHL1   H4B13963   4.362   4.489   6.855 -1.1883 -0.3060 -0.0926
  105CHL1    C513964   4.402   4.438   6.650 -0.3113  0.6857  0.0790
  105CHL1    C613965   4.414   4.572   6.617 -0.6711  0.2653 -0.1042
  105CHL1    H613966   4.414   4.655   6.690  1.5051 -1.9016  2.6245
  105CHL1    C713967   4.427   4.623   6.472 -0.8851 -0.7181 -0.4174
  105CHL1   H7A13968   4.356   4.706   6.456  0.0774  0.8325  2.5336
  105CHL1   H7B13969   4.525   4.675   6.461 -1.1325  0.2308  1.3917
  105CHL1    C813970   4.401   4.508   6.369  0.6560 -0.9061 -0.0808
  105CHL1    H813971   4.293   4.485   6.376  0.2997  0.9708  1.3747
  105CHL1   C1413972   4.452   4.561   6.227  0.8900 -0.8136 -0.0579
  105CHL1   H1413973   4.553   4.602   6.248 -0.0200  0.1952  2.8614
  105CHL1   C1513974   4.377   4.684   6.174 -0.1617 -0.8853  0.9143
  105CHL1  H15A13975   4.267   4.679   6.194 -0.2448  0.6505  1.0220
  105CHL1  H15B13976   4.420   4.769   6.233 -0.7290 -0.0527  0.1604
  105CHL1   C1613977   4.409   4.680   6.025  0.2359 -0.1541 -0.9737
  105CHL1  H16A13978   4.317   4.689   5.964 -0.5228  0.3059  0.2194
  105CHL1  H16B13979   4.470   4.768   5.995  0.8213 -0.3903 -0.4893
  105CHL1   C1713980   4.476   4.537   5.993 -0.8285 -0.3645  0.1822
  105CHL1   H1713981   4.585   4.550   6.008 -0.9596  0.8797  0.1421
  105CHL1   C1313982   4.442   4.454   6.119 -0.4335 -0.0870 -0.2224
  105CHL1   C1813983   4.297   4.401   6.099 -0.0683 -0.3919 -0.4055
  105CHL1  H18A13984   4.283   4.311   6.036 -2.1955 -0.9151  0.6980
  105CHL1  H18B13985   4.248   4.373   6.195 -1.0498 -1.8912 -1.3018
  105CHL1  H18C13986   4.227   4.477   6.061 -0.8625 -0.6094  0.5613
  105CHL1   C1213987   4.538   4.336   6.157  0.5024 -0.1875  0.0377
  105CHL1  H12A13988   4.531   4.257   6.079 -0.4668 -0.1185  0.0313
  105CHL1  H12B13989   4.645   4.364   6.161  0.7386 -0.9112 -0.9073
  105CHL1   C1113990   4.489   4.275   6.288 -0.3379  0.1711 -0.6279
  105CHL1  H11A13991   4.398   4.211   6.275  0.4944 -1.0607 -0.5317
  105CHL1  H11B13992   4.564   4.198   6.317  0.1920  0.1238 -2.0407
  105CHL1    C913993   4.471   4.378   6.412  0.3253 -0.3374 -0.6168
  105CHL1    H913994   4.572   4.423   6.424  0.3996 -0.9002  1.2621
  105CHL1   C1013995   4.425   4.323   6.550  0.2893  0.5773 -0.5431
  105CHL1   C1913996   4.284   4.252   6.532 -0.0172  0.6324  0.1882
  105CHL1  H19A13997   4.284   4.168   6.459 -2.7448 -1.8726  2.8062
  105CHL1  H19B13998   4.248   4.212   6.629  0.1837 -1.6630 -0.6103
  105CHL1  H19C13999   4.203   4.318   6.497 -0.9271  0.3608  1.6903
  105CHL1    C114000   4.536   4.232   6.614 -0.0934 -0.1481  0.0744
  105CHL1   H1A14001   4.541   4.138   6.553 -0.7508  0.8300 -1.5572
  105CHL1   H1B14002   4.635   4.282   6.622 -0.7840  0.9832  1.9826
  105CHL1    C214003   4.507   4.190   6.759 -0.2868 -0.2802 -0.3467
  105CHL1   H2A14004   4.597   4.132   6.789 -0.1240  0.5106  0.7742
  105CHL1   H2B14005   4.425   4.115   6.757  0.5984 -1.3475  1.1541
  105CHL1   C2014006   4.453   4.488   5.848  0.4223  0.7809  0.0144
  105CHL1   H2014007   4.344   4.472   5.833  0.0997  2.2244  0.7201
  105CHL1   C2114008   4.512   4.348   5.830  0.4542 -1.0749 -0.7974
  105CHL1  H21A14009   4.610   4.343   5.881  0.5698 -1.8092 -1.0756
  105CHL1  H21B14010   4.518   4.305   5.727  1.5371 -0.8925 -0.8258
  105CHL1  H21C14011   4.451   4.273   5.883  2.6382 -0.5340  2.7572
  105CHL1   C2214012   4.500   4.592   5.743 -0.0430  0.7210  0.3300
  105CHL1  H22A14013   4.463   4.694   5.766  0.5463  0.2857  3.6781
  105CHL1  H22B14014   4.611   4.584   5.737 -0.2319 -2.0940 -3.2207
  105CHL1   C2314015   4.448   4.567   5.605 -0.8161  0.2480  0.2667
  105CHL1  H23A14016   4.475   4.464   5.572  3.3348  1.2665 -0.0938
  105CHL1  H23B14017   4.338   4.579   5.604 -0.8292  0.1819 -1.3564
  105CHL1   C2414018   4.506   4.655   5.495 -0.2925  0.1487 -0.1934
  105CHL1  H24A14019   4.472   4.761   5.501 -2.4225 -0.4380 -0.7969
  105CHL1  H24B14020   4.615   4.652   5.514 -0.5379 -1.1904  1.2099
  105CHL1   C2514021   4.488   4.612   5.348 -0.4453 -0.5990 -0.4298
  105CHL1   H2514022   4.522   4.506   5.348  2.2650  0.1792  1.0762
  105CHL1   C2614023   4.340   4.607   5.310  0.2775 -0.0111  0.0728
  105CHL1  H26A14024   4.278   4.567   5.394 -0.9463  0.5415 -0.5472
  105CHL1  H26B14025   4.306   4.710   5.288 -0.9269 -0.4670 -0.2809
  105CHL1  H26C14026   4.318   4.540   5.224 -2.6836 -1.2896  1.6866
  105CHL1   C2714027   4.585   4.686   5.254  0.2397 -0.0009  0.0548
  105CHL1  H27A14028   4.691   4.666   5.283  0.3131 -1.2752 -0.9861
  105CHL1  H27B14029   4.583   4.640   5.152 -0.6819  1.9093 -0.8496
  105CHL1  H27C14030   4.560   4.794   5.254  0.4496  0.0533 -0.2614
  106CHL1    C314031   1.394   3.051   6.656  0.1745 -0.0489  0.6137
  106CHL1    H314032   1.488   3.050   6.598  0.0195  0.6957  0.3400
  106CHL1    O314033   1.418   2.971   6.769 -0.1367  0.6287  0.6778
  106CHL1   H3'14034   1.341   2.977   6.827 -0.5414  0.4148  0.1675
  106CHL1    C414035   1.348   3.188   6.702 -0.0698 -0.2217  0.1989
  106CHL1   H4A14036   1.263   3.183   6.774  0.1466  0.7337  0.5359
  106CHL1   H4B14037   1.433   3.232   6.757  0.6571  0.0685 -1.1247
  106CHL1    C514038   1.307   3.281   6.588 -0.8525  0.1368  0.5248
  106CHL1    C614039   1.356   3.403   6.577  0.0154  0.4921  0.5989
  106CHL1    H614040   1.429   3.423   6.657  0.5307  1.1798 -0.0339
  106CHL1    C714041   1.333   3.508   6.468 -0.5766  0.3384 -0.2376
  106CHL1   H7A14042   1.320   3.606   6.520 -1.1134 -0.6944  1.6726
  106CHL1   H7B14043   1.418   3.511   6.396  0.0168  1.7847  0.4789
  106CHL1    C814044   1.204   3.462   6.385 -0.4930 -0.2836  0.3871
  106CHL1    H814045   1.111   3.487   6.441 -0.0319  0.4892  0.8166
  106CHL1   C1414046   1.217   3.538   6.255 -0.3860  0.0397 -0.1343
  106CHL1   H1414047   1.307   3.501   6.202  0.1560  0.6484  0.3437
  106CHL1   C1514048   1.251   3.689   6.249  0.1891 -0.8175  0.2961
  106CHL1  H15A14049   1.193   3.748   6.323  0.6919  0.3235 -0.1950
  106CHL1  H15B14050   1.361   3.699   6.258  0.2079  0.4530 -1.0555
  106CHL1   C1614051   1.206   3.740   6.114 -0.3310  0.5366  0.4287
  106CHL1  H16A14052   1.135   3.824   6.127 -0.9773  0.0326  0.2022
  106CHL1  H16B14053   1.288   3.791   6.059 -1.0726  0.0551 -1.1618
  106CHL1   C1714054   1.153   3.614   6.036  0.3503 -0.6983 -0.3714
  106CHL1   H1714055   1.238   3.560   5.989  1.4524  1.8648 -1.4878
  106CHL1   C1314056   1.106   3.518   6.149  0.2089  0.8812 -0.1642
  106CHL1   C1814057   0.984   3.571   6.217  0.6479 -0.3143  0.2330
  106CHL1  H18A14058   0.986   3.677   6.250  1.0094 -0.1713 -0.2251
  106CHL1  H18B14059   0.896   3.569   6.150 -1.0875  0.7621  2.3823
  106CHL1  H18C14060   0.944   3.512   6.302 -0.1374 -1.2064 -0.7270
  106CHL1   C1214061   1.097   3.366   6.121 -0.2757 -0.6079  1.0159
  106CHL1  H12A14062   1.011   3.341   6.056 -1.5450  1.0498  1.9682
  106CHL1  H12B14063   1.193   3.347   6.068 -0.4782  0.2600  0.3169
  106CHL1   C1114064   1.093   3.281   6.248 -0.4141 -0.8136  0.2953
  106CHL1  H11A14065   0.993   3.304   6.291 -0.7364 -0.5707 -0.5785
  106CHL1  H11B14066   1.095   3.173   6.223 -0.6706 -0.2184 -2.6598
  106CHL1    C914067   1.208   3.314   6.349  0.7202  0.6353  0.2457
  106CHL1    H914068   1.306   3.287   6.304  0.6663 -2.3474  1.6364
  106CHL1   C1014069   1.206   3.220   6.478 -0.3767 -0.2009  0.3010
  106CHL1   C1914070   1.058   3.216   6.527 -0.5855  0.6373 -1.0004
  106CHL1  H19A14071   1.071   3.168   6.627  2.8854  0.0111 -1.6219
  106CHL1  H19B14072   1.026   3.319   6.555 -2.0622 -0.0409 -0.0773
  106CHL1  H19C14073   0.987   3.166   6.459  0.0539 -0.3280 -0.9829
  106CHL1    C114074   1.249   3.077   6.439 -0.0813  0.7591 -0.0012
  106CHL1   H1A14075   1.171   3.024   6.380  2.0923 -0.0017 -2.3824
  106CHL1   H1B14076   1.342   3.080   6.378 -0.0462 -0.6072 -0.0600
  106CHL1    C214077   1.269   2.997   6.569  1.0664  0.4692 -0.3240
  106CHL1   H2A14078   1.281   2.894   6.529 -0.2831  1.7089 -4.4794
  106CHL1   H2B14079   1.179   2.994   6.634  0.8387  0.4502 -0.6379
  106CHL1   C2014080   1.049   3.636   5.915 -0.4301  0.6488 -0.0063
  106CHL1   H2014081   0.980   3.549   5.914  0.3711 -0.0912  2.6518
  106CHL1   C2114082   1.122   3.650   5.782  0.2724  0.6616  0.5667
  106CHL1  H21A14083   1.214   3.588   5.784 -0.8686 -1.1044  0.3850
  106CHL1  H21B14084   1.154   3.755   5.766  0.0893  0.6402  0.0479
  106CHL1  H21C14085   1.051   3.627   5.699  1.0489  0.1482  0.0287
  106CHL1   C2214086   0.957   3.757   5.936 -0.0687 -0.3405  0.1411
  106CHL1  H22A14087   0.924   3.763   6.042 -1.8520 -0.7941 -0.3570
  106CHL1  H22B14088   1.004   3.853   5.906 -1.5581  0.9432  1.6692
  106CHL1   C2314089   0.825   3.754   5.855  0.1801  0.8040  0.1892
  106CHL1  H23A14090   0.853   3.708   5.758  0.5056 -0.2592  0.7666
  106CHL1  H23B14091   0.762   3.684   5.915  3.2591  1.1092  4.2174
  106CHL1   C2414092   0.764   3.894   5.833 -0.0168  0.1415  0.1697
  106CHL1  H24A14093   0.734   3.928   5.934  0.0398  1.4443 -0.2344
  106CHL1  H24B14094   0.839   3.968   5.798 -0.0773  0.1240  0.0014
  106CHL1   C2514095   0.641   3.877   5.754  0.2796 -0.3177  0.7746
  106CHL1   H2514096   0.656   3.814   5.664 -0.2640 -1.5188  1.5012
  106CHL1   C2614097   0.519   3.811   5.825 -0.1379 -0.1756  0.3165
  106CHL1  H26A14098   0.424   3.816   5.768 -0.7570 -1.6409  1.1462
  106CHL1  H26B14099   0.534   3.703   5.848  0.1396 -0.9151 -2.8366
  106CHL1  H26C14100   0.507   3.862   5.923  1.4482 -0.0143  0.4505
  106CHL1   C2714101   0.591   4.023   5.718  0.4470 -0.2158 -0.4848
  106CHL1  H27A14102   0.546   4.072   5.807 -0.6005 -0.7029 -0.7323
  106CHL1  H27B14103   0.675   4.086   5.683  1.0260  0.4478  1.9090
  106CHL1  H27C14104   0.512   4.022   5.640  0.5205 -0.6619 -0.5608
  107CHL1    C314105   3.820   6.810   6.718 -0.1642  0.2016 -0.1736
  107CHL1    H314106   3.774   6.911   6.707 -0.3598  0.4431  2.1606
  107CHL1    O314107   3.730   6.760   6.815  0.5350  0.3628 -0.3254
  107CHL1   H3'14108   3.741   6.814   6.893  0.4866 -3.2276  2.4090
  107CHL1    C414109   3.826   6.726   6.592  0.1222  0.6823 -0.1107
  107CHL1   H4A14110   3.857   6.629   6.637 -0.7992  0.3691 -0.1248
  107CHL1   H4B14111   3.721   6.729   6.556  0.0094  1.0723  0.2496
  107CHL1    C514112   3.926   6.794   6.501  0.0220 -0.5355 -0.0582
  107CHL1    C614113   3.883   6.840   6.383 -0.3435 -0.1142  0.3689
  107CHL1    H614114   3.781   6.831   6.342  0.1066  1.2203 -1.1608
  107CHL1    C714115   3.975   6.919   6.298 -0.0011  0.1452  0.1646
  107CHL1   H7A14116   3.942   6.901   6.193  1.0439 -2.7979  0.2482
  107CHL1   H7B14117   3.958   7.028   6.310  0.0791  0.2417 -0.5461
  107CHL1    C814118   4.122   6.884   6.314 -0.0786  0.7076  0.2002
  107CHL1    H814119   4.143   6.780   6.280  1.5434  1.5443 -1.5553
  107CHL1   C1414120   4.200   6.972   6.216 -0.3059  0.4346 -0.3291
  107CHL1   H1414121   4.178   7.079   6.236 -2.0683  0.6198 -2.8776
  107CHL1   C1514122   4.178   6.947   6.064  0.0420  0.2719  0.3935
  107CHL1  H15A14123   4.171   6.841   6.034  1.4764  0.4393 -0.6412
  107CHL1  H15B14124   4.078   6.993   6.047  0.6610  1.1330 -1.1630
  107CHL1   C1614125   4.294   7.029   5.997  0.0971 -0.5018 -0.1909
  107CHL1  H16A14126   4.327   6.964   5.913 -0.8679  1.5830 -2.3072
  107CHL1  H16B14127   4.258   7.125   5.955 -0.1411 -1.7412 -3.0941
  107CHL1   C1714128   4.402   7.049   6.114  0.9962 -0.1739  0.3782
  107CHL1   H1714129   4.402   7.155   6.146 -0.9836 -0.3388  1.0795
  107CHL1   C1314130   4.351   6.965   6.229  0.0382 -0.3171 -0.8236
  107CHL1   C1814131   4.396   6.821   6.201 -0.0859  0.7560 -0.5785
  107CHL1  H18A14132   4.345   6.742   6.261 -1.2501  0.5536 -1.7809
  107CHL1  H18B14133   4.392   6.784   6.096  0.9170 -1.9555  0.2430
  107CHL1  H18C14134   4.502   6.809   6.233  0.3446  2.9028 -1.0274
  107CHL1   C1214135   4.379   7.007   6.382 -0.0642 -0.7510 -0.1444
  107CHL1  H12A14136   4.488   7.016   6.399 -0.0599 -0.7389 -0.1778
  107CHL1  H12B14137   4.347   7.113   6.394  0.9051 -0.1832 -2.2063
  107CHL1   C1114138   4.310   6.912   6.483  0.6025  0.6005 -0.2609
  107CHL1  H11A14139   4.346   6.809   6.460 -0.7984 -0.2774  1.2964
  107CHL1  H11B14140   4.349   6.928   6.586  0.9394  1.6861 -0.5389
  107CHL1    C914141   4.157   6.911   6.464  0.4403  0.1403  0.0739
  107CHL1    H914142   4.120   7.012   6.492 -0.1716  0.9176 -3.0831
  107CHL1   C1014143   4.083   6.812   6.552  0.3715 -0.2542  0.1962
  107CHL1   C1914144   4.152   6.674   6.561  0.0711 -0.6173  0.1158
  107CHL1  H19A14145   4.186   6.635   6.463 -0.4779 -2.8807  0.7680
  107CHL1  H19B14146   4.243   6.672   6.625  0.2133  2.1870  0.1094
  107CHL1  H19C14147   4.079   6.595   6.591  1.1621 -1.6743  0.0735
  107CHL1    C114148   4.065   6.877   6.694 -0.4778  0.0432  0.6666
  107CHL1   H1A14149   4.166   6.885   6.741 -0.9812  0.7926  1.6492
  107CHL1   H1B14150   4.028   6.981   6.687  0.2989  0.3720  1.2171
  107CHL1    C214151   3.967   6.805   6.784  0.0106 -0.6715 -0.0916
  107CHL1   H2A14152   3.960   6.852   6.885  0.2317 -0.3640 -0.2150
  107CHL1   H2B14153   3.993   6.699   6.805 -1.0069 -0.6950  1.1549
  107CHL1   C2014154   4.542   7.020   6.059 -0.5376 -0.3864  0.5444
  107CHL1   H2014155   4.548   6.914   6.027 -1.3941  0.0903 -1.3510
  107CHL1   C2114156   4.649   7.054   6.165  0.2573  0.3436 -0.2954
  107CHL1  H21A14157   4.635   6.991   6.256 -1.3257  2.5480  1.0809
  107CHL1  H21B14158   4.644   7.159   6.201  2.0242  0.4691 -0.3521
  107CHL1  H21C14159   4.755   7.048   6.133  0.4019 -0.3604  0.2790
  107CHL1   C2214160   4.572   7.102   5.926 -0.3947 -0.3066 -0.1223
  107CHL1  H22A14161   4.482   7.079   5.866 -0.1458 -1.2288 -0.1694
  107CHL1  H22B14162   4.574   7.210   5.950 -0.3382 -0.1581 -0.7754
  107CHL1   C2314163   4.700   7.057   5.856  0.1917  0.4174 -0.3352
  107CHL1  H23A14164   4.793   7.084   5.912  1.5619 -3.6977 -0.3178
  107CHL1  H23B14165   4.697   6.946   5.853 -0.5411  0.3230  1.9730
  107CHL1   C2414166   4.710   7.119   5.717 -0.1063  0.1355 -0.9909
  107CHL1  H24A14167   4.628   7.089   5.649 -0.4728  0.1301 -0.5498
  107CHL1  H24B14168   4.704   7.230   5.724  1.3263  0.1534  1.0764
  107CHL1   C2514169   4.845   7.101   5.641 -0.1804 -0.6793  0.5400
  107CHL1   H2514170   4.925   7.109   5.718 -0.6283  1.4794  0.8249
  107CHL1   C2614171   4.857   6.978   5.551  0.3466 -0.4658  0.1751
  107CHL1  H26A14172   4.774   6.958   5.480  0.1610  1.3958 -0.1762
  107CHL1  H26B14173   4.949   6.984   5.489  1.2100 -1.6211  1.2901
  107CHL1  H26C14174   4.864   6.890   5.619 -1.9793 -1.1086 -0.3299
  107CHL1   C2714175   4.861   7.230   5.552 -0.3643 -0.2116 -0.2508
  107CHL1  H27A14176   4.779   7.235   5.477 -0.8819 -0.9142  0.2571
  107CHL1  H27B14177   4.860   7.322   5.613 -0.7259  0.4514 -1.2248
  107CHL1  H27C14178   4.959   7.225   5.499 -1.1456  1.3159 -1.9614
  108CHL1    C314179   5.372   3.930   6.646 -0.2632 -1.0582 -0.3250
  108CHL1    H314180   5.277   3.926   6.704  0.9373 -0.5449  1.8145
  108CHL1    O314181   5.460   3.995   6.738  0.3576  0.2063 -0.7839
  108CHL1   H3'14182   5.546   3.970   6.703  0.6297 -0.6785  0.4295
  108CHL1    C414183   5.420   3.785   6.624 -0.3402 -0.0142 -0.1908
  108CHL1   H4A14184   5.521   3.787   6.580 -0.8365 -0.5035 -1.3944
  108CHL1   H4B14185   5.429   3.737   6.724  2.7232  0.4648 -0.1599
  108CHL1    C514186   5.327   3.705   6.536  0.4154 -0.0053 -0.0749
  108CHL1    C614187   5.261   3.601   6.590 -0.4875 -0.2867 -0.0493
  108CHL1    H614188   5.284   3.568   6.692  0.4344  2.8914  0.8873
  108CHL1    C714189   5.166   3.517   6.515 -0.1310 -0.5595 -1.0224
  108CHL1   H7A14190   5.185   3.410   6.534 -0.7145 -0.7608 -1.5371
  108CHL1   H7B14191   5.060   3.539   6.537  0.4891  3.6763 -1.4201
  108CHL1    C814192   5.186   3.541   6.359  0.1047  0.4258 -0.2858
  108CHL1    H814193   5.291   3.507   6.343  0.7396  1.3619  1.5490
  108CHL1   C1414194   5.082   3.460   6.280 -0.2247  0.0262  0.5036
  108CHL1   H1414195   4.979   3.491   6.308 -2.0769 -1.5922 -3.6375
  108CHL1   C1514196   5.086   3.305   6.294  0.4463 -0.0780 -0.5381
  108CHL1  H15A14197   5.188   3.262   6.301 -1.0418 -3.7433  1.3483
  108CHL1  H15B14198   5.041   3.265   6.388  0.5418 -1.0617 -0.8915
  108CHL1   C1614199   5.033   3.258   6.156  0.3900  0.1595  0.0563
  108CHL1  H16A14200   5.126   3.208   6.122  0.1895  0.4726 -0.9742
  108CHL1  H16B14201   4.954   3.185   6.184 -1.1700  0.7727 -2.4255
  108CHL1   C1714202   4.999   3.384   6.065 -0.4280  0.6915  0.0304
  108CHL1   H1714203   4.903   3.426   6.102  0.2121  1.8163  0.5003
  108CHL1   C1314204   5.098   3.489   6.130  0.1332  0.3232  0.3801
  108CHL1   C1814205   5.239   3.454   6.082  0.4656 -0.1338 -0.4209
  108CHL1  H18A14206   5.309   3.515   6.143 -0.2219 -1.2785  1.6130
  108CHL1  H18B14207   5.283   3.354   6.103 -0.1299 -0.3549 -0.1920
  108CHL1  H18C14208   5.253   3.480   5.975 -0.5404 -0.2112 -0.5828
  108CHL1   C1214209   5.066   3.635   6.101 -0.1577 -0.0560  0.6779
  108CHL1  H12A14210   5.055   3.653   5.992  1.2642 -1.7759  0.2015
  108CHL1  H12B14211   4.964   3.661   6.138 -0.3272  0.1547  0.0668
  108CHL1   C1114212   5.166   3.729   6.173  0.0642  0.4108 -0.2788
  108CHL1  H11A14213   5.257   3.708   6.113  0.5070  1.5493 -0.0279
  108CHL1  H11B14214   5.132   3.833   6.154 -0.0099 -0.0451 -3.0522
  108CHL1    C914215   5.177   3.695   6.324 -0.6910 -0.3175 -0.9077
  108CHL1    H914216   5.083   3.724   6.374 -0.9483 -1.7502 -0.5305
  108CHL1   C1014217   5.295   3.772   6.396  0.1548  0.1348  0.2830
  108CHL1   C1914218   5.414   3.746   6.311  0.5595  0.1898  0.1309
  108CHL1  H19A14219   5.504   3.760   6.374  1.1420  2.4337 -1.1001
  108CHL1  H19B14220   5.425   3.639   6.283  1.4593  0.8908 -2.5781
  108CHL1  H19C14221   5.427   3.798   6.213  0.9597 -0.4224 -0.1475
  108CHL1    C114222   5.260   3.923   6.412  0.4668 -0.4866  0.1252
  108CHL1   H1A14223   5.244   3.965   6.310 -1.7798 -0.0488  0.5938
  108CHL1   H1B14224   5.162   3.935   6.463 -0.2135  0.2622 -1.2879
  108CHL1    C214225   5.359   4.000   6.508 -0.4254  0.4506  0.4634
  108CHL1   H2A14226   5.325   4.106   6.512 -0.8473  0.3867 -0.8662
  108CHL1   H2B14227   5.460   4.008   6.464 -0.2787 -2.2307  0.1922
  108CHL1   C2014228   5.006   3.370   5.916 -0.1697 -0.4138  0.3836
  108CHL1   H2014229   5.058   3.459   5.877 -0.6538 -0.7446 -1.0566
  108CHL1   C2114230   4.864   3.385   5.865  0.2487 -0.6363  0.0686
  108CHL1  H21A14231   4.813   3.479   5.898 -1.4998 -1.2234 -0.8364
  108CHL1  H21B14232   4.811   3.294   5.900 -1.0082 -0.4200 -1.1522
  108CHL1  H21C14233   4.869   3.393   5.755 -1.4242 -3.0448 -0.2535
  108CHL1   C2214234   5.076   3.252   5.863  0.0675  0.3100  0.2260
  108CHL1  H22A14235   5.183   3.248   5.894 -0.5096  1.3079  2.5597
  108CHL1  H22B14236   5.022   3.156   5.880 -1.5939  1.2350  0.3000
  108CHL1   C2314237   5.084   3.265   5.703 -0.2888  0.2159  0.0704
  108CHL1  H23A14238   4.988   3.238   5.655 -1.3779 -0.4565  2.4470
  108CHL1  H23B14239   5.109   3.373   5.695  0.3815  0.2395  1.9522
  108CHL1   C2414240   5.200   3.172   5.653 -0.1084 -0.1082 -0.3173
  108CHL1  H24A14241   5.209   3.188   5.543 -0.6977  0.7954 -0.2474
  108CHL1  H24B14242   5.289   3.205   5.711 -0.5513  0.8890 -0.1793
  108CHL1   C2514243   5.183   3.015   5.668  0.2345 -0.0200 -0.1564
  108CHL1   H2514244   5.179   2.998   5.777  0.4007  1.1674  0.0518
  108CHL1   C2614245   5.045   2.967   5.623  0.1352 -0.1504  1.0957
  108CHL1  H26A14246   5.026   2.986   5.515 -0.9331 -2.5493  0.7921
  108CHL1  H26B14247   5.038   2.856   5.634  1.6325 -0.7945 -2.7488
  108CHL1  H26C14248   4.965   3.010   5.686 -0.1060  0.9645  0.0638
  108CHL1   C2714249   5.301   2.939   5.602 -0.2729  0.8351  0.3687
  108CHL1  H27A14250   5.292   2.941   5.491  0.6576 -0.0410  0.2634
  108CHL1  H27B14251   5.400   2.975   5.635  0.1668  2.0028 -2.0015
  108CHL1  H27C14252   5.293   2.836   5.642  0.4166  1.0817  1.1614
  109CHL1    C314253   4.640   6.572   6.478  0.0927 -1.0378 -0.3836
  109CHL1    H314254   4.594   6.673   6.481  1.1309 -0.4462 -2.2444
  109CHL1    O314255   4.640   6.522   6.611  0.1996  0.1461  0.0391
  109CHL1   H3'14256   4.636   6.426   6.616 -1.2326  0.2453  1.8495
  109CHL1    C414257   4.554   6.481   6.389  0.0409  1.0070 -0.5521
  109CHL1   H4A14258   4.579   6.376   6.414 -0.6730  0.8050 -0.6619
  109CHL1   H4B14259   4.451   6.497   6.428  0.0011  0.0780 -0.2356
  109CHL1    C514260   4.567   6.499   6.239  0.3497  0.6171 -0.0064
  109CHL1    C614261   4.465   6.506   6.154  0.6260  0.4389  0.1806
  109CHL1    H614262   4.360   6.492   6.185 -0.3385  1.7196 -2.1759
  109CHL1    C714263   4.478   6.505   6.004  0.3484  0.5472 -0.4800
  109CHL1   H7A14264   4.423   6.419   5.960  2.1441 -1.6810  1.3788
  109CHL1   H7B14265   4.432   6.593   5.955 -2.2545 -0.9896 -0.9529
  109CHL1    C814266   4.622   6.489   5.943  0.9535 -0.5517 -0.4424
  109CHL1    H814267   4.636   6.380   5.958 -1.8402 -0.9718 -0.3510
  109CHL1   C1414268   4.628   6.528   5.799  0.2841 -0.1361  0.1431
  109CHL1   H1414269   4.615   6.639   5.798  2.0114  0.0923  0.6478
  109CHL1   C1514270   4.535   6.464   5.697  0.9549  0.1386 -0.5423
  109CHL1  H15A14271   4.535   6.356   5.722 -0.3818  0.5729  1.5718
  109CHL1  H15B14272   4.428   6.493   5.707  0.5554 -1.4761  0.3125
  109CHL1   C1614273   4.590   6.505   5.563  0.3550 -0.3990  0.0558
  109CHL1  H16A14274   4.597   6.408   5.509 -0.6128 -0.0673 -0.6912
  109CHL1  H16B14275   4.515   6.570   5.514  1.4226  0.1039 -0.9538
  109CHL1   C1714276   4.735   6.568   5.590 -0.6143 -0.2422  0.3271
  109CHL1   H1714277   4.721   6.678   5.601  1.4134  0.0356  0.5219
  109CHL1   C1314278   4.766   6.527   5.737 -0.0521  0.8785 -0.7348
  109CHL1   C1814279   4.821   6.379   5.730  0.3285  0.0707 -0.4487
  109CHL1  H18A14280   4.921   6.371   5.683  0.1685 -0.5712 -0.6930
  109CHL1  H18B14281   4.826   6.346   5.836 -2.4702 -1.0411 -0.5540
  109CHL1  H18C14282   4.742   6.321   5.677  1.0230 -0.9330 -0.4071
  109CHL1   C1214283   4.860   6.624   5.813  0.7242  1.0935 -0.4559
  109CHL1  H12A14284   4.965   6.623   5.778 -0.0938  3.0603 -3.3339
  109CHL1  H12B14285   4.835   6.730   5.793 -1.1648  0.4208 -2.0743
  109CHL1   C1114286   4.861   6.592   5.967  0.3518 -0.9313 -0.6578
  109CHL1  H11A14287   4.919   6.499   5.983 -1.6877 -2.0730  0.3902
  109CHL1  H11B14288   4.911   6.680   6.013  1.0169 -1.8839  0.4807
  109CHL1    C914289   4.723   6.569   6.033  0.0453 -0.5843  0.0280
  109CHL1    H914290   4.678   6.671   6.030  0.2242 -0.5265 -1.5025
  109CHL1   C1014291   4.721   6.519   6.185  0.7436 -1.3433 -0.9579
  109CHL1   C1914292   4.790   6.377   6.180  0.0471  0.2554 -0.2829
  109CHL1  H19A14293   4.899   6.393   6.165 -0.0339  1.4647  0.2574
  109CHL1  H19B14294   4.774   6.314   6.270  0.0144 -0.2000 -0.6082
  109CHL1  H19C14295   4.750   6.312   6.100  0.9836  1.5662 -1.8883
  109CHL1    C114296   4.790   6.623   6.276 -0.4462 -0.8522  0.5088
  109CHL1   H1A14297   4.898   6.628   6.249 -0.4682  0.9627  0.6195
  109CHL1   H1B14298   4.742   6.722   6.261 -3.0511 -1.6606  2.8039
  109CHL1    C214299   4.783   6.584   6.416 -0.3392  0.0893 -1.0212
  109CHL1   H2A14300   4.836   6.666   6.470 -0.8914 -0.0862 -0.1900
  109CHL1   H2B14301   4.831   6.489   6.448  2.2858  1.5977 -0.1998
  109CHL1   C2014302   4.834   6.526   5.477 -0.1128  0.2710 -0.2436
  109CHL1   H2014303   4.848   6.417   5.492  0.0655  0.3246 -0.0153
  109CHL1   C2114304   4.974   6.594   5.497 -0.1973 -0.6528 -0.1930
  109CHL1  H21A14305   5.007   6.552   5.595 -2.8729 -0.9350  0.6718
  109CHL1  H21B14306   4.974   6.705   5.503  0.3795 -0.5208 -1.9981
  109CHL1  H21C14307   5.047   6.570   5.417  0.0100 -1.3235  0.1843
  109CHL1   C2214308   4.774   6.541   5.333  0.6978  0.4085  0.9826
  109CHL1  H22A14309   4.856   6.519   5.262  0.3453  1.1950  0.3222
  109CHL1  H22B14310   4.691   6.469   5.319  0.1985  1.2498 -0.6119
  109CHL1   C2314311   4.722   6.679   5.298  0.0220  0.3003 -0.5807
  109CHL1  H23A14312   4.639   6.707   5.366 -1.4114  1.5757 -2.7588
  109CHL1  H23B14313   4.802   6.756   5.306 -0.4759  0.8571 -0.8720
  109CHL1   C2414314   4.685   6.679   5.155 -0.0438  0.6691  0.2149
  109CHL1  H24A14315   4.775   6.652   5.095 -1.1928  0.6895 -1.6134
  109CHL1  H24B14316   4.601   6.611   5.132 -0.9122  1.9659 -0.5871
  109CHL1   C2514317   4.628   6.824   5.119 -0.0393 -0.0742  1.0285
  109CHL1   H2514318   4.533   6.833   5.176 -1.4424 -0.1024 -1.2035
  109CHL1   C2614319   4.722   6.939   5.153  0.0229  0.4581  0.5849
  109CHL1  H26A14320   4.752   6.937   5.260  0.2219  0.4932  0.5301
  109CHL1  H26B14321   4.818   6.923   5.098 -0.6125  0.7481 -0.6421
  109CHL1  H26C14322   4.675   7.036   5.126 -1.5227 -0.1633  0.9949
  109CHL1   C2714323   4.595   6.835   4.965 -0.0163  0.0758  0.3788
  109CHL1  H27A14324   4.543   6.931   4.942 -2.4457 -1.3510 -0.5404
  109CHL1  H27B14325   4.696   6.842   4.921  0.3982 -3.7681  0.4037
  109CHL1  H27C14326   4.539   6.747   4.926  2.0341 -1.9015  1.7119
  110CHL1    C314327   1.323   5.282   6.590 -0.7218 -0.1754 -0.5534
  110CHL1    H314328   1.407   5.212   6.573 -1.1847 -1.2525  1.2945
  110CHL1    O314329   1.307   5.293   6.731  0.2290 -0.3224 -0.3375
  110CHL1   H3'14330   1.267   5.214   6.769 -0.4581 -0.7454 -1.8595
  110CHL1    C414331   1.358   5.424   6.524 -0.3042 -0.4867 -1.0075
  110CHL1   H4A14332   1.284   5.496   6.564  0.1541 -0.7906  0.4309
  110CHL1   H4B14333   1.458   5.450   6.565 -0.0027 -1.4813 -1.0856
  110CHL1    C514334   1.361   5.431   6.375  0.4416  0.0207 -0.1769
  110CHL1    C614335   1.466   5.480   6.309  0.2820  0.4206  0.7056
  110CHL1    H614336   1.552   5.523   6.363  1.2708 -0.6712  0.0662
  110CHL1    C714337   1.462   5.487   6.161 -0.5017  0.1450  0.0614
  110CHL1   H7A14338   1.498   5.587   6.128 -0.1091  0.7639  2.1999
  110CHL1   H7B14339   1.531   5.410   6.120 -0.3517  1.3119 -2.0294
  110CHL1    C814340   1.328   5.464   6.093  0.3524 -0.2366 -0.2860
  110CHL1    H814341   1.276   5.561   6.111  0.5771 -0.1960  0.1555
  110CHL1   C1414342   1.346   5.448   5.946  0.0328  0.6410 -0.0558
  110CHL1   H1414343   1.390   5.348   5.923 -2.7936 -0.4675 -0.9821
  110CHL1   C1514344   1.435   5.536   5.859 -0.3911  0.9240 -0.1735
  110CHL1  H15A14345   1.418   5.635   5.906  1.5777  0.0702  2.6228
  110CHL1  H15B14346   1.541   5.520   5.890 -0.2321 -0.7170 -1.4154
  110CHL1   C1614347   1.396   5.523   5.712  0.8555 -0.3897  0.2390
  110CHL1  H16A14348   1.363   5.622   5.675  0.5971 -0.7571 -0.5192
  110CHL1  H16B14349   1.477   5.489   5.645  1.8604  0.0942  1.1678
  110CHL1   C1714350   1.266   5.435   5.722 -0.0275 -0.1529  0.0935
  110CHL1   H1714351   1.303   5.331   5.710 -1.4103 -0.4901 -1.5203
  110CHL1   C1314352   1.212   5.442   5.868 -0.3052 -0.0828  0.4752
  110CHL1   C1814353   1.138   5.579   5.880  0.0062 -0.7726 -0.9418
  110CHL1  H18A14354   1.039   5.568   5.831 -0.7781 -0.0003  0.4178
  110CHL1  H18B14355   1.120   5.612   5.985 -0.9996  0.0886 -1.3650
  110CHL1  H18C14356   1.192   5.660   5.827 -0.4674 -0.5001 -1.0143
  110CHL1   C1214357   1.142   5.323   5.925 -0.1290  0.1844 -0.4544
  110CHL1  H12A14358   1.049   5.308   5.866 -1.2128 -0.2348  1.3017
  110CHL1  H12B14359   1.203   5.233   5.902  0.6152  0.6970 -0.5529
  110CHL1   C1114360   1.120   5.329   6.081  0.8875  0.3670 -0.0638
  110CHL1  H11A14361   1.038   5.404   6.090 -2.9516 -3.1542 -2.2510
  110CHL1  H11B14362   1.075   5.234   6.116 -3.0721  1.8592 -0.5841
  110CHL1    C914363   1.249   5.355   6.155  0.4817 -0.5794 -0.7206
  110CHL1    H914364   1.311   5.264   6.146  1.9043  0.1462  1.1440
  110CHL1   C1014365   1.234   5.366   6.311 -0.5349  0.3108  0.3124
  110CHL1   C1914366   1.112   5.454   6.340 -0.0902  0.2754  0.2189
  110CHL1  H19A14367   1.129   5.548   6.284  0.3407 -0.8895 -1.7140
  110CHL1  H19B14368   1.021   5.402   6.303 -0.6079  0.5302  1.0956
  110CHL1  H19C14369   1.101   5.469   6.450 -0.1299  2.2472 -0.0151
  110CHL1    C114370   1.221   5.224   6.373  0.7943 -0.3838 -0.0266
  110CHL1   H1A14371   1.129   5.185   6.324  0.7698 -0.8546  0.3870
  110CHL1   H1B14372   1.307   5.161   6.343  0.4406 -0.5343 -0.7539
  110CHL1    C214373   1.198   5.222   6.520 -0.0069 -0.0781 -0.7739
  110CHL1   H2A14374   1.189   5.119   6.561  0.7764 -0.3283 -1.2113
  110CHL1   H2B14375   1.099   5.270   6.533  0.0615 -0.4332  1.3208
  110CHL1   C2014376   1.173   5.462   5.609 -0.2851  0.4034 -0.5186
  110CHL1   H2014377   1.126   5.560   5.633 -2.0675 -1.2267  3.8287
  110CHL1   C2114378   1.051   5.367   5.619 -0.1757  0.3168  0.4894
  110CHL1  H21A14379   1.005   5.372   5.518  1.2579  0.9773 -0.1418
  110CHL1  H21B14380   0.985   5.410   5.699  0.2385  2.4040 -0.2256
  110CHL1  H21C14381   1.092   5.269   5.652 -1.5975 -0.4153  0.1824
  110CHL1   C2214382   1.235   5.482   5.472 -0.3207 -0.2034  0.0825
  110CHL1  H22A14383   1.159   5.518   5.399 -2.6118 -3.2395  0.8002
  110CHL1  H22B14384   1.314   5.560   5.475  0.0870 -0.5358 -1.3895
  110CHL1   C2314385   1.290   5.353   5.410  0.2334  0.9344  0.5003
  110CHL1  H23A14386   1.397   5.341   5.438  0.2811  0.1481  0.0340
  110CHL1  H23B14387   1.243   5.258   5.444 -0.4391  0.7532 -0.8470
  110CHL1   C2414388   1.262   5.357   5.255  0.7099 -0.8518 -0.3017
  110CHL1  H24A14389   1.152   5.369   5.240  1.2132  1.8688 -2.8135
  110CHL1  H24B14390   1.312   5.445   5.208 -3.8517  1.5523 -1.3164
  110CHL1   C2514391   1.314   5.232   5.193 -0.3841  0.0499 -0.2341
  110CHL1   H2514392   1.259   5.144   5.232 -2.4652  2.2221  2.0975
  110CHL1   C2614393   1.278   5.233   5.045  0.0866 -0.2373  0.7241
  110CHL1  H26A14394   1.169   5.241   5.023  0.3606 -0.6408 -0.9058
  110CHL1  H26B14395   1.338   5.317   5.003  0.9874 -1.0295  0.4074
  110CHL1  H26C14396   1.312   5.139   4.996 -0.4474  0.2896 -0.6977
  110CHL1   C2714397   1.468   5.201   5.210  0.1182  0.2306 -0.1660
  110CHL1  H27A14398   1.483   5.097   5.176  1.6606  0.2580  0.3487
  110CHL1  H27B14399   1.532   5.273   5.155 -0.1762  0.9708  0.4424
  110CHL1  H27C14400   1.493   5.205   5.318 -1.0770 -0.6511  0.1675
  111CHL1    C314401   3.381   1.371   6.706  0.3288  0.7500  0.2277
  111CHL1    H314402   3.458   1.292   6.694  0.4650  0.6939  1.3418
  111CHL1    O314403   3.370   1.441   6.832  0.1578 -0.0117 -0.2798
  111CHL1   H3'14404   3.335   1.372   6.888 -0.9488  0.9333  0.2330
  111CHL1    C414405   3.404   1.477   6.588  0.4657 -0.1940  1.0676
  111CHL1   H4A14406   3.320   1.549   6.584  0.0236 -0.7365 -0.8848
  111CHL1   H4B14407   3.499   1.530   6.608  0.0077  0.8415  0.5867
  111CHL1    C514408   3.407   1.411   6.452 -0.4363 -0.3070  0.0882
  111CHL1    C614409   3.511   1.431   6.368  0.2411  0.4656  0.2321
  111CHL1    H614410   3.594   1.496   6.398 -1.7616  2.4222  1.9422
  111CHL1    C714411   3.523   1.352   6.240  0.3985  0.2123 -0.6285
  111CHL1   H7A14412   3.581   1.411   6.165 -0.8354  1.5162 -0.6086
  111CHL1   H7B14413   3.592   1.268   6.263 -1.8556 -0.8270  3.0343
  111CHL1    C814414   3.393   1.288   6.195 -0.2259 -0.1962 -0.0078
  111CHL1    H814415   3.330   1.371   6.157  1.3988  1.2217  0.2631
  111CHL1   C1414416   3.417   1.188   6.093 -0.7891  0.8008  0.0644
  111CHL1   H1414417   3.472   1.105   6.143 -2.0554 -0.7051 -0.9551
  111CHL1   C1514418   3.505   1.225   5.970 -0.4669  0.5401  0.0286
  111CHL1  H15A14419   3.467   1.321   5.928  1.2935  0.2256 -2.5513
  111CHL1  H15B14420   3.615   1.232   5.985 -0.2780 -1.0493 -0.4494
  111CHL1   C1614421   3.470   1.119   5.857  0.0111  0.2269  0.4233
  111CHL1  H16A14422   3.440   1.166   5.760 -0.0997 -0.6558  0.0179
  111CHL1  H16B14423   3.561   1.058   5.838 -1.1115 -1.4962  0.3105
  111CHL1   C1714424   3.356   1.025   5.910 -0.2924 -0.3632  0.4253
  111CHL1   H1714425   3.409   0.953   5.974  0.2033  0.2046  0.6610
  111CHL1   C1314426   3.295   1.111   6.021  0.2371  0.1272 -0.0742
  111CHL1   C1814427   3.204   1.221   5.957  0.2988 -0.7867 -0.2213
  111CHL1  H18A14428   3.107   1.176   5.926 -0.6257  1.4894 -0.8810
  111CHL1  H18B14429   3.176   1.297   6.034 -1.1117 -0.5270 -0.9628
  111CHL1  H18C14430   3.248   1.279   5.874  1.1521 -1.5081 -0.2814
  111CHL1   C1214431   3.229   1.030   6.134 -0.2379  0.7034 -0.1689
  111CHL1  H12A14432   3.136   0.978   6.103  0.4756 -1.5303  1.2518
  111CHL1  H12B14433   3.306   0.960   6.171  2.3151  3.5965  0.3986
  111CHL1   C1114434   3.201   1.130   6.257  0.4111  0.0405 -0.2854
  111CHL1  H11A14435   3.115   1.192   6.225  1.7447  2.5960  0.8000
  111CHL1  H11B14436   3.157   1.067   6.338 -2.5244  0.9932 -1.0169
  111CHL1    C914437   3.317   1.224   6.309  0.2201 -0.3992  0.5170
  111CHL1    H914438   3.385   1.146   6.349  1.5574 -1.3156 -3.1499
  111CHL1   C1014439   3.282   1.322   6.425  0.0925  0.5652 -0.1398
  111CHL1   C1914440   3.155   1.403   6.385  0.0239  0.2869 -0.5565
  111CHL1  H19A14441   3.151   1.469   6.296  1.0051  0.6817 -0.3181
  111CHL1  H19B14442   3.066   1.338   6.397  0.6405 -0.5878 -0.6013
  111CHL1  H19C14443   3.143   1.476   6.468  3.2836  1.0477 -0.6166
  111CHL1    C114444   3.250   1.228   6.548 -0.3749 -0.4084  0.3056
  111CHL1   H1A14445   3.150   1.183   6.533 -0.3361 -0.5026  0.3314
  111CHL1   H1B14446   3.322   1.144   6.550  1.3683  0.9973 -0.3578
  111CHL1    C214447   3.248   1.295   6.683 -0.3362 -0.1256 -0.8493
  111CHL1   H2A14448   3.263   1.222   6.766  1.6795  0.4540 -0.6502
  111CHL1   H2B14449   3.167   1.368   6.707  1.4227  1.7029 -0.1756
  111CHL1   C2014450   3.271   0.953   5.804 -0.7295  0.4328  0.0673
  111CHL1   H2014451   3.198   1.028   5.767 -1.6297 -0.4648 -0.0306
  111CHL1   C2114452   3.179   0.844   5.868 -0.2558 -0.3041 -0.1897
  111CHL1  H21A14453   3.238   0.776   5.933  2.1308  0.1464 -1.7589
  111CHL1  H21B14454   3.148   0.773   5.788 -0.1495  0.2205 -0.6992
  111CHL1  H21C14455   3.092   0.892   5.916  0.9224  1.2764  0.4645
  111CHL1   C2214456   3.351   0.895   5.688 -0.2581  0.1166 -0.0177
  111CHL1  H22A14457   3.272   0.852   5.623  0.8961 -2.8324  0.3773
  111CHL1  H22B14458   3.405   0.967   5.623  0.0679  0.4731  0.6342
  111CHL1   C2314459   3.449   0.776   5.725 -0.2801 -0.2401  0.9661
  111CHL1  H23A14460   3.508   0.801   5.816  0.9866 -0.9026  0.3620
  111CHL1  H23B14461   3.381   0.693   5.754 -0.6098 -0.6018 -0.7767
  111CHL1   C2414462   3.543   0.726   5.615  0.1835 -0.0734  0.3092
  111CHL1  H24A14463   3.472   0.719   5.529 -0.9404  1.4052  1.0736
  111CHL1  H24B14464   3.606   0.816   5.598 -1.0769  0.5267 -1.6215
  111CHL1   C2514465   3.629   0.598   5.645 -0.9355  0.2552 -0.7232
  111CHL1   H2514466   3.557   0.515   5.656  0.3492 -0.9815 -1.2759
  111CHL1   C2614467   3.723   0.570   5.523  0.3483  0.2000 -0.0670
  111CHL1  H26A14468   3.791   0.486   5.548 -0.9553 -0.4577  1.4322
  111CHL1  H26B14469   3.668   0.549   5.429  1.8587 -0.2084 -0.8882
  111CHL1  H26C14470   3.784   0.662   5.513  0.3647 -0.0395 -3.2910
  111CHL1   C2714471   3.716   0.623   5.775 -0.4809 -0.0844 -0.2295
  111CHL1  H27A14472   3.761   0.529   5.813 -0.4747  1.1441  3.1197
  111CHL1  H27B14473   3.799   0.693   5.750 -1.4083  0.6885 -1.2190
  111CHL1  H27C14474   3.661   0.664   5.862  1.6087  2.9595 -0.1941
  112CHL1    C314475   4.076   0.572   6.855  0.4045  0.0302 -0.6173
  112CHL1    H314476   4.186   0.575   6.869  0.0198 -1.1292  4.8264
  112CHL1    O314477   4.030   0.600   6.990 -1.0637 -0.5303  0.5557
  112CHL1   H3'14478   4.027   0.513   7.030 -1.0404 -1.0192 -0.4869
  112CHL1    C414479   4.022   0.681   6.760 -0.0882 -0.0419 -0.5670
  112CHL1   H4A14480   3.912   0.693   6.765  0.1678  2.8688  0.2894
  112CHL1   H4B14481   4.057   0.779   6.801 -2.4297  1.1814 -1.2924
  112CHL1    C514482   4.066   0.657   6.618  0.3889  0.1768 -0.1968
  112CHL1    C614483   4.135   0.745   6.543  0.6384  0.2868  0.1884
  112CHL1    H614484   4.166   0.838   6.591  0.2331  1.3044 -1.4509
  112CHL1    C714485   4.175   0.725   6.397  0.1663 -0.0858 -0.1538
  112CHL1   H7A14486   4.150   0.820   6.345  0.0908  1.3998  2.4033
  112CHL1   H7B14487   4.283   0.699   6.388  0.7393  2.1414 -0.4814
  112CHL1    C814488   4.088   0.609   6.331 -0.1367  0.5586 -0.2081
  112CHL1    H814489   3.988   0.647   6.304 -0.7495 -1.3311 -0.7611
  112CHL1   C1414490   4.151   0.560   6.201 -0.0792  0.1178 -0.2774
  112CHL1   H1414491   4.255   0.525   6.217 -0.2756 -2.2171 -3.3180
  112CHL1   C1514492   4.165   0.672   6.100  0.0550  0.6204  0.5938
  112CHL1  H15A14493   4.071   0.733   6.100  0.6497  1.5803 -0.5212
  112CHL1  H15B14494   4.256   0.734   6.116  1.1649 -0.7711 -0.1175
  112CHL1   C1614495   4.161   0.593   5.968  0.4649  0.5460 -0.3598
  112CHL1  H16A14496   4.077   0.640   5.913  0.5882  1.7504  0.4534
  112CHL1  H16B14497   4.254   0.617   5.912  1.0639 -2.0090 -0.5891
  112CHL1   C1714498   4.137   0.443   6.001  0.0154  0.0588 -0.2896
  112CHL1   H1714499   4.235   0.395   6.024 -0.4938 -0.3068  1.2097
  112CHL1   C1314500   4.069   0.447   6.137 -0.0122 -0.3104  0.4949
  112CHL1   C1814501   3.919   0.491   6.105  0.4536 -0.1902  1.0524
  112CHL1  H18A14502   3.867   0.417   6.040 -0.3368 -0.4466  1.9526
  112CHL1  H18B14503   3.855   0.501   6.195  0.6288 -1.1402  1.3004
  112CHL1  H18C14504   3.919   0.589   6.052 -2.5937 -0.7275 -0.1599
  112CHL1   C1214505   4.083   0.319   6.221  0.2904  0.6774  0.1441
  112CHL1  H12A14506   4.032   0.233   6.173 -0.8441  1.6287 -0.3914
  112CHL1  H12B14507   4.190   0.288   6.213  0.6262  2.0195 -1.1039
  112CHL1   C1114508   4.041   0.348   6.365 -1.0040  0.0902  0.4906
  112CHL1  H11A14509   3.931   0.338   6.378 -0.7595 -0.2969  2.5596
  112CHL1  H11B14510   4.096   0.272   6.423  1.4736  1.6402  0.3188
  112CHL1    C914511   4.087   0.486   6.426  0.7176  0.2421  0.0197
  112CHL1    H914512   4.195   0.466   6.443  0.3340 -3.2686 -0.8449
  112CHL1   C1014513   4.026   0.517   6.565 -0.9605  0.9030  0.0028
  112CHL1   C1914514   3.871   0.503   6.560 -0.5081  0.8627 -0.3575
  112CHL1  H19A14515   3.823   0.554   6.646  0.9697 -0.4223  1.3031
  112CHL1  H19B14516   3.833   0.561   6.473  0.4712  1.4501 -0.4091
  112CHL1  H19C14517   3.839   0.397   6.547 -0.4414  0.9805 -1.6316
  112CHL1    C114518   4.080   0.410   6.658  0.5206  0.2105  0.0979
  112CHL1   H1A14519   4.047   0.305   6.639  1.6155 -0.0407 -0.5483
  112CHL1   H1B14520   4.190   0.409   6.640  0.1704 -0.1325 -2.5597
  112CHL1    C214521   4.042   0.428   6.809  0.5109 -0.6297  0.2454
  112CHL1   H2A14522   4.107   0.362   6.871 -1.1283 -2.0746  0.5256
  112CHL1   H2B14523   3.937   0.397   6.830  0.9350 -1.5794  1.0555
  112CHL1   C2014524   4.076   0.358   5.881 -0.4250 -0.0813 -0.1240
  112CHL1   H2014525   3.975   0.398   5.857 -0.0156 -0.2448 -2.2674
  112CHL1   C2114526   4.062   0.206   5.906 -0.5097 -0.9817  0.3950
  112CHL1  H21A14527   4.069   0.164   5.803  1.0092  1.7730 -0.7139
  112CHL1  H21B14528   3.968   0.173   5.955 -0.8143  0.4264  0.8070
  112CHL1  H21C14529   4.148   0.160   5.960  0.7208 -0.6566 -1.2068
  112CHL1   C2214530   4.154   0.369   5.746 -0.3245  1.0282 -0.4955
  112CHL1  H22A14531   4.183   0.475   5.728 -0.1910  0.9671 -0.6395
  112CHL1  H22B14532   4.249   0.313   5.747 -1.6258 -1.3951  2.4983
  112CHL1   C2314533   4.077   0.330   5.625  0.7515  0.4201  0.1913
  112CHL1  H23A14534   4.037   0.227   5.625  2.5665 -0.3166 -0.0502
  112CHL1  H23B14535   3.994   0.404   5.627  0.9286  0.6453 -0.4255
  112CHL1   C2414536   4.166   0.354   5.498 -0.1270 -0.1040  0.0938
  112CHL1  H24A14537   4.196   0.461   5.501  0.6134 -0.3162  2.9775
  112CHL1  H24B14538   4.250   0.282   5.507 -1.2354 -1.6251 -1.2017
  112CHL1   C2514539   4.094   0.309   5.361  0.8919  0.0693 -0.3171
  112CHL1   H2514540   4.053   0.207   5.377 -0.8421  0.9372  1.2935
  112CHL1   C2614541   3.981   0.408   5.328 -0.2975 -0.3087 -0.4840
  112CHL1  H26A14542   3.883   0.384   5.374 -0.5087 -1.7962 -1.6423
  112CHL1  H26B14543   4.008   0.514   5.349 -1.2446  0.0077 -0.7981
  112CHL1  H26C14544   3.965   0.412   5.218  1.9428  1.4742 -0.8103
  112CHL1   C2714545   4.196   0.304   5.247  0.6196 -0.7838  0.3228
  112CHL1  H27A14546   4.258   0.216   5.273  0.6547 -0.4716  1.3023
  112CHL1  H27B14547   4.154   0.285   5.145  2.3623  2.7731 -1.2367
  112CHL1  H27C14548   4.265   0.391   5.247  1.3563 -1.3486  1.5083
  113CHL1    C314549   0.825   4.974   6.435  0.2329 -0.5503 -0.2794
  113CHL1    H314550   0.828   5.085   6.441  0.9211 -0.6229  3.4377
  113CHL1    O314551   0.820   4.926   6.569  0.8407  0.1927 -0.1386
  113CHL1   H3'14552   0.881   4.977   6.623 -0.2503  0.3018  1.0427
  113CHL1    C414553   0.702   4.930   6.361  0.7199  0.5793 -0.2608
  113CHL1   H4A14554   0.685   4.820   6.363  0.0377  0.6834  1.3190
  113CHL1   H4B14555   0.613   4.974   6.411  1.3088  2.8273 -1.0438
  113CHL1    C514556   0.707   4.972   6.216  0.1791 -0.0775 -0.2946
  113CHL1    C614557   0.605   5.042   6.163 -0.1060  0.2647 -0.8013
  113CHL1    H614558   0.526   5.075   6.232  0.0678  0.7171 -0.8182
  113CHL1    C714559   0.587   5.075   6.017 -0.0496  0.2290  0.2322
  113CHL1   H7A14560   0.488   5.041   5.980  0.4576  0.5693 -1.5063
  113CHL1   H7B14561   0.600   5.184   6.001 -0.2606 -0.0555 -2.1827
  113CHL1    C814562   0.697   5.006   5.934 -0.5035  0.0571 -0.2015
  113CHL1    H814563   0.667   4.899   5.930  1.0374 -0.4007 -0.2380
  113CHL1   C1414564   0.709   5.072   5.796 -0.4794  0.0634 -0.6835
  113CHL1   H1414565   0.761   5.167   5.816  1.5329 -1.2530  0.6979
  113CHL1   C1514566   0.577   5.120   5.731 -0.6441  0.7326  0.1808
  113CHL1  H15A14567   0.505   5.035   5.721  0.7173 -0.3308 -0.9366
  113CHL1  H15B14568   0.530   5.209   5.779 -3.4274 -0.4857 -0.0838
  113CHL1   C1614569   0.631   5.157   5.592 -0.0690 -0.5314 -0.2405
  113CHL1  H16A14570   0.568   5.095   5.525 -2.3529  0.0153  1.2833
  113CHL1  H16B14571   0.612   5.262   5.560  1.9675  0.2741  0.9706
  113CHL1   C1714572   0.779   5.115   5.581 -0.0333 -0.0808 -0.5598
  113CHL1   H1714573   0.840   5.205   5.604  0.9518 -0.4869 -1.5324
  113CHL1   C1314574   0.803   5.012   5.696 -0.1843  0.9579 -0.4505
  113CHL1   C1814575   0.768   4.862   5.670 -0.2251 -0.6302  0.0746
  113CHL1  H18A14576   0.662   4.864   5.639 -0.2839  2.8930  0.1227
  113CHL1  H18B14577   0.822   4.822   5.581 -2.1106  0.9541 -1.8970
  113CHL1  H18C14578   0.771   4.793   5.757  1.4645  0.7832  1.2020
  113CHL1   C1214579   0.945   5.004   5.766  0.1414 -0.8944  0.5944
  113CHL1  H12A14580   1.023   4.951   5.707  0.3733 -0.7331  0.7543
  113CHL1  H12B14581   0.978   5.110   5.773  0.8947 -1.0372 -0.5069
  113CHL1   C1114582   0.945   4.955   5.905  0.0340 -0.0658  0.2978
  113CHL1  H11A14583   0.933   4.846   5.888 -0.5583  0.1813 -1.0002
  113CHL1  H11B14584   1.049   4.965   5.943  0.7999 -0.7313 -1.5324
  113CHL1    C914585   0.836   5.007   6.001 -0.5528 -0.1897 -0.0989
  113CHL1    H914586   0.867   5.112   6.018 -1.2771 -0.2752  2.0066
  113CHL1   C1014587   0.831   4.936   6.135  0.4506  0.2017  0.5921
  113CHL1   C1914588   0.842   4.781   6.113  0.4676 -0.2351 -0.0066
  113CHL1  H19A14589   0.851   4.726   6.209 -1.1819 -0.8424 -0.1581
  113CHL1  H19B14590   0.747   4.746   6.066 -0.5999  0.6643  1.3871
  113CHL1  H19C14591   0.931   4.752   6.053  0.4339 -0.4110  0.0264
  113CHL1    C114592   0.950   4.979   6.221  0.8441  0.3757  0.0280
  113CHL1   H1A14593   1.043   4.942   6.171 -0.4773 -0.5715 -1.8488
  113CHL1   H1B14594   0.943   5.089   6.218 -2.4428  0.2314 -0.6708
  113CHL1    C214595   0.957   4.930   6.363  0.3865  0.0403 -0.1523
  113CHL1   H2A14596   1.043   4.975   6.417 -1.0067 -1.3004  3.5233
  113CHL1   H2B14597   0.965   4.820   6.365 -1.6969 -0.2083 -1.5313
  113CHL1   C2014598   0.813   5.068   5.439 -0.6094 -0.2309  0.3862
  113CHL1   H2014599   0.756   4.973   5.425 -2.4235  0.8197  0.3437
  113CHL1   C2114600   0.965   5.033   5.420 -0.3033 -0.0188  0.4831
  113CHL1  H21A14601   0.990   4.956   5.495  1.9733 -1.0128 -1.1716
  113CHL1  H21B14602   1.034   5.120   5.424  1.0168 -0.8756 -1.9269
  113CHL1  H21C14603   0.977   4.991   5.318  2.3185  0.4417  0.5451
  113CHL1   C2214604   0.756   5.145   5.314  0.4542 -0.0165  0.1407
  113CHL1  H22A14605   0.743   5.063   5.241 -0.4059  1.4978 -1.4803
  113CHL1  H22B14606   0.656   5.191   5.327  0.7353  0.3832  0.9775
  113CHL1   C2314607   0.839   5.264   5.263 -0.2779  0.2869  0.6025
  113CHL1  H23A14608   0.835   5.347   5.337  0.4790  1.2147 -0.3648
  113CHL1  H23B14609   0.946   5.237   5.247 -0.9012 -2.6272  0.8390
  113CHL1   C2414610   0.776   5.304   5.131 -0.4819 -0.2338  0.4260
  113CHL1  H24A14611   0.775   5.221   5.057  4.5978  1.4543 -2.0578
  113CHL1  H24B14612   0.672   5.341   5.145 -0.5532  0.5223 -1.7227
  113CHL1   C2514613   0.866   5.412   5.061  0.1886  0.1230 -0.0789
  113CHL1   H2514614   0.972   5.384   5.048  0.9652  1.7018  2.2308
  113CHL1   C2614615   0.815   5.441   4.911  0.1290 -0.7560 -0.5521
  113CHL1  H26A14616   0.717   5.492   4.919  0.9798  1.1260 -1.5019
  113CHL1  H26B14617   0.881   5.512   4.857 -0.2933  1.5905  1.8526
  113CHL1  H26C14618   0.805   5.345   4.856  1.6395 -1.3145  0.0856
  113CHL1   C2714619   0.859   5.542   5.147  0.6033  0.9207  0.2342
  113CHL1  H27A14620   0.893   5.631   5.091  1.0422  0.6680  0.0952
  113CHL1  H27B14621   0.752   5.557   5.176  1.0510  0.8108  2.0673
  113CHL1  H27C14622   0.913   5.532   5.244  0.3637  0.7480  0.3514
  114CHL1    C314623   4.943   0.382   6.846  0.7079  0.0037 -0.3485
  114CHL1    H314624   4.837   0.379   6.813 -0.5158 -1.3903  3.2551
  114CHL1    O314625   4.941   0.378   6.984 -0.0656  0.3726  0.0007
  114CHL1   H3'14626   5.027   0.404   7.018  0.2931  1.4836 -1.6850
  114CHL1    C414627   5.012   0.262   6.789 -0.6977  0.2253 -0.3862
  114CHL1   H4A14628   5.120   0.252   6.812 -0.8462 -2.3803 -0.5875
  114CHL1   H4B14629   4.966   0.169   6.829  0.7629 -1.1666 -1.7940
  114CHL1    C514630   5.002   0.264   6.637  0.1471  0.0299 -0.8627
  114CHL1    C614631   4.947   0.166   6.563 -0.4341 -0.5677 -1.0171
  114CHL1    H614632   4.924   0.071   6.613  0.5300  0.3792  1.3628
  114CHL1    C714633   4.962   0.155   6.414  0.4952 -0.4102 -0.2050
  114CHL1   H7A14634   5.015   0.065   6.375  1.5399  0.1250 -0.0659
  114CHL1   H7B14635   4.861   0.162   6.368 -0.0071  0.4945  0.9900
  114CHL1    C814636   5.055   0.263   6.351  0.1781 -0.0613  0.6530
  114CHL1    H814637   5.159   0.224   6.351  0.4693  0.6361 -0.7623
  114CHL1   C1414638   5.011   0.274   6.197  0.0911 -0.5241 -0.3745
  114CHL1   H1414639   4.902   0.296   6.201  0.2715  1.2945 -2.9330
  114CHL1   C1514640   5.018   0.153   6.103 -0.1374 -0.9544  0.0110
  114CHL1  H15A14641   5.112   0.095   6.105  0.4577 -0.0599 -0.9672
  114CHL1  H15B14642   4.931   0.087   6.125 -0.1264 -1.1526 -0.5224
  114CHL1   C1614643   4.995   0.216   5.967 -0.2781 -0.2150  0.0006
  114CHL1  H16A14644   5.068   0.183   5.890 -0.5232 -1.8779  0.4427
  114CHL1  H16B14645   4.904   0.194   5.908  0.5464  1.0650 -1.8449
  114CHL1   C1714646   5.003   0.374   5.986  0.0726  0.5752  0.5765
  114CHL1   H1714647   4.897   0.403   6.002 -0.0101  1.3686 -1.2208
  114CHL1   C1314648   5.066   0.397   6.120 -0.5059 -0.2544  0.1585
  114CHL1   C1814649   5.214   0.376   6.104 -0.4186 -0.0411  0.0037
  114CHL1  H18A14650   5.266   0.473   6.085 -0.0311 -0.3306 -0.4218
  114CHL1  H18B14651   5.267   0.354   6.199  0.2803  1.6910  0.0550
  114CHL1  H18C14652   5.229   0.308   6.018 -1.2301  1.5508 -1.4628
  114CHL1   C1214653   5.036   0.537   6.197 -0.1655  0.0984 -0.6376
  114CHL1  H12A14654   5.082   0.631   6.160  1.8316 -0.2309  0.8618
  114CHL1  H12B14655   4.927   0.559   6.192  0.0617  1.9859  1.3051
  114CHL1   C1114656   5.089   0.526   6.344 -0.1176  0.6202  0.3312
  114CHL1  H11A14657   5.201   0.528   6.345 -0.1040  0.7345 -0.4634
  114CHL1  H11B14658   5.058   0.616   6.401 -0.3852  1.1251 -0.5949
  114CHL1    C914659   5.030   0.401   6.413  0.6691 -0.1488 -0.2288
  114CHL1    H914660   4.921   0.418   6.396  0.6131  1.5720  1.5560
  114CHL1   C1014661   5.057   0.391   6.565  0.5504  0.1207  0.9622
  114CHL1   C1914662   5.210   0.380   6.587 -0.6359 -0.5048  0.4161
  114CHL1  H19A14663   5.252   0.381   6.690  0.2398  0.5538  0.0686
  114CHL1  H19B14664   5.254   0.296   6.528  0.8247 -0.4411  1.3686
  114CHL1  H19C14665   5.259   0.474   6.553  1.0717 -1.2816  0.5952
  114CHL1    C114666   5.005   0.517   6.639 -0.4778 -0.8719 -0.2091
  114CHL1   H1A14667   5.070   0.602   6.611 -0.6012 -1.2442 -1.7186
  114CHL1   H1B14668   4.909   0.551   6.594 -0.8782  0.2934  1.4537
  114CHL1    C214669   5.000   0.512   6.796  0.3687  0.2929 -0.1122
  114CHL1   H2A14670   4.936   0.592   6.839  0.2083  0.4276 -0.5964
  114CHL1   H2B14671   5.107   0.529   6.820 -0.2351  2.8811  1.1031
  114CHL1   C2014672   5.054   0.436   5.847  0.2093 -0.4385 -0.0561
  114CHL1   H2014673   5.159   0.403   5.830  0.7317  0.4138  1.3253
  114CHL1   C2114674   5.055   0.588   5.865  0.2685 -0.7527 -0.2728
  114CHL1  H21A14675   5.137   0.615   5.936  0.2380 -0.2112 -0.4420
  114CHL1  H21B14676   4.964   0.616   5.922  0.7515 -0.6134  0.4470
  114CHL1  H21C14677   5.064   0.640   5.768 -0.2237  0.0118  0.0853
  114CHL1   C2214678   4.962   0.404   5.726  0.0557  0.3869 -0.1675
  114CHL1  H22A14679   4.952   0.294   5.711  1.8367  0.3551 -1.3403
  114CHL1  H22B14680   4.864   0.455   5.731 -0.1607 -0.0466  0.1231
  114CHL1   C2314681   5.039   0.436   5.594 -0.5284 -0.2550 -0.1254
  114CHL1  H23A14682   5.040   0.546   5.580  0.7547 -0.1493  0.6386
  114CHL1  H23B14683   5.144   0.411   5.621 -0.9870  0.1659  2.2485
  114CHL1   C2414684   4.989   0.368   5.468  0.4394  0.1044 -0.5422
  114CHL1  H24A14685   4.985   0.260   5.495 -2.6717  0.0325 -0.8544
  114CHL1  H24B14686   4.882   0.397   5.458  0.7967  1.1681 -1.4167
  114CHL1   C2514687   5.059   0.418   5.336 -1.2376  0.4439  0.6523
  114CHL1   H2514688   5.061   0.528   5.322 -1.8574  0.2436 -1.3393
  114CHL1   C2614689   5.206   0.363   5.329 -0.2040  0.1615 -0.0709
  114CHL1  H26A14690   5.244   0.410   5.236 -3.6657  0.6137 -1.3756
  114CHL1  H26B14691   5.261   0.387   5.423 -0.4101  0.8859 -0.1331
  114CHL1  H26C14692   5.207   0.252   5.325  1.2441  0.0077  2.4352
  114CHL1   C2714693   4.978   0.349   5.228 -0.1157  0.2440 -0.3651
  114CHL1  H27A14694   5.042   0.334   5.138  0.7829 -1.2628  0.4811
  114CHL1  H27B14695   4.942   0.248   5.258  1.6482 -0.2224  0.2740
  114CHL1  H27C14696   4.890   0.406   5.190  0.2221  0.3327 -1.0283
  115CHL1    C314697   1.099   0.687   6.446  0.0886  0.0632 -0.1159
  115CHL1    H314698   1.075   0.595   6.389 -4.0266  2.1359 -2.2287
  115CHL1    O314699   1.137   0.656   6.579  0.2901  0.0634  0.4215
  115CHL1   H3'14700   1.096   0.727   6.629  1.7523  1.3401 -0.1146
  115CHL1    C414701   1.214   0.773   6.384 -0.1641 -0.3299  0.1276
  115CHL1   H4A14702   1.249   0.842   6.465 -2.1604 -0.3832  1.0986
  115CHL1   H4B14703   1.304   0.710   6.369  0.9621  0.6709  2.1621
  115CHL1    C514704   1.162   0.840   6.255  0.2523 -0.2174 -0.3365
  115CHL1    C614705   1.235   0.830   6.148 -0.7532  0.0462  0.5039
  115CHL1    H614706   1.335   0.783   6.150  1.1260  3.4779 -1.7583
  115CHL1    C714707   1.207   0.900   6.019 -0.3636  0.2303  0.0032
  115CHL1   H7A14708   1.295   0.949   5.973  1.0159 -2.1032 -0.0026
  115CHL1   H7B14709   1.158   0.826   5.953 -1.7567 -2.4188  3.6604
  115CHL1    C814710   1.111   1.021   6.024  0.3578 -0.5734 -0.2456
  115CHL1    H814711   1.170   1.097   6.080  0.2550  0.8141 -1.9321
  115CHL1   C1414712   1.070   1.072   5.895 -0.0468  0.2787  0.4811
  115CHL1   H1414713   1.012   0.991   5.845 -1.8919  1.1297  1.1603
  115CHL1   C1514714   1.181   1.109   5.791 -0.4513 -0.5694 -0.2690
  115CHL1  H15A14715   1.260   1.176   5.830 -0.9002 -1.2435  1.9106
  115CHL1  H15B14716   1.238   1.024   5.749  0.2338  0.0289 -0.5672
  115CHL1   C1614717   1.103   1.185   5.685 -0.2656 -0.3028  0.2377
  115CHL1  H16A14718   1.146   1.288   5.678 -3.1461  0.9652 -0.4007
  115CHL1  H16B14719   1.098   1.137   5.586  2.7097  1.1453 -0.7466
  115CHL1   C1714720   0.961   1.208   5.744 -0.8669  0.8045  0.3956
  115CHL1   H1714721   0.903   1.119   5.710 -0.2410  0.8936 -0.9835
  115CHL1   C1314722   0.976   1.188   5.894 -0.0878 -0.0589 -0.0565
  115CHL1   C1814723   1.039   1.318   5.949 -0.6141 -0.5686  0.4549
  115CHL1  H18A14724   0.978   1.406   5.920  1.6611  0.2087 -2.4386
  115CHL1  H18B14725   1.056   1.304   6.058 -0.6055 -1.3166  0.3598
  115CHL1  H18C14726   1.133   1.340   5.895 -0.7849 -3.2224 -1.1180
  115CHL1   C1214727   0.852   1.148   5.975  0.3240 -0.2020  0.7957
  115CHL1  H12A14728   0.799   1.245   5.985  0.5967  0.5559 -3.5225
  115CHL1  H12B14729   0.782   1.080   5.921  2.2278 -1.0563 -0.7139
  115CHL1   C1114730   0.882   1.092   6.115 -0.1498  0.1633  0.2595
  115CHL1  H11A14731   0.917   1.175   6.179 -2.0315 -0.2343  1.8879
  115CHL1  H11B14732   0.793   1.045   6.162  0.6188  1.0206  2.6983
  115CHL1    C914733   0.988   0.980   6.114 -0.1052 -0.4674 -0.4540
  115CHL1    H914734   0.943   0.898   6.054 -0.9059  1.3213 -2.3824
  115CHL1   C1014735   1.034   0.923   6.255  0.0760  0.3819 -0.9063
  115CHL1   C1914736   1.075   1.049   6.342  0.5385  0.7080 -0.3088
  115CHL1  H19A14737   1.130   1.121   6.279 -0.8439  0.7877 -1.4699
  115CHL1  H19B14738   0.987   1.097   6.389 -0.0314  1.7713 -2.3553
  115CHL1  H19C14739   1.133   1.019   6.432  0.9977  1.1528 -0.4521
  115CHL1    C114740   0.927   0.830   6.325  0.6993  1.3159 -0.1134
  115CHL1   H1A14741   0.837   0.888   6.354 -1.6475 -2.0936  0.0386
  115CHL1   H1B14742   0.900   0.750   6.253 -1.7896  0.3940  1.7173
  115CHL1    C214743   0.971   0.768   6.461 -0.2279  0.1245 -0.3701
  115CHL1   H2A14744   0.890   0.704   6.503  0.8789 -0.2543  1.2731
  115CHL1   H2B14745   0.989   0.853   6.531  0.3203  1.2329 -1.8088
  115CHL1   C2014746   0.890   1.327   5.675  0.0250  0.6331  0.5797
  115CHL1   H2014747   0.959   1.412   5.694  1.4245 -0.4849  0.7104
  115CHL1   C2114748   0.749   1.349   5.734 -0.2360  1.0079 -0.7328
  115CHL1  H21A14749   0.681   1.262   5.723 -1.9338  1.9514  1.5940
  115CHL1  H21B14750   0.700   1.439   5.689  2.8949  3.3277  0.0786
  115CHL1  H21C14751   0.753   1.376   5.842 -0.0624  1.4189 -0.8368
  115CHL1   C2214752   0.883   1.305   5.521 -0.2952 -0.1880 -0.1482
  115CHL1  H22A14753   0.989   1.285   5.494 -0.6446 -1.6464 -0.5557
  115CHL1  H22B14754   0.833   1.207   5.505 -0.4336 -0.2251  0.4866
  115CHL1   C2314755   0.833   1.422   5.435  0.6752  0.8295  0.4267
  115CHL1  H23A14756   0.748   1.466   5.490  1.3841  0.9721  1.4398
  115CHL1  H23B14757   0.919   1.490   5.417  0.4210  1.1007  0.2208
  115CHL1   C2414758   0.776   1.381   5.299  0.0382  0.0927 -0.4288
  115CHL1  H24A14759   0.853   1.314   5.254  0.2973 -1.0580  1.6118
  115CHL1  H24B14760   0.694   1.312   5.329  0.4966 -0.1770  0.2215
  115CHL1   C2514761   0.720   1.494   5.206 -0.4266  0.3443  0.2148
  115CHL1   H2514762   0.639   1.553   5.254 -1.3937 -0.2152 -0.6936
  115CHL1   C2614763   0.833   1.593   5.171 -0.1721  0.2024  0.3953
  115CHL1  H26A14764   0.787   1.685   5.130 -0.3786  0.7592  1.8209
  115CHL1  H26B14765   0.887   1.624   5.263  2.1846  1.0331 -1.1783
  115CHL1  H26C14766   0.915   1.553   5.106 -1.0061  1.0073 -1.2120
  115CHL1   C2714767   0.643   1.424   5.094 -0.3989 -0.2656 -0.3306
  115CHL1  H27A14768   0.710   1.365   5.027 -0.7004 -0.2606 -0.6388
  115CHL1  H27B14769   0.572   1.353   5.140  0.0470 -0.5570 -0.0907
  115CHL1  H27C14770   0.603   1.511   5.037  0.1584  1.0943  1.2822
  116CHL1    C314771   2.449   2.158   6.703  0.4622 -0.8834 -0.2107
  116CHL1    H314772   2.524   2.235   6.727 -1.3359  1.0730 -0.5976
  116CHL1    O314773   2.352   2.143   6.804 -0.0528 -0.2632 -0.0993
  116CHL1   H3'14774   2.407   2.111   6.876  0.1419  0.2511 -0.0205
  116CHL1    C414775   2.371   2.198   6.576 -0.1664 -0.1134 -0.4330
  116CHL1   H4A14776   2.275   2.142   6.575 -0.2026 -0.1058  0.7241
  116CHL1   H4B14777   2.347   2.306   6.586  4.2192  1.1052 -0.6892
  116CHL1    C514778   2.436   2.183   6.436  0.6025  0.3679 -0.5301
  116CHL1    C614779   2.438   2.283   6.347  0.3120 -0.8299  0.1851
  116CHL1    H614780   2.382   2.375   6.366  0.9873  0.4400 -3.3059
  116CHL1    C714781   2.511   2.290   6.213  0.0266  0.2444  0.0996
  116CHL1   H7A14782   2.451   2.319   6.125  0.3109  0.7377  0.0634
  116CHL1   H7B14783   2.598   2.359   6.221 -1.2495  1.7871  1.5048
  116CHL1    C814784   2.580   2.153   6.185 -0.5631  0.0379 -0.4720
  116CHL1    H814785   2.501   2.090   6.139 -1.4705  1.7176 -1.3057
  116CHL1   C1414786   2.699   2.172   6.076  0.7786  0.3742  0.7499
  116CHL1   H1414787   2.779   2.228   6.129  1.3001 -0.2225  0.5932
  116CHL1   C1514788   2.683   2.254   5.945 -0.0494 -0.4100 -0.9548
  116CHL1  H15A14789   2.584   2.243   5.897 -0.0691  1.1153 -1.3213
  116CHL1  H15B14790   2.693   2.362   5.967  1.1045 -0.6979  0.1134
  116CHL1   C1614791   2.808   2.210   5.860 -0.1443  0.8953 -0.2173
  116CHL1  H16A14792   2.759   2.172   5.767 -0.4786 -0.8793  0.6318
  116CHL1  H16B14793   2.882   2.287   5.831 -0.7819  1.5801 -0.0572
  116CHL1   C1714794   2.879   2.089   5.934  0.0206 -0.4898  0.0345
  116CHL1   H1714795   2.965   2.134   5.989  1.7517 -1.5917 -1.6519
  116CHL1   C1314796   2.776   2.044   6.040 -0.3703  0.0161  0.2736
  116CHL1   C1814797   2.678   1.945   5.972  0.0964  0.6299 -0.0265
  116CHL1  H18A14798   2.718   1.843   5.952 -1.3439 -0.2676  1.3869
  116CHL1  H18B14799   2.584   1.932   6.031  1.8737 -2.9905  2.3924
  116CHL1  H18C14800   2.651   1.991   5.875  0.4990  1.0696  0.0659
  116CHL1   C1214801   2.836   1.989   6.170 -0.1583 -0.1170 -0.3041
  116CHL1  H12A14802   2.893   1.899   6.140 -0.5043 -0.1331 -0.9289
  116CHL1  H12B14803   2.899   2.070   6.213 -0.8682 -1.3208  3.4086
  116CHL1   C1114804   2.731   1.958   6.275  0.0591  0.0253  0.3427
  116CHL1  H11A14805   2.684   1.865   6.238  1.6327 -0.4311 -0.6077
  116CHL1  H11B14806   2.784   1.934   6.370  0.7110 -0.9398 -0.2507
  116CHL1    C914807   2.642   2.081   6.310  0.4812  0.5645 -0.3118
  116CHL1    H914808   2.712   2.159   6.346  0.6006  0.9381 -1.3326
  116CHL1   C1014809   2.535   2.058   6.430  0.0361 -0.1913  1.0560
  116CHL1   C1914810   2.441   1.940   6.385  0.2274 -0.8292  0.6058
  116CHL1  H19A14811   2.359   1.919   6.457 -0.9705 -0.9098 -0.7320
  116CHL1  H19B14812   2.403   1.953   6.281  0.2672 -2.1026  0.4112
  116CHL1  H19C14813   2.510   1.853   6.393  0.0872 -0.9644  0.3484
  116CHL1    C114814   2.612   2.027   6.562  0.5052 -0.8409 -0.1378
  116CHL1   H1A14815   2.663   1.929   6.553 -0.6383 -1.4472 -0.1373
  116CHL1   H1B14816   2.691   2.102   6.582 -0.9577  0.2814  1.8294
  116CHL1    C214817   2.515   2.029   6.681 -0.2766  0.3418  0.1749
  116CHL1   H2A14818   2.568   2.004   6.776  1.2579  2.3680 -0.0875
  116CHL1   H2B14819   2.437   1.953   6.661  0.7826 -0.7216 -0.0468
  116CHL1   C2014820   2.936   1.988   5.832 -0.3107 -0.2533 -0.4587
  116CHL1   H2014821   2.852   1.952   5.769 -0.0569 -0.8924 -0.4412
  116CHL1   C2114822   3.017   1.871   5.896 -0.3854 -0.0092 -0.5345
  116CHL1  H21A14823   3.107   1.918   5.941  0.9153 -1.7880 -1.1771
  116CHL1  H21B14824   3.052   1.800   5.818  0.8767 -0.6299  0.5529
  116CHL1  H21C14825   2.947   1.823   5.968 -0.9600  0.9016 -0.4730
  116CHL1   C2214826   3.030   2.050   5.726 -0.2776 -0.4682  0.4255
  116CHL1  H22A14827   2.969   2.126   5.671 -1.8690 -2.9511 -1.4531
  116CHL1  H22B14828   3.117   2.096   5.777  0.0682  0.4838 -0.9475
  116CHL1   C2314829   3.075   1.963   5.599  0.1179 -0.4401 -0.3251
  116CHL1  H23A14830   3.126   1.874   5.642 -1.0173 -0.5816  0.8006
  116CHL1  H23B14831   2.988   1.919   5.545 -0.7766 -0.4523  1.0823
  116CHL1   C2414832   3.167   2.030   5.496 -0.7247 -0.2049  0.2865
  116CHL1  H24A14833   3.113   2.108   5.439  0.5432  0.1017 -0.5462
  116CHL1  H24B14834   3.256   2.080   5.541 -0.0097 -1.0045 -0.1980
  116CHL1   C2514835   3.210   1.939   5.369  0.0145 -0.7183 -0.3658
  116CHL1   H2514836   3.114   1.907   5.322 -1.5653  0.5506  1.7840
  116CHL1   C2614837   3.284   2.020   5.262  0.2614 -0.7571 -0.3584
  116CHL1  H26A14838   3.382   2.060   5.294 -0.5542  1.6150 -0.6617
  116CHL1  H26B14839   3.307   1.955   5.175 -1.2151 -2.0665  0.1726
  116CHL1  H26C14840   3.225   2.111   5.237 -0.2419 -1.0100 -0.1150
  116CHL1   C2714841   3.286   1.820   5.425 -0.6754 -0.1186 -0.3073
  116CHL1  H27A14842   3.380   1.851   5.475 -0.3859 -0.2808 -0.7420
  116CHL1  H27B14843   3.226   1.767   5.501  1.7234  0.6726  2.2969
  116CHL1  H27C14844   3.328   1.755   5.345 -0.4185 -0.0753 -0.2110
  117CHL1    C314845   4.474   1.037   6.810  0.8202 -0.6497 -0.2867
  117CHL1    H314846   4.495   0.928   6.818 -2.7829 -1.4391  0.0838
  117CHL1    O314847   4.416   1.080   6.932 -0.1424  0.3021  0.0939
  117CHL1   H3'14848   4.439   1.033   7.013 -1.2250  1.5442  1.1771
  117CHL1    C414849   4.595   1.128   6.778  0.4087  0.5712  0.0103
  117CHL1   H4A14850   4.568   1.235   6.765  2.2675  1.0426 -0.2188
  117CHL1   H4B14851   4.675   1.120   6.854  1.9917  0.6780 -1.6002
  117CHL1    C514852   4.650   1.093   6.643 -0.0219  0.5314  0.0928
  117CHL1    C614853   4.778   1.056   6.634  0.4083 -0.2622  0.1844
  117CHL1    H614854   4.839   1.053   6.726  0.0045  1.0766  0.5078
  117CHL1    C714855   4.837   1.017   6.505 -0.2931  0.4243  0.0961
  117CHL1   H7A14856   4.946   1.037   6.508  0.1951 -0.5846 -4.0707
  117CHL1   H7B14857   4.827   0.907   6.489  0.0318  0.6308 -1.7653
  117CHL1    C814858   4.757   1.066   6.376  0.2684 -0.2659  0.6847
  117CHL1    H814859   4.769   1.177   6.375 -1.1116 -0.1041  0.7026
  117CHL1   C1414860   4.808   1.003   6.246 -0.4417 -0.1029 -0.8531
  117CHL1   H1414861   4.794   0.893   6.252  1.1020 -0.2592  0.6211
  117CHL1   C1514862   4.958   1.019   6.219 -0.0069 -0.2587  0.1764
  117CHL1  H15A14863   4.994   1.123   6.231  0.7683 -0.4180 -0.6200
  117CHL1  H15B14864   5.026   0.945   6.266  1.0533  0.1323 -0.6953
  117CHL1   C1614865   4.960   0.991   6.066 -0.4143  0.7604 -0.0017
  117CHL1  H16A14866   5.026   1.062   6.012 -1.5875  2.2479  0.4319
  117CHL1  H16B14867   4.989   0.885   6.053 -1.7547  0.4476 -0.6305
  117CHL1   C1714868   4.810   0.988   6.012 -0.7391 -0.1263 -0.2708
  117CHL1   H1714869   4.779   0.881   6.024  2.7122 -1.3578 -1.1604
  117CHL1   C1314870   4.732   1.059   6.123 -0.5993 -0.3501  0.3228
  117CHL1   C1814871   4.736   1.215   6.102  0.0936  0.2068  0.1768
  117CHL1  H18A14872   4.691   1.272   6.185  1.3889 -0.7726  1.5955
  117CHL1  H18B14873   4.845   1.239   6.101 -0.0094  0.7250  0.8315
  117CHL1  H18C14874   4.691   1.259   6.009  1.6188 -1.0102 -1.1976
  117CHL1   C1214875   4.590   1.012   6.131  0.2278  0.2379 -0.3381
  117CHL1  H12A14876   4.538   1.049   6.041  0.4600 -0.0426 -0.5893
  117CHL1  H12B14877   4.582   0.901   6.128  1.3525  0.0260  1.8327
  117CHL1   C1114878   4.529   1.068   6.265  0.3271 -0.2224  0.5987
  117CHL1  H11A14879   4.509   1.177   6.252  0.9631 -0.1959 -0.3088
  117CHL1  H11B14880   4.426   1.027   6.271  0.0902  0.2208 -0.2580
  117CHL1    C914881   4.607   1.041   6.398 -0.9306  0.4907  0.2218
  117CHL1    H914882   4.608   0.931   6.415 -0.7829  0.7349  1.9601
  117CHL1   C1014883   4.547   1.092   6.531 -0.5013 -0.4040 -0.2056
  117CHL1   C1914884   4.492   1.236   6.509 -0.3943  0.1225  0.3385
  117CHL1  H19A14885   4.413   1.247   6.432  0.7340  0.7810 -0.7501
  117CHL1  H19B14886   4.454   1.288   6.599  1.8885  3.6880 -0.5788
  117CHL1  H19C14887   4.579   1.295   6.472  1.8047 -4.0104 -1.8182
  117CHL1    C114888   4.422   1.007   6.569  0.6074  0.7055 -0.3120
  117CHL1   H1A14889   4.346   1.016   6.488 -1.3906  1.3028  1.5330
  117CHL1   H1B14890   4.462   0.903   6.570  0.0071  0.4739 -0.2664
  117CHL1    C214891   4.362   1.043   6.702  0.2199  0.0772  0.5449
  117CHL1   H2A14892   4.289   0.968   6.739  0.1252 -0.3969 -0.5848
  117CHL1   H2B14893   4.315   1.144   6.705 -1.9245 -0.8072 -0.8252
  117CHL1   C2014894   4.798   1.042   5.866 -0.2456 -0.0371 -0.0780
  117CHL1   H2014895   4.830   1.148   5.860 -0.9941  0.1067 -2.0379
  117CHL1   C2114896   4.654   1.048   5.812  0.3280 -0.2903 -0.0718
  117CHL1  H21A14897   4.608   0.947   5.815  0.3792 -0.2850  1.1022
  117CHL1  H21B14898   4.639   1.100   5.715 -0.0194  0.4506  0.3708
  117CHL1  H21C14899   4.583   1.108   5.872 -0.0196  0.1045 -0.8552
  117CHL1   C2214900   4.887   0.958   5.769  0.6856 -0.3313 -0.2350
  117CHL1  H22A14901   4.990   0.957   5.809  0.5032  0.1065  0.2589
  117CHL1  H22B14902   4.861   0.851   5.783  1.1345 -0.0862  3.3480
  117CHL1   C2314903   4.886   1.007   5.621 -0.8460  0.3201  0.4494
  117CHL1  H23A14904   4.788   0.996   5.569 -0.3032  1.4701 -0.9012
  117CHL1  H23B14905   4.902   1.117   5.626  1.8217  0.1524 -1.8727
  117CHL1   C2414906   4.991   0.943   5.531 -0.3841  0.2429  0.5702
  117CHL1  H24A14907   5.095   0.969   5.560  0.5574 -3.4103  0.9340
  117CHL1  H24B14908   4.986   0.832   5.537 -0.4884  0.0371 -2.1311
  117CHL1   C2514909   4.965   0.980   5.384 -0.4941  0.0769  0.7430
  117CHL1   H2514910   4.861   0.953   5.354 -0.0056  0.5537 -1.6381
  117CHL1   C2614911   4.977   1.133   5.350  0.2215  0.1758 -0.4354
  117CHL1  H26A14912   4.978   1.151   5.240  2.5354  2.8220 -0.1066
  117CHL1  H26B14913   4.891   1.181   5.401 -0.4090 -1.5947  0.2399
  117CHL1  H26C14914   5.072   1.173   5.391  0.6114 -0.9707 -0.2101
  117CHL1   C2714915   5.061   0.901   5.288  0.0706  0.4266 -0.3443
  117CHL1  H27A14916   5.026   0.798   5.266  0.4145  0.5461 -1.5429
  117CHL1  H27B14917   5.054   0.958   5.192  2.6786 -0.7695 -1.3253
  117CHL1  H27C14918   5.165   0.900   5.325 -0.7986 -0.3414  2.2392
  118CHL1    C314919   5.745   1.042   6.803 -0.1312  0.7103 -0.3375
  118CHL1    H314920   5.856   1.045   6.799 -0.1609  1.1700 -1.0591
  118CHL1    O314921   5.723   0.965   6.919  0.2801 -0.1205 -0.0985
  118CHL1   H3'14922   5.639   0.921   6.903  0.6530 -0.0975 -2.5421
  118CHL1    C414923   5.684   1.178   6.839  0.1143  0.2685  0.2563
  118CHL1   H4A14924   5.578   1.166   6.869 -0.0521 -0.5001 -0.6097
  118CHL1   H4B14925   5.730   1.213   6.934 -0.8011  0.3214  0.6896
  118CHL1    C514926   5.698   1.277   6.729 -0.3319 -0.7118 -0.1485
  118CHL1    C614927   5.759   1.390   6.744 -0.0761  0.3651  0.1254
  118CHL1    H614928   5.784   1.426   6.845  2.5299  0.1911 -0.3765
  118CHL1    C714929   5.772   1.492   6.635 -0.4835  0.9732  0.4011
  118CHL1   H7A14930   5.735   1.592   6.668  0.2742  0.8945  1.5324
  118CHL1   H7B14931   5.876   1.493   6.597 -0.8253  1.8949 -0.5610
  118CHL1    C814932   5.677   1.463   6.511  0.7094  0.1332 -0.1634
  118CHL1    H814933   5.577   1.497   6.546  0.3157 -1.0110 -0.1436
  118CHL1   C1414934   5.718   1.550   6.393  0.1036  1.2744  1.0483
  118CHL1   H1414935   5.821   1.518   6.364  0.0385  1.5308  0.5217
  118CHL1   C1514936   5.737   1.699   6.414  0.0239 -0.7868 -0.3079
  118CHL1  H15A14937   5.673   1.746   6.492 -0.8396 -1.5524 -0.5393
  118CHL1  H15B14938   5.843   1.714   6.446 -0.1075  0.4727 -0.4485
  118CHL1   C1614939   5.724   1.763   6.273  0.9183  0.5967 -0.4808
  118CHL1  H16A14940   5.639   1.834   6.275 -1.1182 -1.7106 -0.1628
  118CHL1  H16B14941   5.816   1.816   6.240  0.2901  2.7525  1.0359
  118CHL1   C1714942   5.691   1.642   6.184 -0.6070  0.4975  0.6822
  118CHL1   H1714943   5.792   1.600   6.166 -1.0395 -0.4459  0.4311
  118CHL1   C1314944   5.621   1.538   6.270 -0.7746  1.1870 -0.4697
  118CHL1   C1814945   5.483   1.583   6.310  0.4989 -0.1962 -0.1037
  118CHL1  H18A14946   5.479   1.693   6.324 -1.7887  0.1882 -2.8255
  118CHL1  H18B14947   5.399   1.556   6.243  0.1544 -2.4087  1.1392
  118CHL1  H18C14948   5.447   1.544   6.407  1.2961 -1.1603 -0.1758
  118CHL1   C1214949   5.639   1.390   6.221 -0.2330  0.6306  0.0845
  118CHL1  H12A14950   5.581   1.357   6.133  1.0846 -1.0286 -0.2335
  118CHL1  H12B14951   5.747   1.375   6.198 -0.2108 -3.2982  1.7765
  118CHL1   C1114952   5.603   1.292   6.332  0.3051  0.2440 -0.6587
  118CHL1  H11A14953   5.497   1.310   6.359  0.0773 -1.8921  0.0662
  118CHL1  H11B14954   5.624   1.191   6.293  0.5405 -0.4773  1.2011
  118CHL1    C914955   5.682   1.319   6.469 -0.3869  0.8199  0.3164
  118CHL1    H914956   5.790   1.303   6.450 -0.5119  0.2202  0.0869
  118CHL1   C1014957   5.647   1.227   6.592  0.8040 -0.1355  0.6148
  118CHL1   C1914958   5.488   1.202   6.601 -0.0779 -0.7057  0.4342
  118CHL1  H19A14959   5.459   1.131   6.520  1.3182  0.3611 -1.0474
  118CHL1  H19B14960   5.470   1.151   6.699  0.3180 -0.5744  0.5762
  118CHL1  H19C14961   5.424   1.292   6.598  1.5312  0.5349  1.5807
  118CHL1    C114962   5.706   1.079   6.560 -0.9634 -0.4721  0.6370
  118CHL1   H1A14963   5.673   1.035   6.464  0.0154 -0.2542  0.1890
  118CHL1   H1B14964   5.812   1.104   6.538 -1.1598  0.0986  0.3286
  118CHL1    C214965   5.694   0.982   6.670 -0.1716  0.0835 -0.3178
  118CHL1   H2A14966   5.758   0.892   6.662 -0.2953  0.0928 -1.7521
  118CHL1   H2B14967   5.590   0.949   6.686  0.3155 -1.7637 -0.7709
  118CHL1   C2014968   5.641   1.662   6.041 -0.4888  0.1777 -0.0977
  118CHL1   H2014969   5.610   1.566   5.996  0.1732  0.2778 -0.7810
  118CHL1   C2114970   5.766   1.708   5.959  0.3789  0.0330 -0.2212
  118CHL1  H21A14971   5.736   1.718   5.852 -1.2953  0.4583  0.2550
  118CHL1  H21B14972   5.855   1.642   5.960  1.2029  1.0688 -1.3265
  118CHL1  H21C14973   5.801   1.807   5.995 -2.2084  0.9752 -0.0131
  118CHL1   C2214974   5.529   1.758   6.029 -0.4438  0.4257 -0.0916
  118CHL1  H22A14975   5.446   1.708   6.083 -1.8528  0.0835 -2.4132
  118CHL1  H22B14976   5.560   1.853   6.076 -1.1759  0.7704 -0.2833
  118CHL1   C2314977   5.476   1.782   5.884 -0.5662  0.7250  0.0223
  118CHL1  H23A14978   5.563   1.801   5.817 -0.0590 -2.4810 -0.3903
  118CHL1  H23B14979   5.428   1.690   5.846 -0.1483  1.2453 -1.8796
  118CHL1   C2414980   5.360   1.886   5.886 -0.2321  0.3187 -0.2762
  118CHL1  H24A14981   5.289   1.851   5.963  0.3673  1.3485  0.7779
  118CHL1  H24B14982   5.405   1.984   5.912  1.8450 -0.0267 -2.2431
  118CHL1   C2514983   5.302   1.915   5.749  0.2364 -0.7070  0.5351
  118CHL1   H2514984   5.241   1.828   5.716 -0.9340  0.0781  0.6094
  118CHL1   C2614985   5.201   2.026   5.758  0.0232  0.0203 -0.1112
  118CHL1  H26A14986   5.118   2.002   5.828  0.3475 -1.8724 -0.3426
  118CHL1  H26B14987   5.243   2.119   5.803 -0.8822  0.3450  0.0896
  118CHL1  H26C14988   5.152   2.041   5.659 -0.5679  0.0421  0.1777
  118CHL1   C2714989   5.405   1.944   5.641  0.2703 -0.2469  0.2894
  118CHL1  H27A14990   5.445   2.047   5.651  0.3837 -0.2639  0.0169
  118CHL1  H27B14991   5.483   1.867   5.622 -2.3381 -3.0221  0.0394
  118CHL1  H27C14992   5.356   1.949   5.542  1.0820 -0.1793 -0.1196
  119CHL1    C314993   6.994   1.242   6.372  0.4502  0.1181 -0.5551
  119CHL1    H314994   6.929   1.298   6.301  2.0017  3.2201  0.2773
  119CHL1    O314995   6.935   1.237   6.502  0.0039  0.5834 -0.7497
  119CHL1   H3'14996   7.011   1.217   6.556 -1.0286  1.5955  1.1642
  119CHL1    C414997   7.013   1.098   6.325  0.3060  0.0027  0.3305
  119CHL1   H4A14998   7.070   1.037   6.399  1.3006 -0.9723 -1.1903
  119CHL1   H4B14999   6.913   1.052   6.315  0.6478 -0.3710 -1.7577
  119CHL1    C515000   7.079   1.095   6.187 -0.1911 -0.1066 -0.4740
  119CHL1    C615001   7.022   1.033   6.084 -0.8974  0.1096  0.1036
  119CHL1    H615002   6.924   0.983   6.094 -0.8070 -0.5980 -2.1123
  119CHL1    C715003   7.077   1.027   5.945  0.1809  0.1301 -0.1558
  119CHL1   H7A15004   7.062   0.929   5.895 -1.8047 -0.8366  2.1266
  119CHL1   H7B15005   7.024   1.106   5.888 -0.0273  1.2032  1.4537
  119CHL1    C815006   7.224   1.070   5.947  0.0413 -0.6889 -0.7955
  119CHL1    H815007   7.293   0.992   5.986  2.5773  0.4008 -2.7912
  119CHL1   C1415008   7.257   1.104   5.806  0.0540 -0.4138 -0.1881
  119CHL1   H1415009   7.194   1.190   5.774 -1.5106 -1.4318  0.0551
  119CHL1   C1515010   7.220   1.003   5.688  0.0917  0.1916  0.3330
  119CHL1  H15A15011   7.246   0.899   5.715 -2.2867 -0.7879 -0.9055
  119CHL1  H15B15012   7.115   1.014   5.652 -0.3932 -3.0959  0.4398
  119CHL1   C1615013   7.313   1.046   5.567 -0.5593  0.2242  0.1646
  119CHL1  H16A15014   7.365   0.958   5.523 -0.2310  0.4529  0.0899
  119CHL1  H16B15015   7.244   1.077   5.486 -0.5267 -0.6711 -0.2242
  119CHL1   C1715016   7.410   1.162   5.618 -0.3667 -0.0107 -1.1224
  119CHL1   H1715017   7.351   1.254   5.603 -1.6221 -0.8127 -1.2211
  119CHL1   C1315018   7.411   1.136   5.778  0.4345  0.1182  0.0739
  119CHL1   C1815019   7.498   1.013   5.803 -0.2302  0.3188  0.2337
  119CHL1  H18A15020   7.603   1.045   5.786 -0.8523  1.3275 -2.1261
  119CHL1  H18B15021   7.485   0.973   5.906  2.3368 -1.4252 -0.0166
  119CHL1  H18C15022   7.476   0.929   5.734 -0.8071 -0.3103  1.1583
  119CHL1   C1215023   7.440   1.258   5.856 -0.7189  0.2766 -0.8544
  119CHL1  H12A15024   7.549   1.273   5.862 -0.9191  2.1032 -1.3409
  119CHL1  H12B15025   7.389   1.346   5.811 -1.8881 -0.4461 -0.9796
  119CHL1   C1115026   7.403   1.245   6.007 -0.0068 -0.2920  0.1607
  119CHL1  H11A15027   7.470   1.166   6.048 -0.4036 -0.4240  0.5590
  119CHL1  H11B15028   7.422   1.343   6.056  0.6631 -0.0915 -0.4727
  119CHL1    C915029   7.255   1.197   6.029  0.1272  0.6372  0.0167
  119CHL1    H915030   7.202   1.285   5.985  0.0798  0.5871 -0.0263
  119CHL1   C1015031   7.206   1.178   6.181 -0.6127 -0.2323  0.1641
  119CHL1   C1915032   7.307   1.096   6.260 -0.6531  0.0671  0.6752
  119CHL1  H19A15033   7.402   1.148   6.286  0.7246 -1.6995 -0.5654
  119CHL1  H19B15034   7.266   1.078   6.362  0.0431 -1.5377  0.6968
  119CHL1  H19C15035   7.329   0.996   6.217  1.5322  0.9427 -0.4147
  119CHL1    C115036   7.194   1.322   6.240  0.2204 -0.2944  0.3985
  119CHL1   H1A15037   7.293   1.372   6.247 -0.8900  2.1370 -0.2992
  119CHL1   H1B15038   7.117   1.372   6.178  0.5604 -2.1954 -1.6824
  119CHL1    C215039   7.127   1.325   6.382  0.0660  0.0980  0.1561
  119CHL1   H2A15040   7.123   1.430   6.419 -0.5798  0.9197 -2.0819
  119CHL1   H2B15041   7.197   1.271   6.449 -0.2006 -0.3182  0.0998
  119CHL1   C2015042   7.546   1.174   5.539  0.0385 -0.3132 -0.9876
  119CHL1   H2015043   7.601   1.081   5.564 -0.3530 -0.1498  0.6029
  119CHL1   C2115044   7.632   1.294   5.594  0.0399  0.9641  0.6731
  119CHL1  H21A15045   7.712   1.323   5.522 -1.9143  2.9951 -0.8140
  119CHL1  H21B15046   7.677   1.282   5.696 -1.0347  0.0165  1.0618
  119CHL1  H21C15047   7.563   1.381   5.596 -1.3468 -0.1001  0.5875
  119CHL1   C2215048   7.530   1.171   5.381  0.8649  0.8667  0.0946
  119CHL1  H22A15049   7.633   1.165   5.341  0.2328  0.5595 -1.5895
  119CHL1  H22B15050   7.483   1.075   5.349 -1.5120  2.5304 -1.8467
  119CHL1   C2315051   7.452   1.282   5.317 -0.0408 -0.1539  0.3549
  119CHL1  H23A15052   7.352   1.263   5.361  0.3437 -0.7270  0.9812
  119CHL1  H23B15053   7.485   1.383   5.351  1.0178  0.3524 -1.9602
  119CHL1   C2415054   7.450   1.271   5.160 -0.5001  0.3262 -0.1924
  119CHL1  H24A15055   7.557   1.268   5.130 -0.8237  0.6899 -1.4359
  119CHL1  H24B15056   7.397   1.178   5.132  0.5636 -0.1794 -0.5520
  119CHL1   C2515057   7.376   1.387   5.091  0.2184  0.1571  0.2665
  119CHL1   H2515058   7.396   1.365   4.984  0.1172 -2.4401  0.7156
  119CHL1   C2615059   7.229   1.388   5.130  0.0476 -0.2317 -0.5030
  119CHL1  H26A15060   7.165   1.441   5.056 -2.4504 -2.6571 -0.2569
  119CHL1  H26B15061   7.187   1.285   5.130 -0.0664 -0.1885  0.1060
  119CHL1  H26C15062   7.201   1.427   5.230  1.1527 -0.3538 -0.1317
  119CHL1   C2715063   7.440   1.526   5.112 -0.0903  0.3133 -0.0921
  119CHL1  H27A15064   7.550   1.521   5.101  0.0695 -0.7704  1.5861
  119CHL1  H27B15065   7.394   1.591   5.034 -1.4091  1.0334  1.2340
  119CHL1  H27C15066   7.437   1.577   5.210  0.4586  1.6683 -0.7603
  120CHL1    C315067   6.507   0.454   6.736 -0.1635 -1.0894  1.0226
  120CHL1    H315068   6.512   0.347   6.765 -1.2158 -1.2675  0.5864
  120CHL1    O315069   6.562   0.532   6.841  0.0367  0.2311  0.0876
  120CHL1   H3'15070   6.540   0.618   6.806 -2.0112 -0.3280 -0.1490
  120CHL1    C415071   6.597   0.473   6.611 -0.1653 -0.5635 -0.7229
  120CHL1   H4A15072   6.618   0.582   6.609 -1.3038 -0.2998  0.5171
  120CHL1   H4B15073   6.694   0.429   6.643 -0.3419  0.8994  2.2298
  120CHL1    C515074   6.542   0.414   6.484 -0.9177  0.5644 -0.4551
  120CHL1    C615075   6.613   0.332   6.399  0.0348 -0.3393 -0.8142
  120CHL1    H615076   6.715   0.302   6.425 -0.1316 -0.1966  0.0298
  120CHL1    C715077   6.562   0.265   6.270 -0.9043 -0.2563 -0.5717
  120CHL1   H7A15078   6.637   0.266   6.188  0.3222  0.0202  0.5089
  120CHL1   H7B15079   6.534   0.163   6.303 -1.4689  0.0824  0.0029
  120CHL1    C815080   6.432   0.336   6.225  0.8019  0.4391  0.1481
  120CHL1    H815081   6.461   0.431   6.175 -0.5748  0.6647 -0.2676
  120CHL1   C1415082   6.362   0.249   6.129  0.0045 -0.6096 -0.1781
  120CHL1   H1415083   6.332   0.157   6.184  1.4674 -1.8866 -1.4559
  120CHL1   C1515084   6.451   0.190   6.022 -0.7608 -0.4528 -0.1438
  120CHL1  H15A15085   6.514   0.271   5.978 -0.1638 -0.7107  0.2187
  120CHL1  H15B15086   6.522   0.107   6.046  2.5039  2.4790  1.1661
  120CHL1   C1615087   6.351   0.149   5.918  0.1795  0.4066  0.2297
  120CHL1  H16A15088   6.375   0.190   5.818  0.5939 -3.2443 -1.3285
  120CHL1  H16B15089   6.325   0.041   5.911 -0.5556  0.5823  0.0831
  120CHL1   C1715090   6.209   0.205   5.955  0.9909 -0.4809 -0.4873
  120CHL1   H1715091   6.160   0.123   6.011  1.7629 -0.9268 -0.4587
  120CHL1   C1315092   6.240   0.315   6.063  0.1057 -0.8753 -0.2342
  120CHL1   C1815093   6.288   0.450   6.003 -0.3696  0.6449  0.3751
  120CHL1  H18A15094   6.375   0.435   5.936 -1.2224  0.7019 -0.7582
  120CHL1  H18B15095   6.212   0.498   5.938  0.8149  0.4002 -1.2416
  120CHL1  H18C15096   6.328   0.524   6.076 -1.2484  0.7263  0.7826
  120CHL1   C1215097   6.138   0.344   6.174  0.7659  0.5111 -0.3958
  120CHL1  H12A15098   6.039   0.384   6.142 -1.5109 -2.6027  2.0096
  120CHL1  H12B15099   6.103   0.253   6.228  1.3871  0.2271 -0.4627
  120CHL1   C1115100   6.201   0.428   6.291 -0.2903  0.5135 -1.1649
  120CHL1  H11A15101   6.209   0.529   6.246  1.5513  1.4038  0.9741
  120CHL1  H11B15102   6.124   0.432   6.372  0.1011  1.5824 -0.8309
  120CHL1    C915103   6.337   0.368   6.340 -0.2356  0.2348  0.5090
  120CHL1    H915104   6.310   0.274   6.393  0.5409 -0.2559  0.0492
  120CHL1   C1015105   6.404   0.452   6.453  0.8778  0.1179  0.9644
  120CHL1   C1915106   6.406   0.596   6.403  0.2757 -0.5114 -0.3797
  120CHL1  H19A15107   6.454   0.611   6.304 -0.7889  1.1982 -0.6834
  120CHL1  H19B15108   6.305   0.642   6.400  1.3459  2.2120  1.5887
  120CHL1  H19C15109   6.455   0.662   6.478 -0.3427  1.4097 -1.6076
  120CHL1    C115110   6.310   0.436   6.574  0.0585  0.3266 -0.5595
  120CHL1   H1A15111   6.216   0.491   6.552 -1.3807 -1.5962  0.4513
  120CHL1   H1B15112   6.279   0.330   6.587 -0.7235  0.6447  0.2603
  120CHL1    C215113   6.359   0.491   6.707 -0.1506 -0.0955  0.4529
  120CHL1   H2A15114   6.292   0.457   6.789 -0.0305 -2.7934 -0.4747
  120CHL1   H2B15115   6.364   0.602   6.708 -0.1177 -0.0971  0.4613
  120CHL1   C2015116   6.117   0.239   5.839 -0.0448  0.5803  0.1605
  120CHL1   H2015117   6.178   0.310   5.779  1.8537 -1.5665 -0.5695
  120CHL1   C2115118   5.991   0.296   5.884 -0.1680  0.0674  0.0218
  120CHL1  H21A15119   5.928   0.227   5.944 -0.0710  1.0667  1.2932
  120CHL1  H21B15120   5.923   0.331   5.803 -0.3014  0.4773  0.3099
  120CHL1  H21C15121   6.007   0.392   5.936 -1.2024 -0.1032  0.6655
  120CHL1   C2215122   6.091   0.116   5.740 -0.1859  0.2965  0.2606
  120CHL1  H22A15123   6.010   0.150   5.672 -0.2420  2.4826  1.3397
  120CHL1  H22B15124   6.185   0.084   5.689  0.0377 -2.5135  2.2159
  120CHL1   C2315125   6.035  -0.006   5.801  0.0906  0.3018 -0.6040
  120CHL1  H23A15126   6.099  -0.053   5.878 -1.6630 -1.7311 -0.2974
  120CHL1  H23B15127   5.946   0.026   5.859 -0.1619 -0.8391 -0.3414
  120CHL1   C2415128   5.994  -0.116   5.702 -0.5332 -0.2376 -0.3499
  120CHL1  H24A15129   5.939  -0.079   5.613 -1.3616 -0.6144 -0.0045
  120CHL1  H24B15130   6.087  -0.165   5.665 -0.0863  1.0612 -0.9991
  120CHL1   C2515131   5.903  -0.229   5.770  0.2966  0.6034  0.4399
  120CHL1   H2515132   5.891  -0.310   5.694  2.5169  2.0062 -1.5904
  120CHL1   C2615133   5.974  -0.294   5.889  0.2891  0.0160  0.1328
  120CHL1  H26A15134   6.081  -0.302   5.861 -0.0167 -1.4549 -0.7145
  120CHL1  H26B15135   5.964  -0.228   5.977  0.7485  1.1390 -0.6346
  120CHL1  H26C15136   5.914  -0.386   5.908 -3.1040  1.7332 -1.4836
  120CHL1   C2715137   5.765  -0.177   5.802  0.0093 -0.7064  0.1457
  120CHL1  H27A15138   5.688  -0.257   5.813 -0.4089 -0.1673  1.3036
  120CHL1  H27B15139   5.772  -0.123   5.898  1.0209 -0.0720 -0.2614
  120CHL1  H27C15140   5.731  -0.109   5.720 -0.2206  0.8271  1.4685
  121CHL1    C315141   3.041   3.828   3.678  0.5251 -0.1717 -0.0011
  121CHL1    H315142   3.108   3.903   3.631  0.4884 -0.8068 -1.0955
  121CHL1    O315143   3.015   3.731   3.572 -0.5311  0.4524 -0.0221
  121CHL1   H3'15144   3.102   3.694   3.553  0.2803  1.1316  2.0651
  121CHL1    C415145   3.099   3.765   3.806  0.1604  0.4839  0.2355
  121CHL1   H4A15146   3.030   3.678   3.816  0.0374  0.6362  0.7182
  121CHL1   H4B15147   3.199   3.733   3.770 -0.2900 -0.4640 -0.1922
  121CHL1    C515148   3.103   3.841   3.929  0.3481  0.9183 -0.4324
  121CHL1    C615149   3.210   3.832   4.003 -0.0884 -0.3433  0.3830
  121CHL1    H615150   3.296   3.768   3.976  0.2887  1.0798 -2.0330
  121CHL1    C715151   3.218   3.903   4.140 -0.2106  0.2591 -0.3749
  121CHL1   H7A15152   3.264   3.836   4.216  0.8078  1.6393  0.2611
  121CHL1   H7B15153   3.287   3.989   4.125 -2.0059  1.6380 -0.9756
  121CHL1    C815154   3.079   3.954   4.200  0.0940 -0.1172  0.1122
  121CHL1    H815155   3.034   3.871   4.258 -2.9797  2.3110  1.4469
  121CHL1   C1415156   3.097   4.061   4.302 -0.8508  0.5143 -0.0110
  121CHL1   H1415157   3.151   4.147   4.258 -1.7424  1.4533  0.6853
  121CHL1   C1515158   3.185   4.027   4.433 -0.3052 -0.2448  0.0189
  121CHL1  H15A15159   3.168   3.923   4.467 -1.7133  0.2653  0.9863
  121CHL1  H15B15160   3.293   4.029   4.408 -0.2326 -2.0353  0.0630
  121CHL1   C1615161   3.146   4.136   4.539 -0.5102  0.0691  0.0538
  121CHL1  H16A15162   3.107   4.098   4.636  3.5155  0.1836  1.9667
  121CHL1  H16B15163   3.223   4.208   4.575 -1.8536  0.8967  1.3919
  121CHL1   C1715164   3.030   4.225   4.475 -0.5552 -0.0579 -0.7477
  121CHL1   H1715165   3.090   4.289   4.407 -0.1490 -0.8397 -1.1345
  121CHL1   C1315166   2.976   4.128   4.366  0.4578 -0.3129  0.3035
  121CHL1   C1815167   2.886   4.028   4.439  0.1136  0.7436  0.0402
  121CHL1  H18A15168   2.852   3.951   4.367 -2.2333  1.0887  0.7215
  121CHL1  H18B15169   2.944   3.969   4.513 -0.0013 -0.3356 -0.7147
  121CHL1  H18C15170   2.795   4.080   4.474  0.5856  2.6049 -1.3188
  121CHL1   C1215171   2.893   4.191   4.249 -0.3634 -0.4520 -0.9229
  121CHL1  H12A15172   2.793   4.224   4.284 -0.7036 -0.9936 -1.3449
  121CHL1  H12B15173   2.956   4.272   4.206 -0.9855  0.2570 -0.5081
  121CHL1   C1115174   2.862   4.094   4.138 -0.5176  0.6474  0.2414
  121CHL1  H11A15175   2.795   4.024   4.193  1.2312 -0.2060  1.4043
  121CHL1  H11B15176   2.814   4.150   4.056 -0.7264 -0.8883 -0.7323
  121CHL1    C915177   2.990   4.012   4.087  0.3032  1.0381 -0.6724
  121CHL1    H915178   3.059   4.086   4.042  0.9313  0.2758 -0.9783
  121CHL1   C1015179   2.975   3.914   3.970 -0.2783  1.0375  0.9589
  121CHL1   C1915180   2.871   3.809   4.010 -0.3127 -0.9585 -0.0169
  121CHL1  H19A15181   2.904   3.749   4.097 -0.7184 -1.3468 -0.1261
  121CHL1  H19B15182   2.769   3.850   4.015  0.5807  1.6618 -1.4877
  121CHL1  H19C15183   2.862   3.729   3.932  0.6677  0.8917 -2.1584
  121CHL1    C115184   2.927   3.989   3.839 -0.2874  0.2255 -0.9020
  121CHL1   H1A15185   2.828   4.035   3.863 -1.1808  0.7503 -4.9590
  121CHL1   H1B15186   3.005   4.062   3.812  0.2437  0.1903  0.4313
  121CHL1    C215187   2.904   3.897   3.718  0.0755  0.2299 -0.3840
  121CHL1   H2A15188   2.866   3.957   3.632 -1.7660 -1.6673 -0.9566
  121CHL1   H2B15189   2.825   3.824   3.746  0.7044 -1.0073 -1.6898
  121CHL1   C2015190   2.949   4.310   4.564  0.5460 -0.4278  0.4661
  121CHL1   H2015191   2.858   4.337   4.507 -1.5958 -3.7836  1.9547
  121CHL1   C2115192   3.032   4.442   4.597  0.4627 -0.7097 -0.1439
  121CHL1  H21A15193   3.108   4.401   4.668 -1.4402  1.2709  3.3436
  121CHL1  H21B15194   2.985   4.521   4.660  0.4071 -1.3085  0.5814
  121CHL1  H21C15195   3.068   4.493   4.505  3.4578 -1.6627  0.4046
  121CHL1   C2215196   2.907   4.251   4.700 -0.4424 -0.4341 -0.3174
  121CHL1  H22A15197   2.857   4.154   4.677 -3.1221  0.6258  0.6687
  121CHL1  H22B15198   3.007   4.237   4.744  0.8769  2.0614 -2.2313
  121CHL1   C2315199   2.819   4.335   4.797  0.4603  0.3030 -0.4455
  121CHL1  H23A15200   2.848   4.442   4.786  0.9661  0.1976 -0.1656
  121CHL1  H23B15201   2.713   4.320   4.766 -0.2302 -0.5857  2.1438
  121CHL1   C2415202   2.854   4.298   4.944 -0.9574 -0.8115 -0.2540
  121CHL1  H24A15203   2.836   4.191   4.968  2.3322 -0.9332  2.3012
  121CHL1  H24B15204   2.961   4.313   4.968 -0.1521 -3.4940 -1.7307
  121CHL1   C2515205   2.778   4.375   5.058  0.2005 -0.5338 -0.6106
  121CHL1   H2515206   2.817   4.478   5.059  1.6454 -1.0540 -1.1937
  121CHL1   C2615207   2.630   4.369   5.041  1.0126  0.8590 -0.2885
  121CHL1  H26A15208   2.571   4.416   5.123 -0.9959 -1.5925 -0.1857
  121CHL1  H26B15209   2.592   4.412   4.946  1.0774 -2.0850 -1.7703
  121CHL1  H26C15210   2.600   4.262   5.029  1.6205  0.9839 -3.7130
  121CHL1   C2715211   2.818   4.302   5.188 -0.6116  0.1080 -0.2492
  121CHL1  H27A15212   2.769   4.352   5.274  0.6615  2.2719 -0.6945
  121CHL1  H27B15213   2.789   4.195   5.178  0.1256 -0.0347 -0.9836
  121CHL1  H27C15214   2.928   4.314   5.202 -0.6831 -0.0455  0.5026
  122CHL1    C315215   1.587   3.534   3.566 -0.3443  0.1651  0.4322
  122CHL1    H315216   1.515   3.617   3.586  1.3372  1.7661  0.0690
  122CHL1    O315217   1.659   3.564   3.447  0.4863 -0.3086  0.7255
  122CHL1   H3'15218   1.707   3.484   3.425  1.5170  0.1573  1.2472
  122CHL1    C415219   1.682   3.522   3.688 -0.2456  0.1892 -0.7136
  122CHL1   H4A15220   1.755   3.442   3.664 -0.9624 -0.3858 -1.0286
  122CHL1   H4B15221   1.746   3.612   3.702  2.8764 -1.8249 -0.9664
  122CHL1    C515222   1.610   3.479   3.818  0.0668  0.4684  0.6784
  122CHL1    C615223   1.612   3.552   3.926  0.0819 -0.2348 -0.3773
  122CHL1    H615224   1.676   3.640   3.937 -0.3246 -0.1782  1.8338
  122CHL1    C715225   1.549   3.504   4.054 -0.2195 -0.6596 -0.1787
  122CHL1   H7A15226   1.619   3.505   4.141 -0.1895 -1.5178 -0.1804
  122CHL1   H7B15227   1.463   3.573   4.070 -0.4830 -1.0122 -0.0379
  122CHL1    C815228   1.497   3.360   4.053  0.2569  0.6918  0.4625
  122CHL1    H815229   1.579   3.292   4.084  0.1349  1.1524  1.8957
  122CHL1   C1415230   1.386   3.345   4.159 -0.0549 -0.1855 -0.2341
  122CHL1   H1415231   1.301   3.405   4.121  1.3739  0.8730 -1.9175
  122CHL1   C1515232   1.408   3.407   4.300 -0.3697 -0.3724  0.1366
  122CHL1  H15A15233   1.511   3.384   4.336  0.1983  1.1609 -0.4016
  122CHL1  H15B15234   1.389   3.517   4.300  0.6691 -0.1793 -0.2512
  122CHL1   C1615235   1.307   3.333   4.385  0.2717  0.0207 -0.1743
  122CHL1  H16A15236   1.359   3.264   4.455 -0.3762  1.4700  1.8329
  122CHL1  H16B15237   1.246   3.396   4.455  0.4704  0.2323 -0.1914
  122CHL1   C1715238   1.220   3.248   4.285  0.1691  0.5295  0.4157
  122CHL1   H1715239   1.150   3.323   4.243  2.7232  2.9015  0.0381
  122CHL1   C1315240   1.319   3.209   4.176  0.8907 -0.4230 -0.4289
  122CHL1   C1815241   1.426   3.108   4.235  0.5110  0.0973 -0.0730
  122CHL1  H18A15242   1.458   3.131   4.339 -0.5630 -0.6364  0.4373
  122CHL1  H18B15243   1.379   3.008   4.246  1.4829 -0.2436  1.3432
  122CHL1  H18C15244   1.510   3.098   4.163 -0.0069 -1.2755 -0.5256
  122CHL1   C1215245   1.258   3.176   4.040 -0.1176 -0.2076  0.2867
  122CHL1  H12A15246   1.227   3.071   4.054  2.2541 -0.7089  2.6762
  122CHL1  H12B15247   1.170   3.237   4.010  0.0634 -0.2313 -0.3056
  122CHL1   C1115248   1.364   3.186   3.923  0.3318  0.0796 -0.4377
  122CHL1  H11A15249   1.443   3.109   3.935  2.4188  1.9981 -1.2496
  122CHL1  H11B15250   1.316   3.162   3.825  1.4647 -1.1997 -0.7132
  122CHL1    C915251   1.433   3.323   3.917 -0.0590 -0.2723  0.3423
  122CHL1    H915252   1.353   3.400   3.911  0.4486  0.2183 -0.2080
  122CHL1   C1015253   1.521   3.351   3.798 -0.4132  0.0539 -0.2347
  122CHL1   C1915254   1.612   3.231   3.774 -0.0031  0.0480 -0.4946
  122CHL1  H19A15255   1.707   3.256   3.721  0.0105  0.2886 -0.3573
  122CHL1  H19B15256   1.644   3.192   3.873  0.7569  2.8336  0.4613
  122CHL1  H19C15257   1.560   3.152   3.716 -0.2193 -0.3890  0.2896
  122CHL1    C115258   1.437   3.355   3.660 -0.5874  0.3078  0.1935
  122CHL1   H1A15259   1.404   3.253   3.630  0.1383 -0.0866  0.6883
  122CHL1   H1B15260   1.358   3.425   3.692 -1.5980  0.7272 -2.9003
  122CHL1    C215261   1.517   3.409   3.528  0.6838  0.7118  0.0023
  122CHL1   H2A15262   1.450   3.423   3.440  1.6750  0.4129 -0.8130
  122CHL1   H2B15263   1.593   3.329   3.511 -0.8225 -1.5865  3.1092
  122CHL1   C2015264   1.131   3.135   4.355 -0.1117 -0.1159 -0.2193
  122CHL1   H2015265   1.175   3.033   4.357  0.3972  0.0834 -0.7960
  122CHL1   C2115266   1.007   3.124   4.262 -0.4476  0.1031 -0.6934
  122CHL1  H21A15267   0.949   3.034   4.292  0.7019  0.5319  3.3718
  122CHL1  H21B15268   1.036   3.112   4.155 -1.9626 -2.1505 -0.9384
  122CHL1  H21C15269   0.953   3.220   4.262  0.4721  0.6447  0.6649
  122CHL1   C2215270   1.100   3.176   4.498 -0.2039 -0.0813  1.1687
  122CHL1  H22A15271   1.191   3.185   4.562 -1.2461 -0.6287  2.7956
  122CHL1  H22B15272   1.056   3.278   4.488 -0.4872 -0.3762 -1.2320
  122CHL1   C2315273   1.007   3.073   4.569  0.0245 -0.4043 -0.5319
  122CHL1  H23A15274   0.909   3.077   4.517 -0.3038  2.5486  0.1067
  122CHL1  H23B15275   1.060   2.976   4.562  0.4763 -0.2365  0.3867
  122CHL1   C2415276   0.971   3.117   4.709  0.4523  0.0283 -0.2354
  122CHL1  H24A15277   0.934   3.221   4.711 -2.2404 -0.8619  0.5276
  122CHL1  H24B15278   0.898   3.046   4.753 -0.3145  0.0167 -1.4902
  122CHL1   C2515279   1.091   3.110   4.810 -0.0369 -0.5299 -0.2538
  122CHL1   H2515280   1.177   3.166   4.766 -0.1649 -1.2569 -1.4642
  122CHL1   C2615281   1.054   3.170   4.944  0.6898 -0.4620 -0.6138
  122CHL1  H26A15282   1.040   3.280   4.933 -3.9043 -0.8229 -0.3793
  122CHL1  H26B15283   0.964   3.111   4.971  1.6574 -0.8525  2.1294
  122CHL1  H26C15284   1.130   3.155   5.024 -1.4348  1.9695  2.1040
  122CHL1   C2715285   1.135   2.963   4.839  0.8252  0.4910  0.0983
  122CHL1  H27A15286   1.040   2.916   4.873 -0.1206  1.5215 -1.0318
  122CHL1  H27B15287   1.173   2.911   4.749 -1.3620 -1.6626  0.3160
  122CHL1  H27C15288   1.209   2.966   4.922 -0.0850  1.9080  0.9175
  123CHL1    C315289   5.378   3.206   3.923  0.3538 -0.4829  0.1059
  123CHL1    H315290   5.396   3.103   3.961  0.2272  0.3446  2.5837
  123CHL1    O315291   5.334   3.193   3.789  0.0832 -0.5449 -0.1927
  123CHL1   H3'15292   5.302   3.278   3.756 -1.9372 -1.7101 -1.5125
  123CHL1    C415293   5.279   3.289   4.010  0.4460  0.2761  1.0855
  123CHL1   H4A15294   5.270   3.393   3.972  1.4437  0.3852  1.1344
  123CHL1   H4B15295   5.180   3.238   4.003  0.3724  0.4035  1.1910
  123CHL1    C515296   5.344   3.288   4.147 -0.1946 -0.2119 -0.9077
  123CHL1    C615297   5.272   3.240   4.251 -0.3864 -0.1735 -0.6550
  123CHL1    H615298   5.172   3.197   4.241 -0.9554  1.0290 -0.3290
  123CHL1    C715299   5.329   3.240   4.390  0.0007  1.3024  0.3365
  123CHL1   H7A15300   5.245   3.253   4.461 -0.6027  0.5133 -0.2222
  123CHL1   H7B15301   5.370   3.138   4.406 -1.7438  0.8399  2.4359
  123CHL1    C815302   5.433   3.351   4.410  0.9266 -0.0282  0.3965
  123CHL1    H815303   5.375   3.446   4.409  0.4781 -0.2591 -2.6140
  123CHL1   C1415304   5.495   3.344   4.546  0.6900  0.3454  0.1470
  123CHL1   H1415305   5.561   3.254   4.549  0.3671  0.1224  1.6134
  123CHL1   C1515306   5.405   3.322   4.670  0.0174  0.1819  0.0034
  123CHL1  H15A15307   5.327   3.400   4.676  1.2272  1.4211  0.3383
  123CHL1  H15B15308   5.357   3.223   4.656  1.2701 -0.6850  1.4452
  123CHL1   C1615309   5.495   3.334   4.794  0.4596  0.6078  0.3409
  123CHL1  H16A15310   5.434   3.389   4.869  0.0462  1.1338 -0.3723
  123CHL1  H16B15311   5.514   3.234   4.839  0.8521  0.7170  0.4138
  123CHL1   C1715312   5.626   3.407   4.741  0.0754  0.0731  0.5543
  123CHL1   H1715313   5.694   3.321   4.725  2.7286  2.4492 -2.0260
  123CHL1   C1315314   5.591   3.450   4.589 -0.6604 -0.5967 -0.3406
  123CHL1   C1815315   5.529   3.594   4.589  1.1240 -0.4579 -0.3244
  123CHL1  H18A15316   5.448   3.596   4.665  0.4882  0.1247 -0.9958
  123CHL1  H18B15317   5.600   3.670   4.627 -0.1592 -0.4114  2.1518
  123CHL1  H18C15318   5.473   3.611   4.494  0.1099  0.2657  0.3865
  123CHL1   C1215319   5.708   3.452   4.489  0.4397 -0.5288 -0.0167
  123CHL1  H12A15320   5.783   3.526   4.521 -0.5971  1.8351 -2.6163
  123CHL1  H12B15321   5.752   3.351   4.503  2.2693  0.3141  0.5793
  123CHL1   C1115322   5.658   3.455   4.344 -0.4899  0.5769  0.2158
  123CHL1  H11A15323   5.619   3.557   4.325  0.8708  0.9845 -0.5347
  123CHL1  H11B15324   5.737   3.450   4.267  0.8704 -1.4575  1.6244
  123CHL1    C915325   5.545   3.346   4.310  0.6483 -0.3841  0.1175
  123CHL1    H915326   5.586   3.245   4.330  1.7382 -0.2394 -1.2422
  123CHL1   C1015327   5.485   3.357   4.166  0.3565 -0.4265  0.4673
  123CHL1   C1915328   5.485   3.514   4.119  0.3954  0.2768  0.5163
  123CHL1  H19A15329   5.585   3.538   4.077  1.6684 -1.6538  2.2518
  123CHL1  H19B15330   5.406   3.532   4.042  1.2326  0.3028 -0.3585
  123CHL1  H19C15331   5.449   3.572   4.206 -2.0197  0.3448 -0.4305
  123CHL1    C115332   5.568   3.275   4.063  0.5720 -0.6958 -0.3785
  123CHL1   H1A15333   5.668   3.323   4.069  0.7432 -1.0010 -0.7204
  123CHL1   H1B15334   5.579   3.175   4.110  3.4507  0.3842  1.5861
  123CHL1    C215335   5.514   3.277   3.920 -0.3278  0.1630  0.3118
  123CHL1   H2A15336   5.594   3.232   3.857  2.5512  1.4210  2.8574
  123CHL1   H2B15337   5.509   3.381   3.883  0.0811  1.3405  3.3198
  123CHL1   C2015338   5.700   3.500   4.838  0.8712 -0.4015 -0.1981
  123CHL1   H2015339   5.775   3.561   4.782  0.9254  0.0468  0.3559
  123CHL1   C2115340   5.772   3.405   4.934 -0.6901 -0.3017  0.3028
  123CHL1  H21A15341   5.839   3.473   4.992 -1.5951  0.4981  0.4520
  123CHL1  H21B15342   5.837   3.329   4.887  0.1117  0.7753 -0.3896
  123CHL1  H21C15343   5.706   3.362   5.013 -0.8840 -0.0148  0.2991
  123CHL1   C2215344   5.609   3.595   4.921  0.0576 -0.0710  0.3539
  123CHL1  H22A15345   5.567   3.665   4.845  2.4463  1.0075 -0.0394
  123CHL1  H22B15346   5.520   3.540   4.959 -1.6842  3.0134  1.0841
  123CHL1   C2315347   5.678   3.694   5.019 -0.0059 -0.8694 -0.1628
  123CHL1  H23A15348   5.741   3.640   5.093  2.1771  0.9953 -0.5547
  123CHL1  H23B15349   5.760   3.751   4.970  1.2483 -2.0498  0.5104
  123CHL1   C2415350   5.568   3.782   5.082 -0.8669 -1.0179  0.3927
  123CHL1  H24A15351   5.513   3.845   5.009  0.7045  1.6140  1.3485
  123CHL1  H24B15352   5.495   3.722   5.141 -0.2736 -0.0445  2.1923
  123CHL1   C2515353   5.623   3.872   5.187 -0.5959 -0.2031 -1.4193
  123CHL1   H2515354   5.670   3.808   5.264 -1.3266  1.2297  0.3064
  123CHL1   C2615355   5.732   3.973   5.139 -0.2438  0.2989  0.1774
  123CHL1  H26A15356   5.712   4.022   5.041  1.6809 -1.4641 -1.1984
  123CHL1  H26B15357   5.738   4.051   5.217 -2.2587  0.9345 -0.2553
  123CHL1  H26C15358   5.831   3.922   5.134 -0.7316 -0.6761  0.2750
  123CHL1   C2715359   5.512   3.941   5.250  0.4977  0.2261 -0.3163
  123CHL1  H27A15360   5.542   3.992   5.344 -2.0254  0.9237  0.1745
  123CHL1  H27B15361   5.483   4.024   5.183 -1.2573 -0.2096 -0.1492
  123CHL1  H27C15362   5.422   3.880   5.273 -1.8352  3.5060 -0.0911
  124CHL1    C315363   1.958   5.257   3.448 -0.0698  0.2679 -0.5611
  124CHL1    H315364   2.046   5.209   3.494  0.3458  1.2207 -0.3348
  124CHL1    O315365   1.995   5.299   3.315 -0.2896 -0.2077  0.3436
  124CHL1   H3'15366   1.918   5.344   3.280  0.0288 -0.5664 -0.8747
  124CHL1    C415367   1.846   5.157   3.451  0.7290 -0.6685  0.4478
  124CHL1   H4A15368   1.751   5.202   3.415  2.3364  1.1078 -1.9006
  124CHL1   H4B15369   1.860   5.079   3.373 -2.0724 -0.1081 -0.7425
  124CHL1    C515370   1.832   5.103   3.587 -1.2889  0.0752  0.0614
  124CHL1    C615371   1.833   4.972   3.619  0.2066 -0.2473  0.1835
  124CHL1    H615372   1.853   4.896   3.543  0.0272 -0.0050 -0.1055
  124CHL1    C715373   1.795   4.917   3.754 -0.6065 -0.3393 -0.6402
  124CHL1   H7A15374   1.724   4.832   3.752  1.4489 -2.1367 -1.0619
  124CHL1   H7B15375   1.887   4.870   3.795 -0.7353  0.1914  0.2824
  124CHL1    C815376   1.745   5.026   3.855  0.3859  0.3245 -0.5336
  124CHL1    H815377   1.638   5.047   3.834  0.1522  0.4028  0.6637
  124CHL1   C1415378   1.751   4.967   3.994  0.2818 -0.7159 -0.2459
  124CHL1   H1415379   1.859   4.941   4.004  0.1548 -0.7736  1.1978
  124CHL1   C1515380   1.668   4.840   4.030 -0.9643  0.0087 -0.2920
  124CHL1  H15A15381   1.565   4.847   3.989 -1.3603 -0.0620  0.6613
  124CHL1  H15B15382   1.731   4.752   4.005  1.4272  1.2929  0.8929
  124CHL1   C1615383   1.668   4.846   4.184 -0.7040  0.1199  0.0356
  124CHL1  H16A15384   1.562   4.843   4.218  0.5226  0.1542  4.5520
  124CHL1  H16B15385   1.714   4.752   4.222 -1.0203 -0.6517 -1.4134
  124CHL1   C1715386   1.730   4.975   4.229 -0.1000  0.2344 -0.1409
  124CHL1   H1715387   1.840   4.958   4.232  0.2579  2.3910  0.1038
  124CHL1   C1315388   1.710   5.063   4.107  0.9429  0.0478  0.3050
  124CHL1   C1815389   1.558   5.100   4.097 -0.3402 -0.4267 -0.5954
  124CHL1  H18A15390   1.494   5.009   4.088 -0.6441 -0.0862 -2.3213
  124CHL1  H18B15391   1.533   5.163   4.186 -2.6941 -0.3405 -1.2378
  124CHL1  H18C15392   1.545   5.155   4.001  0.9038 -1.0933 -1.1681
  124CHL1   C1215393   1.805   5.191   4.094 -0.2451  1.5504 -0.2200
  124CHL1  H12A15394   1.778   5.268   4.169  2.0149  0.4621  1.8561
  124CHL1  H12B15395   1.906   5.154   4.122  1.0078  2.4834 -3.0963
  124CHL1   C1115396   1.797   5.255   3.954  0.3539 -0.5010  0.0821
  124CHL1  H11A15397   1.699   5.307   3.951  1.3083  1.3531 -2.6855
  124CHL1  H11B15398   1.867   5.339   3.938  0.4648 -0.3299  1.3794
  124CHL1    C915399   1.823   5.155   3.838 -0.3043  0.0995  0.3369
  124CHL1    H915400   1.930   5.131   3.858  0.0237  0.3021 -1.0764
  124CHL1   C1015401   1.811   5.212   3.695 -0.1825 -0.2370 -0.0166
  124CHL1   C1915402   1.664   5.251   3.673 -0.5544 -0.0642  0.4332
  124CHL1  H19A15403   1.624   5.301   3.764 -0.1077  0.3336  0.4103
  124CHL1  H19B15404   1.639   5.320   3.590  1.1562 -0.3180 -0.3190
  124CHL1  H19C15405   1.603   5.160   3.654 -0.9862  0.1998  0.5458
  124CHL1    C115406   1.905   5.332   3.680  0.3036 -0.1615  0.0137
  124CHL1   H1A15407   1.852   5.414   3.733  0.7821 -0.2405  0.6193
  124CHL1   H1B15408   1.992   5.298   3.739  0.5631  1.1054  0.3856
  124CHL1    C215409   1.929   5.380   3.535 -0.2615 -0.3539  0.2819
  124CHL1   H2A15410   2.007   5.458   3.523  1.7896 -2.6255 -2.7116
  124CHL1   H2B15411   1.833   5.423   3.501 -2.6605 -4.0978  1.6309
  124CHL1   C2015412   1.683   5.024   4.368 -0.2414 -0.2357 -0.1782
  124CHL1   H2015413   1.577   5.054   4.375 -0.4432 -0.6942 -1.1435
  124CHL1   C2115414   1.773   5.139   4.418  0.1946 -0.6601  0.3928
  124CHL1  H21A15415   1.880   5.117   4.397  0.4981  0.8867  0.2082
  124CHL1  H21B15416   1.762   5.164   4.526  3.2632  0.6422  0.5213
  124CHL1  H21C15417   1.751   5.236   4.368  0.9262 -1.1872 -1.0005
  124CHL1   C2215418   1.703   4.905   4.471  0.7581 -0.7636 -0.4470
  124CHL1  H22A15419   1.640   4.817   4.445 -2.0426  0.1200  2.5835
  124CHL1  H22B15420   1.807   4.867   4.470  0.0684 -2.7881 -1.1233
  124CHL1   C2315421   1.649   4.946   4.614 -0.2786  0.4056  0.3846
  124CHL1  H23A15422   1.730   5.000   4.668  0.9865 -1.8579  0.8909
  124CHL1  H23B15423   1.563   5.013   4.595  0.1456  0.5671 -1.1035
  124CHL1   C2415424   1.585   4.831   4.691 -0.0460  0.3013 -0.4055
  124CHL1  H24A15425   1.498   4.792   4.633 -1.0691  0.5439  0.9058
  124CHL1  H24B15426   1.654   4.746   4.705 -0.7642 -0.0369  1.3799
  124CHL1   C2515427   1.531   4.867   4.831 -0.6292 -1.1358  0.6253
  124CHL1   H2515428   1.487   4.969   4.825 -3.4042 -2.2437  0.7060
  124CHL1   C2615429   1.419   4.767   4.860  0.2417  0.1570  0.5868
  124CHL1  H26A15430   1.458   4.666   4.882 -3.1660 -1.6210 -0.8190
  124CHL1  H26B15431   1.372   4.807   4.952  0.9847  0.1727  0.9642
  124CHL1  H26C15432   1.348   4.765   4.775  0.0805  2.7538  0.5799
  124CHL1   C2715433   1.641   4.875   4.942  0.1796 -0.8368  0.1054
  124CHL1  H27A15434   1.600   4.891   5.044  0.1576 -1.0242  0.1249
  124CHL1  H27B15435   1.689   4.775   4.947  0.7720 -0.5164  1.6911
  124CHL1  H27C15436   1.707   4.962   4.924 -0.8314  0.0900  0.7346
  125CHL1    C315437   2.793   5.611   3.514 -0.6279 -0.4608 -0.0616
  125CHL1    H315438   2.871   5.689   3.526 -2.7159  1.8182 -0.6146
  125CHL1    O315439   2.780   5.590   3.374 -0.0364 -0.0839  0.2404
  125CHL1   H3'15440   2.722   5.514   3.367  0.9562 -0.7700 -0.8504
  125CHL1    C415441   2.835   5.470   3.577  0.4738  0.1597  0.8721
  125CHL1   H4A15442   2.761   5.391   3.550 -1.3581  2.0999 -0.1386
  125CHL1   H4B15443   2.934   5.443   3.535  0.0529 -1.5231  0.8776
  125CHL1    C515444   2.829   5.474   3.727 -0.4902 -0.5903 -0.1090
  125CHL1    C615445   2.928   5.426   3.798  0.1581 -0.1556 -0.1639
  125CHL1    H615446   3.014   5.379   3.748  0.8245  0.4323  0.4143
  125CHL1    C715447   2.932   5.432   3.948 -0.1995  0.5995  0.0718
  125CHL1   H7A15448   2.949   5.326   3.975  0.2474  0.0811 -2.0080
  125CHL1   H7B15449   3.019   5.491   3.982  0.6153 -1.0070  0.8962
  125CHL1    C815450   2.800   5.471   4.019  1.0204 -0.2755 -0.4985
  125CHL1    H815451   2.732   5.384   4.027  1.8587 -0.8560  0.7259
  125CHL1   C1415452   2.823   5.511   4.160  0.9964  0.2634 -0.5328
  125CHL1   H1415453   2.898   5.592   4.144  1.6579 -0.7006 -2.6932
  125CHL1   C1515454   2.899   5.416   4.249  0.5283  0.9267 -0.2400
  125CHL1  H15A15455   2.849   5.317   4.240 -0.7812  1.4413  1.0497
  125CHL1  H15B15456   3.002   5.401   4.209  0.7769 -1.4774  1.0676
  125CHL1   C1615457   2.879   5.472   4.395  0.4427  0.3321  0.2509
  125CHL1  H16A15458   2.851   5.387   4.460  1.0809  1.3291  1.8861
  125CHL1  H16B15459   2.975   5.515   4.433  1.1514  1.3862 -2.4640
  125CHL1   C1715460   2.771   5.586   4.383 -0.6786  0.4333  0.5919
  125CHL1   H1715461   2.839   5.668   4.353  1.4849 -1.4775 -0.0314
  125CHL1   C1315462   2.704   5.553   4.238 -0.0514  0.3616 -0.0171
  125CHL1   C1815463   2.598   5.440   4.267  0.3712  0.3327 -0.5830
  125CHL1  H18A15464   2.559   5.409   4.167  0.9819  1.5554 -1.2302
  125CHL1  H18B15465   2.635   5.362   4.336  0.8058  1.0896  0.0449
  125CHL1  H18C15466   2.510   5.493   4.311 -1.0677 -1.0107 -1.6920
  125CHL1   C1215467   2.645   5.670   4.161  0.0198  0.2819 -0.3184
  125CHL1  H12A15468   2.558   5.705   4.221  1.4020 -1.4856  2.9417
  125CHL1  H12B15469   2.712   5.758   4.173  0.8162 -0.2794 -0.5510
  125CHL1   C1115470   2.615   5.649   4.013  0.3003 -0.6312 -0.4107
  125CHL1  H11A15471   2.524   5.584   4.017  0.0928 -0.6574 -3.2974
  125CHL1  H11B15472   2.594   5.748   3.968  0.2641 -0.7345 -0.6289
  125CHL1    C915473   2.734   5.587   3.941  0.1847  0.1910 -0.5732
  125CHL1    H915474   2.808   5.669   3.933  0.0322  0.3505 -0.3461
  125CHL1   C1015475   2.709   5.548   3.794  0.2199  0.1689  0.4074
  125CHL1   C1915476   2.592   5.447   3.783  0.7714  0.0750 -0.0038
  125CHL1  H19A15477   2.497   5.498   3.810  1.2981  0.6499  0.8255
  125CHL1  H19B15478   2.569   5.415   3.679 -0.1928  1.3173 -0.2017
  125CHL1  H19C15479   2.598   5.372   3.864  1.2653  1.7200  1.5528
  125CHL1    C115480   2.676   5.678   3.720  0.6193  0.2541 -0.2965
  125CHL1   H1A15481   2.578   5.711   3.760  1.8220  2.5301  0.9437
  125CHL1   H1B15482   2.755   5.750   3.750 -2.1689  2.6041  1.8915
  125CHL1    C215483   2.665   5.666   3.570 -0.3284 -0.3358  0.4315
  125CHL1   H2A15484   2.647   5.772   3.541  0.1304 -0.1204  0.9243
  125CHL1   H2B15485   2.577   5.604   3.542 -1.4893  2.0596 -1.7335
  125CHL1   C2015486   2.693   5.633   4.505  1.0191 -0.5905 -0.1109
  125CHL1   H2015487   2.613   5.702   4.471  1.7259 -0.5377 -1.7934
  125CHL1   C2115488   2.789   5.721   4.588 -0.2532  0.1221 -0.1213
  125CHL1  H21A15489   2.813   5.820   4.544 -0.5963 -0.0470 -0.7098
  125CHL1  H21B15490   2.883   5.669   4.616  0.9482  1.5078 -1.3882
  125CHL1  H21C15491   2.736   5.747   4.682 -3.8939 -1.2345 -1.6149
  125CHL1   C2215492   2.627   5.529   4.596  0.2540 -0.1188 -1.0322
  125CHL1  H22A15493   2.584   5.448   4.532 -1.4775  0.2556 -0.3937
  125CHL1  H22B15494   2.702   5.472   4.655 -0.9842 -0.9500 -0.2041
  125CHL1   C2315495   2.515   5.587   4.680  0.8625  0.1024 -0.8602
  125CHL1  H23A15496   2.547   5.675   4.741  2.1056 -0.4086 -0.7483
  125CHL1  H23B15497   2.432   5.620   4.614 -0.6468  1.9267  1.7527
  125CHL1   C2415498   2.454   5.483   4.775  0.0557 -0.2012 -0.6064
  125CHL1  H24A15499   2.420   5.395   4.717 -0.3150  0.5362 -1.5359
  125CHL1  H24B15500   2.534   5.440   4.839 -1.0089 -1.6723 -0.2064
  125CHL1   C2515501   2.352   5.527   4.876  0.7579 -0.0231 -0.2600
  125CHL1   H2515502   2.304   5.617   4.832  0.8887  0.6745  0.9797
  125CHL1   C2615503   2.242   5.425   4.898  0.5112  0.3731 -0.4603
  125CHL1  H26A15504   2.178   5.414   4.807 -0.0508 -0.0339 -0.0259
  125CHL1  H26B15505   2.273   5.321   4.920 -0.7301 -0.1869 -1.2073
  125CHL1  H26C15506   2.179   5.464   4.981  0.4257  0.9658 -0.7986
  125CHL1   C2715507   2.404   5.576   5.016 -0.4342 -0.3285  0.4285
  125CHL1  H27A15508   2.477   5.655   4.987  0.2398 -0.8502  0.6873
  125CHL1  H27B15509   2.320   5.625   5.070  0.7416  0.9928  1.1079
  125CHL1  H27C15510   2.452   5.495   5.075 -2.5283 -1.3677  0.8062
  126CHL1    C315511   1.684   5.718   3.381 -0.6230 -0.1245 -0.1639
  126CHL1    H315512   1.700   5.608   3.381  1.3825  0.1242 -0.3126
  126CHL1    O315513   1.702   5.774   3.256 -0.0883 -0.3969  0.0991
  126CHL1   H3'15514   1.691   5.868   3.270 -0.5203 -0.4664  0.2672
  126CHL1    C415515   1.542   5.738   3.444  0.5425  0.6284  0.3021
  126CHL1   H4A15516   1.535   5.848   3.428 -0.1417  0.7893  1.6167
  126CHL1   H4B15517   1.476   5.693   3.367  0.5998  1.0844 -0.0201
  126CHL1    C515518   1.525   5.707   3.591  0.2033 -0.0382 -0.7043
  126CHL1    C615519   1.422   5.629   3.628  0.2530 -0.3332 -0.0970
  126CHL1    H615520   1.357   5.590   3.548 -0.3984 -0.4523  0.4834
  126CHL1    C715521   1.404   5.584   3.768  0.7307 -0.2921 -0.5342
  126CHL1   H7A15522   1.299   5.615   3.790  1.1586  3.4654 -2.7955
  126CHL1   H7B15523   1.406   5.473   3.772 -1.3457 -0.3652  0.0741
  126CHL1    C815524   1.490   5.652   3.875 -0.4168  0.5702 -0.0848
  126CHL1    H815525   1.440   5.747   3.901 -0.8612  0.3358 -0.0602
  126CHL1   C1415526   1.502   5.567   4.005  0.6729  0.0839 -0.3508
  126CHL1   H1415527   1.559   5.475   3.979 -0.2927 -1.2011  1.7780
  126CHL1   C1515528   1.373   5.496   4.061 -0.7070  0.2575  0.0692
  126CHL1  H15A15529   1.282   5.557   4.039 -0.0580  0.6207 -1.7162
  126CHL1  H15B15530   1.366   5.399   4.008 -0.8288 -0.7636  1.8594
  126CHL1   C1615531   1.407   5.470   4.208 -0.3066  0.6135 -0.3619
  126CHL1  H16A15532   1.339   5.539   4.263 -0.5395  0.4485 -0.4408
  126CHL1  H16B15533   1.400   5.372   4.261 -0.3706  1.1425  0.6238
  126CHL1   C1715534   1.558   5.518   4.233  1.0031 -0.0320 -0.3748
  126CHL1   H1715535   1.628   5.433   4.216  0.7989 -0.6306  1.5359
  126CHL1   C1315536   1.577   5.624   4.126  0.4985 -0.8233  0.5653
  126CHL1   C1815537   1.505   5.754   4.170 -0.1134 -0.7404 -0.6021
  126CHL1  H18A15538   1.512   5.835   4.094  4.1164  1.5271  1.8075
  126CHL1  H18B15539   1.397   5.730   4.186  0.4111 -1.8567  1.6445
  126CHL1  H18C15540   1.549   5.797   4.262 -1.2789 -0.9961  0.0951
  126CHL1   C1215541   1.720   5.645   4.068 -0.6759  0.1548 -0.3429
  126CHL1  H12A15542   1.795   5.680   4.141  1.0497 -0.7923 -1.5669
  126CHL1  H12B15543   1.755   5.546   4.032 -1.5867 -0.0899 -0.5743
  126CHL1   C1115544   1.715   5.737   3.947  0.1398  0.0216  0.0348
  126CHL1  H11A15545   1.689   5.839   3.981 -1.1982  0.0214 -0.9266
  126CHL1  H11B15546   1.819   5.738   3.909  0.4228 -1.8175  0.6671
  126CHL1    C915547   1.631   5.678   3.828  0.0213 -0.0599  0.0305
  126CHL1    H915548   1.663   5.574   3.807 -0.9748 -0.0674 -1.6283
  126CHL1   C1015549   1.636   5.755   3.688 -0.3174  0.8119  0.2798
  126CHL1   C1915550   1.626   5.905   3.703 -0.9728 -0.1243  0.0321
  126CHL1  H19A15551   1.535   5.935   3.759 -0.1456  0.4605  1.0858
  126CHL1  H19B15552   1.714   5.945   3.757 -0.7077  1.3992 -1.4497
  126CHL1  H19C15553   1.616   5.967   3.611  1.2766  1.8081  1.0008
  126CHL1    C115554   1.772   5.714   3.618 -0.5422  0.3524 -0.1217
  126CHL1   H1A15555   1.857   5.729   3.687 -0.9872  2.0556  0.0851
  126CHL1   H1B15556   1.760   5.604   3.607 -1.5934  0.4429 -0.0233
  126CHL1    C215557   1.789   5.773   3.474  0.2261 -0.5236 -0.0550
  126CHL1   H2A15558   1.888   5.753   3.429 -0.5675 -2.6017 -0.9727
  126CHL1   H2B15559   1.775   5.883   3.481  1.2497 -0.3955  0.0284
  126CHL1   C2015560   1.570   5.560   4.382  0.6389 -0.3269  0.2900
  126CHL1   H2015561   1.499   5.639   4.412 -0.5846 -2.1568  2.5486
  126CHL1   C2115562   1.714   5.607   4.397 -0.1541 -0.2129  0.0668
  126CHL1  H21A15563   1.780   5.518   4.404 -1.4216 -1.0325  3.4123
  126CHL1  H21B15564   1.720   5.669   4.489  0.1328 -1.9631  1.2813
  126CHL1  H21C15565   1.745   5.685   4.324  1.0610 -0.6343  0.1041
  126CHL1   C2215566   1.549   5.439   4.478  0.2449  0.2845 -0.5406
  126CHL1  H22A15567   1.475   5.366   4.440 -0.5095  0.1580  1.1014
  126CHL1  H22B15568   1.643   5.380   4.492  0.0764  0.4968  1.8665
  126CHL1   C2315569   1.503   5.483   4.618 -0.4498  0.1057 -0.0799
  126CHL1  H23A15570   1.551   5.582   4.636 -1.0669  0.5491 -0.8068
  126CHL1  H23B15571   1.393   5.500   4.614 -0.2774  1.3191  0.0572
  126CHL1   C2415572   1.535   5.377   4.727  0.0200  0.0449 -0.0761
  126CHL1  H24A15573   1.465   5.394   4.811  1.9960 -0.4821  1.7467
  126CHL1  H24B15574   1.511   5.275   4.688  1.2601 -0.1608 -0.3648
  126CHL1   C2515575   1.680   5.379   4.779 -0.2386  0.1705  0.1611
  126CHL1   H2515576   1.751   5.353   4.698 -0.9621 -0.4501 -0.2902
  126CHL1   C2615577   1.722   5.520   4.827 -0.3735  0.7790  0.0146
  126CHL1  H26A15578   1.671   5.540   4.924 -0.3534  0.6494  0.0521
  126CHL1  H26B15579   1.828   5.525   4.858 -0.4620  1.8129  0.1745
  126CHL1  H26C15580   1.700   5.599   4.753  1.5993 -0.1582 -1.6555
  126CHL1   C2715581   1.716   5.276   4.881 -0.4473 -0.0785 -0.6585
  126CHL1  H27A15582   1.826   5.272   4.899 -0.1776  0.8134 -1.9911
  126CHL1  H27B15583   1.659   5.297   4.974  1.0121  0.5272  0.1494
  126CHL1  H27C15584   1.694   5.174   4.844  1.0818 -0.8978  0.5289
  127CHL1    C315585   1.905   7.176   3.546 -0.4687 -0.1519  0.4171
  127CHL1    H315586   1.798   7.150   3.541 -0.2539 -0.8191 -1.4977
  127CHL1    O315587   1.935   7.206   3.408 -1.1334 -0.1312 -0.1056
  127CHL1   H3'15588   2.025   7.241   3.403 -1.7964  1.6566 -0.1588
  127CHL1    C415589   1.933   7.291   3.639 -0.0993 -0.1145 -0.0505
  127CHL1   H4A15590   2.035   7.328   3.618  0.4788 -2.8312 -2.7249
  127CHL1   H4B15591   1.862   7.374   3.618  1.8478  1.4949 -0.5019
  127CHL1    C515592   1.925   7.251   3.789 -0.2930  0.1819 -0.2467
  127CHL1    C615593   1.846   7.303   3.884 -0.2903  0.0994  0.5792
  127CHL1    H615594   1.783   7.382   3.842 -1.7044 -1.8155 -1.1098
  127CHL1    C715595   1.830   7.267   4.031 -0.3812  0.0753 -0.5461
  127CHL1   H7A15596   1.803   7.357   4.092 -0.6139  0.1455 -0.7554
  127CHL1   H7B15597   1.742   7.202   4.047 -0.6770  1.1294  3.1303
  127CHL1    C815598   1.957   7.190   4.073  0.2999  0.0180 -0.0537
  127CHL1    H815599   2.039   7.265   4.076 -0.3527  0.7092  2.7278
  127CHL1   C1415600   1.938   7.143   4.218 -0.0075  1.0281 -0.5057
  127CHL1   H1415601   1.843   7.086   4.225  0.9710 -0.5025  1.3152
  127CHL1   C1515602   1.908   7.253   4.325 -0.3916  0.1557 -0.5230
  127CHL1  H15A15603   1.984   7.331   4.309  1.6457 -1.0818  2.1950
  127CHL1  H15B15604   1.807   7.299   4.316 -0.3698 -0.0613 -2.1321
  127CHL1   C1615605   1.931   7.171   4.463  1.1096  0.3975  0.4972
  127CHL1  H16A15606   2.009   7.228   4.518  0.6619  1.1784  0.3365
  127CHL1  H16B15607   1.832   7.172   4.513  1.2236  2.5155  0.7573
  127CHL1   C1715608   1.999   7.031   4.414 -0.7128 -0.4016 -0.2283
  127CHL1   H1715609   1.919   6.956   4.399 -0.9453  0.1980 -2.1868
  127CHL1   C1315610   2.048   7.062   4.276 -0.6040  0.2642 -0.3302
  127CHL1   C1815611   2.184   7.138   4.291  0.6429  0.0818  0.6806
  127CHL1  H18A15612   2.269   7.068   4.308  0.2760 -0.5532 -0.0537
  127CHL1  H18B15613   2.202   7.193   4.197  1.1304  1.2592  1.4428
  127CHL1  H18C15614   2.176   7.211   4.375 -3.2624 -1.5154  1.9436
  127CHL1   C1215615   2.064   6.942   4.180 -0.3711  0.9892 -0.9161
  127CHL1  H12A15616   2.140   6.865   4.208 -1.2150  1.1850  2.3330
  127CHL1  H12B15617   1.974   6.878   4.192  0.3347 -0.5158 -3.0472
  127CHL1   C1115618   2.080   6.977   4.033  0.3947  0.7049 -0.8574
  127CHL1  H11A15619   2.178   7.031   4.037  0.5196  0.4357  1.5540
  127CHL1  H11B15620   2.076   6.899   3.954  0.7874  0.2411 -0.4267
  127CHL1    C915621   1.982   7.082   3.976  0.4137  0.5489  0.9459
  127CHL1    H915622   1.892   7.017   3.985  1.3741 -0.9688  0.1698
  127CHL1   C1015623   2.009   7.124   3.825 -0.3418  0.1007 -0.4927
  127CHL1   C1915624   2.151   7.161   3.819  0.0546  0.0857  0.2098
  127CHL1  H19A15625   2.207   7.068   3.843 -1.6326 -1.5509 -1.8736
  127CHL1  H19B15626   2.183   7.189   3.717 -0.0021 -1.6657 -0.3047
  127CHL1  H19C15627   2.185   7.241   3.890 -0.0128  1.2283 -1.0039
  127CHL1    C115628   1.978   7.010   3.732  0.0133 -0.0750  0.0631
  127CHL1   H1A15629   2.049   6.926   3.743  0.4287  0.2084 -0.4317
  127CHL1   H1B15630   1.879   6.963   3.750  0.2222 -0.6590 -0.3021
  127CHL1    C215631   1.992   7.054   3.576 -0.7643  0.2768 -0.2698
  127CHL1   H2A15632   1.969   6.962   3.518  1.3311 -0.3709 -0.1896
  127CHL1   H2B15633   2.099   7.082   3.564  0.4414 -3.8422 -0.6711
  127CHL1   C2015634   2.088   6.976   4.526 -0.5711  0.4703  0.8005
  127CHL1   H2015635   2.177   7.042   4.538 -0.4536  0.2732  1.0417
  127CHL1   C2115636   2.144   6.838   4.481  0.7667  0.2730  0.2712
  127CHL1  H21A15637   2.058   6.775   4.449  1.4948 -0.5460 -0.1262
  127CHL1  H21B15638   2.205   6.781   4.555  0.1404 -1.8118 -0.7389
  127CHL1  H21C15639   2.216   6.852   4.397 -0.6686 -0.4551 -1.1327
  127CHL1   C2215640   2.010   6.949   4.656 -0.3007  0.1120 -0.0325
  127CHL1  H22A15641   1.975   7.046   4.696  0.9036  1.6856 -2.5697
  127CHL1  H22B15642   1.921   6.885   4.637  0.3505 -0.9287  0.2884
  127CHL1   C2315643   2.110   6.899   4.773 -0.4043  0.1618 -0.5066
  127CHL1  H23A15644   2.159   6.803   4.747 -0.2313 -0.3892  1.6086
  127CHL1  H23B15645   2.185   6.979   4.787 -0.8082  0.1811  2.2805
  127CHL1   C2415646   2.044   6.885   4.916  0.6063  0.1956  0.1476
  127CHL1  H24A15647   2.024   6.991   4.945  0.8993  0.7764 -1.6212
  127CHL1  H24B15648   1.965   6.808   4.918  0.5786  0.1743  3.1455
  127CHL1   C2515649   2.147   6.842   5.027  0.4608 -0.4286 -0.0900
  127CHL1   H2515650   2.239   6.901   5.010  0.0588 -0.1412 -1.3502
  127CHL1   C2615651   2.079   6.880   5.158 -0.1445  0.5754 -0.7976
  127CHL1  H26A15652   2.075   6.991   5.162 -1.5091  0.5476 -0.7688
  127CHL1  H26B15653   1.970   6.856   5.160 -0.5459  2.2596 -0.4363
  127CHL1  H26C15654   2.141   6.843   5.242 -1.2090 -1.6017 -0.9027
  127CHL1   C2715655   2.188   6.693   5.012  0.5852 -0.2142 -0.1918
  127CHL1  H27A15656   2.219   6.665   4.909  1.7788 -4.1221  1.0620
  127CHL1  H27B15657   2.271   6.669   5.082  1.7241 -0.3520 -1.5447
  127CHL1  H27C15658   2.096   6.632   5.025  1.2741 -0.8255  2.3314
  128CHL1    C315659   2.083   1.168   3.961 -0.7064 -0.0800 -0.5702
  128CHL1    H315660   2.022   1.257   3.934  0.5848  0.6140 -1.2989
  128CHL1    O315661   2.193   1.150   3.879  0.4733 -0.2994 -0.3961
  128CHL1   H3'15662   2.244   1.082   3.924  0.0998  0.0925  0.6715
  128CHL1    C415663   2.135   1.178   4.106 -0.2405 -0.1790 -0.2167
  128CHL1   H4A15664   2.214   1.103   4.128  0.8798  0.6385 -1.2905
  128CHL1   H4B15665   2.184   1.277   4.114  2.6168 -1.4161 -1.0925
  128CHL1    C515666   2.029   1.170   4.214  0.1303  0.3247 -1.4874
  128CHL1    C615667   2.017   1.273   4.303  0.3899  0.1288  0.3755
  128CHL1    H615668   2.094   1.351   4.310 -0.4234  0.9371  0.4782
  128CHL1    C715669   1.922   1.261   4.418  0.2844  0.1704 -0.0954
  128CHL1   H7A15670   1.975   1.270   4.516  1.1299  0.9391 -0.6118
  128CHL1   H7B15671   1.848   1.343   4.410 -3.3951 -2.6481  1.5911
  128CHL1    C815672   1.847   1.122   4.425 -0.2404 -0.3710 -0.1327
  128CHL1    H815673   1.930   1.059   4.464  1.7542  0.1987 -3.0986
  128CHL1   C1415674   1.722   1.126   4.517 -0.4888 -0.2896  0.3828
  128CHL1   H1415675   1.655   1.199   4.466  1.0123 -0.0956 -1.4422
  128CHL1   C1515676   1.744   1.190   4.653  0.9698  0.1922 -0.0980
  128CHL1  H15A15677   1.833   1.152   4.708 -0.9771 -1.0575  2.4049
  128CHL1  H15B15678   1.754   1.301   4.657 -2.4844  0.5945  0.0553
  128CHL1   C1615679   1.618   1.146   4.732  0.1551 -0.1379 -0.0960
  128CHL1  H16A15680   1.637   1.114   4.837 -0.2780 -0.3748 -0.0866
  128CHL1  H16B15681   1.557   1.237   4.752  0.6646  0.2518 -0.2963
  128CHL1   C1715682   1.548   1.030   4.655  0.2787 -0.1214  0.6555
  128CHL1   H1715683   1.459   1.075   4.606 -0.5264 -2.7919 -0.4917
  128CHL1   C1315684   1.648   0.994   4.537  0.5038  0.2584  0.2600
  128CHL1   C1815685   1.746   0.888   4.593 -0.4050  0.3491  0.1459
  128CHL1  H18A15686   1.777   0.913   4.696 -0.8688 -1.5590  0.7843
  128CHL1  H18B15687   1.697   0.789   4.587  0.1346  0.1451 -1.2460
  128CHL1  H18C15688   1.842   0.882   4.537 -0.2966 -2.8753  0.5171
  128CHL1   C1215689   1.593   0.956   4.399 -0.7594  0.8423 -0.4665
  128CHL1  H12A15690   1.536   0.860   4.400 -0.1077  0.4128 -1.9994
  128CHL1  H12B15691   1.526   1.039   4.368  2.3757  3.3070 -1.1028
  128CHL1   C1115692   1.713   0.940   4.296 -0.5345  0.1492  0.0893
  128CHL1  H11A15693   1.775   0.850   4.312  0.7955  1.0073 -0.1349
  128CHL1  H11B15694   1.665   0.925   4.197  1.5766 -3.2726 -0.5550
  128CHL1    C915695   1.812   1.063   4.288 -0.1560  0.2631  0.2470
  128CHL1    H915696   1.750   1.141   4.239 -0.5017 -0.9070 -1.2485
  128CHL1   C1015697   1.936   1.048   4.194  0.0309  0.2652  0.2220
  128CHL1   C1915698   2.013   0.923   4.233  0.3803  0.9372  0.1480
  128CHL1  H19A15699   1.955   0.832   4.207 -0.3419  1.1964  0.7846
  128CHL1  H19B15700   2.113   0.915   4.185 -0.2208  3.2371 -1.7135
  128CHL1  H19C15701   2.025   0.928   4.343 -1.9126  0.5386  0.4749
  128CHL1    C115702   1.891   1.042   4.047 -0.0442  0.1881 -0.6160
  128CHL1   H1A15703   1.831   0.950   4.035 -0.7293  0.4942  0.3081
  128CHL1   H1B15704   1.821   1.127   4.031  0.8940  1.3762  1.1562
  128CHL1    C215705   2.000   1.050   3.945 -0.3528  0.1584  0.1665
  128CHL1   H2A15706   1.958   1.053   3.842  1.0549 -1.7199 -0.5301
  128CHL1   H2B15707   2.061   0.957   3.956  1.5319  1.4860  1.4964
  128CHL1   C2015708   1.499   0.917   4.740 -0.7187 -0.1655  0.3124
  128CHL1   H2015709   1.588   0.870   4.785  0.3150  0.2353 -1.2392
  128CHL1   C2115710   1.425   0.815   4.646  0.0867 -0.1973 -0.1805
  128CHL1  H21A15711   1.501   0.774   4.577  0.9374  0.5467  0.3005
  128CHL1  H21B15712   1.337   0.842   4.584  0.9049 -1.3293 -1.8942
  128CHL1  H21C15713   1.387   0.737   4.716 -0.5720 -0.8655 -1.2681
  128CHL1   C2215714   1.410   0.956   4.863  0.3335  0.5590  0.2385
  128CHL1  H22A15715   1.383   0.865   4.920  0.6804  0.5852  0.4489
  128CHL1  H22B15716   1.465   1.016   4.939  2.1262 -0.3786 -0.2577
  128CHL1   C2315717   1.277   1.030   4.828 -0.1739 -0.1429 -0.4125
  128CHL1  H23A15718   1.292   1.101   4.744  1.3218  1.3136  1.0240
  128CHL1  H23B15719   1.212   0.945   4.797 -2.3930  2.2386 -2.7799
  128CHL1   C2415720   1.210   1.079   4.957  0.1851  0.0609  0.3585
  128CHL1  H24A15721   1.170   0.989   5.009 -1.3852 -0.4071 -1.5298
  128CHL1  H24B15722   1.277   1.138   5.024  0.0905  1.5108 -0.7877
  128CHL1   C2515723   1.093   1.172   4.924 -0.0546 -0.1922  0.1802
  128CHL1   H2515724   1.128   1.245   4.848 -0.0257 -0.4351 -0.0421
  128CHL1   C2615725   0.981   1.085   4.859  0.1136  0.0288 -0.5654
  128CHL1  H26A15726   0.894   1.151   4.843  0.1638  0.0514 -0.7484
  128CHL1  H26B15727   1.014   1.032   4.767 -1.3536 -2.5935  0.2801
  128CHL1  H26C15728   0.943   1.002   4.923 -1.5532  1.1444 -0.0604
  128CHL1   C2715729   1.045   1.233   5.048  0.0681  0.0167 -0.2091
  128CHL1  H27A15730   1.034   1.165   5.135 -0.0701 -1.2079 -1.1571
  128CHL1  H27B15731   1.113   1.315   5.080 -0.3160  0.1132  0.3756
  128CHL1  H27C15732   0.949   1.284   5.025 -2.0123 -2.5244  2.0836
  129CHL1    C315733   4.363   6.263   3.958  0.0713 -0.3613 -0.0768
  129CHL1    H315734   4.300   6.354   3.966 -1.0736 -0.8929 -2.1837
  129CHL1    O315735   4.380   6.231   3.818  0.1162 -0.3225  0.4398
  129CHL1   H3'15736   4.322   6.161   3.787 -0.6094 -0.2843  1.6342
  129CHL1    C415737   4.498   6.283   4.023 -0.5693 -0.3784 -0.1774
  129CHL1   H4A15738   4.567   6.197   4.012  0.0065  0.2319 -1.6252
  129CHL1   H4B15739   4.547   6.369   3.972 -1.3417 -0.5075 -1.1569
  129CHL1    C515740   4.488   6.307   4.172 -0.1021  0.5017  0.5569
  129CHL1    C615741   4.553   6.416   4.221 -0.2311  0.7537 -0.7618
  129CHL1    H615742   4.615   6.477   4.154  1.8997  0.6350  0.9780
  129CHL1    C715743   4.571   6.451   4.366  0.0222  0.5297 -0.1551
  129CHL1   H7A15744   4.676   6.461   4.399 -0.1301  0.7286  0.2731
  129CHL1   H7B15745   4.522   6.550   4.377  1.2054  1.5844 -3.2703
  129CHL1    C815746   4.509   6.339   4.460 -0.0939  0.2087  0.0545
  129CHL1    H815747   4.593   6.266   4.462  0.1493  0.3964 -1.7251
  129CHL1   C1415748   4.488   6.391   4.606  0.4762 -0.6670 -0.4603
  129CHL1   H1415749   4.407   6.466   4.608 -0.0367 -1.2276  0.0529
  129CHL1   C1515750   4.606   6.456   4.674 -0.7903 -0.0302 -0.3165
  129CHL1  H15A15751   4.693   6.389   4.656 -0.0042  0.7523  0.4726
  129CHL1  H15B15752   4.625   6.562   4.644 -2.3267  0.6423  0.9660
  129CHL1   C1615753   4.572   6.435   4.825  0.0962 -0.5324  0.3441
  129CHL1  H16A15754   4.643   6.370   4.880 -1.7140 -1.7684  1.3026
  129CHL1  H16B15755   4.577   6.532   4.880  0.5050  1.9901 -3.7222
  129CHL1   C1715756   4.434   6.358   4.827  0.9040  0.6246 -0.6419
  129CHL1   H1715757   4.353   6.434   4.818  2.4118  2.6883  1.7577
  129CHL1   C1315758   4.439   6.278   4.702  0.1088 -0.2334  0.3409
  129CHL1   C1815759   4.543   6.156   4.713  0.3589  0.5953 -0.5750
  129CHL1  H18A15760   4.508   6.086   4.791  0.4565 -0.0597 -1.1071
  129CHL1  H18B15761   4.556   6.106   4.615  0.7386  0.5037 -0.4787
  129CHL1  H18C15762   4.643   6.194   4.742  0.5986  0.9447 -1.8053
  129CHL1   C1215763   4.300   6.233   4.648 -0.6558  0.0209  0.6753
  129CHL1  H12A15764   4.259   6.150   4.709  0.4313 -1.6762 -0.7959
  129CHL1  H12B15765   4.222   6.312   4.649 -1.3333 -0.6317  1.3100
  129CHL1   C1115766   4.307   6.179   4.502 -0.1859  0.4560 -0.0314
  129CHL1  H11A15767   4.355   6.079   4.491  1.5195  1.4603 -2.7059
  129CHL1  H11B15768   4.201   6.169   4.470 -0.2838  3.5147 -1.0111
  129CHL1    C915769   4.377   6.275   4.401  0.3159  0.3954 -1.0489
  129CHL1    H915770   4.309   6.361   4.385 -0.7149  0.0375  1.0499
  129CHL1   C1015771   4.400   6.209   4.253 -0.1983  0.2624 -1.2540
  129CHL1   C1915772   4.498   6.091   4.264 -0.1241  0.1545  0.0319
  129CHL1  H19A15773   4.531   6.043   4.170 -0.2733 -0.1248  0.1195
  129CHL1  H19B15774   4.590   6.118   4.321  0.6891 -0.6914 -0.8585
  129CHL1  H19C15775   4.452   6.005   4.318 -0.6301  0.5326  0.2191
  129CHL1    C115776   4.265   6.181   4.185  0.4905  0.6031  0.4853
  129CHL1   H1A15777   4.236   6.088   4.238  2.1536 -0.2042  0.0499
  129CHL1   H1B15778   4.201   6.270   4.201  1.8170  1.7994 -0.5792
  129CHL1    C215779   4.279   6.154   4.028 -0.6111 -0.1479  0.0545
  129CHL1   H2A15780   4.176   6.149   3.987 -0.4229 -0.4086 -0.3964
  129CHL1   H2B15781   4.336   6.059   4.015 -2.0376 -0.9022 -0.9693
  129CHL1   C2015782   4.398   6.278   4.959  0.6707  0.3458 -0.2153
  129CHL1   H2015783   4.353   6.184   4.920  1.0428  0.8923 -2.0857
  129CHL1   C2115784   4.295   6.369   5.035  0.5548  0.1487  0.1184
  129CHL1  H21A15785   4.328   6.460   5.091  0.9657  0.0024  0.1149
  129CHL1  H21B15786   4.257   6.309   5.120 -2.1505  1.3309 -0.1488
  129CHL1  H21C15787   4.211   6.397   4.968 -0.5131 -0.3122  1.2333
  129CHL1   C2215788   4.521   6.254   5.054 -0.2765  0.5291 -0.4163
  129CHL1  H22A15789   4.605   6.211   4.996  0.7357  1.2637  0.4694
  129CHL1  H22B15790   4.545   6.357   5.090 -1.2242  0.7084 -0.2608
  129CHL1   C2315791   4.488   6.176   5.176 -0.1699  0.6420 -0.2417
  129CHL1  H23A15792   4.411   6.228   5.237  1.9469  3.1256  0.4513
  129CHL1  H23B15793   4.455   6.071   5.158  1.3797  0.1347 -0.2841
  129CHL1   C2415794   4.601   6.154   5.275  0.0743 -0.0366 -0.4788
  129CHL1  H24A15795   4.679   6.097   5.220  0.0907 -0.5356  0.0535
  129CHL1  H24B15796   4.639   6.254   5.304 -2.7135  0.5254  1.6882
  129CHL1   C2515797   4.561   6.071   5.398 -0.5619 -0.4740 -0.4841
  129CHL1   H2515798   4.516   5.975   5.361  0.5135 -0.6406 -1.4055
  129CHL1   C2615799   4.690   6.042   5.481 -0.0816  0.4139 -0.5593
  129CHL1  H26A15800   4.779   6.022   5.417  1.9327  0.8836  1.9407
  129CHL1  H26B15801   4.720   6.122   5.552  1.8231 -0.3823 -0.4167
  129CHL1  H26C15802   4.667   5.961   5.553  0.4461  1.2377  0.5541
  129CHL1   C2715803   4.455   6.138   5.486  0.2749 -0.5920 -0.6596
  129CHL1  H27A15804   4.424   6.062   5.561  0.3772 -0.3801 -0.4008
  129CHL1  H27B15805   4.493   6.224   5.546  1.7147 -1.2794 -0.5438
  129CHL1  H27C15806   4.364   6.157   5.425 -0.6310 -2.3964  0.0479
  130CHL1    C315807   2.534   6.055   3.695  0.3723  0.2718 -0.2639
  130CHL1    H315808   2.543   5.944   3.697  0.5963  0.2768 -0.6975
  130CHL1    O315809   2.516   6.091   3.562  0.2484  0.9250  0.0753
  130CHL1   H3'15810   2.506   6.187   3.562  0.8316  0.9916  0.7989
  130CHL1    C415811   2.407   6.090   3.777 -0.7857 -0.3514  1.2284
  130CHL1   H4A15812   2.387   6.198   3.756  3.5954  0.0616 -2.1622
  130CHL1   H4B15813   2.322   6.033   3.734 -1.9330  2.0300  0.1598
  130CHL1    C515814   2.424   6.068   3.922 -0.3895 -0.2233 -0.8628
  130CHL1    C615815   2.326   6.008   3.991 -0.6338  0.3949  0.2612
  130CHL1    H615816   2.231   5.984   3.942 -1.4306  0.9103  1.4932
  130CHL1    C715817   2.321   5.993   4.140 -0.1534 -0.5809 -0.8624
  130CHL1   H7A15818   2.220   6.022   4.175 -0.0849 -0.5051 -0.7225
  130CHL1   H7B15819   2.313   5.885   4.163  0.8346 -0.4776  0.0763
  130CHL1    C815820   2.441   6.069   4.206 -0.3147 -0.1128 -0.2724
  130CHL1    H815821   2.408   6.174   4.218  2.7933  0.7043  2.6639
  130CHL1   C1415822   2.461   6.021   4.355 -0.4660  0.5244  0.6351
  130CHL1   H1415823   2.491   5.915   4.339  3.2157  1.3045  1.4704
  130CHL1   C1515824   2.339   6.023   4.440 -0.0719 -0.0154 -0.1731
  130CHL1  H15A15825   2.296   6.124   4.426  0.6504  0.3542  0.2370
  130CHL1  H15B15826   2.265   5.942   4.425 -0.5196  0.5320 -1.0159
  130CHL1   C1615827   2.397   6.014   4.584  0.2520  0.7424  0.3189
  130CHL1  H16A15828   2.346   6.084   4.654 -1.0745 -0.2041  0.3400
  130CHL1  H16B15829   2.386   5.909   4.618 -0.3815  1.1067  1.2659
  130CHL1   C1715830   2.549   6.036   4.568  0.1486  0.0416 -1.3854
  130CHL1   H1715831   2.597   5.935   4.566 -3.8821 -2.1079 -1.3247
  130CHL1   C1315832   2.571   6.091   4.430 -0.0043 -0.8227 -0.3165
  130CHL1   C1815833   2.539   6.242   4.444  0.2179 -0.2150  0.2682
  130CHL1  H18A15834   2.454   6.262   4.513 -0.5135 -0.0686 -0.6572
  130CHL1  H18B15835   2.619   6.306   4.487 -0.3445  1.8288 -1.5233
  130CHL1  H18C15836   2.514   6.285   4.345  1.9295  1.3868  0.4717
  130CHL1   C1215837   2.704   6.070   4.349 -0.3076  0.3730 -0.3582
  130CHL1  H12A15838   2.788   6.118   4.405 -0.3162  1.0270 -0.8924
  130CHL1  H12B15839   2.723   5.961   4.354 -0.0098  0.4656  1.2708
  130CHL1   C1115840   2.690   6.133   4.201 -0.3979  0.4393 -0.8994
  130CHL1  H11A15841   2.672   6.241   4.220  1.3806  0.6211  0.0143
  130CHL1  H11B15842   2.789   6.100   4.163 -0.5594 -1.4631  0.1949
  130CHL1    C915843   2.570   6.069   4.131  0.1564  0.9701  0.2079
  130CHL1    H915844   2.607   5.964   4.122  2.3221  1.6980  0.0698
  130CHL1   C1015845   2.552   6.127   3.985  0.7943  0.6264  0.9422
  130CHL1   C1915846   2.542   6.285   3.991  0.3221  0.1663  0.2350
  130CHL1  H19A15847   2.633   6.341   4.021  0.7502 -0.0253 -0.6711
  130CHL1  H19B15848   2.517   6.323   3.890 -1.1660 -1.5191 -0.0926
  130CHL1  H19C15849   2.461   6.318   4.060 -1.3341  1.2789 -2.0930
  130CHL1    C115850   2.679   6.089   3.892  0.2710  0.1843  0.0130
  130CHL1   H1A15851   2.755   6.163   3.924  1.0583 -0.0657 -1.1823
  130CHL1   H1B15852   2.714   5.986   3.912 -1.8164 -0.9998 -1.8889
  130CHL1    C215853   2.658   6.122   3.744 -0.8503 -0.6734 -0.6986
  130CHL1   H2A15854   2.745   6.087   3.684 -0.2343 -0.6966  0.1832
  130CHL1   H2B15855   2.658   6.232   3.735 -0.7881 -0.6241 -0.1390
  130CHL1   C2015856   2.610   6.110   4.695 -0.1285 -0.5684 -0.3473
  130CHL1   H2015857   2.568   6.213   4.689  0.4693 -0.3727 -1.8415
  130CHL1   C2115858   2.769   6.126   4.692 -0.0431 -0.1770  0.2837
  130CHL1  H21A15859   2.814   6.028   4.667 -0.9197 -0.6380  0.4664
  130CHL1  H21B15860   2.802   6.168   4.790  0.5873  1.2690 -0.5127
  130CHL1  H21C15861   2.799   6.194   4.610 -1.4372 -0.8335 -0.8074
  130CHL1   C2215862   2.564   6.040   4.827  0.0155  0.6486 -0.0904
  130CHL1  H22A15863   2.454   6.045   4.834 -0.0236 -1.1634  1.5584
  130CHL1  H22B15864   2.600   5.934   4.825 -1.3041  0.1938 -1.7860
  130CHL1   C2315865   2.618   6.106   4.958 -0.1055  0.6946  0.1948
  130CHL1  H23A15866   2.726   6.087   4.975 -0.4924  0.5856  2.8931
  130CHL1  H23B15867   2.613   6.216   4.949 -3.4088  0.8085  1.9109
  130CHL1   C2415868   2.540   6.062   5.081  0.0781 -0.0026 -0.4643
  130CHL1  H24A15869   2.566   6.123   5.171 -0.6562 -1.8623  1.0703
  130CHL1  H24B15870   2.430   6.062   5.072  0.0298 -2.0081 -0.2088
  130CHL1   C2515871   2.569   5.923   5.119  0.1906  0.6569  0.7043
  130CHL1   H2515872   2.545   5.860   5.030 -0.8733  0.0504  1.3995
  130CHL1   C2615873   2.711   5.889   5.165 -0.2839  0.5370  0.5578
  130CHL1  H26A15874   2.720   5.790   5.215  0.6214 -0.1343 -0.8470
  130CHL1  H26B15875   2.773   5.879   5.073 -2.9675 -0.2197 -1.2971
  130CHL1  H26C15876   2.752   5.969   5.229  0.3099  1.5721 -1.0493
  130CHL1   C2715877   2.471   5.867   5.229  0.4014  0.2661 -0.3331
  130CHL1  H27A15878   2.474   5.756   5.243 -1.6215  0.0825 -1.1515
  130CHL1  H27B15879   2.498   5.919   5.323 -1.8782  1.7853 -0.4665
  130CHL1  H27C15880   2.368   5.902   5.210  0.9863  2.1514 -0.2713
  131CHL1    C315881   6.701   4.465   3.713  0.3165  0.6882 -0.1823
  131CHL1    H315882   6.799   4.418   3.693  0.0989  0.2411 -0.2079
  131CHL1    O315883   6.644   4.522   3.594 -0.3304  0.7119 -0.2629
  131CHL1   H3'15884   6.694   4.604   3.591 -1.5737  1.4845 -0.5505
  131CHL1    C415885   6.606   4.358   3.774  0.3009 -0.4425  0.0069
  131CHL1   H4A15886   6.503   4.398   3.790  0.9224  0.8485  0.9453
  131CHL1   H4B15887   6.598   4.282   3.693 -0.2641 -0.1224 -0.2489
  131CHL1    C515888   6.662   4.306   3.905  0.6753  0.1835 -0.7479
  131CHL1    C615889   6.671   4.172   3.923 -0.2524 -0.2088 -0.0021
  131CHL1    H615890   6.660   4.106   3.836 -1.0160  1.9948 -1.6507
  131CHL1    C715891   6.722   4.111   4.054 -0.4382 -0.0329 -0.1072
  131CHL1   H7A15892   6.666   4.018   4.080 -1.1215  0.1951 -0.7407
  131CHL1   H7B15893   6.828   4.084   4.036  0.5817  2.7477  1.3159
  131CHL1    C815894   6.703   4.214   4.172 -0.4786 -0.0799 -0.2362
  131CHL1    H815895   6.592   4.216   4.178 -0.5317 -0.0490 -1.1463
  131CHL1   C1415896   6.779   4.170   4.298 -0.1902 -0.1650 -1.0557
  131CHL1   H1415897   6.886   4.187   4.273 -0.3718  0.0608 -1.7070
  131CHL1   C1515898   6.752   4.032   4.351 -0.8266  0.1484  0.0848
  131CHL1  H15A15899   6.643   4.013   4.340 -1.0543  0.5661  1.4513
  131CHL1  H15B15900   6.803   3.955   4.289 -1.2699  0.5277 -0.7588
  131CHL1   C1615901   6.795   4.026   4.499  0.6532  0.4090  0.2630
  131CHL1  H16A15902   6.712   3.977   4.556  0.8980 -0.4756 -0.1156
  131CHL1  H16B15903   6.888   3.966   4.503  0.9833  0.9522  0.9451
  131CHL1   C1715904   6.823   4.173   4.537  0.6289 -0.0542  0.6472
  131CHL1   H1715905   6.930   4.201   4.526 -0.1461  2.2323 -2.3383
  131CHL1   C1315906   6.757   4.260   4.419 -0.1263  0.5488 -1.0703
  131CHL1   C1815907   6.607   4.269   4.455 -0.0430  0.2297  0.3515
  131CHL1  H18A15908   6.557   4.324   4.373 -0.0037 -0.2359  0.0133
  131CHL1  H18B15909   6.554   4.177   4.484 -0.1095  0.2622  0.3324
  131CHL1  H18C15910   6.595   4.342   4.539  0.0300 -0.0223  0.5837
  131CHL1   C1215911   6.826   4.396   4.383  0.5472 -0.6167 -0.3478
  131CHL1  H12A15912   6.804   4.460   4.471 -5.4014 -0.3978 -1.5561
  131CHL1  H12B15913   6.935   4.377   4.380  0.7262 -0.1072  1.6659
  131CHL1   C1115914   6.770   4.457   4.257  0.6556  0.2136  0.5813
  131CHL1  H11A15915   6.667   4.487   4.284  1.0912  0.7747  1.6937
  131CHL1  H11B15916   6.825   4.548   4.228  0.7921 -0.1106 -0.1888
  131CHL1    C915917   6.762   4.356   4.135  0.3579 -0.3670  0.0433
  131CHL1    H915918   6.869   4.340   4.110  0.4631  0.6894 -0.2237
  131CHL1   C1015919   6.689   4.414   4.012 -0.8139  0.6059  0.2063
  131CHL1   C1915920   6.552   4.473   4.046 -0.0517 -0.2427 -0.7871
  131CHL1  H19A15921   6.561   4.545   4.130 -0.0693  0.9106 -1.7465
  131CHL1  H19B15922   6.503   4.520   3.958 -1.3736 -4.1367 -2.3669
  131CHL1  H19C15923   6.481   4.396   4.084 -1.8880  1.1216 -1.3062
  131CHL1    C115924   6.784   4.517   3.947  0.1676  0.7733  0.0520
  131CHL1   H1A15925   6.823   4.596   4.015  0.5583  2.3504 -1.9223
  131CHL1   H1B15926   6.873   4.457   3.919 -0.1712 -1.4200  3.1158
  131CHL1    C215927   6.728   4.574   3.815  0.2434  0.4091 -0.0632
  131CHL1   H2A15928   6.810   4.638   3.777  0.2177 -0.0817 -0.9840
  131CHL1   H2B15929   6.637   4.637   3.830  0.5262  1.4378 -2.2027
  131CHL1   C2015930   6.790   4.191   4.685  0.3066  0.7559  0.0505
  131CHL1   H2015931   6.681   4.187   4.702  0.4141  2.8061  1.4347
  131CHL1   C2115932   6.817   4.335   4.730 -0.5731 -0.1994 -0.0294
  131CHL1  H21A15933   6.923   4.368   4.718 -0.5276 -0.2361  0.2698
  131CHL1  H21B15934   6.784   4.347   4.835 -0.3191  0.0882  0.0193
  131CHL1  H21C15935   6.749   4.406   4.678 -0.5702  0.5751  0.9824
  131CHL1   C2215936   6.874   4.092   4.775  0.8299  0.5175 -0.0770
  131CHL1  H22A15937   6.855   3.991   4.734 -1.3385  0.9106 -0.1586
  131CHL1  H22B15938   6.979   4.126   4.760  0.5933  0.2799 -2.8374
  131CHL1   C2315939   6.846   4.082   4.929  0.2377 -0.4089  0.1514
  131CHL1  H23A15940   6.913   3.997   4.954 -0.5406 -0.6654  1.4445
  131CHL1  H23B15941   6.876   4.180   4.971  0.1062 -0.4367  0.3125
  131CHL1   C2415942   6.704   4.038   4.965 -0.4239 -0.0225 -0.3843
  131CHL1  H24A15943   6.635   4.123   4.948 -0.5770  0.1167  0.8615
  131CHL1  H24B15944   6.672   3.963   4.889  2.2944 -0.8806 -0.8143
  131CHL1   C2515945   6.694   3.978   5.106 -0.2997 -0.3710 -0.0042
  131CHL1   H2515946   6.762   4.037   5.172 -2.0054 -0.9230  2.3648
  131CHL1   C2615947   6.552   3.979   5.143 -0.6439 -0.4649  0.8338
  131CHL1  H26A15948   6.539   3.926   5.240 -2.1114 -0.1912  0.8141
  131CHL1  H26B15949   6.507   4.081   5.149  0.0896  0.0855 -1.7029
  131CHL1  H26C15950   6.481   3.928   5.075 -1.3449  1.9806 -0.4024
  131CHL1   C2715951   6.753   3.833   5.113  0.0220 -0.4554  0.4292
  131CHL1  H27A15952   6.688   3.778   5.041  0.4880  0.5872 -0.8281
  131CHL1  H27B15953   6.852   3.829   5.063 -0.2275  1.6350 -0.3551
  131CHL1  H27C15954   6.750   3.792   5.216  1.4079 -0.7709  0.3547
  132CHL1    C315955   2.591   0.207   3.785  0.4877  0.0305 -0.4478
  132CHL1    H315956   2.513   0.136   3.818 -0.8209  1.4113 -0.4481
  132CHL1    O315957   2.575   0.237   3.654 -0.3166 -0.4304  0.1991
  132CHL1   H3'15958   2.496   0.291   3.655  1.1130  1.7426  1.6177
  132CHL1    C415959   2.570   0.325   3.878 -0.2464  0.0280 -0.4259
  132CHL1   H4A15960   2.660   0.388   3.859 -0.2217  0.6767  1.6473
  132CHL1   H4B15961   2.484   0.386   3.844  1.6235  1.6772 -2.5554
  132CHL1    C515962   2.566   0.279   4.019 -0.1324  0.1971  0.0612
  132CHL1    C615963   2.456   0.291   4.096  0.1744 -0.7525  0.0143
  132CHL1    H615964   2.367   0.348   4.063  0.3766 -0.5268 -0.1478
  132CHL1    C715965   2.443   0.237   4.231 -0.1653  0.4507 -0.4227
  132CHL1   H7A15966   2.382   0.306   4.294  1.6675  2.4507 -0.7067
  132CHL1   H7B15967   2.389   0.140   4.224  1.0107 -0.1730 -1.0249
  132CHL1    C815968   2.581   0.210   4.296 -0.9377  0.0568 -0.1508
  132CHL1    H815969   2.641   0.303   4.310  2.0564 -2.0034  2.0576
  132CHL1   C1415970   2.563   0.126   4.425 -0.2356  0.7761 -0.0431
  132CHL1   H1415971   2.515   0.029   4.405  1.2801  0.2152 -1.1817
  132CHL1   C1515972   2.477   0.184   4.537  0.4102 -0.1813  0.6966
  132CHL1  H15A15973   2.502   0.292   4.540  2.4118 -0.6083  2.2869
  132CHL1  H15B15974   2.367   0.178   4.527  0.1597  0.1122  2.8833
  132CHL1   C1615975   2.528   0.116   4.670  0.2368 -0.6086  0.2201
  132CHL1  H16A15976   2.562   0.208   4.721 -0.0014 -0.5407  0.2554
  132CHL1  H16B15977   2.447   0.063   4.724  0.4975 -0.9865  0.2420
  132CHL1   C1715978   2.641   0.016   4.630  0.8325 -0.5102 -0.2593
  132CHL1   H1715979   2.585  -0.072   4.594 -1.4488 -0.0451  1.8762
  132CHL1   C1315980   2.694   0.090   4.502  0.1788  0.2061  0.8153
  132CHL1   C1815981   2.771   0.219   4.531  0.2408 -0.7563  0.4921
  132CHL1  H18A15982   2.720   0.293   4.597  1.9869  0.3091  0.7314
  132CHL1  H18B15983   2.866   0.194   4.582  0.2012  1.1574  1.6139
  132CHL1  H18C15984   2.807   0.264   4.435  4.2392 -4.3227  0.0340
  132CHL1   C1215985   2.770   0.003   4.409  0.4941  0.7019  0.5345
  132CHL1  H12A15986   2.867  -0.030   4.453 -0.8457 -2.2980  1.5420
  132CHL1  H12B15987   2.708  -0.088   4.394 -0.3497  1.4044 -0.2935
  132CHL1   C1115988   2.788   0.054   4.263 -0.2272  0.1428  0.1436
  132CHL1  H11A15989   2.865   0.134   4.268  0.0154 -0.1230  0.7894
  132CHL1  H11B15990   2.824  -0.031   4.202 -1.6884 -0.7262  0.4261
  132CHL1    C915991   2.661   0.113   4.199 -0.2879  0.1900  0.4474
  132CHL1    H915992   2.590   0.033   4.171 -0.4376  0.4213  0.1718
  132CHL1   C1015993   2.690   0.204   4.068 -0.6097  0.1622 -0.1775
  132CHL1   C1915994   2.802   0.313   4.096  0.6284  0.4381  0.4512
  132CHL1  H19A15995   2.896   0.268   4.136  0.5040  0.4298  0.7356
  132CHL1  H19B15996   2.821   0.354   3.995  0.3698  1.2021  0.7048
  132CHL1  H19C15997   2.765   0.391   4.166 -0.7327 -0.8880  1.2881
  132CHL1    C115998   2.736   0.107   3.957 -0.2296  0.1399  0.4363
  132CHL1   H1A15999   2.837   0.066   3.980 -0.3246 -0.5431 -0.3388
  132CHL1   H1B16000   2.651   0.037   3.953 -1.8448  2.0181  0.1776
  132CHL1    C216001   2.731   0.149   3.814  0.2223 -0.2633 -0.5463
  132CHL1   H2A16002   2.740   0.056   3.754  0.5020 -0.1904 -0.6211
  132CHL1   H2B16003   2.808   0.228   3.797 -1.7593  1.6390 -1.1021
  132CHL1   C2016004   2.742  -0.019   4.743  0.1257 -0.2019 -0.5014
  132CHL1   H2016005   2.792   0.078   4.766 -2.5069  1.1307 -0.1162
  132CHL1   C2116006   2.840  -0.133   4.695  0.2373  0.2473 -0.1869
  132CHL1  H21A16007   2.904  -0.186   4.769 -1.1867 -0.7269  0.3975
  132CHL1  H21B16008   2.909  -0.081   4.625 -1.7684  2.2294 -0.8445
  132CHL1  H21C16009   2.791  -0.206   4.626 -0.5175  1.8958 -1.4754
  132CHL1   C2216010   2.676  -0.051   4.882 -0.1037 -0.1999 -0.3660
  132CHL1  H22A16011   2.756  -0.072   4.956 -0.7730  0.0941  0.4564
  132CHL1  H22B16012   2.615   0.035   4.917 -0.0153 -0.3598  0.1760
  132CHL1   C2316013   2.593  -0.177   4.885  0.2639 -0.1614 -0.2153
  132CHL1  H23A16014   2.507  -0.173   4.815 -0.4536  0.9054  0.6790
  132CHL1  H23B16015   2.656  -0.254   4.837 -3.4232 -4.5095  1.1934
  132CHL1   C2416016   2.520  -0.220   5.010 -0.0389  0.6896 -0.1058
  132CHL1  H24A16017   2.587  -0.208   5.097 -0.2012  2.7563 -0.2081
  132CHL1  H24B16018   2.437  -0.146   5.019 -0.6491  0.3762 -2.3725
  132CHL1   C2516019   2.462  -0.364   5.009 -0.1323  0.0860  0.9361
  132CHL1   H2516020   2.540  -0.431   4.968 -1.8923 -1.5853  0.1558
  132CHL1   C2616021   2.402  -0.403   5.148  0.1064 -0.4085  0.2713
  132CHL1  H26A16022   2.337  -0.492   5.143 -2.5988  1.4925 -1.0534
  132CHL1  H26B16023   2.491  -0.424   5.211 -0.0315 -1.5831  0.0849
  132CHL1  H26C16024   2.340  -0.318   5.183 -1.4347 -1.9265  1.3244
  132CHL1   C2716025   2.343  -0.378   4.911 -0.4302 -0.1948 -0.4564
  132CHL1  H27A16026   2.307  -0.483   4.908  1.3461 -0.8908  0.6630
  132CHL1  H27B16027   2.262  -0.308   4.940  1.8205  1.5709  2.0962
  132CHL1  H27C16028   2.377  -0.351   4.809 -0.2372 -0.8375 -0.5706
  133CHL1    C316029   7.137   1.129   3.540  0.1917 -0.0915 -0.5369
  133CHL1    H316030   7.202   1.039   3.544  1.2722  0.6361 -1.2604
  133CHL1    O316031   7.140   1.174   3.407 -0.2775  0.4575  0.2714
  133CHL1   H3'16032   7.085   1.253   3.409 -1.6765 -0.4967  0.8936
  133CHL1    C416033   6.989   1.097   3.577 -0.0380  0.1571 -0.1618
  133CHL1   H4A16034   6.931   1.190   3.560 -0.1274  0.0980 -0.1835
  133CHL1   H4B16035   6.956   1.016   3.508 -2.5646  0.3263  0.7279
  133CHL1    C516036   6.969   1.059   3.727 -0.3985  0.6010  0.6938
  133CHL1    C616037   6.918   0.941   3.761  0.5442  0.1200  0.0699
  133CHL1    H616038   6.889   0.872   3.680  1.6141  0.3054 -0.4930
  133CHL1    C716039   6.885   0.900   3.898  0.5582  0.1092  0.3044
  133CHL1   H7A16040   6.781   0.862   3.899  0.4367  0.3906 -0.6194
  133CHL1   H7B16041   6.952   0.815   3.926 -1.1850 -1.0440  1.1900
  133CHL1    C816042   6.897   1.017   3.999  0.2695  0.8700  0.6803
  133CHL1    H816043   6.803   1.075   3.987 -0.2449 -0.3800 -2.3034
  133CHL1   C1416044   6.913   0.970   4.141  0.4848 -0.9458  0.8089
  133CHL1   H1416045   7.018   0.935   4.137  0.3187 -1.3226 -0.8384
  133CHL1   C1516046   6.820   0.865   4.194  0.4757 -1.0840 -0.8961
  133CHL1  H15A16047   6.718   0.905   4.178  1.3416  0.8015 -2.0249
  133CHL1  H15B16048   6.834   0.765   4.148  1.7186  0.0470 -3.1037
  133CHL1   C1616049   6.838   0.867   4.353  0.1740 -0.4253  0.0443
  133CHL1  H16A16050   6.736   0.868   4.397 -0.9982 -1.4135 -2.4513
  133CHL1  H16B16051   6.900   0.780   4.383  1.4308  0.1072 -0.9182
  133CHL1   C1716052   6.922   0.992   4.379 -0.0231  0.0276  0.4354
  133CHL1   H1716053   7.027   0.958   4.383  0.6531  2.1176  1.3392
  133CHL1   C1316054   6.921   1.082   4.251  0.0356 -0.2572 -0.0077
  133CHL1   C1816055   6.794   1.172   4.251 -0.1653 -0.3003 -0.1921
  133CHL1  H18A16056   6.710   1.110   4.288 -0.4522 -0.0567 -0.4391
  133CHL1  H18B16057   6.820   1.246   4.330  0.9197 -1.5993  0.7248
  133CHL1  H18C16058   6.772   1.212   4.150  1.4570 -1.1065 -0.9117
  133CHL1   C1216059   7.045   1.162   4.227 -0.0176  0.7979  0.0398
  133CHL1  H12A16060   7.045   1.245   4.301 -0.1084  0.6903  0.1589
  133CHL1  H12B16061   7.140   1.105   4.235  0.5104  0.4937 -4.9400
  133CHL1   C1116062   7.040   1.221   4.081  0.4308  0.5315  0.2289
  133CHL1  H11A16063   6.956   1.294   4.079  0.9202  1.0966  0.0685
  133CHL1  H11B16064   7.133   1.279   4.068  1.1611  0.4883  4.1801
  133CHL1    C916065   7.020   1.105   3.973 -0.1153  0.1395  0.0269
  133CHL1    H916066   7.112   1.043   3.977  0.8941  1.5773 -0.2639
  133CHL1   C1016067   7.026   1.164   3.831 -0.2244 -0.3028 -0.3696
  133CHL1   C1916068   6.932   1.291   3.817 -0.1076  0.3504  0.0557
  133CHL1  H19A16069   6.932   1.336   3.716 -2.7514 -2.1680 -1.1947
  133CHL1  H19B16070   6.834   1.260   3.859 -0.1846 -1.3530 -1.2697
  133CHL1  H19C16071   6.970   1.378   3.875 -1.3534  1.6608 -1.0544
  133CHL1    C116072   7.173   1.192   3.787 -0.3085  0.1890  0.7855
  133CHL1   H1A16073   7.230   1.266   3.848 -2.1329  2.9408 -0.6715
  133CHL1   H1B16074   7.227   1.097   3.808 -0.6259 -0.1000  0.2961
  133CHL1    C216075   7.194   1.239   3.638 -0.1159  1.1705 -0.1874
  133CHL1   H2A16076   7.301   1.250   3.609  0.3687 -1.1609  0.5049
  133CHL1   H2B16077   7.146   1.339   3.629 -2.6777  0.1705  1.4986
  133CHL1   C2016078   6.899   1.062   4.517  0.1786 -0.3314 -0.0054
  133CHL1   H2016079   6.911   1.170   4.495  0.5674 -0.6150 -1.3227
  133CHL1   C2116080   7.021   1.031   4.613  0.2732  0.2215 -0.8549
  133CHL1  H21A16081   7.008   1.073   4.715  0.2403 -0.0778 -0.7333
  133CHL1  H21B16082   7.115   1.067   4.567  0.6773  0.1637 -0.0895
  133CHL1  H21C16083   7.020   0.921   4.631 -1.5922  0.0021 -1.9240
  133CHL1   C2216084   6.762   1.048   4.595 -0.1122  0.5853 -0.4848
  133CHL1  H22A16085   6.671   1.044   4.531 -0.1092 -3.0514 -0.4620
  133CHL1  H22B16086   6.769   0.945   4.636 -1.7559  0.8924  0.7115
  133CHL1   C2316087   6.747   1.151   4.704 -0.3688 -1.8903 -0.1368
  133CHL1  H23A16088   6.840   1.166   4.764 -1.0511 -1.9480  0.9536
  133CHL1  H23B16089   6.720   1.248   4.658 -1.9889 -2.5106 -0.5400
  133CHL1   C2416090   6.633   1.129   4.808  0.4709  0.1743 -0.1189
  133CHL1  H24A16091   6.533   1.111   4.763  0.3929 -0.6606  0.3630
  133CHL1  H24B16092   6.661   1.041   4.869  1.1019  0.4871  0.0496
  133CHL1   C2516093   6.617   1.248   4.906 -0.5499  0.4853  0.1914
  133CHL1   H2516094   6.624   1.331   4.833  0.2742  0.2755  0.0251
  133CHL1   C2616095   6.482   1.251   4.977  0.0473  0.2781  0.4194
  133CHL1  H26A16096   6.475   1.325   5.059  0.0578 -0.7969  1.4073
  133CHL1  H26B16097   6.397   1.266   4.907  0.7631 -1.4073 -0.8854
  133CHL1  H26C16098   6.466   1.152   5.026 -0.6531  0.1601 -0.0370
  133CHL1   C2716099   6.732   1.276   5.003 -0.1301 -0.1966  0.0826
  133CHL1  H27A16100   6.716   1.348   5.086  1.6095 -1.2852  1.4402
  133CHL1  H27B16101   6.760   1.180   5.053 -1.9611  0.4611  2.5169
  133CHL1  H27C16102   6.818   1.310   4.941 -0.4871 -1.2215 -1.0270
  134CHL1    C316103   4.444   1.092   3.611  0.0486  0.0449 -0.0442
  134CHL1    H316104   4.541   1.130   3.573  0.1960  0.7012  0.9656
  134CHL1    O316105   4.386   1.033   3.499  0.2807  0.4154  0.9557
  134CHL1   H3'16106   4.292   1.027   3.520  0.1042 -0.4766 -0.0055
  134CHL1    C416107   4.469   0.996   3.726  0.6269  0.2744 -0.0585
  134CHL1   H4A16108   4.372   0.946   3.746  1.1518 -0.4858  0.6399
  134CHL1   H4B16109   4.530   0.910   3.691 -0.7699  0.2060 -2.5218
  134CHL1    C516110   4.520   1.062   3.857  0.1362 -0.1994  0.2918
  134CHL1    C616111   4.635   1.015   3.908  0.5546 -0.5025 -0.6919
  134CHL1    H616112   4.681   0.927   3.861 -0.7298 -1.7952  0.3683
  134CHL1    C716113   4.688   1.077   4.026 -0.3777 -0.0182  0.0264
  134CHL1   H7A16114   4.722   0.994   4.092  1.1227  2.4658  2.6072
  134CHL1   H7B16115   4.776   1.138   3.995 -0.2903  0.0068  0.3233
  134CHL1    C816116   4.597   1.172   4.108 -0.4844  0.3242  0.3626
  134CHL1    H816117   4.534   1.115   4.179  0.4708 -0.9868  0.1833
  134CHL1   C1416118   4.677   1.257   4.211  0.2335  0.2138  0.0766
  134CHL1   H1416119   4.743   1.319   4.146  0.6766  0.4057  0.6996
  134CHL1   C1516120   4.777   1.191   4.304 -0.7745  0.2196  0.4373
  134CHL1  H15A16121   4.737   1.094   4.341  1.4001 -1.2488 -0.8074
  134CHL1  H15B16122   4.879   1.173   4.264  0.4076  3.0227  1.9216
  134CHL1   C1616123   4.792   1.293   4.420  0.1762 -0.8704  1.1113
  134CHL1  H16A16124   4.769   1.240   4.514  0.5935 -0.9426  1.1750
  134CHL1  H16B16125   4.893   1.335   4.437 -0.0440 -0.7924  2.3072
  134CHL1   C1716126   4.708   1.416   4.377  0.6159 -1.4519  0.2058
  134CHL1   H1716127   4.772   1.481   4.314 -2.0058 -0.9185 -2.0875
  134CHL1   C1316128   4.600   1.358   4.292  0.3601 -0.1269 -0.2032
  134CHL1   C1816129   4.499   1.282   4.385  0.0875  0.1024  0.5650
  134CHL1  H18A16130   4.438   1.360   4.436 -0.2974  0.1897 -0.0186
  134CHL1  H18B16131   4.421   1.227   4.327  0.0757  0.5084  0.1950
  134CHL1  H18C16132   4.545   1.221   4.466  0.7274 -0.5740 -0.2888
  134CHL1   C1216133   4.517   1.448   4.185  0.5642 -0.8575  0.4795
  134CHL1  H12A16134   4.447   1.511   4.244  0.8498 -0.3684  0.2988
  134CHL1  H12B16135   4.583   1.520   4.133  1.0071 -0.3235  1.7536
  134CHL1   C1116136   4.426   1.363   4.090 -1.0236 -0.1257 -0.2391
  134CHL1  H11A16137   4.352   1.308   4.151 -0.6407  0.5544  0.8697
  134CHL1  H11B16138   4.374   1.434   4.021 -2.1137 -1.0070 -0.3550
  134CHL1    C916139   4.527   1.267   4.006  0.4387  1.0726 -0.1140
  134CHL1    H916140   4.608   1.334   3.970  2.3587 -0.8643  0.3930
  134CHL1   C1016141   4.441   1.185   3.899  0.1581 -0.6784  0.0408
  134CHL1   C1916142   4.313   1.133   3.972 -0.3743  0.0897 -0.7132
  134CHL1  H19A16143   4.344   1.089   4.069 -0.7062 -1.2848 -1.2052
  134CHL1  H19B16144   4.248   1.220   3.997  0.1426  0.5087 -0.8208
  134CHL1  H19C16145   4.256   1.069   3.901  0.8378 -0.3250 -1.3418
  134CHL1    C116146   4.398   1.284   3.788 -0.2676 -0.1111  0.5486
  134CHL1   H1A16147   4.319   1.356   3.819 -1.0311 -1.1929  1.2000
  134CHL1   H1B16148   4.486   1.349   3.770 -0.7605  0.2963 -0.4906
  134CHL1    C216149   4.350   1.207   3.659 -0.2866  0.6804 -0.2846
  134CHL1   H2A16150   4.330   1.273   3.572  0.4119  0.9894 -0.2185
  134CHL1   H2B16151   4.257   1.156   3.691  1.1598 -2.6438 -0.9090
  134CHL1   C2016152   4.673   1.492   4.506 -0.3313 -0.0191 -0.6190
  134CHL1   H2016153   4.616   1.427   4.576 -2.4439 -0.3094 -2.4827
  134CHL1   C2116154   4.571   1.604   4.494  0.9567  0.2068 -0.0305
  134CHL1  H21A16155   4.543   1.637   4.596 -0.8089 -1.4227  0.0782
  134CHL1  H21B16156   4.471   1.572   4.456  1.4689 -0.2021 -1.0797
  134CHL1  H21C16157   4.606   1.686   4.429  0.2777  0.4955 -0.0408
  134CHL1   C2216158   4.801   1.545   4.570  0.3907 -0.9204 -0.0087
  134CHL1  H22A16159   4.880   1.467   4.568  1.2996 -0.0716  1.1442
  134CHL1  H22B16160   4.841   1.627   4.507 -1.6281 -0.6417 -0.9987
  134CHL1   C2316161   4.780   1.613   4.711 -0.3228 -0.9519  0.4701
  134CHL1  H23A16162   4.698   1.687   4.706  0.1877 -0.3181  1.4234
  134CHL1  H23B16163   4.748   1.532   4.780  0.3592 -1.7376 -0.0950
  134CHL1   C2416164   4.907   1.683   4.749 -0.0347 -0.0668 -0.0139
  134CHL1  H24A16165   4.999   1.628   4.720  0.4114  1.2498 -1.1959
  134CHL1  H24B16166   4.923   1.781   4.700  0.5587 -0.1210  0.0656
  134CHL1   C2516167   4.932   1.687   4.903  0.6967  0.7840 -0.5792
  134CHL1   H2516168   4.930   1.583   4.942  3.5373  1.3246  1.3083
  134CHL1   C2616169   5.067   1.744   4.942 -0.3558 -0.0258 -0.2198
  134CHL1  H26A16170   5.091   1.733   5.050 -0.4523  0.2111 -0.1750
  134CHL1  H26B16171   5.141   1.702   4.870 -3.7875 -1.3333 -3.3095
  134CHL1  H26C16172   5.071   1.851   4.912 -1.1120 -0.0751 -0.5209
  134CHL1   C2716173   4.810   1.763   4.969 -0.2980 -0.0197  0.1879
  134CHL1  H27A16174   4.714   1.709   4.955 -1.3597  1.7606  0.2608
  134CHL1  H27B16175   4.825   1.770   5.079  1.0154  0.3602  0.0040
  134CHL1  H27C16176   4.800   1.865   4.926 -1.4315 -0.4292 -0.5475
  135CHL1    C316177   4.703   1.564   3.057  0.3577 -0.2740  0.6355
  135CHL1    H316178   4.789   1.634   3.052  0.0789  0.0578  0.3149
  135CHL1    O316179   4.636   1.552   2.930  0.3489 -0.0191  0.1844
  135CHL1   H3'16180   4.547   1.521   2.946  0.3107 -0.0685 -0.1093
  135CHL1    C416181   4.767   1.423   3.079 -0.0778  0.1238 -0.1667
  135CHL1   H4A16182   4.690   1.347   3.055  0.1928  0.8597 -4.0112
  135CHL1   H4B16183   4.843   1.410   2.999  0.5746  0.8262  0.3263
  135CHL1    C516184   4.835   1.405   3.215 -0.1000 -0.1813  0.1325
  135CHL1    C616185   4.960   1.370   3.236 -0.1954 -0.0253  0.2818
  135CHL1    H616186   5.027   1.347   3.152  0.6216 -0.4368  1.0187
  135CHL1    C716187   5.025   1.363   3.373  0.0909 -0.1565  0.1659
  135CHL1   H7A16188   5.070   1.267   3.403 -0.9359 -0.0824  2.0953
  135CHL1   H7B16189   5.108   1.436   3.374  0.2925 -0.3832 -0.0225
  135CHL1    C816190   4.923   1.382   3.489 -0.2781  0.1344 -0.7149
  135CHL1    H816191   4.879   1.281   3.508  1.7524 -0.5310  0.8165
  135CHL1   C1416192   5.004   1.427   3.613 -0.2088  0.4593  0.4571
  135CHL1   H1416193   5.039   1.530   3.589 -0.2578  0.0236 -1.6171
  135CHL1   C1516194   5.130   1.351   3.649  0.1768  0.7323  1.1370
  135CHL1  H15A16195   5.116   1.241   3.636  0.9385  0.4628  2.4635
  135CHL1  H15B16196   5.219   1.374   3.586 -0.8088 -0.0327 -0.6439
  135CHL1   C1616197   5.147   1.378   3.800 -0.4129 -0.6728 -0.5226
  135CHL1  H16A16198   5.139   1.283   3.857  4.5227 -1.3340 -0.5577
  135CHL1  H16B16199   5.244   1.429   3.817 -1.4683  0.8078  1.4990
  135CHL1   C1716200   5.027   1.467   3.839  0.9968  0.6521 -0.5630
  135CHL1   H1716201   5.059   1.570   3.814 -0.8124  1.3492 -0.1989
  135CHL1   C1316202   4.913   1.433   3.744  0.6741  0.0905  0.7050
  135CHL1   C1816203   4.859   1.296   3.776 -0.1450  0.0497  0.1341
  135CHL1  H18A16204   4.774   1.265   3.711 -0.2611  0.1019  0.2613
  135CHL1  H18B16205   4.935   1.215   3.781  0.4899  0.6265  0.0197
  135CHL1  H18C16206   4.822   1.290   3.880  0.8897 -2.3847  0.4333
  135CHL1   C1216207   4.811   1.548   3.718  0.0060  0.2086  0.1844
  135CHL1  H12A16208   4.729   1.580   3.787 -1.2844  1.0765 -1.6525
  135CHL1  H12B16209   4.874   1.636   3.691  2.6845 -1.8116 -0.5575
  135CHL1   C1116210   4.721   1.506   3.590  0.2456 -0.4155  0.3261
  135CHL1  H11A16211   4.662   1.417   3.623 -1.7905  0.4402 -0.8358
  135CHL1  H11B16212   4.653   1.593   3.583 -0.0334 -0.3700  2.8271
  135CHL1    C916213   4.818   1.481   3.465  0.0195 -0.3704 -0.1436
  135CHL1    H916214   4.868   1.579   3.446 -1.7954  0.5782 -0.2651
  135CHL1   C1016215   4.744   1.456   3.335  0.0585 -0.0413  0.0036
  135CHL1   C1916216   4.615   1.362   3.359 -0.2699  0.0616  0.5113
  135CHL1  H19A16217   4.652   1.276   3.420 -0.5876  1.2427  2.4173
  135CHL1  H19B16218   4.540   1.418   3.418 -1.4740  1.1146 -1.8897
  135CHL1  H19C16219   4.575   1.313   3.268  0.0802 -0.3714  0.5848
  135CHL1    C116220   4.681   1.594   3.294 -0.0198  1.2746 -0.6692
  135CHL1   H1A16221   4.599   1.615   3.366 -0.8127  0.3848 -1.2833
  135CHL1   H1B16222   4.758   1.673   3.303 -1.5861  2.6140  4.1347
  135CHL1    C216223   4.600   1.599   3.162 -0.0099  0.1651 -0.0771
  135CHL1   H2A16224   4.568   1.705   3.150 -1.2363 -0.1171  0.4994
  135CHL1   H2B16225   4.513   1.529   3.158  2.8133 -3.7219  1.0564
  135CHL1   C2016226   5.008   1.474   3.989 -0.6738 -0.5127  0.0267
  135CHL1   H2016227   4.979   1.378   4.037  0.4264 -1.3077 -0.8409
  135CHL1   C2116228   4.892   1.570   4.022  0.7271 -0.0927 -0.0053
  135CHL1  H21A16229   4.790   1.531   4.003 -0.6240  1.6499  2.9010
  135CHL1  H21B16230   4.902   1.664   3.962  0.4672 -1.5601 -2.5071
  135CHL1  H21C16231   4.886   1.589   4.131 -0.1791  0.3703 -0.1282
  135CHL1   C2216232   5.144   1.518   4.067 -0.8248 -0.2753 -0.3407
  135CHL1  H22A16233   5.219   1.437   4.054  0.7420  1.1081 -0.3320
  135CHL1  H22B16234   5.178   1.611   4.015  2.7014 -1.0400  0.3382
  135CHL1   C2316235   5.129   1.553   4.213 -0.6103 -0.0860 -0.0915
  135CHL1  H23A16236   5.071   1.648   4.219 -1.2779 -0.5029  0.2678
  135CHL1  H23B16237   5.070   1.474   4.265 -0.8147  0.7428  0.9703
  135CHL1   C2416238   5.266   1.562   4.278 -0.6974 -0.4650 -0.3580
  135CHL1  H24A16239   5.330   1.479   4.240 -1.0681 -0.5550 -0.8018
  135CHL1  H24B16240   5.313   1.657   4.244  2.8651 -1.5188  1.2254
  135CHL1   C2516241   5.271   1.540   4.433  0.7781 -0.1763 -0.4091
  135CHL1   H2516242   5.219   1.447   4.463 -0.8772  0.4539 -1.1877
  135CHL1   C2616243   5.419   1.528   4.480  0.0745  0.1257  0.3537
  135CHL1  H26A16244   5.404   1.510   4.589 -0.9411 -1.0283  0.0372
  135CHL1  H26B16245   5.473   1.442   4.436  1.0755  1.0893 -0.3299
  135CHL1  H26C16246   5.471   1.626   4.476 -0.7064  0.5377  0.1060
  135CHL1   C2716247   5.206   1.656   4.516 -0.0824  0.1996  0.5846
  135CHL1  H27A16248   5.096   1.664   4.505 -0.1989 -2.0156 -0.3406
  135CHL1  H27B16249   5.231   1.640   4.623 -0.7811 -0.3290  0.6744
  135CHL1  H27C16250   5.245   1.752   4.475 -1.3943 -0.3077 -2.0714
  136CHL1    C316251   3.615   1.371   4.079 -0.4035 -0.2071 -0.4832
  136CHL1    H316252   3.702   1.317   4.123 -1.8542 -2.6793 -0.4125
  136CHL1    O316253   3.593   1.332   3.945 -0.2232 -0.2611  0.3232
  136CHL1   H3'16254   3.506   1.368   3.926  0.0772  1.3181  1.7390
  136CHL1    C416255   3.495   1.338   4.178 -0.0074  0.4172 -0.6243
  136CHL1   H4A16256   3.403   1.384   4.136  0.0643 -0.4610 -1.7722
  136CHL1   H4B16257   3.490   1.227   4.179  2.2527  0.2221  2.1112
  136CHL1    C516258   3.515   1.395   4.313 -0.5801 -0.2521  0.9574
  136CHL1    C616259   3.516   1.319   4.415  0.4037  0.3904  0.1639
  136CHL1    H616260   3.495   1.212   4.403 -1.1145  0.7383 -0.5043
  136CHL1    C716261   3.529   1.367   4.554  0.1380 -0.8227 -1.6765
  136CHL1   H7A16262   3.452   1.330   4.625  0.4240  1.7933  0.1555
  136CHL1   H7B16263   3.626   1.338   4.599 -0.1672 -1.5842 -1.5042
  136CHL1    C816264   3.526   1.527   4.563 -0.2053  0.6718  0.0078
  136CHL1    H816265   3.419   1.558   4.564 -0.2514  0.5373 -0.5396
  136CHL1   C1416266   3.569   1.574   4.700  0.2785 -0.0573  0.0952
  136CHL1   H1416267   3.674   1.542   4.719 -0.2924 -1.5843  0.8769
  136CHL1   C1516268   3.493   1.509   4.826  0.0512 -0.0756  0.1502
  136CHL1  H15A16269   3.384   1.516   4.806  0.3393  0.1691 -1.5252
  136CHL1  H15B16270   3.523   1.403   4.840 -0.5799 -0.4845 -1.3165
  136CHL1   C1616271   3.534   1.607   4.937 -0.1911 -0.3195 -0.3067
  136CHL1  H16A16272   3.457   1.641   5.009  0.7199 -2.6329  1.9046
  136CHL1  H16B16273   3.610   1.560   5.002  1.8871  0.7184 -1.8548
  136CHL1   C1716274   3.606   1.730   4.866 -0.4632 -0.3902  0.7786
  136CHL1   H1716275   3.713   1.699   4.861 -1.0135 -2.3247  0.3242
  136CHL1   C1316276   3.559   1.727   4.718  0.1019 -0.3430  0.4097
  136CHL1   C1816277   3.416   1.771   4.710 -0.2388  0.3630 -0.3183
  136CHL1  H18A16278   3.412   1.881   4.726  1.7952  0.6568 -1.4596
  136CHL1  H18B16279   3.375   1.752   4.609  0.2706  3.3574 -1.1977
  136CHL1  H18C16280   3.351   1.735   4.792 -0.6739  2.7370  0.4764
  136CHL1   C1216281   3.655   1.795   4.611 -0.2236 -0.3482  0.1146
  136CHL1  H12A16282   3.655   1.906   4.611 -1.0901 -0.3331 -1.1205
  136CHL1  H12B16283   3.756   1.759   4.638 -0.9083 -0.5249  2.6514
  136CHL1   C1116284   3.624   1.751   4.471  0.3551  0.0806  0.5259
  136CHL1  H11A16285   3.542   1.820   4.441 -2.0006 -2.8010 -0.1898
  136CHL1  H11B16286   3.712   1.782   4.410  1.4375  0.3594  2.1828
  136CHL1    C916287   3.605   1.598   4.455  0.3080 -0.4229  0.7685
  136CHL1    H916288   3.704   1.553   4.476  0.7329 -0.6197 -1.4710
  136CHL1   C1016289   3.553   1.545   4.321  0.7054  0.2819  0.3451
  136CHL1   C1916290   3.424   1.619   4.285  0.2991 -0.7413  0.3749
  136CHL1  H19A16291   3.384   1.596   4.184 -1.3221 -1.5033  1.1542
  136CHL1  H19B16292   3.347   1.617   4.365  0.2169  0.1162  0.3310
  136CHL1  H19C16293   3.445   1.728   4.286 -0.2655 -0.5722 -1.7676
  136CHL1    C116294   3.668   1.580   4.217 -0.3525  0.1305  0.1344
  136CHL1   H1A16295   3.687   1.688   4.200  0.0292  0.5853  2.9644
  136CHL1   H1B16296   3.759   1.543   4.269 -0.4036  2.0705  1.7195
  136CHL1    C216297   3.651   1.524   4.076 -0.4564 -0.2406 -0.1882
  136CHL1   H2A16298   3.744   1.550   4.020 -1.5041 -0.3878 -2.0808
  136CHL1   H2B16299   3.576   1.573   4.011  2.2038 -0.1989 -3.5845
  136CHL1   C2016300   3.595   1.859   4.945  0.4217 -0.8578  0.2829
  136CHL1   H2016301   3.494   1.905   4.942  1.1211  0.7359  0.1060
  136CHL1   C2116302   3.688   1.961   4.894 -0.0383  0.1189  0.4869
  136CHL1  H21A16303   3.795   1.931   4.899  0.2704  0.7564 -1.5445
  136CHL1  H21B16304   3.678   2.064   4.932 -0.0542 -0.0975  1.0797
  136CHL1  H21C16305   3.670   1.979   4.786  2.7648  1.2527  0.1119
  136CHL1   C2216306   3.620   1.841   5.101  0.3765  0.4337  0.5717
  136CHL1  H22A16307   3.613   1.942   5.146  3.9709  0.8343  0.5303
  136CHL1  H22B16308   3.542   1.776   5.147  0.3858 -0.5842 -0.7906
  136CHL1   C2316309   3.757   1.786   5.142  0.4937 -0.2750 -0.8326
  136CHL1  H23A16310   3.777   1.678   5.131  0.4589 -0.4732  0.7977
  136CHL1  H23B16311   3.829   1.832   5.072  1.0517  1.5658  0.8407
  136CHL1   C2416312   3.800   1.823   5.287 -1.0292  0.1153 -0.0219
  136CHL1  H24A16313   3.847   1.923   5.290 -1.1792  0.1561  1.9238
  136CHL1  H24B16314   3.718   1.825   5.362  0.5785  2.3479  1.8153
  136CHL1   C2516315   3.917   1.727   5.338 -0.4529 -0.0083 -0.1086
  136CHL1   H2516316   3.884   1.623   5.362  0.3951 -0.5808 -1.3258
  136CHL1   C2616317   4.026   1.714   5.238 -0.1594 -0.2483  0.2871
  136CHL1  H26A16318   4.101   1.644   5.281 -0.6777 -1.1221 -0.2319
  136CHL1  H26B16319   3.989   1.674   5.142  1.2512  0.1619 -0.4637
  136CHL1  H26C16320   4.075   1.812   5.216 -3.9167  1.9972  0.9976
  136CHL1   C2716321   3.967   1.793   5.467 -0.3220 -0.0550  0.0733
  136CHL1  H27A16322   4.056   1.742   5.507  1.0121  1.0807 -1.3096
  136CHL1  H27B16323   4.011   1.891   5.437 -0.3605 -0.7396 -2.3991
  136CHL1  H27C16324   3.884   1.799   5.542 -2.8097 -0.3569 -2.4769
  137CHL1    C316325   7.067   0.556   3.635 -0.1107  0.3374  0.3568
  137CHL1    H316326   6.986   0.628   3.657  0.2017  0.7672  0.1084
  137CHL1    O316327   7.071   0.541   3.493  0.2367 -0.3052  0.0457
  137CHL1   H3'16328   7.161   0.514   3.470  1.8754  1.2965  3.7773
  137CHL1    C416329   7.200   0.621   3.680  0.2354 -0.6264  0.4414
  137CHL1   H4A16330   7.284   0.574   3.623  0.2332 -0.2090  0.0892
  137CHL1   H4B16331   7.204   0.724   3.639 -0.9987 -0.7656 -0.0803
  137CHL1    C516332   7.223   0.623   3.831  0.7269 -0.5073  0.3434
  137CHL1    C616333   7.254   0.739   3.902 -0.1130  0.9023 -0.3572
  137CHL1    H616334   7.280   0.830   3.847 -0.0481  0.3187 -1.3185
  137CHL1    C716335   7.265   0.742   4.050 -0.3857 -0.4324  0.1208
  137CHL1   H7A16336   7.356   0.804   4.071 -0.2646  0.0736 -1.7238
  137CHL1   H7B16337   7.181   0.804   4.087  0.2682  0.3651  0.3027
  137CHL1    C816338   7.265   0.608   4.126  0.2471  0.1704  0.9562
  137CHL1    H816339   7.367   0.567   4.114 -0.9832 -2.4730 -1.9038
  137CHL1   C1416340   7.236   0.623   4.277  0.7682 -0.7249  0.6762
  137CHL1   H1416341   7.129   0.651   4.281  0.8390 -0.3536 -0.0270
  137CHL1   C1516342   7.310   0.735   4.350 -0.2943  0.1534  0.6743
  137CHL1  H15A16343   7.420   0.732   4.335 -0.1637  0.0514  1.5584
  137CHL1  H15B16344   7.264   0.829   4.314 -0.8177 -0.2685  0.2332
  137CHL1   C1616345   7.285   0.698   4.498 -0.2605 -0.4560 -0.2946
  137CHL1  H16A16346   7.384   0.692   4.547  0.5444  0.6885 -1.7008
  137CHL1  H16B16347   7.217   0.771   4.547 -1.2858 -1.8331  0.4014
  137CHL1   C1716348   7.208   0.564   4.495 -0.3733  0.2323 -0.3143
  137CHL1   H1716349   7.100   0.590   4.488 -0.2433  0.4466 -4.6890
  137CHL1   C1316350   7.241   0.499   4.362 -0.2784  0.8021  0.1830
  137CHL1   C1816351   7.387   0.443   4.350 -0.8714 -0.0487  1.2840
  137CHL1  H18A16352   7.411   0.422   4.244 -0.2112  2.2357  0.9157
  137CHL1  H18B16353   7.457   0.520   4.391  0.7014 -0.0222 -1.2491
  137CHL1  H18C16354   7.383   0.346   4.403 -0.6598 -0.8458 -0.1104
  137CHL1   C1216355   7.136   0.405   4.295  0.3151 -0.8757 -0.3124
  137CHL1  H12A16356   7.130   0.309   4.350 -3.0539 -1.7977 -2.0429
  137CHL1  H12B16357   7.037   0.455   4.306  0.9556  0.3225  0.2869
  137CHL1   C1116358   7.162   0.375   4.152  0.1952  0.1143 -0.0103
  137CHL1  H11A16359   7.251   0.309   4.137  0.0658 -0.0746  0.0432
  137CHL1  H11B16360   7.068   0.322   4.125 -1.0862  1.7074  1.1352
  137CHL1    C916361   7.160   0.508   4.069 -0.7496 -0.2150 -0.0263
  137CHL1    H916362   7.059   0.553   4.074 -0.4957  0.4115 -0.3368
  137CHL1   C1016363   7.182   0.486   3.913 -0.3343  0.1770 -0.3796
  137CHL1   C1916364   7.287   0.378   3.882 -0.6113 -0.1581  0.1250
  137CHL1  H19A16365   7.298   0.374   3.771  0.3062  2.6545  0.0210
  137CHL1  H19B16366   7.387   0.413   3.917 -1.3341  2.0764  0.1374
  137CHL1  H19C16367   7.254   0.279   3.918  1.3713 -0.6350  0.7818
  137CHL1    C116368   7.050   0.431   3.858  0.3377  0.0300  0.4713
  137CHL1   H1A16369   7.027   0.334   3.908 -1.0546 -0.4682 -1.0286
  137CHL1   H1B16370   6.972   0.499   3.899  1.3947 -0.3206  3.2627
  137CHL1    C216371   7.038   0.421   3.705  0.2152 -1.3646 -0.3349
  137CHL1   H2A16372   6.936   0.390   3.673 -0.2286  0.7713 -1.1437
  137CHL1   H2B16373   7.106   0.351   3.652  0.2985  0.3260 -2.6424
  137CHL1   C2016374   7.243   0.477   4.616  0.0772 -0.3877  0.4454
  137CHL1   H2016375   7.350   0.453   4.629 -0.3235 -1.9638  1.0551
  137CHL1   C2116376   7.161   0.351   4.603 -0.3293  0.5798  0.3418
  137CHL1  H21A16377   7.213   0.269   4.548  0.1335  0.9742  0.1832
  137CHL1  H21B16378   7.067   0.368   4.546  0.3553 -1.7084 -1.6578
  137CHL1  H21C16379   7.144   0.299   4.700 -0.0207 -0.2253 -0.0268
  137CHL1   C2216380   7.207   0.543   4.752  0.2791  0.3278  0.9097
  137CHL1  H22A16381   7.242   0.648   4.765  0.4754  0.3595  0.1885
  137CHL1  H22B16382   7.097   0.551   4.761  0.2341  1.3415 -0.2912
  137CHL1   C2316383   7.263   0.459   4.868 -1.0900  0.0036  0.2635
  137CHL1  H23A16384   7.218   0.358   4.877  0.2046 -0.5026  1.4754
  137CHL1  H23B16385   7.372   0.453   4.852 -1.0496 -1.4364  0.9345
  137CHL1   C2416386   7.225   0.529   5.008 -0.3583  0.6646  0.4440
  137CHL1  H24A16387   7.282   0.624   5.011 -0.9850  1.0786 -0.3940
  137CHL1  H24B16388   7.115   0.546   5.016 -0.5581 -1.0307  2.1201
  137CHL1   C2516389   7.256   0.448   5.134 -0.2713 -0.1459 -0.6811
  137CHL1   H2516390   7.366   0.433   5.138 -0.0625  1.4283  0.0769
  137CHL1   C2616391   7.214   0.526   5.262 -0.4294  0.1763 -0.0212
  137CHL1  H26A16392   7.103   0.533   5.270 -0.6150  1.3693 -2.7313
  137CHL1  H26B16393   7.265   0.484   5.352  3.0970  2.7967 -0.5711
  137CHL1  H26C16394   7.242   0.632   5.249  0.8392 -0.0098  0.9915
  137CHL1   C2716395   7.190   0.308   5.148  0.1160  0.1961 -0.4545
  137CHL1  H27A16396   7.079   0.305   5.147  0.0346 -4.0950  1.0442
  137CHL1  H27B16397   7.227   0.237   5.071  0.8091 -0.9606  0.8931
  137CHL1  H27C16398   7.222   0.255   5.241 -0.0890  0.1158 -0.4306
  138CHL1    C316399   5.468   7.536   3.536  0.4629 -0.1551 -0.6339
  138CHL1    H316400   5.575   7.556   3.557  0.2438  1.7569 -1.1094
  138CHL1    O316401   5.457   7.501   3.399  0.1214 -0.0571 -0.4236
  138CHL1   H3'16402   5.535   7.450   3.377  1.0164  0.6378  0.9434
  138CHL1    C416403   5.403   7.421   3.615  0.2507  0.0307 -0.0325
  138CHL1   H4A16404   5.294   7.432   3.597  0.2562 -0.8651 -0.6588
  138CHL1   H4B16405   5.434   7.320   3.580 -1.9785 -1.0380  0.8408
  138CHL1    C516406   5.430   7.447   3.763 -0.4086  0.1536  0.3718
  138CHL1    C616407   5.501   7.349   3.838 -0.3508  0.0362  0.1811
  138CHL1    H616408   5.534   7.256   3.788 -0.4728  1.5442 -2.9446
  138CHL1    C716409   5.520   7.374   3.985 -0.4544 -0.0819  0.1075
  138CHL1   H7A16410   5.484   7.291   4.050  1.7445  0.1924  1.8003
  138CHL1   H7B16411   5.628   7.384   4.009 -0.3838  1.0848 -0.6439
  138CHL1    C816412   5.434   7.488   4.048  0.1723  0.7678  0.2897
  138CHL1    H816413   5.334   7.441   4.058  0.9792 -0.8777  0.8112
  138CHL1   C1416414   5.487   7.518   4.182 -0.5990  0.9227 -0.0425
  138CHL1   H1416415   5.589   7.560   4.177 -0.3393  0.7740  2.6327
  138CHL1   C1516416   5.504   7.399   4.286  0.3670  0.2609 -0.0377
  138CHL1  H15A16417   5.409   7.343   4.291  1.8244 -2.3746  0.1933
  138CHL1  H15B16418   5.583   7.324   4.265 -0.7307 -1.2462  1.0695
  138CHL1   C1616419   5.517   7.474   4.417  0.6905 -0.5300 -0.0860
  138CHL1  H16A16420   5.438   7.433   4.483  0.2379  0.2260 -0.1492
  138CHL1  H16B16421   5.620   7.458   4.455  1.9929  0.6559 -2.8434
  138CHL1   C1716422   5.490   7.630   4.389 -0.2364  0.7988 -0.8342
  138CHL1   H1716423   5.585   7.687   4.378  0.2741  0.1007 -0.1658
  138CHL1   C1316424   5.408   7.629   4.256  0.4693 -0.6920 -0.1125
  138CHL1   C1816425   5.259   7.583   4.271 -0.0795  1.2376  0.1490
  138CHL1  H18A16426   5.263   7.498   4.342  0.1563 -0.1893 -1.5108
  138CHL1  H18B16427   5.197   7.661   4.321 -0.4113  0.0983  1.5985
  138CHL1  H18C16428   5.213   7.565   4.172 -0.3242  0.9095  0.3211
  138CHL1   C1216429   5.435   7.756   4.170 -0.8976  0.2167  0.2103
  138CHL1  H12A16430   5.381   7.844   4.209 -0.4514  0.6593 -0.1641
  138CHL1  H12B16431   5.542   7.785   4.172 -1.3622  2.2782 -1.3891
  138CHL1   C1116432   5.397   7.742   4.022  0.3986  0.4336  0.5993
  138CHL1  H11A16433   5.286   7.744   4.019  0.4039  0.0817  0.0295
  138CHL1  H11B16434   5.430   7.832   3.967 -0.4134  0.7451  0.6238
  138CHL1    C916435   5.441   7.606   3.958 -0.6407 -0.1058 -0.6416
  138CHL1    H916436   5.548   7.629   3.939 -0.6522  0.3462 -0.2103
  138CHL1   C1016437   5.378   7.585   3.817  0.3573  0.7759 -0.7521
  138CHL1   C1916438   5.229   7.573   3.826  0.0891 -0.0568 -0.1729
  138CHL1  H19A16439   5.170   7.558   3.734 -1.1387 -1.7309  0.8186
  138CHL1  H19B16440   5.203   7.494   3.900  0.3905  0.3430  0.3722
  138CHL1  H19C16441   5.188   7.674   3.849 -1.9688 -0.6584 -1.0641
  138CHL1    C116442   5.424   7.694   3.716 -0.3628 -0.0040  0.3850
  138CHL1   H1A16443   5.374   7.789   3.743 -2.5543 -0.9598 -0.1672
  138CHL1   H1B16444   5.534   7.702   3.730 -0.3951 -2.0537  2.3308
  138CHL1    C216445   5.394   7.668   3.566 -0.1753  0.0079  0.6628
  138CHL1   H2A16446   5.431   7.752   3.503  0.1129  0.4921  1.4700
  138CHL1   H2B16447   5.284   7.656   3.556 -0.1584  0.3351  0.0162
  138CHL1   C2016448   5.420   7.703   4.512 -0.1202  0.3443 -0.3625
  138CHL1   H2016449   5.326   7.647   4.531 -0.2415 -0.0356 -1.8925
  138CHL1   C2116450   5.375   7.843   4.483  0.0223 -0.3387 -0.6529
  138CHL1  H21A16451   5.354   7.903   4.574 -1.2492 -0.3383 -0.9319
  138CHL1  H21B16452   5.279   7.835   4.428 -1.0629 -0.3968  1.1906
  138CHL1  H21C16453   5.447   7.905   4.424 -0.2187  1.1287  0.5416
  138CHL1   C2216454   5.494   7.687   4.647  0.0748 -0.1421 -0.2287
  138CHL1  H22A16455   5.508   7.578   4.661  1.0461  0.2643  2.5675
  138CHL1  H22B16456   5.601   7.717   4.639  0.4598 -1.4222 -0.1494
  138CHL1   C2316457   5.432   7.734   4.776 -0.6258 -0.0596 -0.8622
  138CHL1  H23A16458   5.504   7.700   4.854  0.6542  1.6662 -1.2197
  138CHL1  H23B16459   5.429   7.845   4.774  1.3943  0.0543  0.0677
  138CHL1   C2416460   5.286   7.691   4.809  0.2880  0.4806  0.3324
  138CHL1  H24A16461   5.224   7.693   4.717 -1.3811 -0.9659  1.3472
  138CHL1  H24B16462   5.287   7.587   4.850  1.9659  0.6828  0.8539
  138CHL1   C2516463   5.214   7.793   4.900 -0.0294 -0.2085  0.0194
  138CHL1   H2516464   5.237   7.895   4.864  0.5699 -1.2489 -2.9168
  138CHL1   C2616465   5.060   7.773   4.897  0.3470  0.7165  1.0967
  138CHL1  H26A16466   5.012   7.860   4.945 -0.8366  0.1528  0.9738
  138CHL1  H26B16467   5.036   7.765   4.789 -0.1409 -1.9160  1.3223
  138CHL1  H26C16468   5.029   7.678   4.946  1.0610 -0.9622 -1.5014
  138CHL1   C2716469   5.257   7.763   5.042 -0.0572 -1.4288 -0.9285
  138CHL1  H27A16470   5.368   7.769   5.040 -0.0709  4.2094 -0.6865
  138CHL1  H27B16471   5.215   7.838   5.113  0.2135 -0.8434 -1.3742
  138CHL1  H27C16472   5.234   7.658   5.070  2.0592 -1.8334 -0.5195
  139CHL1    C316473   7.198   6.783   3.637  0.2150  0.4935 -0.6263
  139CHL1    H316474   7.306   6.810   3.626  1.0810 -3.1770 -3.1549
  139CHL1    O316475   7.136   6.796   3.508 -1.1627 -0.1636  0.4352
  139CHL1   H3'16476   7.172   6.718   3.466  1.4209  0.7678  0.7194
  139CHL1    C416477   7.180   6.645   3.684 -0.4680  0.2815  0.1574
  139CHL1   H4A16478   7.073   6.616   3.676 -0.2173 -1.2249  1.6605
  139CHL1   H4B16479   7.223   6.564   3.621 -2.6327  0.5548 -1.8315
  139CHL1    C516480   7.233   6.632   3.824  0.6185  0.1931 -0.4784
  139CHL1    C616481   7.320   6.542   3.864 -0.3350  0.1610  0.5164
  139CHL1    H616482   7.356   6.465   3.793 -0.9538 -0.6916  1.0988
  139CHL1    C716483   7.360   6.523   4.012  0.2530  0.1199  0.0532
  139CHL1   H7A16484   7.340   6.416   4.037 -1.8139  0.1864 -1.0808
  139CHL1   H7B16485   7.465   6.546   4.040 -0.4903  1.0383  2.2613
  139CHL1    C816486   7.271   6.597   4.117 -0.0354 -0.1332  0.0630
  139CHL1    H816487   7.180   6.533   4.125 -0.1171 -0.2371 -1.4286
  139CHL1   C1416488   7.327   6.607   4.255  0.4009 -0.7227  0.1386
  139CHL1   H1416489   7.423   6.662   4.243  1.1076 -1.8170  0.6251
  139CHL1   C1516490   7.383   6.475   4.313  0.0863  0.0305  0.2047
  139CHL1  H15A16491   7.301   6.400   4.319 -1.2184  1.2339 -1.4126
  139CHL1  H15B16492   7.468   6.437   4.252 -0.5174 -0.5216 -0.3054
  139CHL1   C1616493   7.404   6.512   4.457 -0.0023  0.0557  0.6050
  139CHL1  H16A16494   7.358   6.434   4.521  0.6491 -1.6134 -0.8991
  139CHL1  H16B16495   7.511   6.518   4.485  0.1289 -1.8797  0.6287
  139CHL1   C1716496   7.349   6.660   4.470  0.2185  0.0992  0.3130
  139CHL1   H1716497   7.432   6.732   4.452 -0.7311  1.2123  0.2409
  139CHL1   C1316498   7.252   6.679   4.355  0.2936 -0.2181 -0.0342
  139CHL1   C1816499   7.122   6.593   4.387  0.5653  0.0366 -0.0029
  139CHL1  H18A16500   7.054   6.648   4.456  0.4924  1.9710 -1.5094
  139CHL1  H18B16501   7.063   6.584   4.293  0.1660 -0.0138  0.2507
  139CHL1  H18C16502   7.150   6.489   4.414  0.3334 -0.5925 -2.0161
  139CHL1   C1216503   7.219   6.825   4.317  0.4386  0.3424  0.8999
  139CHL1  H12A16504   7.140   6.861   4.387 -1.6907 -0.4779 -0.9448
  139CHL1  H12B16505   7.307   6.892   4.319 -0.7972  2.0835 -0.2064
  139CHL1   C1116506   7.147   6.813   4.179 -0.5055 -0.2885  0.3470
  139CHL1  H11A16507   7.045   6.771   4.197 -0.6056  0.3797  1.4324
  139CHL1  H11B16508   7.132   6.919   4.150  0.4331 -0.6246 -1.4919
  139CHL1    C916509   7.231   6.739   4.067  0.4696  0.1565  0.5481
  139CHL1    H916510   7.323   6.801   4.057  0.2842  0.5237  1.0810
  139CHL1   C1016511   7.165   6.736   3.924 -0.4196 -0.2288  0.8808
  139CHL1   C1916512   7.019   6.703   3.935 -0.1653  0.4495 -0.7675
  139CHL1  H19A16513   6.965   6.778   3.997 -0.6000 -1.2069  0.9725
  139CHL1  H19B16514   6.962   6.687   3.841 -1.4311  1.3113 -0.1801
  139CHL1  H19C16515   7.009   6.610   3.996 -0.9711  0.7402 -0.4378
  139CHL1    C116516   7.182   6.881   3.869  0.0982  0.2796 -1.3132
  139CHL1   H1A16517   7.109   6.938   3.930  2.1135 -0.8989  2.5281
  139CHL1   H1B16518   7.287   6.918   3.875  0.2445 -0.3003  0.0753
  139CHL1    C216519   7.138   6.898   3.719  0.6710  0.1960  0.0435
  139CHL1   H2A16520   7.181   6.996   3.691  2.7773  0.0995  2.5635
  139CHL1   H2B16521   7.027   6.900   3.725  0.7510  1.6987  3.3549
  139CHL1   C2016522   7.295   6.690   4.612 -0.3529  0.0943  0.4806
  139CHL1   H2016523   7.200   6.633   4.622  0.5641 -1.5601  0.1768
  139CHL1   C2116524   7.248   6.838   4.627 -0.5155  0.0438  0.3293
  139CHL1  H21A16525   7.141   6.852   4.597 -0.8600 -0.8584  1.0818
  139CHL1  H21B16526   7.326   6.904   4.583 -1.3494  0.2902 -0.8400
  139CHL1  H21C16527   7.245   6.856   4.736 -3.1410 -0.0224  0.3369
  139CHL1   C2216528   7.401   6.659   4.723  0.5930 -0.2506  0.0897
  139CHL1  H22A16529   7.352   6.671   4.822  1.0244  2.9003  0.0105
  139CHL1  H22B16530   7.436   6.555   4.708  0.5305 -0.0309 -1.8784
  139CHL1   C2316531   7.525   6.743   4.728  0.8959 -0.3976  0.1425
  139CHL1  H23A16532   7.578   6.723   4.633 -1.0231  0.0768 -1.0747
  139CHL1  H23B16533   7.485   6.847   4.730  0.9899 -0.3671  0.8104
  139CHL1   C2416534   7.610   6.730   4.854  0.4160  0.3344 -0.4237
  139CHL1  H24A16535   7.563   6.776   4.943 -1.4760 -1.3434 -0.4882
  139CHL1  H24B16536   7.631   6.625   4.881  2.9036  1.0940  0.9567
  139CHL1   C2516537   7.745   6.798   4.846 -0.6183  0.3887  0.4949
  139CHL1   H2516538   7.727   6.905   4.826 -1.5792 -0.1426 -1.7942
  139CHL1   C2616539   7.828   6.771   4.975  0.9681  0.4201  0.1538
  139CHL1  H26A16540   7.844   6.661   4.978 -1.9597 -0.1385 -1.3174
  139CHL1  H26B16541   7.916   6.840   4.978 -1.0113  3.1365 -0.3773
  139CHL1  H26C16542   7.764   6.793   5.063 -2.8474 -0.6295 -2.1404
  139CHL1   C2716543   7.833   6.747   4.734 -0.3237  0.9411  0.6305
  139CHL1  H27A16544   7.842   6.636   4.731 -2.5166  0.7372 -1.2202
  139CHL1  H27B16545   7.795   6.767   4.632  0.8464  2.6445  0.4948
  139CHL1  H27C16546   7.933   6.795   4.744 -0.0247  0.2752  0.9001
  140CHL1    C316547   5.739   0.494   3.465 -0.4665  0.4903 -0.4753
  140CHL1    H316548   5.847   0.509   3.444 -0.5259 -1.4381 -2.5637
  140CHL1    O316549   5.670   0.506   3.351  0.6398  0.1916 -0.1692
  140CHL1   H3'16550   5.577   0.499   3.374  0.9392 -2.6258  0.5678
  140CHL1    C416551   5.719   0.352   3.521 -0.0258  0.4912  0.2552
  140CHL1   H4A16552   5.613   0.321   3.504 -0.1245  0.4970  0.8176
  140CHL1   H4B16553   5.775   0.284   3.454  0.4785  1.2658 -0.1167
  140CHL1    C516554   5.748   0.337   3.672 -0.1987  0.5179 -0.2863
  140CHL1    C616555   5.829   0.239   3.724 -0.2073 -0.1642  0.2854
  140CHL1    H616556   5.880   0.171   3.653  1.9047  0.2952  1.2742
  140CHL1    C716557   5.871   0.227   3.866 -0.2453 -0.8054 -0.4058
  140CHL1   H7A16558   5.865   0.121   3.896  0.5136 -0.4600  1.0861
  140CHL1   H7B16559   5.977   0.249   3.892 -0.0738 -1.5442 -0.4641
  140CHL1    C816560   5.782   0.314   3.965 -0.0814 -0.0686 -0.0160
  140CHL1    H816561   5.684   0.265   3.986 -0.9901  0.5503 -2.4150
  140CHL1   C1416562   5.849   0.324   4.106  0.6203 -0.4221  1.1051
  140CHL1   H1416563   5.947   0.375   4.096 -1.1326  3.0544  0.1615
  140CHL1   C1516564   5.879   0.200   4.179 -0.3319 -0.4938  0.4509
  140CHL1  H15A16565   5.793   0.133   4.160 -1.2284 -0.2745  3.1663
  140CHL1  H15B16566   5.969   0.139   4.157  0.3656 -0.0449  1.9146
  140CHL1   C1616567   5.896   0.234   4.330 -0.0213  0.9187 -0.2889
  140CHL1  H16A16568   5.825   0.169   4.386 -0.8689  0.5323 -1.7362
  140CHL1  H16B16569   5.994   0.212   4.377 -0.1301  0.7678 -0.1323
  140CHL1   C1716570   5.865   0.382   4.338 -1.0124  0.6724  0.0359
  140CHL1   H1716571   5.962   0.434   4.324 -1.4200  0.9235 -2.3508
  140CHL1   C1316572   5.778   0.412   4.208 -0.1816 -0.3122 -0.0254
  140CHL1   C1816573   5.628   0.372   4.229 -0.6456 -0.7035 -0.1339
  140CHL1  H18A16574   5.613   0.275   4.282  2.0649 -2.5304 -2.3778
  140CHL1  H18B16575   5.588   0.453   4.293  0.7992  0.2202 -0.3335
  140CHL1  H18C16576   5.573   0.372   4.133 -2.3373 -0.5263  0.8086
  140CHL1   C1216577   5.780   0.555   4.148 -0.3151  0.3516 -0.8387
  140CHL1  H12A16578   5.738   0.631   4.217 -2.7805 -0.8281 -0.9286
  140CHL1  H12B16579   5.888   0.577   4.130 -0.5989  1.0592 -1.7410
  140CHL1   C1116580   5.709   0.559   4.009 -0.1415 -0.4449 -0.4958
  140CHL1  H11A16581   5.602   0.544   4.032  0.5040 -2.8070  1.2606
  140CHL1  H11B16582   5.722   0.665   3.975  0.3789 -0.6940 -1.1020
  140CHL1    C916583   5.767   0.458   3.911  0.0106  0.0176  0.5694
  140CHL1    H916584   5.874   0.483   3.894  0.1809 -1.2414 -0.3391
  140CHL1   C1016585   5.707   0.457   3.765  0.1144 -0.7672  0.0529
  140CHL1   C1916586   5.551   0.444   3.771  0.1894 -0.6317 -0.0943
  140CHL1  H19A16587   5.525   0.549   3.796 -0.4354 -0.2314 -2.2407
  140CHL1  H19B16588   5.501   0.414   3.677 -0.5462 -2.1248  0.7461
  140CHL1  H19C16589   5.526   0.371   3.851 -1.0209 -0.2520 -0.1093
  140CHL1    C116590   5.743   0.584   3.693 -0.2476 -0.0854 -0.2755
  140CHL1   H1A16591   5.714   0.668   3.759 -0.5239  1.1487 -1.8789
  140CHL1   H1B16592   5.852   0.606   3.692 -0.6119  1.9825  0.3172
  140CHL1    C216593   5.676   0.597   3.552 -0.1623 -0.0043 -0.1650
  140CHL1   H2A16594   5.706   0.691   3.501  0.3197 -0.5496 -0.8958
  140CHL1   H2B16595   5.565   0.600   3.544 -0.1677 -0.6079 -0.3742
  140CHL1   C2016596   5.839   0.434   4.481  0.2047  0.1478 -0.0233
  140CHL1   H2016597   5.922   0.401   4.546 -0.4467  0.5829  1.0488
  140CHL1   C2116598   5.721   0.357   4.544  0.5257  0.0016  0.7399
  140CHL1  H21A16599   5.734   0.247   4.538 -0.4721 -0.0638 -3.5513
  140CHL1  H21B16600   5.623   0.388   4.502  0.1640  1.0885  2.3024
  140CHL1  H21C16601   5.715   0.380   4.653  0.0209 -0.0822  0.7287
  140CHL1   C2216602   5.828   0.592   4.492 -0.0180  0.6620  0.0289
  140CHL1  H22A16603   5.917   0.641   4.447 -0.5166  0.1640 -1.5923
  140CHL1  H22B16604   5.736   0.636   4.447 -1.1690  1.0282  2.5932
  140CHL1   C2316605   5.824   0.650   4.639 -0.2122  0.2312  0.0803
  140CHL1  H23A16606   5.807   0.759   4.621  1.3704  0.1690 -2.1066
  140CHL1  H23B16607   5.730   0.616   4.688 -0.3557  0.6245  0.0853
  140CHL1   C2416608   5.948   0.629   4.723 -0.2682  0.1743  0.0439
  140CHL1  H24A16609   5.955   0.518   4.731 -1.2771  0.1667  1.0144
  140CHL1  H24B16610   6.050   0.660   4.694  0.4855 -1.3725  0.9115
  140CHL1   C2516611   5.917   0.689   4.867  0.1552  0.1019  0.7818
  140CHL1   H2516612   5.810   0.671   4.891  0.3418  0.0124  1.5878
  140CHL1   C2616613   5.930   0.835   4.877  0.2192 -0.4603  0.1897
  140CHL1  H26A16614   6.031   0.869   4.844  0.8251 -1.9720  0.3856
  140CHL1  H26B16615   5.855   0.882   4.810  0.6835  1.9071  1.2298
  140CHL1  H26C16616   5.928   0.860   4.985  0.3447  0.9121 -0.1019
  140CHL1   C2716617   5.998   0.615   4.978  0.5309 -0.5605  0.2294
  140CHL1  H27A16618   6.102   0.648   4.956  0.5022 -0.9047 -0.4464
  140CHL1  H27B16619   5.962   0.641   5.080 -0.5388 -0.9154 -0.0471
  140CHL1  H27C16620   5.990   0.505   4.972  1.6745 -0.6368 -0.1651
  141DOPC     N16621   2.967   3.173   7.395  0.7395  1.0940 -0.0989
  141DOPC   C1216622   2.951   3.247   7.262 -0.9392  0.5337  0.8571
  141DOPC  H12A16623   3.051   3.249   7.220 -0.5281 -1.9079  1.5790
  141DOPC  H12B16624   2.924   3.348   7.291 -0.0805  1.3764 -1.0929
  141DOPC   C1316625   3.034   3.264   7.494 -0.2496 -0.5089  0.2278
  141DOPC  H13A16626   3.043   3.215   7.589  0.0548 -1.9656 -0.5289
  141DOPC  H13B16627   3.134   3.284   7.457 -0.4941  0.1353 -0.1087
  141DOPC  H13C16628   2.983   3.359   7.497 -0.7053 -0.5327 -2.8570
  141DOPC   C1416629   3.047   3.044   7.389 -0.0579  0.9666 -0.2783
  141DOPC  H14A16630   3.152   3.071   7.382 -0.1529  2.3157  2.2437
  141DOPC  H14B16631   3.027   2.986   7.478  0.7283 -0.0257 -0.7232
  141DOPC  H14C16632   3.005   2.983   7.311 -3.2157 -0.0190  1.9972
  141DOPC   C1516633   2.826   3.143   7.431  0.0309  0.3139 -0.3350
  141DOPC  H15A16634   2.801   3.063   7.364  2.2870  0.7530 -1.8079
  141DOPC  H15B16635   2.763   3.225   7.398 -0.3501  0.2562  0.2356
  141DOPC  H15C16636   2.804   3.113   7.533  1.9480 -1.4160 -0.3734
  141DOPC   C1116637   2.844   3.207   7.152  0.1124 -0.7030  0.5927
  141DOPC  H11A16638   2.869   3.262   7.058  1.7334 -2.5521 -0.1322
  141DOPC  H11B16639   2.860   3.103   7.115  2.8564  0.8517 -3.3517
  141DOPC     P16640   2.585   3.189   7.102  0.1515  0.3278  0.3669
  141DOPC   O1316641   2.479   3.255   7.175  0.2218 -0.2058 -0.7031
  141DOPC   O1416642   2.584   3.048   7.076 -0.7711  0.1793 -0.3156
  141DOPC   O1216643   2.710   3.236   7.187  0.3386  0.5543 -0.0726
  141DOPC   O1116644   2.611   3.256   6.966 -0.5950 -0.3275  0.2339
  141DOPC    C116645   2.580   3.392   6.939  0.0225 -0.4925  0.0843
  141DOPC    HA16646   2.639   3.464   6.999 -0.8052  0.1871  0.1058
  141DOPC    HB16647   2.474   3.416   6.964  0.1776 -1.4006  1.8181
  141DOPC    C216648   2.599   3.422   6.791  0.9827  0.4197 -0.2522
  141DOPC    HS16649   2.563   3.524   6.764  0.6705 -0.1454 -2.0862
  141DOPC   O2116650   2.537   3.324   6.704  0.3399  0.0788  0.0400
  141DOPC   C2116651   2.408   3.318   6.706  0.1789 -0.1680  0.2696
  141DOPC   O2216652   2.337   3.412   6.752 -0.0511  0.7050  0.1786
  141DOPC   C2216653   2.350   3.183   6.645 -0.2903  0.3662 -0.7406
  141DOPC   H2R16654   2.285   3.143   6.726 -1.6354  0.6937 -1.6414
  141DOPC   H2S16655   2.437   3.115   6.633 -1.3946 -1.2611  0.0977
  141DOPC    C316656   2.745   3.435   6.744  1.4418 -0.1119  0.0628
  141DOPC    HX16657   2.800   3.339   6.746  0.6578 -0.6501 -1.8726
  141DOPC    HY16658   2.802   3.494   6.818  1.2779 -0.2550  0.3056
  141DOPC   O3116659   2.746   3.490   6.611  0.3554 -0.3635 -0.0231
  141DOPC   C3116660   2.875   3.498   6.568  0.5695 -0.3867  0.2647
  141DOPC   O3216661   2.973   3.466   6.634  0.0376  0.5315  0.5971
  141DOPC   C3216662   2.875   3.552   6.427  0.3585 -0.1585  0.5296
  141DOPC   H2X16663   2.958   3.497   6.376  0.9576  2.0182 -0.9707
  141DOPC   H2Y16664   2.777   3.519   6.387  0.7438  1.4536 -1.9708
  141DOPC   C2316665   2.272   3.192   6.513 -0.1204 -0.1858  0.2310
  141DOPC   H3R16666   2.191   3.268   6.512 -1.4473 -1.5171 -2.2298
  141DOPC   H3S16667   2.219   3.095   6.503 -1.6301  0.7801 -1.6399
  141DOPC   C2416668   2.367   3.200   6.395 -0.2321  0.0852  0.3124
  141DOPC   H4R16669   2.451   3.132   6.420 -0.8892 -0.4426  1.1218
  141DOPC   H4S16670   2.410   3.302   6.385  0.4780 -0.2104  0.2429
  141DOPC   C2516671   2.290   3.170   6.265  0.3591  0.5178  0.4832
  141DOPC   H5R16672   2.201   3.237   6.272  1.1578  1.4316  3.1949
  141DOPC   H5S16673   2.246   3.068   6.266  1.6757 -0.1203 -1.6176
  141DOPC   C2616674   2.378   3.177   6.140 -0.0798 -0.0462 -0.2482
  141DOPC   H6R16675   2.465   3.109   6.146 -0.0045  0.0629 -0.0721
  141DOPC   H6S16676   2.413   3.283   6.137 -1.1103  0.2873 -1.5604
  141DOPC   C2716677   2.290   3.144   6.012 -0.3124 -0.5037  0.1126
  141DOPC   H7R16678   2.196   3.197   6.039 -0.0941  0.6126 -1.2163
  141DOPC   H7S16679   2.276   3.034   6.021 -0.2874 -0.4411  1.0106
  141DOPC   C2816680   2.356   3.177   5.877  0.0134  0.7581 -0.6798
  141DOPC   H8R16681   2.370   3.287   5.865 -0.9501  0.8620 -0.8897
  141DOPC   H8S16682   2.286   3.146   5.797 -0.1994 -0.1866 -0.1325
  141DOPC   C2916683   2.493   3.129   5.848  0.0508 -0.4710 -0.8021
  141DOPC   H9R16684   2.538   3.088   5.940 -1.9033 -1.8789 -0.4052
  141DOPC  C21016685   2.567   3.129   5.739  0.4935 -0.3021  0.1394
  141DOPC  H10R16686   2.671   3.096   5.753  0.4700 -1.3981 -1.9427
  141DOPC  C21116687   2.541   3.170   5.599  0.7152 -0.5476  0.7673
  141DOPC  H11R16688   2.550   3.080   5.534  1.8148  0.8476 -1.1280
  141DOPC  H11S16689   2.631   3.225   5.564  0.7876 -1.3398 -0.3489
  141DOPC  C21216690   2.418   3.243   5.536  0.4748 -0.2985 -0.7258
  141DOPC  H12R16691   2.423   3.350   5.565 -0.3306 -0.8969  1.9539
  141DOPC  H12S16692   2.320   3.210   5.578  1.5271 -1.2060  1.1336
  141DOPC  C21316693   2.416   3.243   5.380  0.2859 -0.5906  0.1602
  141DOPC  H13R16694   2.389   3.141   5.345  1.2192 -0.9030  0.3112
  141DOPC  H13S16695   2.520   3.265   5.349  1.0145 -0.9122  2.2094
  141DOPC  C21416696   2.306   3.343   5.325  0.6469 -0.0250  0.2095
  141DOPC  H14R16697   2.324   3.437   5.381  1.7279 -1.8026  3.1322
  141DOPC  H14S16698   2.208   3.299   5.354  0.6369 -2.7514 -3.2352
  141DOPC  C21516699   2.319   3.366   5.177  0.1731 -0.6239  0.5143
  141DOPC  H15R16700   2.283   3.288   5.107 -0.3036  1.5796 -1.8908
  141DOPC  H15S16701   2.425   3.386   5.151  0.1650 -0.8134  0.3368
  141DOPC  C21616702   2.251   3.494   5.125  0.4328 -0.0433 -0.0620
  141DOPC  H16R16703   2.143   3.481   5.145  0.4295  0.4482  0.2663
  141DOPC  H16S16704   2.275   3.504   5.017 -1.2534 -0.2067 -0.4725
  141DOPC  C21716705   2.292   3.630   5.184 -0.5872  0.5151  0.7466
  141DOPC  H17R16706   2.402   3.640   5.172 -0.7438  1.3447 -0.0629
  141DOPC  H17S16707   2.278   3.628   5.295 -0.0591 -0.9321  0.8067
  141DOPC  C21816708   2.223   3.743   5.112 -0.7512 -0.4113  0.3339
  141DOPC  H18R16709   2.233   3.719   5.004  0.3852 -2.5481  0.8492
  141DOPC  H18S16710   2.269   3.840   5.138 -1.5332  0.8550 -2.5474
  141DOPC  H18T16711   2.114   3.741   5.136 -0.6022 -3.6283  1.1610
  141DOPC   C3316712   2.888   3.702   6.410  0.3008 -0.5721  0.1369
  141DOPC   H3X16713   2.988   3.737   6.443  0.2952 -0.4816  0.0570
  141DOPC   H3Y16714   2.807   3.757   6.462  0.9009  1.7524 -1.2389
  141DOPC   C3416715   2.885   3.757   6.262  0.6660  0.4637  0.0938
  141DOPC   H4X16716   2.791   3.707   6.230 -0.5855  1.7706  1.5554
  141DOPC   H4Y16717   2.974   3.724   6.204  0.7761  1.9263 -0.5927
  141DOPC   C3516718   2.847   3.903   6.246 -0.4760 -0.2379 -0.2881
  141DOPC   H5X16719   2.939   3.961   6.264 -0.1536 -1.3467  2.1675
  141DOPC   H5Y16720   2.790   3.935   6.336 -0.4299 -0.9451  0.0049
  141DOPC   C3616721   2.783   3.933   6.114 -0.2573  0.4554  0.4852
  141DOPC   H6X16722   2.675   3.910   6.108 -0.0477 -0.5637  0.4109
  141DOPC   H6Y16723   2.793   4.043   6.096 -0.9557  0.2124 -1.7232
  141DOPC   C3716724   2.846   3.872   5.984 -0.0628 -0.1542 -0.0590
  141DOPC   H7X16725   2.956   3.876   6.003  0.0250  0.7152 -0.6903
  141DOPC   H7Y16726   2.826   3.763   5.981  0.8470 -0.3246 -0.5621
  141DOPC   C3816727   2.814   3.952   5.858 -0.5133  0.0948  0.0594
  141DOPC   H8X16728   2.850   4.054   5.881  0.4008 -0.2687  0.2752
  141DOPC   H8Y16729   2.703   3.949   5.847 -0.3718 -2.1616 -1.6449
  141DOPC   C3916730   2.875   3.894   5.729  0.6821 -0.6140  0.3275
  141DOPC   H9X16731   2.842   3.791   5.708 -1.2953  0.3988 -2.2106
  141DOPC  C31016732   2.973   3.948   5.658 -0.2486  0.0975 -0.0700
  141DOPC  H10X16733   3.009   3.886   5.574  0.8206  1.9734 -1.0603
  141DOPC  C31116734   3.046   4.076   5.687 -0.1421 -0.6854  1.0611
  141DOPC  H11X16735   2.981   4.157   5.725 -0.7016 -0.3628 -0.5227
  141DOPC  H11Y16736   3.095   4.111   5.594 -1.2397 -0.1226  0.6807
  141DOPC  C31216737   3.147   4.066   5.802 -0.9857  0.0321 -0.0732
  141DOPC  H12X16738   3.234   3.997   5.793  0.8848  2.3771 -1.2151
  141DOPC  H12Y16739   3.095   4.039   5.896  1.9005 -0.8845  1.3839
  141DOPC  C31316740   3.208   4.198   5.846  0.1268 -0.5779 -1.2491
  141DOPC  H13X16741   3.241   4.258   5.757  0.8853  0.9117 -0.0186
  141DOPC  H13Y16742   3.122   4.256   5.885  0.7092 -1.1896  1.0720
  141DOPC  C31416743   3.307   4.201   5.965  0.3203 -0.1129 -0.2975
  141DOPC  H14X16744   3.249   4.159   6.050 -0.6658  1.9953  0.1319
  141DOPC  H14Y16745   3.403   4.150   5.942  0.1241 -1.3597  1.5009
  141DOPC  C31516746   3.328   4.344   6.006 -0.1265 -0.1303 -0.3566
  141DOPC  H15X16747   3.230   4.389   6.031 -0.3751 -0.8112 -0.0937
  141DOPC  H15Y16748   3.364   4.408   5.923  0.5354 -1.8099 -1.4231
  141DOPC  C31616749   3.417   4.351   6.128  0.0647  0.0552  0.6677
  141DOPC  H16X16750   3.372   4.285   6.205 -1.3762  1.2548  0.8948
  141DOPC  H16Y16751   3.519   4.315   6.104 -0.4760 -2.1127  1.3805
  141DOPC  C31716752   3.432   4.490   6.197  0.0276  0.6435  1.1832
  141DOPC  H17X16753   3.462   4.561   6.117  0.3869 -0.3479  0.4168
  141DOPC  H17Y16754   3.338   4.525   6.245  1.0970  1.2595  2.9149
  141DOPC  C31816755   3.541   4.483   6.304 -0.2778 -0.1242  0.7171
  141DOPC  H18X16756   3.635   4.443   6.261 -0.4488 -0.9113  1.0569
  141DOPC  H18Y16757   3.561   4.587   6.336 -0.8043  0.7591 -1.5801
  141DOPC  H18Z16758   3.514   4.418   6.390  3.9629 -1.6813  1.0823
  142DOPC     N16759   4.198   3.549   7.607  0.4111 -0.5786  0.1794
  142DOPC   C1216760   4.238   3.688   7.559  0.1251  0.3875 -0.5063
  142DOPC  H12A16761   4.229   3.700   7.452 -0.8830 -0.5534 -0.5431
  142DOPC  H12B16762   4.344   3.693   7.577  0.4553 -1.1297 -1.8578
  142DOPC   C1316763   4.295   3.451   7.553 -0.5262 -0.2174  0.2606
  142DOPC  H13A16764   4.299   3.468   7.446 -2.8518 -0.8777  0.0058
  142DOPC  H13B16765   4.395   3.478   7.583 -0.2628 -1.6070  0.7088
  142DOPC  H13C16766   4.291   3.348   7.583  0.4675 -0.6443 -0.9882
  142DOPC   C1416767   4.059   3.503   7.570  0.7926 -0.0355 -0.3043
  142DOPC  H14A16768   4.040   3.402   7.605  3.9641 -0.5989  0.0639
  142DOPC  H14B16769   3.983   3.564   7.616  0.8722  0.8861 -1.3387
  142DOPC  H14C16770   4.043   3.517   7.464 -1.0151  1.4910  0.1085
  142DOPC   C1516771   4.218   3.528   7.754  0.6006 -0.1034  0.1886
  142DOPC  H15A16772   4.323   3.541   7.780  0.4144  0.7277  0.5679
  142DOPC  H15B16773   4.189   3.433   7.796  1.2802 -0.3435  0.1302
  142DOPC  H15C16774   4.166   3.608   7.805 -1.1507  0.4257 -2.2357
  142DOPC   C1116775   4.169   3.804   7.639  0.5261 -0.3459  0.6943
  142DOPC  H11A16776   4.206   3.790   7.742  0.2632 -0.9982  0.7050
  142DOPC  H11B16777   4.208   3.904   7.610  0.5159 -0.4688  0.2404
  142DOPC     P16778   3.964   3.874   7.514  0.5139  0.2928  0.6256
  142DOPC   O1316779   3.996   4.018   7.515 -0.1905  0.2042 -0.2229
  142DOPC   O1416780   3.820   3.840   7.518 -0.1031  0.2543 -0.0131
  142DOPC   O1216781   4.028   3.798   7.632 -0.9748 -0.2168 -0.0410
  142DOPC   O1116782   4.021   3.808   7.381  0.0355  0.1359 -0.1293
  142DOPC    C116783   4.094   3.879   7.283 -0.1205 -0.0326 -0.2374
  142DOPC    HA16784   4.146   3.804   7.219 -1.2791 -1.4537  0.4380
  142DOPC    HB16785   4.169   3.948   7.328  0.0936 -0.4560  0.0598
  142DOPC    C216786   3.996   3.953   7.196  0.0736 -0.6177  0.4602
  142DOPC    HS16787   3.952   4.034   7.258  0.8715  2.2357 -2.4394
  142DOPC   O2116788   3.895   3.858   7.153  0.1891 -0.0787 -0.2424
  142DOPC   C2116789   3.787   3.916   7.108 -0.1766 -0.0114 -0.2859
  142DOPC   O2216790   3.766   4.037   7.115  0.0248 -0.0553 -0.5858
  142DOPC   C2216791   3.700   3.812   7.051  0.1847  0.4438  0.2338
  142DOPC   H2R16792   3.596   3.850   7.037  0.2941  0.7249  0.1634
  142DOPC   H2S16793   3.695   3.722   7.116 -1.7517  0.6601  0.4533
  142DOPC    C316794   4.064   4.026   7.078  0.8585  0.3679 -0.3576
  142DOPC    HX16795   4.107   3.947   7.013 -0.4579 -1.5541  1.0086
  142DOPC    HY16796   4.155   4.077   7.117  1.5608 -1.0856 -0.0547
  142DOPC   O3116797   3.982   4.104   6.992  0.0140  0.6046 -0.2903
  142DOPC   C3116798   4.052   4.151   6.888 -0.4772  0.9365  1.0562
  142DOPC   O3216799   4.173   4.144   6.872 -0.6144  0.3501 -0.1643
  142DOPC   C3216800   3.954   4.205   6.776  0.0323  0.3308 -0.1056
  142DOPC   H2X16801   3.960   4.132   6.692  1.3156  0.2102  0.0564
  142DOPC   H2Y16802   3.856   4.208   6.826  0.1396  0.1169  0.1197
  142DOPC   C2316803   3.766   3.775   6.915  0.1627 -0.4089  0.3641
  142DOPC   H3R16804   3.755   3.666   6.895  2.0664 -0.6342  0.4086
  142DOPC   H3S16805   3.874   3.799   6.911 -0.0705  0.6003 -0.2687
  142DOPC   C2416806   3.703   3.858   6.801  0.4151  0.1101 -0.4352
  142DOPC   H4R16807   3.669   3.956   6.841 -1.2227 -0.8421  0.6179
  142DOPC   H4S16808   3.605   3.807   6.786  0.5514 -0.6481  1.1389
  142DOPC   C2516809   3.782   3.856   6.669  0.0805  0.3234  0.2116
  142DOPC   H5R16810   3.813   3.753   6.642 -3.1637 -0.7355  0.1038
  142DOPC   H5S16811   3.874   3.913   6.693  1.7240 -1.6074 -1.1313
  142DOPC   C2616812   3.708   3.916   6.551 -0.2074  0.0053  0.4355
  142DOPC   H6R16813   3.617   3.854   6.540  0.6637 -1.1577 -0.4294
  142DOPC   H6S16814   3.769   3.902   6.459 -0.0093 -4.6211  1.0609
  142DOPC   C2716815   3.661   4.064   6.575 -0.1951 -0.1107 -0.1835
  142DOPC   H7R16816   3.724   4.108   6.655 -1.2739 -0.0681  0.6635
  142DOPC   H7S16817   3.556   4.059   6.613 -0.3174  0.1258 -0.4881
  142DOPC   C2816818   3.665   4.156   6.447  0.4947  0.0819  0.6241
  142DOPC   H8R16819   3.772   4.164   6.420  1.1195  0.2337  2.9117
  142DOPC   H8S16820   3.617   4.250   6.479 -0.5602 -0.4590  0.6717
  142DOPC   C2916821   3.578   4.093   6.339  0.1432 -0.5830 -0.1570
  142DOPC   H9R16822   3.498   4.020   6.361  0.7485 -0.3213  3.5502
  142DOPC  C21016823   3.622   4.093   6.214  0.0141  0.4316  0.4711
  142DOPC  H10R16824   3.556   4.033   6.149  2.0895 -0.0921 -1.2758
  142DOPC  C21116825   3.740   4.168   6.148  0.0746 -0.0994  0.0512
  142DOPC  H11R16826   3.832   4.108   6.163 -0.9783 -1.4986  1.1523
  142DOPC  H11S16827   3.755   4.271   6.187  0.2087 -0.6399  1.5076
  142DOPC  C21216828   3.722   4.172   5.993  0.2064 -0.7059 -0.2021
  142DOPC  H12R16829   3.788   4.252   5.953  0.9890 -0.4957  1.4291
  142DOPC  H12S16830   3.622   4.210   5.964  1.0068  0.5891 -1.3801
  142DOPC  C21316831   3.759   4.047   5.929  0.3858  0.4442  0.1903
  142DOPC  H13R16832   3.686   3.972   5.967  0.1590  0.5985  0.0683
  142DOPC  H13S16833   3.863   4.013   5.945  0.1577  0.6648  2.4435
  142DOPC  C21416834   3.746   4.050   5.771  0.1360 -0.6053 -0.7069
  142DOPC  H14R16835   3.780   3.957   5.722 -1.2940 -1.5497  0.0199
  142DOPC  H14S16836   3.818   4.129   5.742  0.0565 -1.1184 -2.3842
  142DOPC  C21516837   3.603   4.071   5.719  0.4666  0.9415  0.4661
  142DOPC  H15R16838   3.558   4.164   5.759 -1.3682  0.4032 -0.2334
  142DOPC  H15S16839   3.540   3.989   5.760  2.0955 -0.7800 -0.3371
  142DOPC  C21616840   3.603   4.069   5.564 -0.9260 -0.1931 -0.5130
  142DOPC  H16R16841   3.642   3.967   5.547 -1.4439 -0.5328  0.2727
  142DOPC  H16S16842   3.679   4.141   5.527  1.2930 -2.7346 -1.1726
  142DOPC  C21716843   3.471   4.088   5.493  0.6888  0.5984  0.1699
  142DOPC  H17R16844   3.411   4.170   5.537  2.1912  1.3934  0.8056
  142DOPC  H17S16845   3.418   3.992   5.512  1.1176  0.3279  0.0184
  142DOPC  C21816846   3.479   4.110   5.343 -0.1135 -0.2651 -0.3158
  142DOPC  H18R16847   3.539   4.042   5.278 -2.4426  0.9299 -4.0185
  142DOPC  H18S16848   3.535   4.205   5.331 -0.1039 -0.3741 -1.1802
  142DOPC  H18T16849   3.380   4.128   5.296 -0.8446  1.3059  1.6773
  142DOPC   C3316850   3.976   4.351   6.743 -0.1375  0.5500 -0.0733
  142DOPC   H3X16851   4.082   4.369   6.717 -0.2840  0.3709 -0.7991
  142DOPC   H3Y16852   3.950   4.410   6.834  1.5377 -0.2473  0.9650
  142DOPC   C3416853   3.897   4.398   6.617 -0.1079 -0.2182  0.4702
  142DOPC   H4X16854   3.794   4.434   6.639 -0.6218  0.6926 -2.9000
  142DOPC   H4Y16855   3.891   4.308   6.553  0.7070 -0.2563  0.4381
  142DOPC   C3516856   3.962   4.507   6.533 -0.3308 -0.2078  0.1688
  142DOPC   H5X16857   4.073   4.498   6.531  0.1489  3.7618 -2.3699
  142DOPC   H5Y16858   3.946   4.609   6.575 -0.8905 -0.6911  1.1576
  142DOPC   C3616859   3.890   4.502   6.393  0.1845  0.2709  0.8109
  142DOPC   H6X16860   3.932   4.413   6.342  0.7410  0.8599  0.2164
  142DOPC   H6Y16861   3.782   4.491   6.414  0.2376 -1.5076  0.3040
  142DOPC   C3716862   3.912   4.635   6.309 -0.2128 -0.0305 -0.4874
  142DOPC   H7X16863   3.859   4.707   6.375  1.1098 -0.0909  0.6940
  142DOPC   H7Y16864   4.021   4.658   6.304 -0.4883  1.6825  0.5494
  142DOPC   C3816865   3.852   4.639   6.165 -0.4707  0.4028 -0.0302
  142DOPC   H8X16866   3.856   4.747   6.136 -1.2806 -0.0029 -1.8106
  142DOPC   H8Y16867   3.747   4.606   6.178 -0.3136 -1.2002 -2.2831
  142DOPC   C3916868   3.919   4.561   6.056  0.1276  1.0563 -0.4957
  142DOPC   H9X16869   4.018   4.518   6.074 -0.0833 -0.0923 -1.8831
  142DOPC  C31016870   3.850   4.522   5.949 -0.6788  0.7698  0.2575
  142DOPC  H10X16871   3.906   4.468   5.871  0.0542 -1.0189  1.9447
  142DOPC  C31116872   3.712   4.563   5.913  0.0257  0.7036  0.8463
  142DOPC  H11X16873   3.685   4.670   5.914 -0.0099  0.7160 -0.2284
  142DOPC  H11Y16874   3.642   4.528   5.992  0.0480 -1.8764 -0.1527
  142DOPC  C31216875   3.669   4.502   5.775 -0.0928 -0.6633  0.2135
  142DOPC  H12X16876   3.660   4.392   5.780 -0.2836 -0.6213  0.8514
  142DOPC  H12Y16877   3.740   4.527   5.693 -0.7631  0.8716  0.0523
  142DOPC  C31316878   3.534   4.561   5.726 -0.3728 -0.2531  0.2472
  142DOPC  H13X16879   3.454   4.548   5.802  0.1626 -1.5931  0.6085
  142DOPC  H13Y16880   3.553   4.668   5.702 -2.1360 -0.1399 -0.8301
  142DOPC  C31416881   3.483   4.509   5.590 -0.2206 -0.1757  0.1572
  142DOPC  H14X16882   3.545   4.544   5.505  1.2178 -3.1572 -0.1833
  142DOPC  H14Y16883   3.502   4.399   5.587  1.1418  0.0623 -1.5107
  142DOPC  C31516884   3.331   4.530   5.567 -0.4271  0.1364  0.0726
  142DOPC  H15X16885   3.300   4.635   5.585 -0.0053  0.1797  0.5765
  142DOPC  H15Y16886   3.276   4.477   5.648 -1.5940  1.4933  0.2056
  142DOPC  C31616887   3.283   4.475   5.431  0.5444 -0.0359 -0.8191
  142DOPC  H16X16888   3.352   4.509   5.351  0.9492 -1.3097 -1.0318
  142DOPC  H16Y16889   3.298   4.365   5.425  0.5890 -0.0775 -0.1118
  142DOPC  C31716890   3.139   4.507   5.393 -0.3239 -0.0537 -0.1858
  142DOPC  H17X16891   3.122   4.617   5.399 -1.2002 -0.1761 -0.2628
  142DOPC  H17Y16892   3.119   4.493   5.284  0.2659  0.3596 -0.3492
  142DOPC  C31816893   3.034   4.435   5.471  0.4422 -0.2141  0.7232
  142DOPC  H18X16894   3.038   4.465   5.577  1.1908  1.1417  0.3355
  142DOPC  H18Y16895   2.942   4.458   5.412  3.1763  3.0330 -2.8666
  142DOPC  H18Z16896   3.041   4.324   5.468  1.9369 -0.1778  1.6284
  143DOPC     N16897   1.569   5.370   7.644  0.1068  0.1944 -1.0972
  143DOPC   C1216898   1.538   5.329   7.496 -0.3097  0.3025 -1.1793
  143DOPC  H12A16899   1.484   5.413   7.455 -0.7755 -0.5980 -2.4788
  143DOPC  H12B16900   1.458   5.256   7.499 -0.3989  0.4335  1.0252
  143DOPC   C1316901   1.643   5.265   7.713  0.1492 -0.0429  0.2010
  143DOPC  H13A16902   1.674   5.292   7.813 -1.5660  1.4485  0.3797
  143DOPC  H13B16903   1.581   5.176   7.712 -1.4683  1.0377 -1.8403
  143DOPC  H13C16904   1.731   5.242   7.655 -0.5131 -0.4403 -0.6598
  143DOPC   C1416905   1.448   5.401   7.728 -0.3645  0.3289 -0.0377
  143DOPC  H14A16906   1.482   5.419   7.829  1.0024  0.6415 -0.5266
  143DOPC  H14B16907   1.400   5.492   7.695 -0.1952  0.0444 -1.0979
  143DOPC  H14C16908   1.372   5.325   7.732 -0.6405  0.4760 -1.8479
  143DOPC   C1516909   1.661   5.493   7.642 -0.8517 -0.0667 -0.1938
  143DOPC  H15A16910   1.674   5.530   7.742 -2.8849 -1.2385  0.5731
  143DOPC  H15B16911   1.609   5.572   7.590 -3.0874 -1.4263 -0.1455
  143DOPC  H15C16912   1.755   5.462   7.598 -1.3424  0.1084 -1.4148
  143DOPC   C1116913   1.663   5.294   7.410 -0.2485  0.1166 -0.3945
  143DOPC  H11A16914   1.635   5.275   7.304  0.9049 -1.7439 -0.4091
  143DOPC  H11B16915   1.726   5.385   7.422  0.2334 -0.3171  0.4588
  143DOPC     P16916   1.724   5.036   7.402  0.0329  0.1367 -0.1895
  143DOPC   O1316917   1.576   4.998   7.400  0.2814 -0.1414  0.0160
  143DOPC   O1416918   1.815   4.950   7.485 -0.0261 -0.2579  0.3822
  143DOPC   O1216919   1.738   5.183   7.458  0.6950 -0.4929  0.5041
  143DOPC   O1116920   1.786   5.049   7.255 -0.1123 -0.5249  0.0637
  143DOPC    C116921   1.901   5.130   7.222  0.0183  0.5836 -0.2408
  143DOPC    HA16922   1.983   5.089   7.284  2.1355  2.4053 -1.6919
  143DOPC    HB16923   1.905   5.238   7.251  0.7146  0.5742 -0.2938
  143DOPC    C216924   1.948   5.103   7.078  0.2060  0.0014  0.0285
  143DOPC    HS16925   2.037   5.167   7.057  1.6442 -1.8480  0.2353
  143DOPC   O2116926   1.851   5.126   6.975 -0.0490 -0.6947  0.1434
  143DOPC   C2116927   1.804   5.245   6.964 -0.3865 -0.1607  0.0131
  143DOPC   O2216928   1.843   5.344   7.026 -0.1393 -0.5961 -0.1572
  143DOPC   C2216929   1.672   5.251   6.874  0.2363  0.9656 -0.6354
  143DOPC   H2R16930   1.587   5.258   6.945  0.8573 -1.4726  0.4756
  143DOPC   H2S16931   1.659   5.160   6.812  1.2843  0.4436 -0.1129
  143DOPC    C316932   2.010   4.965   7.060  0.0119  0.9410  1.3873
  143DOPC    HX16933   1.932   4.892   7.094  1.7742 -2.0189 -0.4502
  143DOPC    HY16934   2.097   4.963   7.128 -0.0079 -0.0935  1.3964
  143DOPC   O3116935   2.050   4.936   6.921  0.2365  0.6844  0.3750
  143DOPC   C3116936   1.962   4.868   6.845 -0.1559 -0.2784  0.3005
  143DOPC   O3216937   1.871   4.803   6.883  0.0852  0.3086 -0.0081
  143DOPC   C3216938   2.023   4.858   6.709  0.1571 -0.6147  1.3346
  143DOPC   H2X16939   2.132   4.841   6.717  0.5506  1.0073  0.0505
  143DOPC   H2Y16940   1.980   4.765   6.667 -0.6698 -0.2056  1.2392
  143DOPC   C2316941   1.663   5.376   6.783  0.2059  0.5491  0.2283
  143DOPC   H3R16942   1.717   5.463   6.824 -0.9314  1.1398  0.5279
  143DOPC   H3S16943   1.560   5.410   6.757  0.2617  1.0330  0.6252
  143DOPC   C2416944   1.743   5.354   6.654  0.5127  0.0287 -0.4705
  143DOPC   H4R16945   1.690   5.293   6.577 -1.4421  0.6045  0.3565
  143DOPC   H4S16946   1.842   5.312   6.683 -0.0575  0.2405  1.9998
  143DOPC   C2516947   1.774   5.488   6.586 -0.4542 -0.6492  0.1023
  143DOPC   H5R16948   1.846   5.533   6.658  0.3365  0.3966 -1.2725
  143DOPC   H5S16949   1.686   5.556   6.591 -1.0665 -1.1204 -2.5520
  143DOPC   C2616950   1.844   5.490   6.448  0.7985 -0.1012 -0.3108
  143DOPC   H6R16951   1.771   5.432   6.386  0.7656  0.1643 -0.5212
  143DOPC   H6S16952   1.942   5.438   6.442  1.3477  0.6184  1.6619
  143DOPC   C2716953   1.854   5.638   6.392  0.4118 -0.3038  0.3984
  143DOPC   H7R16954   1.917   5.695   6.464  2.0253 -2.2845  0.6521
  143DOPC   H7S16955   1.752   5.682   6.391 -0.3948 -2.0914 -0.4481
  143DOPC   C2816956   1.930   5.648   6.255 -0.5007  0.1114  0.3429
  143DOPC   H8R16957   2.020   5.584   6.251  0.7439  1.8503 -2.4828
  143DOPC   H8S16958   1.955   5.754   6.234 -1.6082  0.7487  1.9639
  143DOPC   C2916959   1.836   5.596   6.147  0.0299 -0.9653 -0.3365
  143DOPC   H9R16960   1.774   5.510   6.178 -0.4582 -0.6145 -0.3365
  143DOPC  C21016961   1.824   5.634   6.020  0.0179  0.2507  0.0809
  143DOPC  H10R16962   1.764   5.575   5.949  0.6012 -0.3137  0.0483
  143DOPC  C21116963   1.901   5.748   5.953 -0.3369  0.4661 -0.1452
  143DOPC  H11R16964   1.991   5.772   6.013 -1.1879 -0.6662  1.6893
  143DOPC  H11S16965   1.839   5.840   5.952 -0.8940  0.0982 -0.4206
  143DOPC  C21216966   1.922   5.708   5.805 -0.2683 -0.0618  0.8273
  143DOPC  H12R16967   1.820   5.704   5.761 -0.1758 -1.4789  0.6895
  143DOPC  H12S16968   1.973   5.611   5.790  1.4909  0.6219  2.0041
  143DOPC  C21316969   2.008   5.809   5.725  0.3514 -0.0947 -0.2222
  143DOPC  H13R16970   2.113   5.816   5.760  0.1377  2.2067  0.0933
  143DOPC  H13S16971   1.960   5.908   5.734 -0.8383 -0.5462 -1.2503
  143DOPC  C21416972   2.017   5.773   5.572  0.5134 -0.1855 -0.4097
  143DOPC  H14R16973   1.910   5.771   5.542 -0.5522  2.2227  2.6231
  143DOPC  H14S16974   2.041   5.665   5.564 -1.3337 -0.6488 -0.3458
  143DOPC  C21516975   2.105   5.859   5.490  0.0935 -0.1958  0.4973
  143DOPC  H15R16976   2.118   5.816   5.388  0.6673 -1.7525  1.1861
  143DOPC  H15S16977   2.206   5.837   5.532 -0.4764 -2.1324  0.9736
  143DOPC  C21616978   2.085   6.010   5.476  0.5741 -0.2582  0.6615
  143DOPC  H16R16979   2.149   6.058   5.400 -0.7599  0.3556 -0.1083
  143DOPC  H16S16980   2.104   6.045   5.580  1.2851  1.2300  0.0384
  143DOPC  C21716981   1.939   6.048   5.455 -0.0489  0.4417 -0.1808
  143DOPC  H17R16982   1.918   6.144   5.506  1.0158  0.5493  0.0761
  143DOPC  H17S16983   1.869   5.979   5.508 -0.4444  0.2368 -0.9541
  143DOPC  C21816984   1.893   6.059   5.312 -0.3355  0.0613  0.4744
  143DOPC  H18R16985   1.895   5.957   5.266 -1.2791  0.6364 -0.9012
  143DOPC  H18S16986   1.967   6.127   5.265 -0.1648 -0.9318 -0.7443
  143DOPC  H18T16987   1.794   6.110   5.317  1.0449  2.7647  2.7042
  143DOPC   C3316988   1.977   4.980   6.627 -0.6253 -0.2379 -0.1633
  143DOPC   H3X16989   2.003   5.074   6.680 -0.5103  0.2090 -0.9956
  143DOPC   H3Y16990   1.867   4.990   6.610 -0.6105 -0.2831 -0.2903
  143DOPC   C3416991   2.058   4.991   6.497 -0.1719 -0.2099 -0.1987
  143DOPC   H4X16992   2.029   4.918   6.418  0.9217  0.9601 -1.7312
  143DOPC   H4Y16993   2.165   4.978   6.520  0.7653  2.3423 -2.5818
  143DOPC   C3516994   2.022   5.121   6.415  0.5766  0.6163  0.2710
  143DOPC   H5X16995   2.013   5.212   6.478  0.8909  0.9040 -0.0919
  143DOPC   H5Y16996   1.925   5.118   6.361 -0.2851 -0.9185  1.8149
  143DOPC   C3616997   2.124   5.143   6.301 -0.1654 -0.5601 -0.0686
  143DOPC   H6X16998   2.231   5.146   6.334  0.2187  2.7884 -1.1997
  143DOPC   H6Y16999   2.115   5.054   6.236  1.4616  0.1181 -1.2915
  143DOPC   C3717000   2.105   5.272   6.223  0.5677 -0.2637  0.3366
  143DOPC   H7X17001   1.995   5.260   6.213  0.5859 -0.4493  0.3555
  143DOPC   H7Y17002   2.133   5.369   6.269 -0.0908  0.4442 -0.7103
  143DOPC   C3817003   2.174   5.273   6.089  0.0979  0.1350 -0.1171
  143DOPC   H8X17004   2.153   5.173   6.047 -2.7098  0.8749 -0.7140
  143DOPC   H8Y17005   2.278   5.311   6.102 -0.2197  1.3533 -0.9971
  143DOPC   C3917006   2.111   5.360   5.975  0.3670  0.2700  0.4920
  143DOPC   H9X17007   2.039   5.435   6.009 -0.0770 -0.0939  0.3703
  143DOPC  C31017008   2.111   5.338   5.847 -1.0586  0.1804  0.0023
  143DOPC  H10X17009   2.050   5.406   5.786 -1.6780  0.8096  1.2992
  143DOPC  C31117010   2.190   5.234   5.768 -0.0551  0.1431  0.1710
  143DOPC  H11X17011   2.123   5.150   5.739  0.1616 -0.0238  0.1448
  143DOPC  H11Y17012   2.279   5.186   5.815 -0.7705 -0.9889  0.4288
  143DOPC  C31217013   2.240   5.292   5.634 -0.2516 -0.5042  0.1733
  143DOPC  H12X17014   2.286   5.205   5.581  0.6503 -0.3069  0.6144
  143DOPC  H12Y17015   2.327   5.356   5.660  0.3637 -1.9142  1.7959
  143DOPC  C31317016   2.139   5.354   5.537  0.4023  0.5433  0.1258
  143DOPC  H13X17017   2.054   5.282   5.543 -0.3640  1.2245 -1.7745
  143DOPC  H13Y17018   2.106   5.456   5.566  3.3645  1.5389  0.3504
  143DOPC  C31417019   2.182   5.343   5.387 -0.7058  0.1379 -0.0158
  143DOPC  H14X17020   2.284   5.379   5.365 -0.3937  0.4596  1.8327
  143DOPC  H14Y17021   2.171   5.234   5.366  4.0866 -0.5439 -0.1058
  143DOPC  C31517022   2.076   5.402   5.293 -0.0326  0.0221 -0.1084
  143DOPC  H15X17023   1.979   5.383   5.342 -0.3709  1.1024 -0.3259
  143DOPC  H15Y17024   2.087   5.341   5.201 -0.4157 -3.0566  1.7618
  143DOPC  C31617025   2.088   5.556   5.258 -0.4793  0.2046 -0.5559
  143DOPC  H16X17026   2.061   5.621   5.345 -0.5573 -1.2706  0.5550
  143DOPC  H16Y17027   2.185   5.578   5.209  1.5051 -3.6330  1.1910
  143DOPC  C31717028   1.986   5.589   5.154 -0.7453  0.2372  0.4884
  143DOPC  H17X17029   1.976   5.699   5.146 -0.5741  0.2925  0.9800
  143DOPC  H17Y17030   2.019   5.550   5.056  1.2009 -0.3454  1.3330
  143DOPC  C31817031   1.847   5.537   5.179  0.6482  0.1753 -0.1577
  143DOPC  H18X17032   1.771   5.573   5.106  0.5042 -1.9562 -1.1305
  143DOPC  H18Y17033   1.840   5.426   5.172 -0.5391  0.3353 -2.8708
  143DOPC  H18Z17034   1.821   5.567   5.282  0.4322 -0.2987 -0.0739
  144DOPC     N17035   2.048   2.079   7.022  0.6289  0.1642  0.1071
  144DOPC   C1217036   2.141   2.060   7.135  0.2943 -0.0469 -0.2416
  144DOPC  H12A17037   2.235   2.032   7.091  0.7916  2.3931 -0.8642
  144DOPC  H12B17038   2.123   1.972   7.196  3.9997  0.1257  1.3486
  144DOPC   C1317039   2.075   2.195   6.929  0.4093 -0.2034  0.3142
  144DOPC  H13A17040   2.076   2.281   6.995  3.1991  0.2936 -0.2496
  144DOPC  H13B17041   2.173   2.180   6.888  0.2531 -0.0221 -0.1331
  144DOPC  H13C17042   2.015   2.200   6.839  2.9248  0.9545 -1.3974
  144DOPC   C1417043   1.904   2.100   7.063  0.5386 -0.0484 -0.4076
  144DOPC  H14A17044   1.851   2.140   6.977 -1.4358  0.5344  1.0161
  144DOPC  H14B17045   1.850   2.010   7.090  0.3082 -0.0386 -0.8288
  144DOPC  H14C17046   1.903   2.171   7.144 -0.3394  1.5759 -1.7781
  144DOPC   C1517047   2.038   1.956   6.939 -0.8087 -0.6810  0.1781
  144DOPC  H15A17048   2.131   1.925   6.894 -0.8847 -0.4578 -0.1351
  144DOPC  H15B17049   1.968   1.971   6.858 -1.2296  1.6992  0.9090
  144DOPC  H15C17050   2.009   1.865   6.990  0.5153 -1.2819 -0.0929
  144DOPC   C1117051   2.160   2.179   7.236  0.6676  0.3121  0.6458
  144DOPC  H11A17052   2.065   2.193   7.291 -0.1093  0.3791 -0.6742
  144DOPC  H11B17053   2.234   2.133   7.305 -1.4360  0.2084  2.9734
  144DOPC     P17054   2.317   2.376   7.228  0.0790  0.2273  0.1598
  144DOPC   O1317055   2.439   2.287   7.218  0.7113  0.6494  0.3196
  144DOPC   O1417056   2.287   2.435   7.355  0.2200  0.0126  0.1649
  144DOPC   O1217057   2.194   2.303   7.172  0.1644 -0.2105 -0.2697
  144DOPC   O1117058   2.340   2.491   7.120  0.0294  0.3053  0.2702
  144DOPC    C117059   2.360   2.453   6.987  0.6907  0.1638 -0.2444
  144DOPC    HA17060   2.262   2.449   6.935 -0.1544 -1.1403  1.3561
  144DOPC    HB17061   2.414   2.357   6.974 -0.6108 -0.8414  1.5526
  144DOPC    C217062   2.444   2.561   6.910  0.3371 -0.4294  0.1800
  144DOPC    HS17063   2.400   2.659   6.936 -1.6651 -1.6775  1.8843
  144DOPC   O2117064   2.420   2.527   6.773  0.0012  0.6478 -0.1486
  144DOPC   C2117065   2.424   2.637   6.694 -0.5001  0.3807  1.0419
  144DOPC   O2217066   2.442   2.747   6.736  0.1568 -0.2215 -0.1138
  144DOPC   C2217067   2.414   2.605   6.546  0.8357  0.3847 -0.2886
  144DOPC   H2R17068   2.327   2.538   6.529  0.1413  0.5983  2.0746
  144DOPC   H2S17069   2.506   2.549   6.518  0.8958  0.8768 -1.1242
  144DOPC    C317070   2.590   2.561   6.955 -0.6725 -0.6880 -0.6010
  144DOPC    HX17071   2.629   2.461   6.926  3.4665  0.7668 -0.8082
  144DOPC    HY17072   2.589   2.569   7.065 -0.9811 -0.2326 -0.6328
  144DOPC   O3117073   2.666   2.654   6.876  0.0703 -0.2037  0.5733
  144DOPC   C3117074   2.739   2.737   6.939  0.3101  0.6509  0.7153
  144DOPC   O3217075   2.767   2.731   7.057  0.6155 -0.1185  0.6752
  144DOPC   C3217076   2.781   2.849   6.842  0.4827 -0.9253 -0.3536
  144DOPC   H2X17077   2.690   2.912   6.839  0.0974 -1.2292  2.2342
  144DOPC   H2Y17078   2.850   2.926   6.883 -1.8443  2.6199 -2.5933
  144DOPC   C2317079   2.390   2.728   6.448  0.8602  0.0569 -0.7334
  144DOPC   H3R17080   2.467   2.808   6.455 -0.7091  1.7455 -1.9285
  144DOPC   H3S17081   2.287   2.766   6.460  0.3314 -0.8685 -2.1112
  144DOPC   C2417082   2.398   2.680   6.299 -0.2538 -0.0107 -0.2396
  144DOPC   H4R17083   2.318   2.608   6.273 -0.0335 -0.5070  0.4184
  144DOPC   H4S17084   2.491   2.619   6.295 -0.2786 -0.4880  3.3100
  144DOPC   C2517085   2.411   2.800   6.212 -0.4780 -0.4667 -0.0146
  144DOPC   H5R17086   2.492   2.860   6.258  0.0909 -0.7633 -0.6133
  144DOPC   H5S17087   2.326   2.871   6.214  0.1032  0.2370  1.4028
  144DOPC   C2617088   2.430   2.761   6.064  0.2612 -0.0378 -0.0380
  144DOPC   H6R17089   2.451   2.852   6.003  1.5362  0.2535  0.7839
  144DOPC   H6S17090   2.338   2.712   6.029 -0.4138  0.2422  1.2658
  144DOPC   C2717091   2.547   2.672   6.038  0.1907 -0.1776  0.3349
  144DOPC   H7R17092   2.545   2.570   6.082 -0.6444 -0.5913 -0.6287
  144DOPC   H7S17093   2.636   2.717   6.087  0.3142 -0.7004  0.5975
  144DOPC   C2817094   2.572   2.661   5.888  0.2772 -0.2386  0.3250
  144DOPC   H8R17095   2.673   2.620   5.867 -0.2912 -0.6029 -2.0569
  144DOPC   H8S17096   2.571   2.761   5.839  0.4364 -0.6187 -0.4626
  144DOPC   C2917097   2.470   2.571   5.816 -0.0786  0.2750  0.6240
  144DOPC   H9R17098   2.486   2.465   5.838 -2.4803  0.1657  2.3065
  144DOPC  C21017099   2.370   2.597   5.740  0.4299 -0.0431  0.2287
  144DOPC  H10R17100   2.304   2.513   5.714  1.3140 -0.7724  0.2851
  144DOPC  C21117101   2.341   2.738   5.698 -0.0239 -0.0623  0.1186
  144DOPC  H11R17102   2.430   2.800   5.677 -0.3379 -0.0684 -1.3092
  144DOPC  H11S17103   2.283   2.796   5.773 -0.0325  1.2560 -0.8781
  144DOPC  C21217104   2.278   2.730   5.559 -0.3334 -0.6774 -0.2273
  144DOPC  H12R17105   2.169   2.705   5.562 -0.2709 -1.1008 -1.0313
  144DOPC  H12S17106   2.327   2.650   5.499  1.2053 -0.1974  0.3459
  144DOPC  C21317107   2.277   2.861   5.489  0.1583 -0.0948 -0.1960
  144DOPC  H13R17108   2.381   2.889   5.464 -0.3779  2.3049  0.0548
  144DOPC  H13S17109   2.243   2.950   5.545 -0.3382 -0.6010  0.3300
  144DOPC  C21417110   2.190   2.865   5.356 -0.3439  1.0206  0.5991
  144DOPC  H14R17111   2.213   2.956   5.296  2.4211  0.2766  0.3661
  144DOPC  H14S17112   2.085   2.862   5.391 -0.2430 -0.1136  0.8352
  144DOPC  C21517113   2.229   2.748   5.258  0.3121 -0.0810 -0.6472
  144DOPC  H15R17114   2.155   2.761   5.176 -1.8646 -0.0533  1.1985
  144DOPC  H15S17115   2.206   2.653   5.313  2.3131 -1.0835 -1.4474
  144DOPC  C21617116   2.373   2.750   5.201  0.0142  0.4787  0.1907
  144DOPC  H16R17117   2.446   2.729   5.282 -0.4060  0.9674  0.7098
  144DOPC  H16S17118   2.388   2.850   5.155 -2.3979 -0.5868 -3.2783
  144DOPC  C21717119   2.407   2.651   5.080  0.3584 -1.3023 -0.0254
  144DOPC  H17R17120   2.332   2.660   4.998  2.1218 -1.3198 -1.7061
  144DOPC  H17S17121   2.415   2.546   5.114  2.8150 -1.5436 -1.1539
  144DOPC  C21817122   2.541   2.677   5.016 -0.3467  0.0047 -0.7764
  144DOPC  H18R17123   2.549   2.607   4.931  1.4377 -3.5785  2.0388
  144DOPC  H18S17124   2.624   2.649   5.084  1.0393  1.4661 -1.7867
  144DOPC  H18T17125   2.551   2.781   4.980  1.8363  0.4472  0.8797
  144DOPC   C3317126   2.823   2.800   6.700 -0.6315  0.0275 -0.1297
  144DOPC   H3X17127   2.741   2.736   6.659 -1.7402  2.0686 -1.3013
  144DOPC   H3Y17128   2.919   2.744   6.707  0.5620  1.7534 -1.8155
  144DOPC   C3417129   2.854   2.912   6.600  0.7105 -0.4148  0.4254
  144DOPC   H4X17130   2.888   2.858   6.509  1.9014 -2.0375  1.7702
  144DOPC   H4Y17131   2.934   2.969   6.653 -0.2415 -0.8803  2.4666
  144DOPC   C3517132   2.733   3.008   6.572  0.1797  0.6813 -0.3480
  144DOPC   H5X17133   2.721   3.063   6.668  1.3540 -1.0379  0.8508
  144DOPC   H5Y17134   2.642   2.946   6.561  0.4737  0.6588 -3.2757
  144DOPC   C3617135   2.743   3.112   6.452 -0.2195 -1.2225 -0.9742
  144DOPC   H6X17136   2.667   3.192   6.463  2.1609  0.9872  0.9471
  144DOPC   H6Y17137   2.834   3.172   6.473 -1.1476  0.5070 -1.7061
  144DOPC   C3717138   2.743   3.057   6.311 -0.3088 -0.3684  0.3078
  144DOPC   H7X17139   2.839   3.004   6.290  0.9670  1.9076  0.0713
  144DOPC   H7Y17140   2.658   2.986   6.311  0.7545 -1.6797  0.4493
  144DOPC   C3817141   2.724   3.167   6.203 -0.2591  0.1631  0.7820
  144DOPC   H8X17142   2.635   3.223   6.238 -0.3542 -1.2922  3.0981
  144DOPC   H8Y17143   2.714   3.122   6.102  1.0732  0.9115  0.2846
  144DOPC   C3917144   2.846   3.259   6.188  0.0152  0.7325 -0.2216
  144DOPC   H9X17145   2.934   3.244   6.253  0.5649 -2.1178 -1.4865
  144DOPC  C31017146   2.855   3.356   6.100 -0.6601  0.6408  0.2921
  144DOPC  H10X17147   2.953   3.405   6.102  0.1919 -0.9788 -0.0520
  144DOPC  C31117148   2.747   3.398   6.001 -0.2221  0.0167 -0.6959
  144DOPC  H11X17149   2.722   3.505   6.015 -0.4035  0.4334 -3.6306
  144DOPC  H11Y17150   2.655   3.337   6.006 -1.0763  1.3136  0.0021
  144DOPC  C31217151   2.796   3.382   5.858  0.2835 -0.6603  0.3873
  144DOPC  H12X17152   2.712   3.415   5.792  0.2200  1.2778  1.3529
  144DOPC  H12Y17153   2.818   3.279   5.824 -2.8591 -0.8827 -1.3852
  144DOPC  C31317154   2.898   3.491   5.813 -0.5174 -0.6793 -0.7211
  144DOPC  H13X17155   2.865   3.597   5.822  3.0729  0.7848 -2.8673
  144DOPC  H13Y17156   2.989   3.486   5.876 -1.6998  0.9865  1.2543
  144DOPC  C31417157   2.935   3.468   5.670  0.0488 -0.3016 -0.2537
  144DOPC  H14X17158   2.930   3.363   5.635 -1.5660 -0.1955 -0.4061
  144DOPC  H14Y17159   2.852   3.510   5.609 -1.2614 -3.0467 -0.4954
  144DOPC  C31517160   3.068   3.534   5.628  0.1296  0.9732  0.1267
  144DOPC  H15X17161   3.144   3.494   5.699  1.0392  0.9614 -0.8203
  144DOPC  H15Y17162   3.058   3.642   5.649  0.6786  1.0123  0.2167
  144DOPC  C31617163   3.111   3.501   5.489  0.4490 -0.0866  0.6372
  144DOPC  H16X17164   3.111   3.390   5.477  0.1755 -0.1899  1.5309
  144DOPC  H16Y17165   3.043   3.546   5.414 -0.6194 -1.2076  0.9041
  144DOPC  C31717166   3.260   3.541   5.464 -1.1568 -0.1357  0.4321
  144DOPC  H17X17167   3.261   3.651   5.451  0.9293 -0.2285 -0.6948
  144DOPC  H17Y17168   3.320   3.512   5.553 -2.4992  1.3076  1.8702
  144DOPC  C31817169   3.320   3.478   5.338 -0.3220  0.5039  0.4928
  144DOPC  H18X17170   3.260   3.506   5.250 -0.0977  0.1145  0.2116
  144DOPC  H18Y17171   3.424   3.515   5.321  0.0857 -0.0605  1.5985
  144DOPC  H18Z17172   3.321   3.367   5.342  0.2945  0.4598 -0.5675
  145DOPC     N17173   3.666   6.450   7.096 -0.1733 -0.4451  0.1006
  145DOPC   C1217174   3.595   6.341   7.175 -0.1936 -0.0056  0.0476
  145DOPC  H12A17175   3.491   6.371   7.178 -0.6352 -1.5653  1.2192
  145DOPC  H12B17176   3.630   6.348   7.276 -2.4667  2.4714  0.7893
  145DOPC   C1317177   3.587   6.486   6.971 -0.1789 -0.0016  0.2289
  145DOPC  H13A17178   3.587   6.398   6.908  0.3287 -1.3035  1.9651
  145DOPC  H13B17179   3.483   6.512   6.983 -1.5312 -4.5612  0.5066
  145DOPC  H13C17180   3.636   6.569   6.923  0.2927 -0.2703  0.2364
  145DOPC   C1417181   3.806   6.411   7.064  0.0178 -0.4154 -0.0888
  145DOPC  H14A17182   3.807   6.313   7.018 -0.9289  0.5114 -2.2459
  145DOPC  H14B17183   3.844   6.476   6.987 -0.7887 -1.1970 -1.1771
  145DOPC  H14C17184   3.871   6.410   7.150  0.8744  1.6905 -0.6490
  145DOPC   C1517185   3.672   6.581   7.179 -0.4641  0.4958  0.5047
  145DOPC  H15A17186   3.576   6.630   7.190 -0.2578  1.3021 -1.0654
  145DOPC  H15B17187   3.730   6.646   7.116  1.7460  0.3278  2.2717
  145DOPC  H15C17188   3.724   6.578   7.273 -1.2434  0.0378  0.9311
  145DOPC   C1117189   3.598   6.197   7.115  0.3186 -0.2323  0.0339
  145DOPC  H11A17190   3.522   6.138   7.170  0.2245 -0.0653  0.0840
  145DOPC  H11B17191   3.565   6.194   7.009  0.1045 -2.4899  0.1211
  145DOPC     P17192   3.739   5.980   7.146 -0.2604  0.2868 -0.2233
  145DOPC   O1317193   3.674   5.938   7.269  0.1800 -0.3550  0.1911
  145DOPC   O1417194   3.886   5.943   7.137 -0.2303  0.2321  0.0259
  145DOPC   O1217195   3.727   6.142   7.139 -0.0083  0.2853  0.3917
  145DOPC   O1117196   3.665   5.935   7.020 -0.0253  0.1228 -0.0746
  145DOPC    C117197   3.665   5.795   6.992  0.1582  0.3002  0.0747
  145DOPC    HA17198   3.585   5.740   7.045 -2.7937  1.4734 -2.8585
  145DOPC    HB17199   3.767   5.760   7.019  0.1299  1.0461  1.2372
  145DOPC    C217200   3.648   5.776   6.833  0.6062  0.6945  0.2444
  145DOPC    HS17201   3.658   5.668   6.811 -1.2266  0.9469 -2.2913
  145DOPC   O2117202   3.739   5.850   6.749 -0.0555 -0.2399 -0.0378
  145DOPC   C2117203   3.864   5.831   6.761  0.1500  0.0452 -0.1228
  145DOPC   O2217204   3.919   5.744   6.830 -0.7296 -0.3614  0.5086
  145DOPC   C2217205   3.934   5.920   6.657  0.2475 -0.1380  0.2837
  145DOPC   H2R17206   3.934   6.028   6.685  0.7372 -0.2899  0.8939
  145DOPC   H2S17207   3.873   5.908   6.565  1.2468  0.4395 -0.4794
  145DOPC    C317208   3.505   5.815   6.791  0.3571 -0.4054  0.1432
  145DOPC    HX17209   3.491   5.919   6.825 -0.9745 -0.9800  1.4544
  145DOPC    HY17210   3.443   5.746   6.852  0.0669  0.9541  1.4273
  145DOPC   O3117211   3.480   5.806   6.645 -0.0459  0.0798 -0.1675
  145DOPC   C3117212   3.373   5.845   6.593 -0.4559  0.8938 -0.0622
  145DOPC   O3217213   3.280   5.898   6.657  0.1744 -0.2449 -0.5948
  145DOPC   C3217214   3.382   5.815   6.445  0.1976  0.8963  0.1488
  145DOPC   H2X17215   3.425   5.714   6.425 -0.4531  0.5927  0.2745
  145DOPC   H2Y17216   3.278   5.811   6.408  0.2082 -0.5810  0.2451
  145DOPC   C2317217   4.084   5.883   6.629  0.7404  0.0343 -0.3290
  145DOPC   H3R17218   4.097   5.774   6.642 -0.0455 -0.0765 -0.4366
  145DOPC   H3S17219   4.144   5.938   6.705  0.4368  1.1333 -0.8676
  145DOPC   C2417220   4.132   5.921   6.482 -0.5332 -0.7350  0.2339
  145DOPC   H4R17221   4.073   5.880   6.397 -0.2706  0.3332 -0.4843
  145DOPC   H4S17222   4.232   5.874   6.472  1.2338  3.0511 -2.0988
  145DOPC   C2517223   4.169   6.070   6.463 -0.5290 -0.1010 -0.3007
  145DOPC   H5R17224   4.211   6.103   6.560  0.1193 -0.5374 -0.4254
  145DOPC   H5S17225   4.074   6.125   6.450 -0.5209 -0.2571 -1.0569
  145DOPC   C2617226   4.266   6.095   6.343 -0.0003 -0.3691 -0.6011
  145DOPC   H6R17227   4.343   6.015   6.352 -2.4869 -2.7922  0.6024
  145DOPC   H6S17228   4.311   6.195   6.359 -1.9198  0.6740 -1.4211
  145DOPC   C2717229   4.206   6.082   6.205  0.7995 -0.0568  0.0466
  145DOPC   H7R17230   4.106   6.129   6.212  0.1622 -1.4111  0.4731
  145DOPC   H7S17231   4.201   5.974   6.178  0.3173 -0.5503  1.9405
  145DOPC   C2817232   4.284   6.174   6.109 -0.4729  0.7118 -0.7515
  145DOPC   H8R17233   4.388   6.135   6.102 -0.9195 -0.9957  1.2054
  145DOPC   H8S17234   4.286   6.274   6.157  0.2179  1.3825 -2.1182
  145DOPC   C2917235   4.218   6.177   5.977 -0.3909  0.2097  0.5018
  145DOPC   H9R17236   4.122   6.230   5.990 -0.7399 -0.0294 -0.8705
  145DOPC  C21017237   4.257   6.126   5.861  0.0751 -0.0092 -0.2131
  145DOPC  H10R17238   4.195   6.142   5.771 -1.7195 -1.1736  0.7607
  145DOPC  C21117239   4.371   6.031   5.847  0.7597 -0.0488  0.8294
  145DOPC  H11R17240   4.421   5.997   5.940  2.4539  0.9115  0.3224
  145DOPC  H11S17241   4.449   6.086   5.788  0.2167 -1.4818 -1.3419
  145DOPC  C21217242   4.336   5.896   5.777 -0.0559 -0.5412 -0.4245
  145DOPC  H12R17243   4.278   5.921   5.686 -1.3938 -0.0533  0.5268
  145DOPC  H12S17244   4.264   5.834   5.835  0.7650 -1.4747 -0.3802
  145DOPC  C21317245   4.460   5.814   5.737  0.5207  0.8069  0.2388
  145DOPC  H13R17246   4.499   5.753   5.820 -1.3347 -0.6009  0.1522
  145DOPC  H13S17247   4.535   5.892   5.714  0.7787  0.1779 -1.1393
  145DOPC  C21417248   4.436   5.730   5.611  0.4413  1.1354  0.6745
  145DOPC  H14R17249   4.417   5.785   5.516 -0.1162  0.0375  0.1235
  145DOPC  H14S17250   4.343   5.671   5.626  1.5241 -0.2780  2.2998
  145DOPC  C21517251   4.545   5.623   5.579  0.0016 -0.6700 -0.6651
  145DOPC  H15R17252   4.563   5.565   5.672  0.5500  0.5688  0.0283
  145DOPC  H15S17253   4.634   5.678   5.541 -0.7624  0.1777 -1.2424
  145DOPC  C21617254   4.501   5.517   5.480  0.8397 -0.0396  0.5432
  145DOPC  H16R17255   4.410   5.474   5.527 -1.3203  1.9015 -1.5793
  145DOPC  H16S17256   4.578   5.437   5.483  1.0970  0.1120 -1.0314
  145DOPC  C21717257   4.484   5.563   5.338 -0.4654  0.3421 -0.5130
  145DOPC  H17R17258   4.575   5.619   5.307 -0.2596  0.4086  0.1962
  145DOPC  H17S17259   4.406   5.641   5.326 -0.5089  0.2447 -0.8582
  145DOPC  C21817260   4.466   5.457   5.227 -0.0614  0.0482  0.5489
  145DOPC  H18R17261   4.362   5.418   5.221 -0.8668  1.8311  1.9626
  145DOPC  H18S17262   4.534   5.369   5.230 -0.1500 -0.1359 -1.6957
  145DOPC  H18T17263   4.495   5.503   5.130  2.1526  0.1612  1.2075
  145DOPC   C3317264   3.453   5.930   6.372 -0.3284  0.7357  0.3168
  145DOPC   H3X17265   3.556   5.948   6.409 -0.1421  2.0686 -0.7703
  145DOPC   H3Y17266   3.396   6.023   6.392  0.9634  1.8879 -1.0921
  145DOPC   C3417267   3.464   5.913   6.215  0.1651 -0.1369 -0.2822
  145DOPC   H4X17268   3.524   5.824   6.188 -2.1062 -1.4238 -1.4066
  145DOPC   H4Y17269   3.532   5.994   6.179  1.4019 -0.5610  1.0199
  145DOPC   C3517270   3.329   5.919   6.130 -0.1144 -0.2468  0.0805
  145DOPC   H5X17271   3.280   6.014   6.160  2.3065  1.2437 -0.4115
  145DOPC   H5Y17272   3.272   5.826   6.150 -2.1148  0.7948 -0.4597
  145DOPC   C3617273   3.361   5.923   5.982 -0.4621  0.4242  0.8129
  145DOPC   H6X17274   3.405   6.021   5.953  1.4128 -0.4599  0.5621
  145DOPC   H6Y17275   3.446   5.854   5.964  0.3354  1.5405  0.2146
  145DOPC   C3717276   3.241   5.878   5.893 -0.5913  0.2353  0.7477
  145DOPC   H7X17277   3.202   5.780   5.927 -0.5037  0.5110  1.6655
  145DOPC   H7Y17278   3.159   5.952   5.904 -1.1066 -0.4454  1.5419
  145DOPC   C3817279   3.282   5.876   5.740  0.2221  0.1393 -0.1402
  145DOPC   H8X17280   3.190   5.846   5.686  0.2856  0.2795 -0.3292
  145DOPC   H8Y17281   3.359   5.800   5.715  1.2325  1.7445 -2.2875
  145DOPC   C3917282   3.336   6.008   5.684  0.5968 -0.0027  0.5263
  145DOPC   H9X17283   3.266   6.093   5.680  2.1780  1.3220 -0.1783
  145DOPC  C31017284   3.457   6.037   5.629  0.7920  0.6591  0.3080
  145DOPC  H10X17285   3.476   6.133   5.579 -1.0396  1.8032  1.6680
  145DOPC  C31117286   3.560   5.931   5.615  0.3468 -0.0184 -0.1218
  145DOPC  H11X17287   3.591   5.885   5.711  1.6077  1.3012  0.1449
  145DOPC  H11Y17288   3.656   5.984   5.595  0.0564  0.0889 -1.3599
  145DOPC  C31217289   3.530   5.832   5.503 -0.3880  0.5864 -0.0281
  145DOPC  H12X17290   3.428   5.791   5.517 -0.5564  1.0470  0.0881
  145DOPC  H12Y17291   3.602   5.747   5.508  0.2581  1.1785  1.5492
  145DOPC  C31317292   3.529   5.894   5.361 -0.4790  0.1114  0.3857
  145DOPC  H13X17293   3.491   5.807   5.304  1.1849 -0.6566  0.3919
  145DOPC  H13Y17294   3.449   5.971   5.356 -1.1924 -0.5077  1.7551
  145DOPC  C31417295   3.658   5.958   5.319 -0.3206  0.3157 -0.2326
  145DOPC  H14X17296   3.676   6.041   5.392  1.5464 -0.6218  0.4249
  145DOPC  H14Y17297   3.750   5.895   5.322  0.9860  2.1501  1.4441
  145DOPC  C31517298   3.649   6.009   5.175 -0.0635  0.3369 -0.0261
  145DOPC  H15X17299   3.726   6.089   5.167  0.8328 -0.3289  1.3952
  145DOPC  H15Y17300   3.547   6.052   5.172 -0.5897 -0.8535  0.2741
  145DOPC  C31617301   3.657   5.890   5.076  0.2851  0.5109  0.4840
  145DOPC  H16X17302   3.751   5.837   5.105  0.2069  0.0849 -0.0163
  145DOPC  H16Y17303   3.572   5.819   5.088 -0.2347  0.7016 -1.6774
  145DOPC  C31717304   3.665   5.941   4.930  0.2312  0.7189  0.5144
  145DOPC  H17X17305   3.569   5.991   4.904 -0.6246 -0.7094  0.8068
  145DOPC  H17Y17306   3.741   6.022   4.935 -1.6162  2.5279  0.9177
  145DOPC  C31817307   3.694   5.834   4.828  0.4916  0.8091  0.1476
  145DOPC  H18X17308   3.699   5.882   4.728  0.9840 -1.7915 -1.1596
  145DOPC  H18Y17309   3.786   5.782   4.861 -0.0593 -0.5449 -0.3738
  145DOPC  H18Z17310   3.606   5.767   4.822  2.5808 -2.0556 -0.6428
  146DOPC     N17311   5.468   3.968   7.600 -0.3062 -0.5034 -0.4482
  146DOPC   C1217312   5.453   3.889   7.472 -0.2666  0.2721  0.4891
  146DOPC  H12A17313   5.516   3.802   7.474 -0.3156  0.1964 -0.5177
  146DOPC  H12B17314   5.488   3.949   7.390  1.4030 -0.3149  0.7442
  146DOPC   C1317315   5.615   3.972   7.641 -0.0374  0.2194 -0.1285
  146DOPC  H13A17316   5.646   3.876   7.679 -2.7733 -0.1544  1.3929
  146DOPC  H13B17317   5.675   3.989   7.553  1.5715 -0.3433  0.8116
  146DOPC  H13C17318   5.631   4.042   7.722 -0.5842 -1.8055  1.8456
  146DOPC   C1417319   5.395   3.905   7.711  0.0372  0.5271 -0.4201
  146DOPC  H14A17320   5.407   3.959   7.804 -0.0595  0.2248 -0.2287
  146DOPC  H14B17321   5.290   3.888   7.690  0.1928 -0.9711 -0.1415
  146DOPC  H14C17322   5.422   3.801   7.724 -3.8726 -0.9432 -2.4358
  146DOPC   C1517323   5.423   4.108   7.576  0.5504 -0.0261  0.6441
  146DOPC  H15A17324   5.466   4.154   7.489 -2.9278  1.4153 -0.4732
  146DOPC  H15B17325   5.426   4.168   7.665  1.6388  1.4935 -0.3722
  146DOPC  H15C17326   5.319   4.099   7.547  0.8936  0.9422 -0.9994
  146DOPC   C1117327   5.310   3.841   7.443  0.4494 -0.3924  0.4002
  146DOPC  H11A17328   5.311   3.769   7.359 -0.0420 -0.4842  0.4725
  146DOPC  H11B17329   5.267   3.773   7.520  0.9168  0.4349  1.4269
  146DOPC     P17330   5.232   4.025   7.280  0.0105 -0.2518  0.0356
  146DOPC   O1317331   5.359   3.989   7.214  0.0508 -0.1247  0.5061
  146DOPC   O1417332   5.190   4.170   7.286  0.1267  0.4160  0.3937
  146DOPC   O1217333   5.221   3.956   7.416 -0.6051  0.4274  0.5357
  146DOPC   O1117334   5.110   3.955   7.190 -0.1237  0.4440  0.1789
  146DOPC    C117335   5.122   3.978   7.042 -0.0686 -0.5090 -0.7104
  146DOPC    HA17336   5.183   3.896   7.001  1.5339  0.6026 -0.6149
  146DOPC    HB17337   5.176   4.073   7.023 -0.3414 -0.0608  0.6219
  146DOPC    C217338   4.984   3.984   6.973 -0.4935  0.5314  0.4370
  146DOPC    HS17339   4.929   3.898   7.017  0.8876 -0.1276  0.9308
  146DOPC   O2117340   5.000   3.960   6.833  0.3076 -0.0762  0.2966
  146DOPC   C2117341   4.890   3.915   6.773 -0.5847  0.1822  0.4463
  146DOPC   O2217342   4.781   3.902   6.826  0.3352 -0.3217  0.6154
  146DOPC   C2217343   4.911   3.854   6.635 -0.0659 -0.0631 -0.1641
  146DOPC   H2R17344   4.943   3.749   6.651  2.2741  0.2053 -2.5416
  146DOPC   H2S17345   4.984   3.922   6.587 -2.1758  0.7446 -2.4236
  146DOPC    C317346   4.895   4.107   6.999  0.3589  0.2559  0.2935
  146DOPC    HX17347   4.907   4.151   7.100  0.3038  1.1592 -0.0845
  146DOPC    HY17348   4.787   4.088   6.982  0.0857  1.5389  0.4288
  146DOPC   O3117349   4.928   4.211   6.902  0.4178 -0.3052 -0.5443
  146DOPC   C3117350   4.872   4.331   6.918  0.0771 -0.1766 -0.1685
  146DOPC   O3217351   4.790   4.361   7.009 -0.6428 -0.5679  0.8100
  146DOPC   C3217352   4.931   4.426   6.816  0.4800 -0.2437 -0.6051
  146DOPC   H2X17353   4.853   4.503   6.795  1.9010  0.5832 -3.3263
  146DOPC   H2Y17354   5.002   4.485   6.879 -1.4563  0.0144  1.4798
  146DOPC   C2317355   4.781   3.854   6.555  0.3460 -0.1335 -0.6976
  146DOPC   H3R17356   4.734   3.954   6.551  0.7682  0.0740 -0.4516
  146DOPC   H3S17357   4.712   3.782   6.604  1.3270 -1.4792 -1.2227
  146DOPC   C2417358   4.805   3.815   6.410  0.7063 -0.5875 -0.8162
  146DOPC   H4R17359   4.839   3.710   6.394  2.2780 -0.0726 -1.0259
  146DOPC   H4S17360   4.885   3.881   6.370  1.8283 -0.8590  0.9080
  146DOPC   C2517361   4.669   3.823   6.326 -0.1028 -0.3041 -0.0121
  146DOPC   H5R17362   4.634   3.926   6.303 -1.8010 -0.2769  2.3525
  146DOPC   H5S17363   4.591   3.773   6.388 -1.9712  1.7170 -0.5928
  146DOPC   C2617364   4.689   3.745   6.194  0.2538  0.5682 -0.8013
  146DOPC   H6R17365   4.734   3.645   6.211 -2.2567 -0.4799  0.1942
  146DOPC   H6S17366   4.749   3.817   6.135  1.8071 -0.5660 -0.6586
  146DOPC   C2717367   4.556   3.730   6.115  0.6908  0.0394 -0.6597
  146DOPC   H7R17368   4.500   3.826   6.108 -1.4463 -1.0607  0.5396
  146DOPC   H7S17369   4.493   3.666   6.179  0.6371  0.3644 -0.3878
  146DOPC   C2817370   4.574   3.670   5.979  0.2269  0.0573  0.5989
  146DOPC   H8R17371   4.608   3.565   5.989 -0.7293 -0.2336  0.8899
  146DOPC   H8S17372   4.650   3.737   5.932  1.7851 -2.1151 -0.1413
  146DOPC   C2917373   4.447   3.687   5.894 -0.4889  0.7141  0.2715
  146DOPC   H9R17374   4.405   3.789   5.894 -1.1451  0.4550  1.1691
  146DOPC  C21017375   4.381   3.583   5.842  0.0969  0.1111 -0.5247
  146DOPC  H10R17376   4.291   3.612   5.786 -1.0649  0.0085  1.2273
  146DOPC  C21117377   4.412   3.441   5.841  0.3823 -0.0044  0.2026
  146DOPC  H11R17378   4.323   3.384   5.873  0.3467 -0.0897 -0.0490
  146DOPC  H11S17379   4.496   3.420   5.911  0.8212  1.5847  0.2015
  146DOPC  C21217380   4.439   3.398   5.699  0.3137  0.6912  0.1642
  146DOPC  H12R17381   4.514   3.467   5.654 -1.1423  2.0896 -0.2070
  146DOPC  H12S17382   4.339   3.401   5.651 -0.8686 -0.2040  2.4528
  146DOPC  C21317383   4.500   3.257   5.707  0.5625 -0.2264  0.7234
  146DOPC  H13R17384   4.432   3.181   5.752 -0.5257  0.1488 -0.2353
  146DOPC  H13S17385   4.592   3.256   5.769  0.3539 -1.3219  1.0365
  146DOPC  C21417386   4.540   3.206   5.566  0.0863  0.7397  0.4959
  146DOPC  H14R17387   4.603   3.115   5.562 -0.8210  0.1358 -1.0146
  146DOPC  H14S17388   4.596   3.287   5.515  1.1368 -0.6941 -0.7219
  146DOPC  C21517389   4.413   3.152   5.490  0.0506  0.2789  0.3445
  146DOPC  H15R17390   4.325   3.219   5.491 -0.0522  0.1712 -0.5243
  146DOPC  H15S17391   4.377   3.053   5.522 -0.2218  0.0526 -0.6215
  146DOPC  C21617392   4.453   3.112   5.353  0.3029  1.2125  0.3951
  146DOPC  H16R17393   4.523   3.026   5.340 -1.9563 -0.4912 -1.4854
  146DOPC  H16S17394   4.508   3.201   5.315  0.6214 -0.3535 -3.2414
  146DOPC  C21717395   4.338   3.085   5.250 -0.7816  0.0390  0.4043
  146DOPC  H17R17396   4.379   3.074   5.147  0.9013  0.5658  0.9837
  146DOPC  H17S17397   4.263   3.167   5.242  0.2647  1.0394  0.4091
  146DOPC  C21817398   4.270   2.947   5.283 -0.4328  0.0252 -0.0730
  146DOPC  H18R17399   4.343   2.866   5.302 -2.1049 -2.4944 -3.3962
  146DOPC  H18S17400   4.216   2.920   5.189 -0.4418  1.9440 -0.6644
  146DOPC  H18T17401   4.195   2.951   5.366  0.2681 -0.4271  0.5897
  146DOPC   C3317402   5.000   4.369   6.686  0.4455  0.8567 -0.2888
  146DOPC   H3X17403   5.079   4.296   6.714  1.4410  2.0679  0.1615
  146DOPC   H3Y17404   5.053   4.452   6.635  1.8462 -1.1946 -2.3736
  146DOPC   C3417405   4.910   4.306   6.580  0.1210 -0.7027  0.3449
  146DOPC   H4X17406   4.835   4.383   6.553  0.1775 -0.8780 -0.3361
  146DOPC   H4Y17407   4.853   4.218   6.617  1.3827 -0.8810  1.9771
  146DOPC   C3517408   4.985   4.273   6.448 -0.5516 -0.7269 -0.1073
  146DOPC   H5X17409   5.054   4.187   6.460 -0.5863 -0.6893  0.3506
  146DOPC   H5Y17410   5.053   4.356   6.418  1.8808 -1.7977  2.0910
  146DOPC   C3617411   4.886   4.233   6.340 -0.7564 -0.2382  0.3904
  146DOPC   H6X17412   4.815   4.153   6.371 -1.5015  0.3257  0.1716
  146DOPC   H6Y17413   4.828   4.325   6.317 -0.3488 -0.0720 -0.0016
  146DOPC   C3717414   4.959   4.191   6.209 -0.9006 -0.1792 -0.2245
  146DOPC   H7X17415   5.025   4.278   6.190  0.0453 -0.3763  1.8733
  146DOPC   H7Y17416   5.020   4.101   6.232 -0.7395 -0.2882 -1.0661
  146DOPC   C3817417   4.865   4.157   6.100  0.0497 -0.2054 -0.0054
  146DOPC   H8X17418   4.787   4.234   6.083  0.2613 -0.2588 -1.4192
  146DOPC   H8Y17419   4.815   4.060   6.122  0.2941 -0.3585 -0.1212
  146DOPC   C3917420   4.940   4.160   5.969  0.7943 -0.9550 -0.1668
  146DOPC   H9X17421   5.023   4.233   5.968  0.7118 -0.8286 -2.0104
  146DOPC  C31017422   4.909   4.102   5.852 -0.5330  0.0412 -0.2965
  146DOPC  H10X17423   4.977   4.114   5.766 -0.1589 -2.9859 -0.5230
  146DOPC  C31117424   4.793   4.008   5.837 -0.2752  0.8600  0.5254
  146DOPC  H11X17425   4.712   4.024   5.910 -0.6255  0.7391  0.1663
  146DOPC  H11Y17426   4.824   3.902   5.846 -1.5735  0.3376 -0.7845
  146DOPC  C31217427   4.727   4.017   5.695  0.5114 -0.0847 -0.2498
  146DOPC  H12X17428   4.792   3.983   5.612  0.2444  2.1985 -1.4853
  146DOPC  H12Y17429   4.686   4.119   5.677 -1.0050 -0.7747 -0.9497
  146DOPC  C31317430   4.599   3.935   5.683  0.0203 -0.1281 -0.0289
  146DOPC  H13X17431   4.624   3.831   5.715  0.4595 -0.7185 -2.1219
  146DOPC  H13Y17432   4.529   3.985   5.754  0.3326  1.4390 -0.7890
  146DOPC  C31417433   4.547   3.929   5.540  0.4187  0.1384 -0.1605
  146DOPC  H14X17434   4.531   4.033   5.506  0.1816 -0.2488 -1.2790
  146DOPC  H14Y17435   4.615   3.876   5.470 -0.1181  0.3015 -0.8167
  146DOPC  C31517436   4.408   3.854   5.525 -0.1094 -1.1903 -0.2038
  146DOPC  H15X17437   4.323   3.902   5.578  0.1443  0.9926 -1.6275
  146DOPC  H15Y17438   4.422   3.750   5.562 -2.5566 -2.1935 -1.8150
  146DOPC  C31617439   4.370   3.853   5.373 -0.3589 -0.4906 -0.2913
  146DOPC  H16X17440   4.343   3.952   5.328  1.7409 -0.5199 -1.7588
  146DOPC  H16Y17441   4.454   3.822   5.307  0.7253  2.5723 -0.5370
  146DOPC  C31717442   4.245   3.766   5.343  0.1339 -0.1454  0.1767
  146DOPC  H17X17443   4.147   3.817   5.355 -0.9890 -1.7365 -1.5896
  146DOPC  H17Y17444   4.246   3.749   5.233  0.1384  1.0645 -0.0195
  146DOPC  C31817445   4.221   3.620   5.391 -0.2428 -0.2976 -0.2324
  146DOPC  H18X17446   4.317   3.565   5.389 -0.6043 -0.9898  0.8328
  146DOPC  H18Y17447   4.179   3.619   5.494  1.5977 -1.5011  0.5633
  146DOPC  H18Z17448   4.159   3.558   5.323 -1.4689  1.3599 -0.6933
  147DOPC     N17449   2.170   3.891   7.260 -0.4261  0.2698  0.1870
  147DOPC   C1217450   2.165   3.827   7.126  0.2674  0.0882 -0.3141
  147DOPC  H12A17451   2.223   3.736   7.124 -1.5402 -1.1727 -3.5186
  147DOPC  H12B17452   2.208   3.889   7.050  0.5389 -2.3119 -2.2613
  147DOPC   C1317453   2.134   3.783   7.362 -0.0765  0.0953  0.1878
  147DOPC  H13A17454   2.046   3.724   7.342 -0.9618  1.9412 -1.7126
  147DOPC  H13B17455   2.211   3.708   7.364 -0.4943 -0.4040 -1.0697
  147DOPC  H13C17456   2.126   3.826   7.461 -0.1883 -0.8029  0.5808
  147DOPC   C1417457   2.067   4.005   7.269 -0.3973  0.2261 -0.0074
  147DOPC  H14A17458   2.084   4.063   7.180 -0.7044  0.3514  0.0147
  147DOPC  H14B17459   1.970   3.961   7.250 -0.5423  0.7649 -0.5345
  147DOPC  H14C17460   2.081   4.060   7.361  4.0777  2.7597 -1.8759
  147DOPC   C1517461   2.302   3.943   7.293 -0.5343 -0.2276  0.3314
  147DOPC  H15A17462   2.369   3.860   7.305  0.6706  0.8632  1.5782
  147DOPC  H15B17463   2.309   3.990   7.390  1.2619  3.1362 -1.2632
  147DOPC  H15C17464   2.345   4.009   7.220 -0.5342 -2.4350 -1.7890
  147DOPC   C1117465   2.020   3.787   7.073  0.6273 -0.2965 -0.0755
  147DOPC  H11A17466   2.024   3.745   6.970 -2.5323 -0.3794 -0.2718
  147DOPC  H11B17467   1.987   3.708   7.144 -0.2167 -0.0445 -0.1736
  147DOPC     P17468   1.763   3.865   7.057  0.1494  0.2108 -0.0498
  147DOPC   O1317469   1.704   3.927   7.180 -0.4319 -0.3573  0.3877
  147DOPC   O1417470   1.727   3.727   7.030 -0.4171 -0.3032  0.4922
  147DOPC   O1217471   1.914   3.883   7.073 -0.5225 -0.4957 -0.9147
  147DOPC   O1117472   1.725   3.950   6.927  0.2368 -0.0530  0.5191
  147DOPC    C117473   1.784   3.905   6.803 -0.2632 -0.2701 -0.4692
  147DOPC    HA17474   1.798   3.795   6.790  0.7390 -0.2166  0.0248
  147DOPC    HB17475   1.890   3.938   6.805 -0.2187 -0.1904  3.1908
  147DOPC    C217476   1.718   3.941   6.668  0.7720 -0.4484 -0.2907
  147DOPC    HS17477   1.780   3.920   6.578  0.6769  0.4694 -0.5846
  147DOPC   O2117478   1.673   4.081   6.664  0.1054 -0.1355  0.1641
  147DOPC   C2117479   1.769   4.169   6.626 -0.6153  0.0104 -0.1721
  147DOPC   O2217480   1.881   4.145   6.595  0.3226 -0.4315 -0.0350
  147DOPC   C2217481   1.714   4.304   6.624  0.3434 -1.2705 -0.3769
  147DOPC   H2R17482   1.633   4.312   6.700 -0.3747 -1.1219 -1.1498
  147DOPC   H2S17483   1.660   4.319   6.528  0.1716  0.9517  0.0148
  147DOPC    C317484   1.589   3.850   6.640  0.9611 -0.0055 -0.3826
  147DOPC    HX17485   1.524   3.848   6.729 -1.9859  1.6446 -2.3320
  147DOPC    HY17486   1.629   3.746   6.633 -1.5141 -1.1278  0.9014
  147DOPC   O3117487   1.511   3.874   6.520 -0.4275 -0.5335  0.1234
  147DOPC   C3117488   1.430   3.982   6.534  0.3103  0.7921 -0.1420
  147DOPC   O3217489   1.407   4.033   6.640 -0.3319 -0.2197 -0.4521
  147DOPC   C3217490   1.387   4.023   6.399  0.5784 -0.2655 -0.5470
  147DOPC   H2X17491   1.446   3.980   6.315 -1.0299  1.2470 -2.5597
  147DOPC   H2Y17492   1.286   3.978   6.395  0.9812 -1.2056 -0.3034
  147DOPC   C2317493   1.818   4.412   6.666  0.2884 -0.0771  0.4921
  147DOPC   H3R17494   1.922   4.406   6.627  0.5545  0.1929  1.1494
  147DOPC   H3S17495   1.837   4.395   6.774  2.2122 -2.2220 -0.1180
  147DOPC   C2417496   1.757   4.547   6.637 -0.0142 -0.5659  0.7282
  147DOPC   H4R17497   1.823   4.628   6.675 -0.3464 -0.7197  1.6378
  147DOPC   H4S17498   1.667   4.554   6.701 -2.2351 -1.9917 -1.9833
  147DOPC   C2517499   1.717   4.576   6.491  0.0491 -0.0529  0.3233
  147DOPC   H5R17500   1.645   4.660   6.492  0.1945  0.0818 -0.4822
  147DOPC   H5S17501   1.676   4.485   6.443  0.8665 -1.0299  1.3986
  147DOPC   C2617502   1.845   4.617   6.419  0.2952  0.4823  0.6617
  147DOPC   H6R17503   1.912   4.530   6.399 -0.9564 -0.3302 -0.1272
  147DOPC   H6S17504   1.905   4.691   6.477  2.1208  1.8658 -2.6768
  147DOPC   C2717505   1.808   4.690   6.288 -0.2410  0.1349  0.1392
  147DOPC   H7R17506   1.904   4.725   6.245 -0.0601  0.4690  0.8147
  147DOPC   H7S17507   1.747   4.780   6.311  0.1822  1.1577 -2.3952
  147DOPC   C2817508   1.733   4.600   6.192 -0.5705 -0.2682  0.7020
  147DOPC   H8R17509   1.684   4.671   6.124  0.1418 -0.3215  0.1242
  147DOPC   H8S17510   1.645   4.546   6.234 -4.6442  2.0565 -3.9859
  147DOPC   C2917511   1.835   4.520   6.113 -0.0746  0.3036 -0.4734
  147DOPC   H9R17512   1.852   4.568   6.015  1.2868 -0.3939 -0.6060
  147DOPC  C21017513   1.865   4.391   6.140  0.2264 -0.0908 -0.2013
  147DOPC  H10R17514   1.939   4.341   6.076 -0.0904  1.4787 -1.8752
  147DOPC  C21117515   1.801   4.301   6.248  0.3673 -1.4974  0.9451
  147DOPC  H11R17516   1.694   4.332   6.249  1.3383  2.3277  1.0143
  147DOPC  H11S17517   1.846   4.326   6.347  0.2808 -0.3483  0.7019
  147DOPC  C21217518   1.816   4.157   6.225 -0.3387 -0.4996  0.3531
  147DOPC  H12R17519   1.788   4.112   6.322  2.9886  0.7852  2.0647
  147DOPC  H12S17520   1.924   4.138   6.207  0.4411  1.4955  2.4994
  147DOPC  C21317521   1.721   4.108   6.113  0.1369 -0.2703 -0.4073
  147DOPC  H13R17522   1.740   4.162   6.017 -1.0152 -0.1522 -0.5845
  147DOPC  H13S17523   1.619   4.135   6.149  0.4563  1.3703 -0.6544
  147DOPC  C21417524   1.737   3.961   6.085  0.4256  0.0492 -0.6408
  147DOPC  H14R17525   1.729   3.902   6.179 -2.3884  2.0263  0.4696
  147DOPC  H14S17526   1.833   3.935   6.035  0.6939 -1.1610  0.4495
  147DOPC  C21517527   1.615   3.918   6.000 -0.0156 -0.0396  0.9515
  147DOPC  H15R17528   1.522   3.978   6.005 -0.7464 -0.9072 -1.1605
  147DOPC  H15S17529   1.581   3.813   6.011 -1.6251  0.3198 -0.2524
  147DOPC  C21617530   1.652   3.936   5.848 -0.2521  0.3180  0.4476
  147DOPC  H16R17531   1.744   3.877   5.825 -0.5387 -0.2004  0.6129
  147DOPC  H16S17532   1.672   4.042   5.825  1.2432 -0.5366 -2.7697
  147DOPC  C21717533   1.540   3.896   5.750 -0.1431 -0.0896 -0.2421
  147DOPC  H17R17534   1.449   3.949   5.784 -0.4049 -0.2126 -0.7378
  147DOPC  H17S17535   1.513   3.791   5.776 -3.9178  0.4484 -1.2752
  147DOPC  C21817536   1.565   3.900   5.598 -0.9472 -0.0843 -0.3220
  147DOPC  H18R17537   1.544   4.002   5.559  0.2783  0.5103  0.5122
  147DOPC  H18S17538   1.499   3.833   5.539 -1.8832  0.6132 -0.0930
  147DOPC  H18T17539   1.668   3.862   5.580 -0.0983  1.4292  1.0626
  147DOPC   C3317540   1.370   4.170   6.378  0.7816 -0.8498 -0.2803
  147DOPC   H3X17541   1.462   4.229   6.358  0.2902 -0.0419 -0.2257
  147DOPC   H3Y17542   1.319   4.210   6.468 -0.4904 -0.0516 -1.3118
  147DOPC   C3417543   1.266   4.195   6.267 -0.5557 -0.1237  0.7218
  147DOPC   H4X17544   1.221   4.296   6.262  2.3616  1.2165 -0.3106
  147DOPC   H4Y17545   1.182   4.127   6.294  0.6986 -2.7837 -1.5738
  147DOPC   C3517546   1.316   4.175   6.123 -0.4073 -0.5004  0.1055
  147DOPC   H5X17547   1.230   4.138   6.063 -1.0395  0.7475  0.1918
  147DOPC   H5Y17548   1.398   4.100   6.119  1.1828  1.1275  0.6760
  147DOPC   C3617549   1.363   4.304   6.054 -0.7286  0.6736 -0.1543
  147DOPC   H6X17550   1.284   4.382   6.054  0.2448  1.7990 -2.9084
  147DOPC   H6Y17551   1.458   4.338   6.101 -2.0437  0.4317  2.9321
  147DOPC   C3717552   1.390   4.269   5.906  0.4458  0.1257 -0.5886
  147DOPC   H7X17553   1.462   4.185   5.921  0.4414  0.5036  1.9676
  147DOPC   H7Y17554   1.300   4.237   5.850 -0.0959 -0.0339  0.3567
  147DOPC   C3817555   1.460   4.379   5.824 -0.0215  0.5161  0.6934
  147DOPC   H8X17556   1.550   4.417   5.876  0.1750  1.4857 -0.3201
  147DOPC   H8Y17557   1.397   4.471   5.822  0.9525  1.1861 -0.2037
  147DOPC   C3917558   1.495   4.333   5.684 -0.1390 -0.2346  0.0275
  147DOPC   H9X17559   1.407   4.293   5.632  2.6142 -4.7596 -1.7530
  147DOPC  C31017560   1.623   4.321   5.634  0.4518 -0.1989 -0.0431
  147DOPC  H10X17561   1.646   4.308   5.527  0.3333  1.7367 -0.3435
  147DOPC  C31117562   1.740   4.357   5.712 -0.2295 -0.5470 -1.2792
  147DOPC  H11X17563   1.734   4.316   5.815  0.6177  2.1685 -0.0616
  147DOPC  H11Y17564   1.754   4.467   5.722 -0.4029 -0.5956 -0.3765
  147DOPC  C31217565   1.865   4.306   5.640  0.5525  0.3651 -0.5252
  147DOPC  H12X17566   1.882   4.383   5.562 -0.1137  1.5290  0.4463
  147DOPC  H12Y17567   1.861   4.203   5.597  1.5989  1.3611 -3.1856
  147DOPC  C31317568   1.995   4.309   5.727 -0.2743  0.2676 -0.2362
  147DOPC  H13X17569   2.078   4.317   5.654 -0.4901  1.1062 -0.4028
  147DOPC  H13Y17570   2.012   4.401   5.787  0.0930  0.0480  0.0021
  147DOPC  C31417571   2.015   4.198   5.832  0.0198 -0.2898  0.3455
  147DOPC  H14X17572   2.100   4.236   5.893 -0.2906  1.8303 -0.4512
  147DOPC  H14Y17573   1.922   4.188   5.892 -0.4306  0.2172 -0.2589
  147DOPC  C31517574   2.049   4.067   5.762  0.1057 -0.4859 -0.6233
  147DOPC  H15X17575   1.971   4.036   5.689  0.3361  2.1913 -2.1452
  147DOPC  H15Y17576   2.068   3.987   5.836  0.3132  0.2138  0.0902
  147DOPC  C31617577   2.182   4.088   5.682  0.0569  0.4432  0.3561
  147DOPC  H16X17578   2.161   4.139   5.586  0.1273 -1.0866 -0.5133
  147DOPC  H16Y17579   2.251   4.143   5.750  0.5617 -1.0100  1.0630
  147DOPC  C31717580   2.261   3.955   5.648  0.0783  0.0918 -0.5067
  147DOPC  H17X17581   2.371   3.971   5.645  0.3654 -0.9999  1.9495
  147DOPC  H17Y17582   2.236   3.884   5.729  0.5676  2.5729  1.9599
  147DOPC  C31817583   2.212   3.899   5.513 -0.1381 -0.1397 -0.6845
  147DOPC  H18X17584   2.101   3.890   5.513 -0.0454 -1.6745 -1.3244
  147DOPC  H18Y17585   2.234   3.975   5.435  3.5313  0.6131  0.8881
  147DOPC  H18Z17586   2.254   3.798   5.490 -0.5125 -0.3928 -0.2916
  148DOPC     N17587   1.711   6.890   7.520  0.0583 -0.1817  0.0679
  148DOPC   C1217588   1.718   6.792   7.398 -0.2345  0.0302  0.5147
  148DOPC  H12A17589   1.618   6.794   7.357 -0.6735  0.8399  1.5697
  148DOPC  H12B17590   1.753   6.692   7.422 -0.7565 -0.5686 -1.0888
  148DOPC   C1317591   1.647   7.015   7.484  0.3803  0.6624 -0.6081
  148DOPC  H13A17592   1.697   7.071   7.406  0.2246  2.1945  0.3488
  148DOPC  H13B17593   1.549   6.987   7.446  0.9348 -1.1940 -0.7288
  148DOPC  H13C17594   1.624   7.082   7.565  0.0907 -0.3459  0.1616
  148DOPC   C1417595   1.853   6.919   7.568  0.3271  0.1044  0.0373
  148DOPC  H14A17596   1.851   7.017   7.614 -3.3001  0.2677 -0.2006
  148DOPC  H14B17597   1.904   6.840   7.621 -0.5197 -1.3961 -1.3381
  148DOPC  H14C17598   1.909   6.938   7.478 -0.9164  0.2728 -0.7237
  148DOPC   C1517599   1.635   6.825   7.632 -0.3492  0.4736 -0.2111
  148DOPC  H15A17600   1.686   6.738   7.669 -0.3304  0.7730  0.4998
  148DOPC  H15B17601   1.541   6.785   7.597 -0.4356  1.4768 -1.1822
  148DOPC  H15C17602   1.617   6.897   7.711 -0.5659  1.3854 -1.0621
  148DOPC   C1117603   1.806   6.832   7.273  0.1166  0.3597 -0.1968
  148DOPC  H11A17604   1.779   6.774   7.182 -0.5899  0.9048 -0.3413
  148DOPC  H11B17605   1.771   6.936   7.260 -0.3489  0.1111 -1.0396
  148DOPC     P17606   2.020   6.676   7.291  0.1117  0.1814 -0.4097
  148DOPC   O1317607   1.937   6.571   7.344  0.6114  0.4004  0.2420
  148DOPC   O1417608   2.157   6.685   7.351  0.3077 -0.7283  0.5087
  148DOPC   O1217609   1.948   6.818   7.303 -0.1175  0.1445  0.3531
  148DOPC   O1117610   2.035   6.637   7.132  0.5071 -0.2847 -0.0284
  148DOPC    C117611   2.074   6.737   7.039 -0.1484  0.4455 -0.0672
  148DOPC    HA17612   2.148   6.690   6.971  0.1898  0.9325 -0.0355
  148DOPC    HB17613   2.125   6.820   7.092 -0.1659  0.5297 -0.1818
  148DOPC    C217614   1.963   6.803   6.949  0.3496 -0.3009 -0.3719
  148DOPC    HS17615   1.884   6.846   7.014  1.7316  0.7468  0.6942
  148DOPC   O2117616   1.920   6.708   6.853 -0.0148 -0.3120  0.2247
  148DOPC   C2117617   1.801   6.665   6.865  0.9591  0.5906 -0.1532
  148DOPC   O2217618   1.721   6.693   6.958  0.0638 -0.1488  0.2561
  148DOPC   C2217619   1.769   6.570   6.754  0.0121  0.2732  0.7831
  148DOPC   H2R17620   1.854   6.508   6.718  0.7391  0.8058  1.5409
  148DOPC   H2S17621   1.752   6.631   6.663 -3.5407 -1.7476 -0.0817
  148DOPC    C317622   2.031   6.911   6.863  0.0854  0.0492 -0.2851
  148DOPC    HX17623   2.128   6.875   6.824  2.0908  2.1516  2.2901
  148DOPC    HY17624   2.050   6.996   6.933  1.9011 -2.0754  1.9798
  148DOPC   O3117625   1.943   6.955   6.757  0.4083 -0.1283  0.5759
  148DOPC   C3117626   1.849   7.050   6.790 -0.1261  0.7169  0.5269
  148DOPC   O3217627   1.836   7.103   6.899 -0.5239  0.3854 -0.1310
  148DOPC   C3217628   1.764   7.080   6.668  0.3367 -1.3960 -0.2242
  148DOPC   H2X17629   1.827   7.064   6.579  0.7740 -2.0335  0.1910
  148DOPC   H2Y17630   1.678   7.011   6.663  0.3147 -1.3500 -0.4735
  148DOPC   C2317631   1.645   6.479   6.773  0.0485  0.1054  0.5683
  148DOPC   H3R17632   1.573   6.530   6.840  0.2219  1.3395 -0.1553
  148DOPC   H3S17633   1.679   6.384   6.819 -2.2204 -0.4791  1.1148
  148DOPC   C2417634   1.580   6.452   6.642  0.2271  0.1557  0.0533
  148DOPC   H4R17635   1.650   6.431   6.558  0.0327  0.5927 -0.2221
  148DOPC   H4S17636   1.523   6.541   6.610 -2.1524 -0.7240  1.6007
  148DOPC   C2517637   1.473   6.347   6.658 -0.4365  0.0223 -0.0276
  148DOPC   H5R17638   1.390   6.374   6.727 -0.9506  0.6531 -0.8658
  148DOPC   H5S17639   1.524   6.268   6.716 -0.3431  1.3010  1.6977
  148DOPC   C2617640   1.423   6.276   6.531 -0.0602  0.6016  0.4095
  148DOPC   H6R17641   1.371   6.178   6.540 -0.9993  1.1412  1.1954
  148DOPC   H6S17642   1.510   6.244   6.471 -0.6349  0.3505 -0.3053
  148DOPC   C2717643   1.322   6.368   6.461 -0.0086 -0.3813 -0.0147
  148DOPC   H7R17644   1.370   6.460   6.422 -0.0542  0.2726  1.4178
  148DOPC   H7S17645   1.255   6.398   6.544 -0.0672  1.2431 -0.6194
  148DOPC   C2817646   1.244   6.300   6.347  0.4577 -0.0439 -0.0244
  148DOPC   H8R17647   1.197   6.381   6.287 -0.0818 -1.7726 -2.0636
  148DOPC   H8S17648   1.155   6.246   6.386 -0.0220  1.0862  0.4789
  148DOPC   C2917649   1.342   6.225   6.265  0.4734 -0.3962 -0.4119
  148DOPC   H9R17650   1.373   6.131   6.313 -0.8343 -0.1968  0.8615
  148DOPC  C21017651   1.393   6.270   6.145  0.1073 -0.2259 -0.2393
  148DOPC  H10R17652   1.457   6.204   6.084  0.2081 -0.2176 -0.1432
  148DOPC  C21117653   1.355   6.392   6.062 -0.1646 -0.1356 -0.7795
  148DOPC  H11R17654   1.457   6.425   6.032  0.0685 -0.2303 -0.1184
  148DOPC  H11S17655   1.303   6.478   6.109  1.2990  1.2848 -1.6606
  148DOPC  C21217656   1.294   6.363   5.925 -0.3388 -0.4905  0.0628
  148DOPC  H12R17657   1.194   6.316   5.937  0.2212 -1.6904  0.2164
  148DOPC  H12S17658   1.360   6.284   5.885  0.8931 -0.0154  1.0857
  148DOPC  C21317659   1.279   6.487   5.843  0.2781 -0.4266 -0.3885
  148DOPC  H13R17660   1.360   6.562   5.855  0.2924 -0.0838 -2.2509
  148DOPC  H13S17661   1.191   6.533   5.892 -0.5176  0.1022 -2.2033
  148DOPC  C21417662   1.261   6.470   5.692 -0.0944  0.2229 -0.2411
  148DOPC  H14R17663   1.177   6.399   5.674  1.2787 -1.2728 -1.1167
  148DOPC  H14S17664   1.350   6.415   5.653 -1.3725 -1.0249 -1.5440
  148DOPC  C21517665   1.235   6.595   5.612 -0.0626 -0.2428  0.9376
  148DOPC  H15R17666   1.148   6.647   5.656  0.1848 -1.0887  2.4870
  148DOPC  H15S17667   1.216   6.568   5.505 -1.7572 -0.3932  1.2487
  148DOPC  C21617668   1.358   6.695   5.600  0.0523  0.3164  0.1984
  148DOPC  H16R17669   1.442   6.638   5.554 -0.4742  0.2656 -0.7337
  148DOPC  H16S17670   1.396   6.724   5.700  1.1932 -0.0789 -0.0997
  148DOPC  C21717671   1.319   6.813   5.511 -0.2781  0.6846  0.3578
  148DOPC  H17R17672   1.250   6.769   5.435 -0.6624  0.4169  0.8556
  148DOPC  H17S17673   1.412   6.853   5.465 -0.4608  1.7434  0.8799
  148DOPC  C21817674   1.252   6.922   5.588  0.5730 -0.1098 -0.2114
  148DOPC  H18R17675   1.156   6.889   5.631  1.1801  0.7686  1.9497
  148DOPC  H18S17676   1.236   7.008   5.519  0.5732  0.1429  0.1026
  148DOPC  H18T17677   1.311   6.954   5.676 -1.7142  3.6027  0.1854
  148DOPC   C3317678   1.706   7.226   6.673 -0.7434  0.9461  0.1145
  148DOPC   H3X17679   1.793   7.295   6.662  0.5272 -0.7637 -1.1625
  148DOPC   H3Y17680   1.655   7.257   6.766  1.4054  1.7859  1.0838
  148DOPC   C3417681   1.610   7.259   6.556  0.2518  0.0994  0.5231
  148DOPC   H4X17682   1.564   7.357   6.575  0.7085  0.8482 -1.8511
  148DOPC   H4Y17683   1.524   7.189   6.547  1.1044 -0.9894  0.4744
  148DOPC   C3517684   1.673   7.262   6.415 -0.7791 -0.0265  0.1391
  148DOPC   H5X17685   1.718   7.164   6.389 -0.7993  0.1891 -0.7181
  148DOPC   H5Y17686   1.748   7.344   6.414 -0.5596 -0.2249  0.3926
  148DOPC   C3617687   1.569   7.308   6.311 -0.5411  0.8411  0.0607
  148DOPC   H6X17688   1.494   7.227   6.318  1.2639 -0.7284  3.2143
  148DOPC   H6Y17689   1.530   7.411   6.324 -3.2842  0.1684 -1.8726
  148DOPC   C3717690   1.642   7.313   6.173 -0.1173  0.6704  0.7143
  148DOPC   H7X17691   1.732   7.377   6.185  1.6654 -1.5646  0.0426
  148DOPC   H7Y17692   1.690   7.216   6.150  0.1823  1.1453 -0.7915
  148DOPC   C3817693   1.555   7.350   6.061  0.0242 -0.3476  0.5133
  148DOPC   H8X17694   1.527   7.457   6.076 -0.8910 -0.4493 -0.3909
  148DOPC   H8Y17695   1.455   7.301   6.061 -1.0628  1.7164  1.2950
  148DOPC   C3917696   1.625   7.339   5.926  0.8858  0.5756  0.3749
  148DOPC   H9X17697   1.699   7.419   5.909  0.4323  1.3908  2.0034
  148DOPC  C31017698   1.613   7.239   5.830  0.3110  0.3453  0.5726
  148DOPC  H10X17699   1.684   7.240   5.746 -1.7931 -0.2773 -1.3227
  148DOPC  C31117700   1.523   7.128   5.851  0.7410 -0.3542  1.3075
  148DOPC  H11X17701   1.497   7.079   5.755  0.0595 -0.3899  1.5055
  148DOPC  H11Y17702   1.426   7.163   5.894 -0.1121 -1.4801  0.3866
  148DOPC  C31217703   1.581   7.016   5.941 -0.5310 -0.3006 -0.2085
  148DOPC  H12X17704   1.603   7.055   6.043 -1.9519 -0.7251  0.2813
  148DOPC  H12Y17705   1.677   6.979   5.898 -1.0873 -0.2762 -1.5038
  148DOPC  C31317706   1.487   6.895   5.935 -0.0412  0.2495  0.9940
  148DOPC  H13X17707   1.393   6.924   5.987 -0.0176 -2.1359  2.5774
  148DOPC  H13Y17708   1.471   6.870   5.828  1.1179 -0.9263  1.0637
  148DOPC  C31417709   1.534   6.766   6.007  0.8194 -0.1336  0.5280
  148DOPC  H14X17710   1.458   6.685   6.000 -0.2161  0.5885  2.7107
  148DOPC  H14Y17711   1.622   6.734   5.946  0.7386 -0.1888  0.4398
  148DOPC  C31517712   1.579   6.792   6.150  0.2960 -0.7779  0.3834
  148DOPC  H15X17713   1.501   6.852   6.202 -0.3677 -2.8544  1.9452
  148DOPC  H15Y17714   1.672   6.851   6.146 -0.3999  0.2529 -1.2514
  148DOPC  C31617715   1.594   6.669   6.239  0.0134 -0.6618  0.8899
  148DOPC  H16X17716   1.495   6.632   6.271 -0.0827  0.2984  1.7830
  148DOPC  H16Y17717   1.630   6.595   6.164 -0.0607 -1.3360  1.5188
  148DOPC  C31717718   1.697   6.687   6.355 -0.2086 -0.1628  0.3881
  148DOPC  H17X17719   1.728   6.590   6.402  0.9580  0.9843  2.1139
  148DOPC  H17Y17720   1.786   6.731   6.304 -1.6740  0.3757 -1.8178
  148DOPC  C31817721   1.658   6.788   6.460 -0.2734 -0.4875 -0.3694
  148DOPC  H18X17722   1.581   6.739   6.523 -0.2492  0.3655  0.3507
  148DOPC  H18Y17723   1.737   6.809   6.535 -0.3487 -0.6395 -0.2459
  148DOPC  H18Z17724   1.621   6.887   6.424  2.8157  1.4044  1.2575
  149DOPC     N17725   2.306   2.825   7.270 -0.4521  0.0431  0.5996
  149DOPC   C1217726   2.234   2.760   7.155  0.5743 -0.3458  0.3639
  149DOPC  H12A17727   2.281   2.664   7.146 -0.9573 -1.2721  1.7155
  149DOPC  H12B17728   2.256   2.817   7.066  0.7486  1.4887  1.5055
  149DOPC   C1317729   2.274   2.970   7.288 -0.2027  0.5552 -0.3862
  149DOPC  H13A17730   2.351   3.007   7.355 -0.2523 -1.5183  0.8925
  149DOPC  H13B17731   2.289   3.021   7.194  1.0653  1.2489  0.1568
  149DOPC  H13C17732   2.175   2.985   7.326 -0.2945  0.3001 -0.5253
  149DOPC   C1417733   2.456   2.819   7.238 -0.1309 -0.2706  0.1404
  149DOPC  H14A17734   2.501   2.859   7.327 -0.6652 -1.1847  0.8294
  149DOPC  H14B17735   2.489   2.719   7.218 -0.4986 -0.4579  0.4554
  149DOPC  H14C17736   2.480   2.878   7.150 -2.8958 -1.3015 -1.4253
  149DOPC   C1517737   2.272   2.749   7.398 -0.5509 -0.1893  0.3980
  149DOPC  H15A17738   2.323   2.806   7.474 -0.8128 -0.0967  0.5064
  149DOPC  H15B17739   2.318   2.651   7.400  2.2868  1.0023 -1.0911
  149DOPC  H15C17740   2.166   2.749   7.422 -0.7893 -0.2131 -0.6236
  149DOPC   C1117741   2.084   2.736   7.156  0.1726 -0.1792 -0.0032
  149DOPC  H11A17742   2.049   2.706   7.055 -0.1720 -1.0962  0.3665
  149DOPC  H11B17743   2.074   2.642   7.215 -0.7101  0.7116  1.3297
  149DOPC     P17744   1.952   2.964   7.135 -0.0035  0.0324  0.1297
  149DOPC   O1317745   1.934   3.085   7.222 -0.4762  0.0397  0.3048
  149DOPC   O1417746   1.824   2.910   7.077  0.5657  0.2983  0.1469
  149DOPC   O1217747   2.006   2.840   7.218 -0.6458 -0.4401 -0.1493
  149DOPC   O1117748   2.060   2.989   7.021 -0.3620  0.4115 -0.0182
  149DOPC    C117749   2.044   3.101   6.929 -0.4901  0.0693 -0.1933
  149DOPC    HA17750   2.140   3.138   6.887 -0.8423 -0.2805 -1.3357
  149DOPC    HB17751   2.008   3.190   6.984  0.3795 -1.1858  2.5759
  149DOPC    C217752   1.952   3.064   6.812  0.2083 -0.3253 -0.4762
  149DOPC    HS17753   1.855   3.015   6.838  0.2560  0.2906  0.9106
  149DOPC   O2117754   2.028   2.985   6.719  0.0935 -0.7347 -0.2624
  149DOPC   C2117755   2.004   2.855   6.725  0.0098 -0.7379  0.0421
  149DOPC   O2217756   1.936   2.795   6.807  0.0724 -0.2433  0.6517
  149DOPC   C2217757   2.053   2.791   6.598  0.0012 -0.9672  0.0433
  149DOPC   H2R17758   2.056   2.682   6.618 -0.7734 -0.8697  0.7338
  149DOPC   H2S17759   2.158   2.826   6.585  0.0826 -1.4181 -0.5339
  149DOPC    C317760   1.907   3.199   6.757 -0.0297 -0.7338  0.1979
  149DOPC    HX17761   1.991   3.269   6.736 -0.5956  0.0518  0.5267
  149DOPC    HY17762   1.850   3.253   6.836  0.4653  1.3142 -0.7677
  149DOPC   O3117763   1.824   3.180   6.644  0.0010 -0.9125 -0.0008
  149DOPC   C3117764   1.850   3.236   6.530  0.7473 -0.6410  0.0383
  149DOPC   O3217765   1.945   3.305   6.504 -0.0764  0.0789 -0.3968
  149DOPC   C3217766   1.734   3.221   6.435  0.3082  0.1843 -0.5491
  149DOPC   H2X17767   1.669   3.137   6.465 -0.5446  1.5737  1.7576
  149DOPC   H2Y17768   1.664   3.307   6.438 -1.7061 -1.3903 -0.9041
  149DOPC   C2317769   1.964   2.812   6.469 -0.2559 -0.2842  0.0788
  149DOPC   H3R17770   1.934   2.919   6.460 -1.6977 -0.6974 -0.2485
  149DOPC   H3S17771   1.874   2.750   6.487 -1.4510  0.9121 -1.5278
  149DOPC   C2417772   2.036   2.767   6.343  0.1934 -0.1164  0.4864
  149DOPC   H4R17773   2.088   2.670   6.359  0.2906 -0.2368 -0.4926
  149DOPC   H4S17774   2.112   2.846   6.324 -1.3136  1.0434 -1.0618
  149DOPC   C2517775   1.943   2.750   6.223 -0.2997  0.6470 -0.2199
  149DOPC   H5R17776   1.902   2.850   6.198 -0.2623  1.1342  1.4893
  149DOPC   H5S17777   1.863   2.680   6.256  2.3802 -1.9421  1.2912
  149DOPC   C2617778   2.005   2.686   6.095  0.2744 -0.5933 -0.7822
  149DOPC   H6R17779   2.036   2.586   6.133 -0.6391 -0.1829  1.2353
  149DOPC   H6S17780   2.090   2.740   6.050 -0.7032 -0.5050 -2.5918
  149DOPC   C2717781   1.896   2.647   5.991 -0.7655 -0.2459 -0.1212
  149DOPC   H7R17782   1.824   2.576   6.037  0.5083  0.0088  2.4400
  149DOPC   H7S17783   1.954   2.602   5.907 -1.2042 -3.3724  1.1405
  149DOPC   C2817784   1.817   2.764   5.934  0.2454 -0.1842 -0.0854
  149DOPC   H8R17785   1.748   2.795   6.016  1.6351 -1.2728  1.5619
  149DOPC   H8S17786   1.752   2.718   5.856  0.0522 -0.6131  0.3208
  149DOPC   C2917787   1.894   2.888   5.895  0.8964  0.1083 -0.4326
  149DOPC   H9R17788   1.930   2.957   5.974  0.5627 -0.3728  0.1533
  149DOPC  C21017789   1.911   2.918   5.761  0.4400  0.4496 -0.7912
  149DOPC  H10R17790   1.991   2.990   5.737 -0.2222  1.1645 -0.9317
  149DOPC  C21117791   1.845   2.851   5.647 -0.3861  0.3319  0.2182
  149DOPC  H11R17792   1.810   2.749   5.673  0.5248 -0.6333 -2.0636
  149DOPC  H11S17793   1.918   2.832   5.565 -0.0221  0.5326  0.4885
  149DOPC  C21217794   1.736   2.939   5.589 -0.6175 -0.6518  0.0179
  149DOPC  H12R17795   1.780   3.030   5.543  2.1783 -1.8539  0.1519
  149DOPC  H12S17796   1.652   2.954   5.660 -0.6376  2.0819 -0.4604
  149DOPC  C21317797   1.662   2.860   5.483  0.5258  0.1716 -0.0353
  149DOPC  H13R17798   1.625   2.761   5.516  2.5271 -1.0701 -1.3803
  149DOPC  H13S17799   1.717   2.848   5.387 -1.5605 -0.6067 -1.1915
  149DOPC  C21417800   1.535   2.945   5.457  0.1775  0.2232 -0.0309
  149DOPC  H14R17801   1.564   3.049   5.432 -1.9320  0.9049  0.1954
  149DOPC  H14S17802   1.477   2.931   5.550 -0.1288 -2.4374 -0.5369
  149DOPC  C21517803   1.443   2.908   5.336 -0.1719 -0.5107 -0.3190
  149DOPC  H15R17804   1.422   2.799   5.333  1.3963 -0.8146 -1.6307
  149DOPC  H15S17805   1.496   2.940   5.243 -0.8473 -3.0953 -1.6875
  149DOPC  C21617806   1.308   2.982   5.337 -0.9187 -0.0072  0.7347
  149DOPC  H16R17807   1.326   3.082   5.294 -2.3575 -0.6502 -1.5620
  149DOPC  H16S17808   1.280   3.009   5.441 -0.8725  0.9423  0.5036
  149DOPC  C21717809   1.206   2.906   5.248 -0.1550 -0.6499 -0.3805
  149DOPC  H17R17810   1.194   2.798   5.269 -0.4293 -0.1072  2.6628
  149DOPC  H17S17811   1.228   2.922   5.140 -0.6139  3.2134 -0.0345
  149DOPC  C21817812   1.073   2.969   5.266  0.0241 -0.0915  0.8158
  149DOPC  H18R17813   1.078   3.078   5.246 -0.8123 -0.3334 -0.8542
  149DOPC  H18S17814   1.033   2.961   5.369 -1.3520  3.1064  0.6446
  149DOPC  H18T17815   0.999   2.930   5.193 -1.3548  0.8927  1.6475
  149DOPC   C3317816   1.798   3.195   6.296  0.8897 -0.0813 -0.7757
  149DOPC   H3X17817   1.877   3.119   6.315 -1.2348 -1.8015  2.0653
  149DOPC   H3Y17818   1.847   3.290   6.265 -0.3407  0.6769 -0.4776
  149DOPC   C3417819   1.698   3.157   6.190 -0.0457  0.0515  1.0323
  149DOPC   H4X17820   1.746   3.158   6.090 -2.7938 -1.3103 -0.4320
  149DOPC   H4Y17821   1.615   3.231   6.196  0.0504  0.4309 -1.4316
  149DOPC   C3517822   1.635   3.021   6.216 -0.1056 -0.0155  0.7015
  149DOPC   H5X17823   1.577   3.017   6.310  0.7126 -0.4064  1.2060
  149DOPC   H5Y17824   1.720   2.950   6.222 -0.1832  0.0164  3.7853
  149DOPC   C3617825   1.545   2.991   6.092 -0.3273  0.0794 -0.0154
  149DOPC   H6X17826   1.588   3.027   5.996 -0.7703  0.5017 -0.0544
  149DOPC   H6Y17827   1.553   2.880   6.091 -0.8136  0.0427 -0.8554
  149DOPC   C3717828   1.399   3.030   6.109  0.6746 -0.7415 -0.9607
  149DOPC   H7X17829   1.348   2.977   6.192  2.5879 -0.9802  0.1206
  149DOPC   H7Y17830   1.385   3.136   6.142 -0.5756 -1.0372 -0.5001
  149DOPC   C3817831   1.325   3.011   5.972 -0.0364  0.4752  0.5119
  149DOPC   H8X17832   1.329   2.909   5.930 -2.1278  0.8223 -0.6640
  149DOPC   H8Y17833   1.388   3.072   5.904 -1.6864  0.7575 -0.8307
  149DOPC   C3917834   1.186   3.060   5.970  0.6391  0.4778 -0.2100
  149DOPC   H9X17835   1.129   3.036   6.060  0.9598  2.4985  0.5875
  149DOPC  C31017836   1.118   3.122   5.867 -0.2351 -0.0176  0.2117
  149DOPC  H10X17837   1.012   3.148   5.867  0.0180  1.0483 -0.1718
  149DOPC  C31117838   1.185   3.144   5.734  0.5128 -0.2139 -0.1627
  149DOPC  H11X17839   1.153   3.072   5.655  0.3115  1.6762 -1.9010
  149DOPC  H11Y17840   1.296   3.150   5.743  1.1626  1.1636 -5.5199
  149DOPC  C31217841   1.146   3.283   5.673 -0.5145  0.0336  1.0183
  149DOPC  H12X17842   1.165   3.367   5.743  1.2566  0.4722  0.0624
  149DOPC  H12Y17843   1.042   3.277   5.634  0.0925  0.7630 -0.8183
  149DOPC  C31317844   1.222   3.311   5.543  0.1253 -0.6014  0.8706
  149DOPC  H13X17845   1.330   3.307   5.571  0.0579  0.3281  1.2808
  149DOPC  H13Y17846   1.205   3.231   5.467 -1.1811 -0.3689  0.8963
  149DOPC  C31417847   1.185   3.443   5.485 -0.3317 -0.3398  0.4919
  149DOPC  H14X17848   1.076   3.455   5.468 -0.5824 -3.0255 -0.3114
  149DOPC  H14Y17849   1.221   3.520   5.556  0.1743  0.7121 -0.8443
  149DOPC  C31517850   1.251   3.473   5.348  0.2736  0.7399 -0.4687
  149DOPC  H15X17851   1.225   3.398   5.271  3.2285 -0.4123 -0.4797
  149DOPC  H15Y17852   1.362   3.464   5.345  0.2346  0.3749 -1.2694
  149DOPC  C31617853   1.227   3.609   5.304 -0.3924 -0.9404  0.1372
  149DOPC  H16X17854   1.123   3.639   5.281  0.0845 -0.8362 -2.1691
  149DOPC  H16Y17855   1.268   3.684   5.376  0.5080  0.4549 -1.7409
  149DOPC  C31717856   1.297   3.619   5.166 -1.4080 -0.2452 -0.5873
  149DOPC  H17X17857   1.400   3.579   5.167 -1.1608  0.3764  0.6392
  149DOPC  H17Y17858   1.241   3.546   5.105 -0.5824 -2.1060  0.8023
  149DOPC  C31817859   1.298   3.761   5.107  0.1391 -0.9304 -0.2007
  149DOPC  H18X17860   1.350   3.825   5.181  0.0167 -0.4053 -0.5641
  149DOPC  H18Y17861   1.352   3.777   5.012 -2.5197  1.3462 -1.4733
  149DOPC  H18Z17862   1.198   3.809   5.098  1.2825  1.6242 -0.0532
  150DOPC     N17863   7.305   4.909   7.152 -0.0271  0.0337 -0.3145
  150DOPC   C1217864   7.336   4.888   7.005 -0.3016  0.1961 -0.4943
  150DOPC  H12A17865   7.348   4.781   6.994  0.6401  0.2394 -0.0145
  150DOPC  H12B17866   7.436   4.921   6.980  0.7152 -2.7946 -0.8848
  150DOPC   C1317867   7.299   5.054   7.181 -0.9522 -0.2553  0.5972
  150DOPC  H13A17868   7.298   5.079   7.286  2.5479 -0.7087  0.8564
  150DOPC  H13B17869   7.394   5.090   7.145 -1.0332 -0.5970  0.0265
  150DOPC  H13C17870   7.213   5.107   7.142 -0.6160  0.9507  1.4619
  150DOPC   C1417871   7.425   4.861   7.238 -0.6901  0.5068  0.7474
  150DOPC  H14A17872   7.429   4.753   7.241  0.7531  0.3870 -1.8314
  150DOPC  H14B17873   7.521   4.892   7.199  0.0499 -0.8404  1.4249
  150DOPC  H14C17874   7.427   4.890   7.341  1.6169 -1.4308  1.3496
  150DOPC   C1517875   7.181   4.841   7.195 -0.6167 -0.9397  0.0394
  150DOPC  H15A17876   7.156   4.865   7.297  1.7315  1.8077  0.0792
  150DOPC  H15B17877   7.188   4.734   7.180  1.4946 -1.1534  1.9504
  150DOPC  H15C17878   7.100   4.869   7.129  0.4308  1.2621 -0.3770
  150DOPC   C1117879   7.235   4.933   6.900  0.0925  0.2490  0.1854
  150DOPC  H11A17880   7.216   5.041   6.916 -0.4235  0.0955  0.6290
  150DOPC  H11B17881   7.283   4.925   6.800 -0.2751  0.0068  0.0269
  150DOPC     P17882   7.107   4.704   6.867 -0.2427  0.3147 -0.1806
  150DOPC   O1317883   7.002   4.639   6.949 -0.2318  0.2714  0.1674
  150DOPC   O1417884   7.244   4.646   6.878  0.2213 -0.6211  0.6048
  150DOPC   O1217885   7.113   4.861   6.902 -0.8614  0.1479 -0.6701
  150DOPC   O1117886   7.065   4.690   6.718  0.3801 -0.4325 -0.1491
  150DOPC    C117887   7.045   4.784   6.617 -0.3326 -0.0207 -0.1333
  150DOPC    HA17888   7.093   4.758   6.520  2.0920  1.6585  0.5221
  150DOPC    HB17889   7.082   4.886   6.641 -1.7354  0.5427 -0.2341
  150DOPC    C217890   6.892   4.798   6.598  0.4447  0.1577  0.5473
  150DOPC    HS17891   6.841   4.806   6.696 -1.4137  1.4897 -0.4555
  150DOPC   O2117892   6.838   4.689   6.520 -0.3154 -0.1511 -0.5802
  150DOPC   C2117893   6.716   4.661   6.528 -0.9595  0.1204 -0.0380
  150DOPC   O2217894   6.628   4.723   6.589  0.0795 -0.0718  0.1569
  150DOPC   C2217895   6.684   4.552   6.425  0.0808 -0.5748  0.1525
  150DOPC   H2R17896   6.653   4.465   6.488 -0.5992  0.0185  0.6563
  150DOPC   H2S17897   6.771   4.538   6.358 -0.6449  0.3517 -1.0032
  150DOPC    C317898   6.857   4.930   6.522 -0.5071 -0.0191 -0.2473
  150DOPC    HX17899   6.874   5.010   6.597 -2.2294  0.2283 -0.0745
  150DOPC    HY17900   6.751   4.935   6.487 -0.9678  1.9888  1.2717
  150DOPC   O3117901   6.949   4.944   6.412  0.0472 -0.5078  0.1888
  150DOPC   C3117902   6.930   5.049   6.338 -0.6448  0.2613  0.8439
  150DOPC   O3217903   6.841   5.130   6.358  0.1936 -0.0933  0.6244
  150DOPC   C3217904   7.034   5.043   6.223  0.5652  0.4354 -0.1537
  150DOPC   H2X17905   7.134   5.062   6.270  0.0801  1.8989  0.3421
  150DOPC   H2Y17906   7.032   4.939   6.187  1.9673  0.9749 -1.9073
  150DOPC   C2317907   6.560   4.596   6.337 -0.0354 -0.2897 -0.3669
  150DOPC   H3R17908   6.471   4.620   6.400 -0.3306 -0.9981 -0.5055
  150DOPC   H3S17909   6.539   4.512   6.267  0.9132 -0.9757  0.1483
  150DOPC   C2417910   6.586   4.713   6.246  0.3323 -0.7514  0.2676
  150DOPC   H4R17911   6.601   4.806   6.305 -1.7189 -0.0691 -0.1936
  150DOPC   H4S17912   6.495   4.727   6.183  0.0892 -2.6380  0.1657
  150DOPC   C2517913   6.722   4.702   6.159  0.1312 -0.3336 -0.0306
  150DOPC   H5R17914   6.755   4.597   6.143  1.3010 -0.1224  0.8614
  150DOPC   H5S17915   6.803   4.741   6.224 -1.2639  0.7435  1.1468
  150DOPC   C2617916   6.713   4.774   6.024 -0.2025 -0.1670  0.5139
  150DOPC   H6R17917   6.664   4.873   6.036 -0.1499  0.1280 -1.3964
  150DOPC   H6S17918   6.638   4.718   5.965 -0.6915 -0.9593  1.8352
  150DOPC   C2717919   6.848   4.793   5.951 -0.5753 -0.0267 -0.0889
  150DOPC   H7R17920   6.909   4.702   5.970  0.2265  0.3243 -0.9726
  150DOPC   H7S17921   6.908   4.870   6.005 -0.4039 -0.7859  0.8330
  150DOPC   C2817922   6.851   4.819   5.798  0.4682  0.5543 -0.5242
  150DOPC   H8R17923   6.959   4.826   5.772  0.1216  1.1728 -1.9082
  150DOPC   H8S17924   6.810   4.916   5.764 -2.2504 -1.3251 -3.2071
  150DOPC   C2917925   6.789   4.700   5.728 -0.2311  0.0276 -1.1986
  150DOPC   H9R17926   6.804   4.603   5.778  1.8829  0.4632 -0.9270
  150DOPC  C21017927   6.698   4.696   5.629  0.1988  0.1839  0.1038
  150DOPC  H10R17928   6.658   4.602   5.588 -1.3842  0.5227  0.7830
  150DOPC  C21117929   6.658   4.819   5.554  0.4271 -0.1897  0.4105
  150DOPC  H11R17930   6.678   4.807   5.445  2.2256  1.5546  0.4810
  150DOPC  H11S17931   6.722   4.906   5.581  1.7025  0.0561 -2.8845
  150DOPC  C21217932   6.514   4.860   5.578  0.7064  0.6176  0.1170
  150DOPC  H12R17933   6.441   4.780   5.552  1.1744  0.6501 -1.4133
  150DOPC  H12S17934   6.496   4.949   5.514  0.7255  0.8713  0.4667
  150DOPC  C21317935   6.486   4.914   5.717  0.2325  0.0836 -0.6320
  150DOPC  H13R17936   6.575   4.981   5.722  0.8203 -0.6583 -1.0154
  150DOPC  H13S17937   6.501   4.833   5.792 -1.3136  0.7418  0.4212
  150DOPC  C21417938   6.354   4.999   5.733 -0.4502  0.3832  0.0919
  150DOPC  H14R17939   6.321   4.972   5.836  0.0561 -2.6935 -0.4390
  150DOPC  H14S17940   6.278   4.964   5.660 -0.7644 -1.7498  1.3647
  150DOPC  C21517941   6.379   5.148   5.709  0.1881 -0.2141  0.1497
  150DOPC  H15R17942   6.407   5.168   5.603  0.8218 -2.6818 -0.2014
  150DOPC  H15S17943   6.463   5.181   5.774  0.6921 -0.2606 -0.4618
  150DOPC  C21617944   6.269   5.233   5.766  0.2820 -0.3288  0.2649
  150DOPC  H16R17945   6.166   5.211   5.729 -0.8585  2.0872  1.7022
  150DOPC  H16S17946   6.283   5.340   5.738 -1.1235  0.1523  1.2479
  150DOPC  C21717947   6.249   5.233   5.924 -0.2901 -0.0527  0.2947
  150DOPC  H17R17948   6.350   5.241   5.972 -0.0299 -0.8733 -0.0926
  150DOPC  H17S17949   6.216   5.129   5.948  0.1240  0.0438  1.3794
  150DOPC  C21817950   6.152   5.326   5.989  0.0120  0.1462  0.2345
  150DOPC  H18R17951   6.067   5.329   5.918 -0.1916 -2.5531  0.2793
  150DOPC  H18S17952   6.189   5.431   6.000 -0.8198  0.5676 -0.7952
  150DOPC  H18T17953   6.112   5.273   6.078  0.4381  0.1713  0.4460
  150DOPC   C3317954   7.005   5.148   6.105  0.2239  0.0856  0.0779
  150DOPC   H3X17955   7.002   5.248   6.153 -1.4379 -0.2933  0.8302
  150DOPC   H3Y17956   6.905   5.133   6.060  1.3985 -0.7502 -2.4727
  150DOPC   C3417957   7.107   5.159   5.987  0.0439 -0.3862  0.5240
  150DOPC   H4X17958   7.208   5.181   6.029 -0.3527  0.9803  0.8146
  150DOPC   H4Y17959   7.092   5.246   5.920  1.1339 -1.8386 -1.6890
  150DOPC   C3517960   7.117   5.026   5.908  0.0247 -0.0157 -0.7256
  150DOPC   H5X17961   7.017   5.012   5.859 -0.5735 -1.4323  0.8262
  150DOPC   H5Y17962   7.131   4.932   5.964 -1.3777 -1.0050 -1.9439
  150DOPC   C3617963   7.231   5.028   5.801 -0.3670 -0.5170 -0.0233
  150DOPC   H6X17964   7.326   5.046   5.855 -1.2960  0.4559  1.3574
  150DOPC   H6Y17965   7.244   4.929   5.751  2.3317 -0.8706  1.2404
  150DOPC   C3717966   7.225   5.140   5.702 -0.0018  0.5035 -0.1371
  150DOPC   H7X17967   7.141   5.125   5.632  0.8476  1.8944 -1.5238
  150DOPC   H7Y17968   7.216   5.239   5.752  0.4891  1.6173 -2.1477
  150DOPC   C3817969   7.354   5.133   5.616  0.1649 -0.1568 -0.2409
  150DOPC   H8X17970   7.372   5.029   5.581  0.9955 -0.1436  0.1370
  150DOPC   H8Y17971   7.440   5.170   5.675  0.3024  0.8718 -1.0589
  150DOPC   C3917972   7.320   5.222   5.497  0.4544  0.9280  0.0436
  150DOPC   H9X17973   7.230   5.285   5.506 -0.0588 -0.0034  2.0704
  150DOPC  C31017974   7.401   5.235   5.392 -0.2912  0.4495  0.9334
  150DOPC  H10X17975   7.375   5.296   5.305  2.3597 -0.7649 -0.8605
  150DOPC  C31117976   7.537   5.161   5.374  0.6215  0.3122  0.6808
  150DOPC  H11X17977   7.532   5.054   5.343  2.4851  0.6998 -1.1600
  150DOPC  H11Y17978   7.589   5.170   5.472  0.1104  0.4140  0.9452
  150DOPC  C31217979   7.635   5.240   5.289  0.3208 -0.4376 -0.5207
  150DOPC  H12X17980   7.740   5.221   5.320  0.4998 -0.5451 -1.1819
  150DOPC  H12Y17981   7.621   5.349   5.307  0.9751 -0.6909  1.8555
  150DOPC  C31317982   7.622   5.210   5.138  0.5681  0.1142  0.4226
  150DOPC  H13X17983   7.648   5.102   5.135  1.9747  0.4474 -0.8672
  150DOPC  H13Y17984   7.525   5.220   5.086  1.0888  1.3101 -0.3680
  150DOPC  C31417985   7.725   5.282   5.049  0.1907 -0.0190 -0.2057
  150DOPC  H14X17986   7.813   5.296   5.117 -0.1349 -1.8480  0.6502
  150DOPC  H14Y17987   7.748   5.220   4.960  0.5115  0.4397 -0.4475
  150DOPC  C31517988   7.680   5.420   4.987 -0.3176  0.1697  0.2002
  150DOPC  H15X17989   7.762   5.493   4.972  1.3832 -1.9039 -1.2687
  150DOPC  H15Y17990   7.608   5.468   5.056 -1.4489 -0.9737 -0.1573
  150DOPC  C31617991   7.628   5.410   4.843 -0.1392  0.7249 -0.3574
  150DOPC  H16X17992   7.703   5.366   4.775 -1.8643  0.4944 -2.2259
  150DOPC  H16Y17993   7.533   5.353   4.850 -0.8535  2.0136  1.0628
  150DOPC  C31717994   7.583   5.547   4.801 -0.0769  1.3969  0.1070
  150DOPC  H17X17995   7.516   5.604   4.869 -1.1298 -0.8274  1.0132
  150DOPC  H17Y17996   7.668   5.607   4.761 -0.0622 -0.3350 -2.7026
  150DOPC  C31817997   7.490   5.535   4.674  0.0125  0.0582 -0.1717
  150DOPC  H18X17998   7.561   5.518   4.590  0.4404  0.5666  0.0799
  150DOPC  H18Y17999   7.415   5.454   4.673 -0.0383  0.1060 -0.8147
  150DOPC  H18Z18000   7.430   5.629   4.667 -1.2128 -0.7696 -1.2219
  151DOPC     N18001   1.606   3.368   7.232 -0.0175 -1.0095 -0.6080
  151DOPC   C1218002   1.495   3.265   7.266 -0.1535 -0.2453 -0.5554
  151DOPC  H12A18003   1.487   3.274   7.373  0.3029 -0.8937 -0.4614
  151DOPC  H12B18004   1.546   3.170   7.255  0.3049  0.1746 -2.4585
  151DOPC   C1318005   1.575   3.508   7.263  0.0676  0.1926 -0.7332
  151DOPC  H13A18006   1.478   3.534   7.221 -0.2317  1.5912  0.7450
  151DOPC  H13B18007   1.558   3.513   7.369 -0.4840 -0.7606 -0.7669
  151DOPC  H13C18008   1.651   3.582   7.241 -0.4415  1.9271  2.7101
  151DOPC   C1418009   1.630   3.363   7.088  0.2220  0.1683  0.6865
  151DOPC  H14A18010   1.548   3.397   7.026  0.5904  0.8488  0.5621
  151DOPC  H14B18011   1.722   3.414   7.064  1.3240 -2.5799 -1.4895
  151DOPC  H14C18012   1.652   3.261   7.062  1.6937  0.3664  1.0932
  151DOPC   C1518013   1.742   3.344   7.298  0.2370  0.1731  0.0067
  151DOPC  H15A18014   1.810   3.418   7.258 -0.5764  0.7388 -0.3742
  151DOPC  H15B18015   1.778   3.248   7.264  0.0163  0.2362 -0.4116
  151DOPC  H15C18016   1.739   3.344   7.405  0.1847 -1.5520  0.0265
  151DOPC   C1118017   1.358   3.287   7.198  0.1888 -0.0600  0.0392
  151DOPC  H11A18018   1.366   3.281   7.087  2.7015 -0.5832  0.1986
  151DOPC  H11B18019   1.296   3.195   7.204  1.0910 -0.7873 -1.2120
  151DOPC     P18020   1.134   3.428   7.212  0.2253  0.5661  0.2860
  151DOPC   O1318021   1.101   3.570   7.213 -0.2519 -0.0029  0.1767
  151DOPC   O1418022   1.054   3.351   7.307  1.0866  0.0530  0.5472
  151DOPC   O1218023   1.292   3.408   7.249  0.0051  0.1323  0.4724
  151DOPC   O1118024   1.119   3.364   7.060 -0.3532  0.0173 -0.1610
  151DOPC    C118025   1.157   3.447   6.948  0.3675  0.6963 -0.5189
  151DOPC    HA18026   1.201   3.381   6.870  0.2619 -0.7180  0.5912
  151DOPC    HB18027   1.236   3.519   6.976  1.0548 -0.4401  0.5503
  151DOPC    C218028   1.037   3.528   6.889 -0.1535 -0.5708  0.3631
  151DOPC    HS18029   1.009   3.591   6.976  0.2549 -0.5975  0.5179
  151DOPC   O2118030   0.938   3.433   6.852  0.1312 -0.0787  0.7739
  151DOPC   C2118031   0.821   3.450   6.898  0.2992  0.1890 -0.1488
  151DOPC   O2218032   0.781   3.534   6.976  0.3691  0.0125 -0.1029
  151DOPC   C2218033   0.736   3.340   6.838 -0.0767 -0.4574  0.3885
  151DOPC   H2R18034   0.634   3.344   6.884  0.1997  0.2990  0.9548
  151DOPC   H2S18035   0.787   3.242   6.851 -1.1283 -0.8186  2.1023
  151DOPC    C318036   1.070   3.604   6.769 -0.3180 -0.9246 -0.1492
  151DOPC    HX18037   1.112   3.543   6.686  1.8941  0.5761 -0.2109
  151DOPC    HY18038   1.154   3.674   6.788  0.2574 -1.5332 -0.4188
  151DOPC   O3118039   0.949   3.679   6.727 -0.2515 -0.0562 -0.2890
  151DOPC   C3118040   0.962   3.775   6.640  0.2602 -0.1094 -0.2268
  151DOPC   O3218041   1.069   3.810   6.592  0.2847  0.0834 -0.4568
  151DOPC   C3218042   0.840   3.865   6.636  0.5602  0.3571 -0.1415
  151DOPC   H2X18043   0.758   3.824   6.700 -0.2384  0.5533 -1.0135
  151DOPC   H2Y18044   0.866   3.964   6.678 -1.5423  0.1723  1.8694
  151DOPC   C2318045   0.713   3.354   6.682 -0.1921  0.0763  0.2820
  151DOPC   H3R18046   0.639   3.281   6.645 -0.2418  1.4030 -2.4869
  151DOPC   H3S18047   0.811   3.333   6.634  0.9604 -0.1273  2.5981
  151DOPC   C2418048   0.665   3.490   6.641  0.2402 -0.4331 -0.4972
  151DOPC   H4R18049   0.655   3.493   6.530 -0.3778 -1.6277 -0.4881
  151DOPC   H4S18050   0.730   3.578   6.660  0.1119 -0.0537 -1.7065
  151DOPC   C2518051   0.523   3.507   6.695  0.2158  0.4394 -0.0979
  151DOPC   H5R18052   0.527   3.507   6.806  0.3682 -1.8674 -0.0662
  151DOPC   H5S18053   0.466   3.421   6.654  1.2768 -0.1838 -0.3089
  151DOPC   C2618054   0.453   3.641   6.646  0.0118  0.0933 -1.1190
  151DOPC   H6R18055   0.435   3.629   6.537 -0.3045  0.4770 -1.1121
  151DOPC   H6S18056   0.530   3.720   6.660  1.6345 -1.5499 -0.3266
  151DOPC   C2718057   0.331   3.676   6.734 -0.4395  0.8805  0.2375
  151DOPC   H7R18058   0.346   3.673   6.844 -0.5782 -0.9466  0.2336
  151DOPC   H7S18059   0.263   3.591   6.716  1.6483 -1.7022  3.4127
  151DOPC   C2818060   0.252   3.801   6.690 -0.9526  0.2067 -0.4189
  151DOPC   H8R18061   0.155   3.801   6.744 -0.6875  0.7573  0.0690
  151DOPC   H8S18062   0.233   3.803   6.581  2.8408 -0.9490 -1.2627
  151DOPC   C2918063   0.336   3.930   6.721 -0.6639 -0.2020  0.1544
  151DOPC   H9R18064   0.426   3.923   6.784 -1.2804 -0.1414  1.0621
  151DOPC  C21018065   0.310   4.055   6.668  0.3621  0.2954 -0.3037
  151DOPC  H10R18066   0.380   4.137   6.690 -0.6388  1.1103 -0.1221
  151DOPC  C21118067   0.190   4.088   6.577 -0.3779  0.3046  0.3823
  151DOPC  H11R18068   0.116   4.156   6.623 -1.8972 -0.1061 -1.3263
  151DOPC  H11S18069   0.140   3.992   6.554  2.3810 -1.6395  1.7989
  151DOPC  C21218070   0.232   4.164   6.451  0.1038 -0.1424  0.1797
  151DOPC  H12R18071   0.283   4.087   6.390 -3.3014  0.2207 -3.5477
  151DOPC  H12S18072   0.295   4.253   6.473 -0.1262  1.0734 -3.4414
  151DOPC  C21318073   0.114   4.202   6.360 -0.2873 -0.0871  0.6413
  151DOPC  H13R18074   0.083   4.307   6.380  2.2652  1.2242 -1.5494
  151DOPC  H13S18075   0.034   4.126   6.358 -0.1097 -0.2642 -0.7363
  151DOPC  C21418076   0.144   4.213   6.204  0.1967 -0.2364 -0.0368
  151DOPC  H14R18077   0.207   4.305   6.197  0.2807 -0.3146 -0.3152
  151DOPC  H14S18078   0.045   4.242   6.162  0.7843 -1.4132 -2.4418
  151DOPC  C21518079   0.198   4.093   6.133  0.0153 -0.1196  0.3504
  151DOPC  H15R18080   0.137   4.001   6.142  1.6897 -1.2092  1.2646
  151DOPC  H15S18081   0.301   4.074   6.171  0.8565 -2.8868 -2.7874
  151DOPC  C21618082   0.190   4.118   5.981 -0.1953 -0.2812  0.2397
  151DOPC  H16R18083   0.273   4.188   5.960 -0.3450 -0.2679 -0.3321
  151DOPC  H16S18084   0.094   4.169   5.955 -0.2036 -0.7720 -0.7346
  151DOPC  C21718085   0.207   3.999   5.893 -0.0144 -0.1045  0.0643
  151DOPC  H17R18086   0.124   3.926   5.907 -2.4303  2.4993  0.2667
  151DOPC  H17S18087   0.300   3.945   5.922  0.3452  0.5911  0.2116
  151DOPC  C21818088   0.210   4.036   5.744  0.5345  0.2890 -0.0155
  151DOPC  H18R18089   0.220   3.944   5.684  0.6442  0.6356 -0.5315
  151DOPC  H18S18090   0.290   4.107   5.714  0.6357 -0.5071 -1.7317
  151DOPC  H18T18091   0.111   4.077   5.715 -0.2516 -1.2026  0.4360
  151DOPC   C3318092   0.796   3.902   6.489  0.4699  0.1911  0.0639
  151DOPC   H3X18093   0.878   3.935   6.421 -1.7609  0.6287 -2.6352
  151DOPC   H3Y18094   0.717   3.979   6.499  0.6995  0.2641  1.4525
  151DOPC   C3418095   0.719   3.784   6.422 -0.1896 -1.0659  0.4258
  151DOPC   H4X18096   0.638   3.738   6.484 -1.9167 -1.1690 -1.7860
  151DOPC   H4Y18097   0.788   3.699   6.401  0.7667 -0.4776  1.0985
  151DOPC   C3518098   0.662   3.829   6.285 -0.3755  0.6182 -0.0187
  151DOPC   H5X18099   0.694   3.759   6.204 -0.2376  0.2192  0.3747
  151DOPC   H5Y18100   0.708   3.926   6.256 -0.8611  1.2765  1.3379
  151DOPC   C3618101   0.511   3.833   6.278  0.0999  0.3472 -0.4413
  151DOPC   H6X18102   0.477   3.880   6.373 -0.5236  0.1239 -0.5492
  151DOPC   H6Y18103   0.486   3.900   6.193  1.9708  0.3882 -0.9990
  151DOPC   C3718104   0.430   3.705   6.252  0.4853  0.0004  0.5159
  151DOPC   H7X18105   0.450   3.676   6.146 -2.9527 -1.7565  0.2281
  151DOPC   H7Y18106   0.468   3.626   6.320 -0.8465 -0.5058  0.6934
  151DOPC   C3818107   0.280   3.733   6.278  0.1605 -0.3253 -0.1914
  151DOPC   H8X18108   0.240   3.815   6.214 -0.2115 -0.4227 -0.0879
  151DOPC   H8Y18109   0.280   3.778   6.380  0.9253  0.0929 -0.3692
  151DOPC   C3918110   0.208   3.601   6.280  0.4794  0.1736  0.1321
  151DOPC   H9X18111   0.212   3.543   6.373 -1.4102 -0.4050 -0.1020
  151DOPC  C31018112   0.113   3.560   6.195  0.1622  0.1473  0.0681
  151DOPC  H10X18113   0.076   3.457   6.207  1.1773 -0.0331  2.1688
  151DOPC  C31118114   0.090   3.635   6.066 -0.0330 -0.5262 -0.6175
  151DOPC  H11X18115   0.072   3.740   6.095  0.6262 -0.5936  0.0518
  151DOPC  H11Y18116  -0.009   3.604   6.025 -0.1116 -1.7607  0.4112
  151DOPC  C31218117   0.194   3.628   5.956  0.3813  0.4800  0.0114
  151DOPC  H12X18118   0.289   3.673   5.994  1.0530  1.6604 -2.7994
  151DOPC  H12Y18119   0.162   3.692   5.871  0.8914  1.3892  0.4883
  151DOPC  C31318120   0.220   3.494   5.890  0.3961  0.6418 -0.4758
  151DOPC  H13X18121   0.238   3.417   5.967 -3.2030  0.0470 -0.0986
  151DOPC  H13Y18122   0.132   3.452   5.837  2.0246 -0.5467 -2.3941
  151DOPC  C31418123   0.336   3.496   5.794  0.4394 -0.2758 -0.5362
  151DOPC  H14X18124   0.420   3.536   5.854 -0.0278 -1.2879  0.8313
  151DOPC  H14Y18125   0.354   3.390   5.767  1.3418 -0.2377 -0.1123
  151DOPC  C31518126   0.317   3.577   5.670 -0.1810  0.5538 -0.0582
  151DOPC  H15X18127   0.315   3.687   5.687 -1.6945  0.3104  1.6366
  151DOPC  H15Y18128   0.217   3.542   5.637 -0.2609 -2.6938  2.9721
  151DOPC  C31618129   0.427   3.552   5.565 -0.0358 -0.0448  0.2444
  151DOPC  H16X18130   0.522   3.572   5.620 -1.5647 -1.1163  3.5053
  151DOPC  H16Y18131   0.428   3.449   5.524 -2.8125  0.7549 -2.1322
  151DOPC  C31718132   0.432   3.648   5.443  0.0933 -0.1306  0.0292
  151DOPC  H17X18133   0.456   3.749   5.482  0.6375 -0.3401  0.2374
  151DOPC  H17Y18134   0.522   3.610   5.391  2.6242  2.4243  2.2001
  151DOPC  C31818135   0.301   3.647   5.369 -0.3634 -0.2407  0.9738
  151DOPC  H18X18136   0.290   3.542   5.333  0.1262  0.3540 -1.0460
  151DOPC  H18Y18137   0.221   3.683   5.437 -0.7219  2.1975 -0.6187
  151DOPC  H18Z18138   0.306   3.711   5.279 -0.4785  0.6061  1.5538
  152DOPC     N18139   2.612   1.482   7.195 -0.1855  0.1116  0.3773
  152DOPC   C1218140   2.521   1.450   7.072 -0.7603 -0.3541  0.4422
  152DOPC  H12A18141   2.538   1.535   7.007 -0.2158  0.3912  1.5336
  152DOPC  H12B18142   2.415   1.457   7.090 -0.8875 -0.4147 -0.2487
  152DOPC   C1318143   2.609   1.373   7.298  0.1413 -0.5763  0.6936
  152DOPC  H13A18144   2.508   1.336   7.308  0.6083 -1.3861  2.9632
  152DOPC  H13B18145   2.658   1.286   7.255  3.2211  1.6950 -0.7410
  152DOPC  H13C18146   2.653   1.389   7.396  1.4340 -0.4083  0.1048
  152DOPC   C1418147   2.562   1.604   7.251 -0.2356 -0.6024 -0.0928
  152DOPC  H14A18148   2.571   1.669   7.165  4.0702 -2.5179 -1.3722
  152DOPC  H14B18149   2.464   1.603   7.295 -1.3562 -0.3816 -2.3968
  152DOPC  H14C18150   2.630   1.635   7.329 -0.2751 -0.0021 -0.2901
  152DOPC   C1518151   2.751   1.502   7.155 -0.5580  0.6442  0.2880
  152DOPC  H15A18152   2.800   1.417   7.111 -0.2715  1.1936 -0.4903
  152DOPC  H15B18153   2.810   1.534   7.240  1.2457  1.4339 -1.1902
  152DOPC  H15C18154   2.769   1.584   7.086  3.6892 -2.2963 -2.6044
  152DOPC   C1118155   2.546   1.328   6.976  0.4869 -0.0621 -0.3119
  152DOPC  H11A18156   2.471   1.312   6.895 -0.0590 -1.0865  0.3628
  152DOPC  H11B18157   2.644   1.347   6.928  0.3909  1.4217  0.0559
  152DOPC     P18158   2.613   1.078   6.998  0.0977  0.0423 -0.0224
  152DOPC   O1318159   2.489   1.000   6.960  0.3986 -0.5005 -0.1635
  152DOPC   O1418160   2.705   1.023   7.094 -0.3202  0.6992 -0.3958
  152DOPC   O1218161   2.555   1.218   7.060  0.2589 -0.1537  0.4189
  152DOPC   O1118162   2.693   1.109   6.865  0.6137 -0.1594  0.0165
  152DOPC    C118163   2.828   1.058   6.843  0.6395  0.2508  0.0587
  152DOPC    HA18164   2.850   0.958   6.887 -2.0203 -0.9183 -1.0683
  152DOPC    HB18165   2.899   1.121   6.901  0.6305 -1.7218  2.3818
  152DOPC    C218166   2.857   1.057   6.691 -0.3594 -0.5038 -0.6553
  152DOPC    HS18167   2.963   1.025   6.679  0.5216  1.8928 -0.0126
  152DOPC   O2118168   2.823   1.182   6.624 -0.1031  0.1272 -0.1098
  152DOPC   C2118169   2.847   1.302   6.677  0.0295  0.7492 -0.5061
  152DOPC   O2218170   2.900   1.332   6.779  0.2697 -0.2867 -0.7310
  152DOPC   C2218171   2.772   1.401   6.591 -0.2390  0.1273 -0.4108
  152DOPC   H2R18172   2.677   1.363   6.548 -0.3790  2.6158 -2.5094
  152DOPC   H2S18173   2.825   1.399   6.493 -2.1587 -0.2040 -1.4913
  152DOPC    C318174   2.768   0.953   6.627  0.3342 -0.5022 -0.1959
  152DOPC    HX18175   2.661   0.982   6.634  0.7879  1.1436  0.3997
  152DOPC    HY18176   2.775   0.850   6.667 -1.3193 -0.7989 -0.5780
  152DOPC   O3118177   2.795   0.949   6.485 -0.1625 -0.1302  0.2175
  152DOPC   C3118178   2.718   1.022   6.399  0.0800  1.0391  0.5781
  152DOPC   O3218179   2.620   1.083   6.428 -0.1360 -0.2195 -0.3517
  152DOPC   C3218180   2.786   1.016   6.264  0.9206 -0.5123 -0.2343
  152DOPC   H2X18181   2.856   1.102   6.256  0.3606 -0.1945 -2.6945
  152DOPC   H2Y18182   2.861   0.935   6.266  1.1974 -0.2589 -0.3297
  152DOPC   C2318183   2.765   1.544   6.652  0.4688 -0.0938 -0.0660
  152DOPC   H3R18184   2.707   1.552   6.747  3.7618 -0.2089  2.1316
  152DOPC   H3S18185   2.715   1.602   6.572  0.7960 -0.2497 -0.3863
  152DOPC   C2418186   2.900   1.604   6.697 -0.0598 -0.3962  0.6947
  152DOPC   H4R18187   2.977   1.548   6.640 -0.7757 -0.2846 -0.4275
  152DOPC   H4S18188   2.914   1.600   6.807  1.2732  1.1504  0.6203
  152DOPC   C2518189   2.913   1.754   6.649 -0.0917  0.3457 -0.1713
  152DOPC   H5R18190   2.861   1.816   6.725 -0.1744 -1.4833  1.3354
  152DOPC   H5S18191   2.875   1.766   6.545 -0.5745  0.7609  0.0482
  152DOPC   C2618192   3.056   1.801   6.646 -0.0927  0.7938 -0.3463
  152DOPC   H6R18193   3.123   1.714   6.633  1.3268  1.9844 -1.3403
  152DOPC   H6S18194   3.077   1.845   6.746  1.9431 -1.8132  0.4857
  152DOPC   C2718195   3.078   1.906   6.532  0.7203 -0.1604  0.2535
  152DOPC   H7R18196   2.992   1.978   6.533  1.8914  1.2892  0.5743
  152DOPC   H7S18197   3.056   1.850   6.439 -3.6639 -0.7000  1.4059
  152DOPC   C2818198   3.212   1.968   6.525 -0.2621  0.4554  0.5849
  152DOPC   H8R18199   3.229   2.013   6.625  1.2705  0.2297  0.4572
  152DOPC   H8S18200   3.217   2.045   6.445 -0.2112 -1.8180 -1.7349
  152DOPC   C2918201   3.322   1.866   6.519  0.0946  0.4010 -0.3363
  152DOPC   H9R18202   3.364   1.826   6.613  0.5263  0.4662 -0.5006
  152DOPC  C21018203   3.386   1.834   6.412 -0.2285 -0.4425 -0.2583
  152DOPC  H10R18204   3.472   1.770   6.435 -0.5019 -1.0029 -0.7559
  152DOPC  C21118205   3.381   1.882   6.268  0.8384  0.7243 -0.4795
  152DOPC  H11R18206   3.476   1.930   6.239  1.1653  0.2425 -0.2217
  152DOPC  H11S18207   3.298   1.950   6.242 -0.9439 -1.7467 -1.7328
  152DOPC  C21218208   3.369   1.752   6.181 -0.3787 -0.4863 -0.5561
  152DOPC  H12R18209   3.262   1.722   6.171 -1.0066  1.6915 -0.8054
  152DOPC  H12S18210   3.430   1.670   6.224 -1.5575 -0.3273  1.5419
  152DOPC  C21318211   3.428   1.775   6.038  0.0976 -0.7026  0.4117
  152DOPC  H13R18212   3.529   1.814   6.062 -0.4349  0.9669  0.1237
  152DOPC  H13S18213   3.372   1.847   5.974  0.7895 -0.1099  0.4560
  152DOPC  C21418214   3.430   1.649   5.954 -0.5745 -0.3822  0.4134
  152DOPC  H14R18215   3.327   1.611   5.941 -1.3297  2.0217 -1.5843
  152DOPC  H14S18216   3.493   1.581   6.014 -2.0267 -1.6867  0.4971
  152DOPC  C21518217   3.491   1.662   5.814 -0.3761 -0.3856  0.2364
  152DOPC  H15R18218   3.589   1.715   5.808 -0.6461 -0.0514 -1.6172
  152DOPC  H15S18219   3.424   1.717   5.746 -1.4718  0.3583  1.8569
  152DOPC  C21618220   3.529   1.520   5.755 -0.0736 -0.1181 -0.5177
  152DOPC  H16R18221   3.442   1.452   5.750 -2.2942  2.6292 -1.7189
  152DOPC  H16S18222   3.612   1.471   5.811  2.7007  2.8002 -1.7474
  152DOPC  C21718223   3.594   1.540   5.616 -0.4502  0.3659  0.2330
  152DOPC  H17R18224   3.677   1.468   5.599 -0.1213  0.6498  0.6276
  152DOPC  H17S18225   3.632   1.644   5.617 -0.2445  0.2907  0.8057
  152DOPC  C21818226   3.483   1.530   5.511  0.0377  1.1645 -0.1457
  152DOPC  H18R18227   3.393   1.578   5.555 -0.2330 -1.1442  2.0734
  152DOPC  H18S18228   3.452   1.426   5.489 -1.0604  1.7645 -1.5912
  152DOPC  H18T18229   3.521   1.571   5.416  1.8837 -0.7042 -0.2725
  152DOPC   C3318230   2.703   1.019   6.142  0.6670 -0.1500 -0.9403
  152DOPC   H3X18231   2.623   1.095   6.142 -0.8018 -1.6217  0.0394
  152DOPC   H3Y18232   2.654   0.920   6.125 -2.0225  0.8522  0.4909
  152DOPC   C3418233   2.798   1.045   6.020 -0.0897  0.3764 -0.5010
  152DOPC   H4X18234   2.874   0.964   6.019 -0.9708 -0.4723 -0.3634
  152DOPC   H4Y18235   2.848   1.144   6.032 -1.7671  1.2133 -0.2102
  152DOPC   C3518236   2.734   1.038   5.884 -0.3208  0.3956  0.6078
  152DOPC   H5X18237   2.674   1.132   5.885  0.8174  1.1316  1.5604
  152DOPC   H5Y18238   2.675   0.944   5.886 -0.0479  0.2213  0.4996
  152DOPC   C3618239   2.835   1.052   5.767  0.7772  0.1175  0.5776
  152DOPC   H6X18240   2.888   1.150   5.777 -0.2214  0.8818 -1.1494
  152DOPC   H6Y18241   2.911   0.972   5.778 -1.2804 -2.5136 -2.3763
  152DOPC   C3718242   2.776   1.049   5.621 -0.4832 -0.1189 -0.0126
  152DOPC   H7X18243   2.733   0.949   5.600  0.5156 -0.1033 -2.6428
  152DOPC   H7Y18244   2.696   1.126   5.614  0.0221  0.5265  1.1823
  152DOPC   C3818245   2.870   1.074   5.511 -0.0922  0.4620 -0.2070
  152DOPC   H8X18246   2.929   1.166   5.529 -0.6325  0.5868  1.0671
  152DOPC   H8Y18247   2.817   1.095   5.416 -1.9225 -0.4117  0.5656
  152DOPC   C3918248   2.969   0.956   5.513  0.4147  0.3892  0.4908
  152DOPC   H9X18249   3.019   0.941   5.610 -1.2734  0.0781  1.3525
  152DOPC  C31018250   2.964   0.866   5.413 -0.5477  0.6373  0.0760
  152DOPC  H10X18251   3.026   0.776   5.428 -0.3716  0.6282 -0.6450
  152DOPC  C31118252   2.897   0.873   5.281 -0.2576  0.4228 -0.0850
  152DOPC  H11X18253   2.798   0.921   5.288 -0.5894 -0.2376 -0.1595
  152DOPC  H11Y18254   2.875   0.767   5.255  1.7229 -0.1121  0.2222
  152DOPC  C31218255   2.966   0.917   5.146 -0.3874  0.1170 -0.6364
  152DOPC  H12X18256   2.958   1.028   5.136 -0.9509  0.0596 -0.8244
  152DOPC  H12Y18257   2.899   0.879   5.067 -1.3329  0.4545 -0.0186
  152DOPC  C31318258   3.117   0.874   5.131 -0.3039  0.2995 -0.7798
  152DOPC  H13X18259   3.152   0.905   5.030  0.7426 -1.8142 -1.1289
  152DOPC  H13Y18260   3.173   0.931   5.208  0.4878 -0.4555 -0.7819
  152DOPC  C31418261   3.147   0.727   5.143 -0.3241  0.2093 -0.9808
  152DOPC  H14X18262   3.256   0.705   5.141  0.0457  1.9577 -1.3842
  152DOPC  H14Y18263   3.126   0.703   5.249 -2.9823  2.0092 -0.9955
  152DOPC  C31518264   3.063   0.632   5.055  0.3446  0.2443 -0.4392
  152DOPC  H15X18265   3.076   0.672   4.952  0.8951  3.0241  0.6446
  152DOPC  H15Y18266   2.958   0.638   5.089  0.0208  0.7421 -1.4888
  152DOPC  C31618267   3.107   0.487   5.067  0.0243 -0.7065  0.1961
  152DOPC  H16X18268   3.216   0.466   5.068  0.1539 -0.0635  0.4645
  152DOPC  H16Y18269   3.058   0.455   5.161  0.0367  0.2787  0.5509
  152DOPC  C31718270   3.035   0.411   4.951  0.3464 -0.0047  0.1956
  152DOPC  H17X18271   2.931   0.406   4.989 -0.0063 -0.3179 -0.7895
  152DOPC  H17Y18272   3.037   0.468   4.856  0.4171 -1.4835 -0.7201
  152DOPC  C31818273   3.087   0.273   4.918 -0.1802 -0.0685 -0.2419
  152DOPC  H18X18274   3.197   0.274   4.904 -0.1689  1.1553 -0.2108
  152DOPC  H18Y18275   3.066   0.206   5.005 -1.8459 -0.4670 -0.9195
  152DOPC  H18Z18276   3.036   0.247   4.823 -2.6244  1.7643  0.4489
  153DOPC     N18277   5.884   5.620   7.205  0.1513 -0.2822 -0.3712
  153DOPC   C1218278   5.909   5.712   7.091  0.2770  0.4247  0.2549
  153DOPC  H12A18279   6.008   5.680   7.065  0.1885  0.6282 -0.3508
  153DOPC  H12B18280   5.898   5.812   7.131 -4.4854 -0.3010  1.4439
  153DOPC   C1318281   5.909   5.476   7.170 -0.7091  0.1345  0.6353
  153DOPC  H13A18282   5.844   5.444   7.090  1.8183 -0.6550 -1.2345
  153DOPC  H13B18283   6.004   5.452   7.124 -0.4231 -0.3814  1.4800
  153DOPC  H13C18284   5.880   5.412   7.252 -1.0045  0.2367  0.6148
  153DOPC   C1418285   5.750   5.627   7.266 -0.5807  0.5216 -0.5128
  153DOPC  H14A18286   5.737   5.720   7.318  0.2460  0.9753 -1.1074
  153DOPC  H14B18287   5.665   5.634   7.199 -0.8324 -1.9036 -0.5329
  153DOPC  H14C18288   5.724   5.554   7.341 -0.1092 -1.6126 -2.3070
  153DOPC   C1518289   5.986   5.665   7.310 -0.0903  0.1519 -0.1261
  153DOPC  H15A18290   6.090   5.663   7.281 -0.4074 -0.7007 -1.2759
  153DOPC  H15B18291   5.969   5.618   7.406 -1.1729 -0.1012 -0.4306
  153DOPC  H15C18292   5.981   5.770   7.336  0.1900  0.2056 -0.2859
  153DOPC   C1118293   5.819   5.711   6.966 -0.6171  0.1023  0.1527
  153DOPC  H11A18294   5.854   5.801   6.910  2.4780 -0.8023  0.4275
  153DOPC  H11B18295   5.844   5.624   6.902  1.0364  1.5687 -1.3269
  153DOPC     P18296   5.610   5.852   7.036 -0.3748 -0.1194  0.0083
  153DOPC   O1318297   5.712   5.935   7.093  0.2475  0.3586 -0.4164
  153DOPC   O1418298   5.485   5.834   7.112  0.1298 -0.1520 -0.9287
  153DOPC   O1218299   5.675   5.719   6.985 -0.5341  0.3045 -0.0927
  153DOPC   O1118300   5.574   5.929   6.898  0.8236 -0.8724  0.0460
  153DOPC    C118301   5.584   5.865   6.770 -0.0500 -0.4069 -0.3422
  153DOPC    HA18302   5.505   5.792   6.744 -0.2089 -0.0321 -0.9448
  153DOPC    HB18303   5.679   5.809   6.764 -0.7696 -1.7477  0.2145
  153DOPC    C218304   5.609   5.977   6.660 -0.3825 -0.6865  0.0406
  153DOPC    HS18305   5.506   6.004   6.629  0.0754 -1.2853 -2.1034
  153DOPC   O2118306   5.663   5.910   6.544  0.9517 -0.3669 -0.2242
  153DOPC   C2118307   5.583   5.823   6.488  0.1672 -0.0423  0.1311
  153DOPC   O2218308   5.467   5.802   6.515  0.5602 -0.1394  0.0982
  153DOPC   C2218309   5.660   5.753   6.376  0.2583  0.3248  0.4027
  153DOPC   H2R18310   5.767   5.749   6.404  0.1919 -1.8231  0.4637
  153DOPC   H2S18311   5.658   5.806   6.278  2.3556  0.9203  0.6360
  153DOPC    C318312   5.708   6.096   6.695  0.4939 -0.2632  0.5797
  153DOPC    HX18313   5.803   6.046   6.724 -0.7235 -2.7763  0.5118
  153DOPC    HY18314   5.661   6.149   6.781 -1.5684 -0.6123 -0.2721
  153DOPC   O3118315   5.740   6.174   6.582 -0.2385  0.1438 -0.5250
  153DOPC   C3118316   5.651   6.262   6.542  0.3326  0.5914  0.3614
  153DOPC   O3218317   5.550   6.296   6.605  0.2036  0.1547  0.8166
  153DOPC   C3218318   5.686   6.324   6.409  0.6349 -0.1990 -0.0262
  153DOPC   H2X18319   5.692   6.433   6.430  0.7581  0.1542 -1.7810
  153DOPC   H2Y18320   5.788   6.295   6.375  0.7025  0.6074 -0.5260
  153DOPC   C2318321   5.602   5.614   6.359 -0.4371 -0.1357  0.0132
  153DOPC   H3R18322   5.495   5.610   6.329 -0.4078  1.3040 -0.3559
  153DOPC   H3S18323   5.610   5.555   6.453  1.2745  0.1507  0.0716
  153DOPC   C2418324   5.679   5.547   6.247 -0.4832  0.2930  0.0462
  153DOPC   H4R18325   5.647   5.441   6.236  0.8310  0.0277 -1.6974
  153DOPC   H4S18326   5.788   5.553   6.269 -0.1303 -2.0129 -0.7747
  153DOPC   C2518327   5.677   5.609   6.102 -1.0598  0.0454 -0.7310
  153DOPC   H5R18328   5.747   5.695   6.106  1.7261 -2.0304 -1.6418
  153DOPC   H5S18329   5.573   5.634   6.073 -0.9639  0.3031 -0.8524
  153DOPC   C2618330   5.736   5.508   5.995  0.0435  0.2773 -0.5091
  153DOPC   H6R18331   5.697   5.409   6.026 -0.7409  0.2560 -1.4899
  153DOPC   H6S18332   5.847   5.505   5.992  0.0921  1.2423 -0.1373
  153DOPC   C2718333   5.677   5.522   5.852 -0.2878  0.0921  0.0258
  153DOPC   H7R18334   5.701   5.623   5.812 -0.9644 -0.5808 -2.2432
  153DOPC   H7S18335   5.567   5.522   5.868 -0.1801 -1.1240  0.8378
  153DOPC   C2818336   5.723   5.401   5.767 -0.4386 -0.0361 -0.0932
  153DOPC   H8R18337   5.682   5.307   5.809  0.1279 -1.0565 -1.7177
  153DOPC   H8S18338   5.834   5.390   5.761 -0.4416 -0.4137  0.5292
  153DOPC   C2918339   5.661   5.419   5.632 -0.7999 -0.8474  0.1896
  153DOPC   H9R18340   5.577   5.490   5.623 -0.4906 -0.0106  2.9653
  153DOPC  C21018341   5.705   5.359   5.516 -0.1407 -0.5480  0.0243
  153DOPC  H10R18342   5.641   5.378   5.429  0.5072 -3.2921 -1.1765
  153DOPC  C21118343   5.818   5.259   5.496  0.5717 -0.3842 -0.6236
  153DOPC  H11R18344   5.770   5.188   5.425  1.7968 -0.0434 -1.8349
  153DOPC  H11S18345   5.841   5.192   5.582 -0.0131  0.0276 -0.1385
  153DOPC  C21218346   5.956   5.295   5.453 -0.3820  0.5678  0.3567
  153DOPC  H12R18347   5.999   5.359   5.534  3.3686 -0.4791 -0.6065
  153DOPC  H12S18348   5.945   5.363   5.366  2.1378  1.5117  0.6806
  153DOPC  C21318349   6.058   5.181   5.431  0.0348  0.4523 -0.1715
  153DOPC  H13R18350   6.010   5.092   5.386  0.3623  0.9058 -1.4882
  153DOPC  H13S18351   6.100   5.147   5.528  0.2078 -0.3969 -0.5350
  153DOPC  C21418352   6.185   5.213   5.345  0.6763 -0.9256 -0.0261
  153DOPC  H14R18353   6.236   5.283   5.415  0.1129 -1.6219  1.1230
  153DOPC  H14S18354   6.151   5.269   5.255  0.7818 -0.9193 -0.0618
  153DOPC  C21518355   6.266   5.086   5.323 -0.4920 -0.2964  0.4466
  153DOPC  H15R18356   6.202   5.020   5.261  0.0811  0.2599 -0.7681
  153DOPC  H15S18357   6.277   5.036   5.422 -0.7251 -1.2701 -0.0050
  153DOPC  C21618358   6.402   5.112   5.254  0.0744 -0.4970  0.4670
  153DOPC  H16R18359   6.457   5.015   5.255  0.5366 -0.2411  0.0438
  153DOPC  H16S18360   6.454   5.185   5.319  0.8347 -1.3020  0.7784
  153DOPC  C21718361   6.385   5.163   5.112  0.3750 -0.7151 -0.2147
  153DOPC  H17R18362   6.347   5.267   5.120  1.7913 -0.2541  1.1717
  153DOPC  H17S18363   6.320   5.093   5.056  1.7369 -0.6218 -2.0167
  153DOPC  C21818364   6.510   5.171   5.038 -0.4574  0.0435  0.0612
  153DOPC  H18R18365   6.580   5.241   5.089  0.4912 -0.6632 -0.2473
  153DOPC  H18S18366   6.481   5.219   4.942 -2.1694  2.3729  1.6334
  153DOPC  H18T18367   6.557   5.071   5.028  0.3984  0.2437  1.7165
  153DOPC   C3318368   5.574   6.296   6.302  0.2879  0.2790  0.3815
  153DOPC   H3X18369   5.572   6.376   6.224  0.1884  0.1377  0.2376
  153DOPC   H3Y18370   5.479   6.305   6.359 -2.8169  0.0548 -4.1919
  153DOPC   C3418371   5.590   6.162   6.234 -0.8590 -0.0067 -0.0489
  153DOPC   H4X18372   5.588   6.081   6.309  0.1355 -0.4975 -0.5341
  153DOPC   H4Y18373   5.690   6.155   6.185 -0.3252  1.0324  0.8256
  153DOPC   C3518374   5.488   6.125   6.127  0.0927 -0.4665 -0.4571
  153DOPC   H5X18375   5.487   6.217   6.064 -0.5750  1.2698  1.9201
  153DOPC   H5Y18376   5.385   6.118   6.169 -1.3179  1.4478 -3.2524
  153DOPC   C3618377   5.530   6.006   6.030  0.2698 -0.7575 -0.6174
  153DOPC   H6X18378   5.625   6.038   5.982  0.9967 -1.4380  0.3277
  153DOPC   H6Y18379   5.542   5.913   6.090 -3.1624  0.0053  1.5664
  153DOPC   C3718380   5.414   5.975   5.931  0.0129  0.0374  0.3315
  153DOPC   H7X18381   5.323   5.956   5.991 -0.7776  1.6481 -0.3086
  153DOPC   H7Y18382   5.403   6.064   5.867 -2.4046 -1.4609 -1.5204
  153DOPC   C3818383   5.437   5.851   5.845  0.0042  0.3474  0.3026
  153DOPC   H8X18384   5.352   5.855   5.773 -2.0171  1.4209  2.5910
  153DOPC   H8Y18385   5.425   5.760   5.907  0.4212  0.8152  1.0775
  153DOPC   C3918386   5.556   5.861   5.761  0.1398 -0.2927  1.8475
  153DOPC   H9X18387   5.647   5.862   5.823  1.1434 -1.4448  0.4623
  153DOPC  C31018388   5.568   5.866   5.626  0.3653  0.1501 -0.1188
  153DOPC  H10X18389   5.669   5.872   5.583  0.0578  0.9463 -0.7480
  153DOPC  C31118390   5.455   5.866   5.522 -0.6211  0.4180  0.1394
  153DOPC  H11X18391   5.466   5.925   5.429 -1.9554 -0.6348 -0.7195
  153DOPC  H11Y18392   5.358   5.895   5.568  0.9108  2.4798  2.3491
  153DOPC  C31218393   5.427   5.720   5.479 -0.1183  0.6878 -0.5567
  153DOPC  H12X18394   5.323   5.717   5.438 -1.0168  0.6662  1.5863
  153DOPC  H12Y18395   5.423   5.656   5.569 -0.0912  1.1141 -0.2489
  153DOPC  C31318396   5.532   5.657   5.385 -0.4171  0.0096  0.2027
  153DOPC  H13X18397   5.636   5.672   5.423 -0.5433 -1.3361  1.1577
  153DOPC  H13Y18398   5.523   5.546   5.376  1.2792  0.0038 -3.0115
  153DOPC  C31418399   5.518   5.718   5.241  0.0975  0.0579 -0.6103
  153DOPC  H14X18400   5.420   5.699   5.193  1.0274 -3.0365 -1.4864
  153DOPC  H14Y18401   5.522   5.829   5.252  1.6289  0.2511 -2.7409
  153DOPC  C31518402   5.638   5.690   5.148 -0.1581  0.3564  0.1555
  153DOPC  H15X18403   5.650   5.579   5.147  4.4625  0.6954 -0.5818
  153DOPC  H15Y18404   5.729   5.730   5.197  0.2749 -1.4433  0.9087
  153DOPC  C31618405   5.614   5.734   5.007 -0.6337 -0.6770  0.2793
  153DOPC  H16X18406   5.516   5.709   4.961 -0.4992  2.1639 -1.7921
  153DOPC  H16Y18407   5.596   5.843   5.012 -0.2883 -0.5305 -1.2519
  153DOPC  C31718408   5.732   5.701   4.904  0.1368  0.2558  0.0609
  153DOPC  H17X18409   5.831   5.731   4.945 -0.9259 -0.0507  3.0805
  153DOPC  H17Y18410   5.733   5.590   4.908  0.4772  0.2678  0.3529
  153DOPC  C31818411   5.697   5.747   4.762  0.1295 -0.4136 -0.5298
  153DOPC  H18X18412   5.707   5.855   4.740  1.8626 -0.7315 -1.5357
  153DOPC  H18Y18413   5.775   5.694   4.703 -0.7357 -4.2474  1.4493
  153DOPC  H18Z18414   5.596   5.712   4.734  0.6853 -2.1574 -0.4730
  154DOPC     N18415   5.663   4.193   7.065  0.0191  0.0465 -0.2301
  154DOPC   C1218416   5.707   4.315   6.985 -0.5098  0.7375 -0.5910
  154DOPC  H12A18417   5.803   4.282   6.947 -1.2888  0.4805 -2.4506
  154DOPC  H12B18418   5.730   4.387   7.062 -0.5255  0.9029 -0.7409
  154DOPC   C1318419   5.650   4.076   6.972 -1.1036 -0.3722 -0.4030
  154DOPC  H13A18420   5.598   4.110   6.884 -0.8006 -0.8657 -0.7753
  154DOPC  H13B18421   5.751   4.051   6.944 -1.2183  2.1925 -3.6770
  154DOPC  H13C18422   5.610   3.993   7.029  0.3673 -0.4791  0.5323
  154DOPC   C1418423   5.522   4.221   7.118 -0.3110  0.0169  0.1445
  154DOPC  H14A18424   5.545   4.289   7.198  1.7405 -0.3755 -0.0500
  154DOPC  H14B18425   5.465   4.285   7.053 -2.3179 -0.9215  0.8942
  154DOPC  H14C18426   5.465   4.136   7.151 -0.3864 -0.0699 -0.2095
  154DOPC   C1518427   5.754   4.166   7.187 -0.1788 -0.5033  0.5350
  154DOPC  H15A18428   5.860   4.162   7.166  0.0248 -1.6890  1.7104
  154DOPC  H15B18429   5.726   4.069   7.226  2.4617 -2.2087 -1.4902
  154DOPC  H15C18430   5.730   4.242   7.260  1.3744 -0.3391  0.8938
  154DOPC   C1118431   5.632   4.384   6.878 -0.3445  0.0874  0.4291
  154DOPC  H11A18432   5.684   4.458   6.813  0.3092 -0.8625 -0.1398
  154DOPC  H11B18433   5.602   4.304   6.808 -0.5040 -1.0157  1.7051
  154DOPC     P18434   5.520   4.594   6.996  0.0936  0.0025 -0.1297
  154DOPC   O1318435   5.662   4.622   7.043  0.7260  0.0430 -0.1136
  154DOPC   O1418436   5.421   4.607   7.105  0.0107 -0.1145  0.0820
  154DOPC   O1218437   5.517   4.446   6.931 -0.2789 -1.0031  0.3105
  154DOPC   O1118438   5.475   4.674   6.870 -0.7356 -0.7246  0.6152
  154DOPC    C118439   5.377   4.629   6.784 -0.0500 -0.1696  0.3506
  154DOPC    HA18440   5.316   4.716   6.753  1.2023  0.4353 -0.5249
  154DOPC    HB18441   5.318   4.543   6.823 -0.0259 -0.2587  0.1948
  154DOPC    C218442   5.424   4.571   6.652 -0.4727 -0.5257  0.4084
  154DOPC    HS18443   5.481   4.477   6.671 -0.9103 -0.4877  2.0280
  154DOPC   O2118444   5.506   4.670   6.578  0.3500 -0.1644  0.3784
  154DOPC   C2118445   5.629   4.631   6.539  0.5260 -0.3080 -0.3338
  154DOPC   O2218446   5.678   4.523   6.562  0.3959 -0.1660 -0.4048
  154DOPC   C2218447   5.700   4.747   6.467 -0.2835 -0.4104  1.0679
  154DOPC   H2R18448   5.755   4.804   6.544 -0.4974  3.5399 -1.4241
  154DOPC   H2S18449   5.630   4.825   6.431  0.2407 -0.6818 -0.6739
  154DOPC    C318450   5.302   4.526   6.571  0.5216 -0.1854  0.7249
  154DOPC    HX18451   5.230   4.609   6.589 -0.2542 -0.4396 -0.9676
  154DOPC    HY18452   5.258   4.438   6.622 -1.7016  0.7509  0.5411
  154DOPC   O3118453   5.308   4.509   6.427 -0.1137  0.3992 -0.5486
  154DOPC   C3118454   5.376   4.401   6.380 -0.3321 -0.3699 -0.7624
  154DOPC   O3218455   5.429   4.317   6.451 -0.3367 -0.2314  0.0801
  154DOPC   C3218456   5.371   4.398   6.230  0.1615 -0.1470  0.2945
  154DOPC   H2X18457   5.275   4.444   6.199 -0.2705 -1.3561 -0.2146
  154DOPC   H2Y18458   5.454   4.459   6.189 -1.0108  0.5982 -1.0642
  154DOPC   C2318459   5.782   4.684   6.345 -0.0886  0.1453  0.2575
  154DOPC   H3R18460   5.865   4.630   6.395 -0.0062 -1.4656 -1.4939
  154DOPC   H3S18461   5.834   4.772   6.303  1.0094  0.0190  1.3052
  154DOPC   C2418462   5.691   4.618   6.238  0.2273 -0.1456  0.0880
  154DOPC   H4R18463   5.614   4.690   6.203  2.3029  1.2237 -2.0256
  154DOPC   H4S18464   5.642   4.528   6.280  0.5894  0.2275  1.3458
  154DOPC   C2518465   5.775   4.579   6.113  0.1054  0.3278  0.3665
  154DOPC   H5R18466   5.876   4.540   6.138  0.1339 -0.6493 -1.1755
  154DOPC   H5S18467   5.789   4.670   6.052  1.2902  0.8647  1.3938
  154DOPC   C2618468   5.716   4.461   6.035  1.0128 -0.5922 -1.0945
  154DOPC   H6R18469   5.613   4.489   6.004  1.2290  1.9266  0.1690
  154DOPC   H6S18470   5.722   4.378   6.108  1.0532 -0.9489 -1.4975
  154DOPC   C2718471   5.799   4.415   5.918 -0.2383  0.7975 -0.3465
  154DOPC   H7R18472   5.902   4.420   5.960 -0.4781  2.6059  0.0768
  154DOPC   H7S18473   5.777   4.482   5.832 -0.9685 -0.6864 -1.3602
  154DOPC   C2818474   5.770   4.265   5.880 -0.1752  0.1708  0.0240
  154DOPC   H8R18475   5.671   4.263   5.831  0.2575 -0.0196 -0.8639
  154DOPC   H8S18476   5.752   4.212   5.976  0.8448  0.0220  0.1476
  154DOPC   C2918477   5.880   4.191   5.806  0.2339 -0.1949  0.1718
  154DOPC   H9R18478   5.972   4.173   5.863  1.3478 -0.2120 -1.5668
  154DOPC  C21018479   5.887   4.166   5.673 -0.3558 -0.2584 -0.2824
  154DOPC  H10R18480   5.987   4.137   5.639  1.5949  1.7078  3.1736
  154DOPC  C21118481   5.788   4.215   5.567  0.1744 -0.6556 -0.7605
  154DOPC  H11R18482   5.712   4.284   5.610  1.3313  0.9683 -1.2385
  154DOPC  H11S18483   5.738   4.130   5.515  1.2703 -2.3941  0.9064
  154DOPC  C21218484   5.864   4.302   5.461 -0.5143 -0.5309  0.1718
  154DOPC  H12R18485   5.937   4.370   5.510 -0.0615  0.1742 -1.4344
  154DOPC  H12S18486   5.791   4.363   5.404 -1.5176 -1.3124  0.5756
  154DOPC  C21318487   5.950   4.216   5.373  0.0390 -0.3701 -0.0386
  154DOPC  H13R18488   5.897   4.124   5.342 -2.2948  0.6996  0.5227
  154DOPC  H13S18489   6.040   4.193   5.434  0.8158  0.2728 -0.9100
  154DOPC  C21418490   6.005   4.291   5.244  0.3505 -0.2448  0.4353
  154DOPC  H14R18491   6.077   4.370   5.275  3.9498 -1.6833 -3.3494
  154DOPC  H14S18492   5.920   4.334   5.186 -0.0401  0.6846  1.6448
  154DOPC  C21518493   6.089   4.193   5.157 -0.3187 -0.3746  0.4220
  154DOPC  H15R18494   6.021   4.120   5.108  0.3834 -0.3125 -0.6893
  154DOPC  H15S18495   6.169   4.136   5.208  1.0674 -0.6713 -1.9116
  154DOPC  C21618496   6.187   4.267   5.047 -0.2010  0.2208  0.2539
  154DOPC  H16R18497   6.264   4.306   5.117 -2.3131  0.4331  2.6364
  154DOPC  H16S18498   6.129   4.346   4.994 -0.3508 -0.3873 -0.5014
  154DOPC  C21718499   6.238   4.152   4.965 -0.3439 -0.3112 -0.6079
  154DOPC  H17R18500   6.158   4.082   4.933 -0.6850 -0.6679  0.9470
  154DOPC  H17S18501   6.297   4.091   5.036 -0.1859 -0.2192 -0.6605
  154DOPC  C21818502   6.325   4.187   4.852  0.2319 -0.4458  0.9227
  154DOPC  H18R18503   6.420   4.238   4.880  0.9560 -0.9926 -0.3990
  154DOPC  H18S18504   6.275   4.257   4.781  3.1126  1.3426  0.4723
  154DOPC  H18T18505   6.349   4.093   4.798 -0.4639 -1.6118  2.5658
  154DOPC   C3318506   5.385   4.255   6.173  0.5608 -0.6272  0.4885
  154DOPC   H3X18507   5.290   4.209   6.210 -0.6203  2.7303  2.0112
  154DOPC   H3Y18508   5.475   4.198   6.206  1.6816 -1.7051 -3.8717
  154DOPC   C3418509   5.373   4.256   6.017  0.4117  0.4407 -0.6613
  154DOPC   H4X18510   5.465   4.296   5.970  1.1854  0.7791  1.0890
  154DOPC   H4Y18511   5.296   4.335   6.004 -0.2400 -0.0496  0.1581
  154DOPC   C3518512   5.347   4.115   5.953 -0.2384  0.0417  0.3991
  154DOPC   H5X18513   5.262   4.064   6.004 -2.0927  2.4049 -0.1407
  154DOPC   H5Y18514   5.439   4.054   5.960 -0.4436 -0.3034  0.1483
  154DOPC   C3618515   5.310   4.136   5.799 -0.0212 -0.5260 -1.2628
  154DOPC   H6X18516   5.227   4.209   5.783 -0.3545 -0.5020  0.3960
  154DOPC   H6Y18517   5.400   4.180   5.751  1.7687 -2.1228  0.4464
  154DOPC   C3718518   5.287   4.000   5.747  0.2818  0.1163 -0.1711
  154DOPC   H7X18519   5.347   3.929   5.808  0.0827 -1.0520 -1.2735
  154DOPC   H7Y18520   5.182   3.963   5.750  0.4285 -0.4721 -1.4414
  154DOPC   C3818521   5.333   3.965   5.604  0.9250  0.1064 -0.7545
  154DOPC   H8X18522   5.320   3.857   5.579  1.0115 -0.2354  0.6286
  154DOPC   H8Y18523   5.440   3.992   5.595  1.4737  0.0656  3.6521
  154DOPC   C3918524   5.255   4.049   5.500 -0.3457  0.8025 -0.2925
  154DOPC   H9X18525   5.269   4.157   5.512  1.8898  0.7831 -1.9915
  154DOPC  C31018526   5.184   3.992   5.397 -0.2922 -0.3268 -0.2360
  154DOPC  H10X18527   5.133   4.072   5.342  1.4472  0.3553 -0.9518
  154DOPC  C31118528   5.146   3.851   5.353  0.2068 -0.3145  0.3982
  154DOPC  H11X18529   5.049   3.819   5.398  0.0814  0.6435  0.8312
  154DOPC  H11Y18530   5.221   3.772   5.375 -0.8710 -1.6137 -0.3909
  154DOPC  C31218531   5.117   3.823   5.199  0.0083  0.4662  0.2678
  154DOPC  H12X18532   5.217   3.834   5.151  0.8042 -0.6455  1.6186
  154DOPC  H12Y18533   5.050   3.896   5.149  2.3765  1.9248 -0.9820
  154DOPC  C31318534   5.079   3.684   5.177  0.7273  0.4514  0.2103
  154DOPC  H13X18535   5.157   3.626   5.231  0.6694  0.2625  0.0888
  154DOPC  H13Y18536   4.986   3.657   5.232  0.1680  1.2751 -0.3058
  154DOPC  C31418537   5.093   3.645   5.033 -0.1701 -0.4950 -0.4243
  154DOPC  H14X18538   5.008   3.693   4.979 -1.9165 -4.3508 -1.5443
  154DOPC  H14Y18539   5.188   3.684   4.992 -1.9426  2.4414 -2.1526
  154DOPC  C31518540   5.074   3.493   5.008 -0.2033  0.4613 -0.3739
  154DOPC  H15X18541   4.983   3.457   5.061  0.3051  0.2971  0.4010
  154DOPC  H15Y18542   5.164   3.451   5.056  0.6133  2.6124  0.0621
  154DOPC  C31618543   5.062   3.448   4.863  0.3063  0.0188  0.0716
  154DOPC  H16X18544   4.968   3.497   4.832  2.1785  2.9026 -1.4800
  154DOPC  H16Y18545   5.144   3.470   4.792  1.0442  0.0429  0.9158
  154DOPC  C31718546   5.027   3.297   4.851  0.3944  0.1293  0.2038
  154DOPC  H17X18547   5.116   3.242   4.886  0.9448 -0.2578 -1.6821
  154DOPC  H17Y18548   4.945   3.254   4.913  1.1238 -4.5659 -1.6967
  154DOPC  C31818549   5.003   3.249   4.704  0.4640  0.5088 -0.4916
  154DOPC  H18X18550   4.918   3.307   4.661  0.0099  0.6689  0.5932
  154DOPC  H18Y18551   5.097   3.258   4.646 -0.0375  1.7762 -1.1650
  154DOPC  H18Z18552   4.969   3.144   4.705  2.0043 -0.0477 -2.1944
  155DOPC     N18553   0.855   1.628   6.700  0.4224  0.9867 -0.0798
  155DOPC   C1218554   0.830   1.718   6.818  0.0839 -0.9231  0.2894
  155DOPC  H12A18555   0.887   1.689   6.905  0.3675  0.9497  0.7866
  155DOPC  H12B18556   0.726   1.703   6.843 -0.2330 -0.3130 -0.6037
  155DOPC   C1318557   0.827   1.479   6.733 -0.3882 -0.4704 -0.0645
  155DOPC  H13A18558   0.904   1.438   6.797 -0.5300 -3.1474 -1.4763
  155DOPC  H13B18559   0.730   1.462   6.778 -0.2054 -1.9309 -0.1613
  155DOPC  H13C18560   0.830   1.422   6.642  0.2979 -0.6060  0.0383
  155DOPC   C1418561   1.000   1.626   6.650  0.3207 -0.5661  1.0003
  155DOPC  H14A18562   1.061   1.570   6.720  2.1248 -0.7404 -0.6486
  155DOPC  H14B18563   1.000   1.588   6.549  0.5667  0.1628  0.7155
  155DOPC  H14C18564   1.046   1.724   6.642  2.0701 -1.5056 -1.5875
  155DOPC   C1518565   0.773   1.678   6.589  0.1934 -0.7178  0.2221
  155DOPC  H15A18566   0.794   1.634   6.492 -0.3630 -1.7016  0.5299
  155DOPC  H15B18567   0.791   1.783   6.574 -0.8516 -0.7695 -1.6938
  155DOPC  H15C18568   0.667   1.672   6.606  0.3710 -1.8932  1.0686
  155DOPC   C1118569   0.855   1.872   6.792 -0.1673 -0.2071 -0.0934
  155DOPC  H11A18570   0.795   1.900   6.703 -3.6306 -0.9472  1.7963
  155DOPC  H11B18571   0.809   1.924   6.879  0.2615  0.0562 -0.0215
  155DOPC     P18572   1.079   2.024   6.784 -0.1266 -0.3283  0.1325
  155DOPC   O1318573   1.219   1.984   6.816  0.5061 -0.1499  0.2515
  155DOPC   O1418574   1.014   2.117   6.880 -0.1600 -0.0663  0.2920
  155DOPC   O1218575   0.993   1.900   6.780 -0.0364  0.4459 -0.0337
  155DOPC   O1118576   1.069   2.091   6.640  0.4158 -0.2289  0.2445
  155DOPC    C118577   1.047   2.004   6.525 -0.2620 -0.4781  0.5188
  155DOPC    HA18578   0.948   2.020   6.477 -1.1503 -0.0135  2.3846
  155DOPC    HB18579   1.055   1.894   6.541  0.7113 -0.6438 -0.9462
  155DOPC    C218580   1.156   2.025   6.414 -0.7902  0.4185  0.5781
  155DOPC    HS18581   1.146   1.936   6.348 -0.4983 -1.1318  2.5240
  155DOPC   O2118582   1.289   2.022   6.480  0.7081  0.1887  0.3830
  155DOPC   C2118583   1.347   1.904   6.481  0.6380 -0.3921 -0.1522
  155DOPC   O2218584   1.290   1.799   6.462  0.6463 -0.3715  0.1595
  155DOPC   C2218585   1.491   1.923   6.526 -0.4871  0.7136 -0.3748
  155DOPC   H2R18586   1.506   1.852   6.610  0.5336 -1.8280 -2.5613
  155DOPC   H2S18587   1.503   2.024   6.571  0.3478 -0.2370  1.6845
  155DOPC    C318588   1.149   2.151   6.328  0.3696  0.3190  0.1785
  155DOPC    HX18589   1.213   2.133   6.239 -1.1905  1.1452 -1.1494
  155DOPC    HY18590   1.184   2.236   6.392 -1.2026  1.7683 -0.8087
  155DOPC   O3118591   1.013   2.169   6.280 -0.1698  0.2319 -0.3024
  155DOPC   C3118592   1.006   2.273   6.194  0.5802 -0.0906  0.3430
  155DOPC   O3218593   1.103   2.331   6.155  0.6337 -0.2589 -0.5626
  155DOPC   C3218594   0.868   2.295   6.137 -0.3860 -0.6717 -0.0817
  155DOPC   H2X18595   0.876   2.357   6.046  0.5508 -0.6915 -0.0189
  155DOPC   H2Y18596   0.827   2.194   6.111  2.2483 -1.1335 -3.0281
  155DOPC   C2318597   1.596   1.904   6.412  0.5702 -0.3036  0.0379
  155DOPC   H3R18598   1.623   1.796   6.421  0.7196 -0.0754  3.4505
  155DOPC   H3S18599   1.686   1.964   6.439 -0.0047  1.2165 -1.3001
  155DOPC   C2418600   1.554   1.933   6.263  0.4816  0.8634  0.3073
  155DOPC   H4R18601   1.500   2.030   6.262 -1.4016 -0.1428  0.1291
  155DOPC   H4S18602   1.482   1.857   6.223  0.7725  1.3523 -1.2226
  155DOPC   C2518603   1.675   1.944   6.172  0.1689  0.5113 -0.9623
  155DOPC   H5R18604   1.748   1.862   6.189 -0.0540  0.2039 -1.4404
  155DOPC   H5S18605   1.728   2.036   6.205 -0.0152 -0.3343  1.9660
  155DOPC   C2618606   1.638   1.958   6.024  0.1678  0.8957 -0.1253
  155DOPC   H6R18607   1.555   2.030   6.006  0.9090  1.8479  0.2012
  155DOPC   H6S18608   1.598   1.859   5.991  1.5572 -0.1123  1.1118
  155DOPC   C2718609   1.759   1.989   5.941 -0.2969  0.9128 -0.1064
  155DOPC   H7R18610   1.821   1.898   5.958 -3.6127 -1.2861  1.1547
  155DOPC   H7S18611   1.810   2.072   5.994  0.7147  0.3361 -0.1317
  155DOPC   C2818612   1.744   2.017   5.788  0.5394  0.0832  0.1256
  155DOPC   H8R18613   1.829   2.084   5.763  0.4095 -0.0703 -0.7797
  155DOPC   H8S18614   1.653   2.081   5.784 -1.2763 -2.2977  1.1467
  155DOPC   C2918615   1.736   1.902   5.694 -0.1115  0.3935  0.3171
  155DOPC   H9R18616   1.663   1.826   5.724 -0.1148  1.3108  2.8166
  155DOPC  C21018617   1.805   1.888   5.579 -0.1103 -0.3812  0.0723
  155DOPC  H10R18618   1.798   1.796   5.519  0.3537 -0.2123 -0.2403
  155DOPC  C21118619   1.910   1.981   5.514  0.4885  0.2766  0.0063
  155DOPC  H11R18620   1.999   1.923   5.481  1.2651  2.1667 -1.3750
  155DOPC  H11S18621   1.949   2.056   5.587 -1.2121  2.9647 -1.6604
  155DOPC  C21218622   1.849   2.067   5.404  0.3707  0.9070 -0.4100
  155DOPC  H12R18623   1.916   2.154   5.387 -0.3038  1.5008 -0.0630
  155DOPC  H12S18624   1.747   2.106   5.424  0.9378  1.8533  0.7547
  155DOPC  C21318625   1.835   1.989   5.274  0.4645  0.5391  0.3541
  155DOPC  H13R18626   1.753   1.914   5.278 -1.2950  2.2815 -1.2758
  155DOPC  H13S18627   1.930   1.934   5.260  0.7566  0.9465  0.7014
  155DOPC  C21418628   1.805   2.074   5.146 -0.6015  0.2056  0.0290
  155DOPC  H14R18629   1.884   2.151   5.136  0.1093  0.2485  4.1670
  155DOPC  H14S18630   1.716   2.126   5.186  0.3964 -0.0256  2.7342
  155DOPC  C21518631   1.795   1.990   5.024 -0.3828  1.0976  0.7087
  155DOPC  H15R18632   1.729   1.902   5.043  0.3599  0.6322  1.1718
  155DOPC  H15S18633   1.897   1.952   5.002 -1.1787  0.3082 -1.9830
  155DOPC  C21618634   1.735   2.063   4.902 -0.1963 -0.3003  0.5366
  155DOPC  H16R18635   1.782   2.160   4.877  1.1876 -0.9506  0.5354
  155DOPC  H16S18636   1.629   2.092   4.921 -0.6850  0.0156 -2.2758
  155DOPC  C21718637   1.744   1.986   4.771  0.7549  0.1027 -0.2073
  155DOPC  H17R18638   1.689   1.890   4.775  2.1415 -0.7215 -0.3836
  155DOPC  H17S18639   1.853   1.964   4.764  0.6099 -1.9993  2.4760
  155DOPC  C21818640   1.696   2.068   4.646  0.3014 -0.3995  0.0550
  155DOPC  H18R18641   1.734   2.172   4.654 -0.7085 -0.0625  0.7269
  155DOPC  H18S18642   1.585   2.066   4.651  0.2046 -2.0210 -1.5564
  155DOPC  H18T18643   1.717   2.003   4.558 -0.1631 -1.3953  0.6619
  155DOPC   C3318644   0.775   2.373   6.227 -0.2651 -0.0286 -0.3175
  155DOPC   H3X18645   0.833   2.456   6.273  0.1759 -0.9595  0.8702
  155DOPC   H3Y18646   0.744   2.315   6.317  0.2522 -0.3817 -0.3607
  155DOPC   C3418647   0.647   2.416   6.158  0.8172 -0.2002 -0.0363
  155DOPC   H4X18648   0.676   2.473   6.067  0.0485 -1.5198 -1.1495
  155DOPC   H4Y18649   0.591   2.486   6.224  0.2763 -0.1979 -0.4864
  155DOPC   C3518650   0.559   2.301   6.099  0.6981  0.6809  0.0317
  155DOPC   H5X18651   0.550   2.221   6.175 -1.3819 -0.8525 -1.6974
  155DOPC   H5Y18652   0.603   2.258   6.006 -0.1640 -1.9933  0.7670
  155DOPC   C3618653   0.418   2.336   6.072  0.2872 -0.2155  1.0147
  155DOPC   H6X18654   0.374   2.360   6.171  0.1933 -0.3077  0.9965
  155DOPC   H6Y18655   0.418   2.426   6.007 -0.8458 -2.0655 -1.7261
  155DOPC   C3718656   0.335   2.233   5.992  0.1638  0.3420  0.1728
  155DOPC   H7X18657   0.386   2.206   5.898  1.1591 -1.7732  1.2630
  155DOPC   H7Y18658   0.316   2.143   6.055 -0.8284  0.6298  0.3094
  155DOPC   C3818659   0.200   2.300   5.953 -0.5765  0.1990  0.5686
  155DOPC   H8X18660   0.216   2.404   5.917 -0.5345 -0.3116 -0.9306
  155DOPC   H8Y18661   0.130   2.305   6.039 -1.2653  1.2672 -0.0290
  155DOPC   C3918662   0.133   2.208   5.852 -0.1722  0.4500  0.1769
  155DOPC   H9X18663   0.129   2.105   5.889 -1.4793  0.7614  0.9600
  155DOPC  C31018664   0.082   2.247   5.732  0.2039 -0.5825  0.5266
  155DOPC  H10X18665   0.047   2.164   5.669 -1.0263  0.8885 -0.8114
  155DOPC  C31118666   0.088   2.387   5.678 -0.3273  0.2150 -0.6228
  155DOPC  H11X18667   0.168   2.387   5.602  1.0577 -1.7845  0.7449
  155DOPC  H11Y18668   0.125   2.458   5.755 -0.1642 -0.3319 -0.1912
  155DOPC  C31218669  -0.049   2.445   5.623 -0.2311 -0.6464  0.1809
  155DOPC  H12X18670  -0.114   2.456   5.712 -0.7780 -0.4744 -0.2325
  155DOPC  H12Y18671  -0.105   2.383   5.550 -0.5860  0.3765 -0.4351
  155DOPC  C31318672  -0.021   2.581   5.566 -0.6456 -0.4566 -0.5084
  155DOPC  H13X18673   0.047   2.645   5.627 -0.7117  0.3515 -1.2667
  155DOPC  H13Y18674   0.021   2.569   5.464 -0.2575  0.4405 -0.4641
  155DOPC  C31418675  -0.150   2.661   5.550  0.1597 -0.2995 -0.5051
  155DOPC  H14X18676  -0.212   2.608   5.474 -0.0093 -0.2617 -0.3944
  155DOPC  H14Y18677  -0.218   2.665   5.639  1.6079 -1.6011  0.7183
  155DOPC  C31518678  -0.118   2.810   5.515  0.5984 -0.1388  0.1788
  155DOPC  H15X18679  -0.094   2.808   5.406 -1.7099 -1.7403 -0.3792
  155DOPC  H15Y18680  -0.035   2.848   5.578  0.9436 -1.1329  0.3385
  155DOPC  C31618681  -0.244   2.895   5.523  0.8410  0.0475 -0.7667
  155DOPC  H16X18682  -0.218   2.989   5.470  1.9491 -0.1723 -0.6283
  155DOPC  H16Y18683  -0.322   2.842   5.463 -0.5709 -0.7292  1.6103
  155DOPC  C31718684  -0.301   2.921   5.663 -0.4178 -0.2465  1.0334
  155DOPC  H17X18685  -0.343   2.823   5.693 -2.7848  0.6920  1.0324
  155DOPC  H17Y18686  -0.220   2.938   5.736  0.6902  2.0197 -0.6150
  155DOPC  C31818687  -0.404   3.034   5.669  0.2155  0.5915 -0.7709
  155DOPC  H18X18688  -0.350   3.131   5.666  0.4541  0.5299  0.6888
  155DOPC  H18Y18689  -0.483   3.025   5.591 -0.3116  1.0474 -0.2953
  155DOPC  H18Z18690  -0.465   3.021   5.761 -0.8366 -1.6804 -1.6939
  156DOPC     N18691   7.519   6.163   7.054  0.0818 -0.3326  0.0658
  156DOPC   C1218692   7.410   6.120   6.955 -0.2096 -0.1020 -0.2620
  156DOPC  H12A18693   7.319   6.141   7.009 -0.7250  2.8011 -2.0163
  156DOPC  H12B18694   7.415   6.015   6.930 -1.2528 -0.5938  1.4187
  156DOPC   C1318695   7.650   6.189   6.987 -0.1393 -0.3209  0.1827
  156DOPC  H13A18696   7.689   6.097   6.947  2.1700  1.2811 -1.4940
  156DOPC  H13B18697   7.636   6.268   6.915  1.3616  0.2710  0.4994
  156DOPC  H13C18698   7.729   6.215   7.056 -0.3046 -1.5085  0.8596
  156DOPC   C1418699   7.534   6.061   7.166  0.3250  0.3181 -0.9224
  156DOPC  H14A18700   7.605   6.107   7.233 -0.5001  0.5177 -0.1710
  156DOPC  H14B18701   7.441   6.050   7.221 -0.0354  1.7397 -1.1950
  156DOPC  H14C18702   7.578   5.966   7.143 -1.4823 -0.0778 -3.0705
  156DOPC   C1518703   7.478   6.292   7.122  0.6179 -0.3353  0.5369
  156DOPC  H15A18704   7.553   6.321   7.194 -0.7016 -1.1591  2.3008
  156DOPC  H15B18705   7.388   6.288   7.180  1.7457 -0.5981  2.3480
  156DOPC  H15C18706   7.471   6.366   7.044 -4.0909 -1.0372  0.0161
  156DOPC   C1118707   7.411   6.194   6.817  0.1595  0.0301  0.6444
  156DOPC  H11A18708   7.505   6.194   6.757 -1.4177  1.8601 -2.0699
  156DOPC  H11B18709   7.340   6.138   6.751 -0.9902  0.4123  1.5201
  156DOPC     P18710   7.220   6.369   6.855  0.1838  0.1228  0.1092
  156DOPC   O1318711   7.224   6.499   6.921 -0.0286  0.0056 -0.9209
  156DOPC   O1418712   7.160   6.256   6.931  0.2833  0.4639 -0.0889
  156DOPC   O1218713   7.373   6.331   6.831 -0.4935  0.7353 -0.1715
  156DOPC   O1118714   7.160   6.378   6.702 -0.4640  0.5304 -0.6362
  156DOPC    C118715   7.133   6.508   6.651  0.2471  0.0974  0.2089
  156DOPC    HA18716   7.223   6.571   6.665 -0.2653  0.8777  0.0196
  156DOPC    HB18717   7.048   6.556   6.704  0.5377  1.2105 -0.3237
  156DOPC    C218718   7.092   6.501   6.502 -0.3584  1.2600  0.1780
  156DOPC    HS18719   7.079   6.599   6.452  0.7139  1.9609  1.2068
  156DOPC   O2118720   6.969   6.435   6.475  0.2914  0.5679  0.1724
  156DOPC   C2118721   6.853   6.495   6.495 -0.6991  0.6411 -0.2288
  156DOPC   O2218722   6.850   6.609   6.541 -0.6724 -0.4714 -0.0777
  156DOPC   C2218723   6.739   6.400   6.439 -0.2019 -0.3328 -0.0481
  156DOPC   H2R18724   6.650   6.445   6.489 -0.5786 -2.0185  0.8671
  156DOPC   H2S18725   6.752   6.297   6.477 -1.0061 -0.4711 -0.1352
  156DOPC    C318726   7.205   6.422   6.432  0.6669 -0.0828  0.1166
  156DOPC    HX18727   7.216   6.316   6.463 -0.5427  0.2364  1.7590
  156DOPC    HY18728   7.298   6.471   6.469  1.5013 -0.4986 -1.3490
  156DOPC   O3118729   7.201   6.431   6.284  0.5818  0.0552 -0.3427
  156DOPC   C3118730   7.146   6.326   6.219  0.8085 -0.1560  0.2330
  156DOPC   O3218731   7.097   6.227   6.271 -0.1657 -0.4047  0.1241
  156DOPC   C3218732   7.158   6.349   6.065 -0.4706  0.2761 -0.1138
  156DOPC   H2X18733   7.248   6.412   6.048 -0.1774  0.4189  1.7146
  156DOPC   H2Y18734   7.179   6.247   6.028  2.7843  1.3843 -1.7286
  156DOPC   C2318735   6.746   6.401   6.284  0.8680  0.0152  0.3037
  156DOPC   H3R18736   6.675   6.319   6.261  0.8177 -0.5105  2.1760
  156DOPC   H3S18737   6.853   6.381   6.260  1.0047  0.2428  0.7057
  156DOPC   C2418738   6.683   6.522   6.219  0.1418 -0.3441  0.4916
  156DOPC   H4R18739   6.727   6.616   6.259 -0.5158  0.9194 -1.5720
  156DOPC   H4S18740   6.574   6.519   6.241  0.7267 -1.1503  3.7502
  156DOPC   C2518741   6.686   6.510   6.060  0.4841  0.3308 -0.6872
  156DOPC   H5R18742   6.633   6.416   6.033 -0.4494  0.5666  0.2328
  156DOPC   H5S18743   6.793   6.510   6.031  0.8926  0.2081  0.7221
  156DOPC   C2618744   6.608   6.627   5.998 -0.5318 -0.1895  0.4908
  156DOPC   H6R18745   6.639   6.727   6.034  2.1595 -0.3900 -1.0193
  156DOPC   H6S18746   6.501   6.616   6.024 -0.4582  0.0708  0.9023
  156DOPC   C2718747   6.619   6.627   5.843  0.1896  0.4826 -0.9801
  156DOPC   H7R18748   6.613   6.525   5.797  1.8791 -0.0557 -0.0691
  156DOPC   H7S18749   6.714   6.673   5.809  0.3117  0.2460 -0.9625
  156DOPC   C2818750   6.511   6.707   5.774  0.2203 -0.2190 -0.6138
  156DOPC   H8R18751   6.514   6.813   5.810  1.3048 -0.7310  0.9392
  156DOPC   H8S18752   6.421   6.655   5.812  1.2729 -1.0405  0.8468
  156DOPC   C2918753   6.516   6.712   5.623 -0.1758 -0.5776  0.0842
  156DOPC   H9R18754   6.617   6.724   5.580 -0.4054  2.2124  0.1156
  156DOPC  C21018755   6.417   6.738   5.539 -0.6009  0.1561 -0.0806
  156DOPC  H10R18756   6.449   6.740   5.433  1.4186 -1.2793  0.4267
  156DOPC  C21118757   6.272   6.745   5.576  0.8809  0.2759  0.1455
  156DOPC  H11R18758   6.237   6.848   5.554 -0.9571  0.2771  2.5427
  156DOPC  H11S18759   6.257   6.725   5.685 -0.2424 -1.4971 -0.2801
  156DOPC  C21218760   6.187   6.642   5.495 -0.0939  0.1537  0.3200
  156DOPC  H12R18761   6.204   6.533   5.514 -1.8472 -0.6358 -2.1527
  156DOPC  H12S18762   6.202   6.655   5.386  1.0232 -0.2677  0.4087
  156DOPC  C21318763   6.037   6.660   5.510  0.3754 -0.6641  0.4360
  156DOPC  H13R18764   6.006   6.764   5.487  0.0851 -1.3030 -2.4164
  156DOPC  H13S18765   6.001   6.632   5.612 -0.2446 -0.2456  0.3423
  156DOPC  C21418766   5.950   6.560   5.425 -0.1847 -0.7053 -0.1992
  156DOPC  H14R18767   5.846   6.566   5.464 -0.1457 -0.5591 -0.1174
  156DOPC  H14S18768   5.990   6.460   5.454  1.1459  0.2228  1.3245
  156DOPC  C21518769   5.957   6.588   5.274  0.4346 -0.1069 -1.0921
  156DOPC  H15R18770   5.910   6.507   5.214  0.3805  1.7665 -3.7739
  156DOPC  H15S18771   6.067   6.578   5.257  0.6398 -1.8040  0.8213
  156DOPC  C21618772   5.900   6.718   5.228 -0.2261  0.0311 -0.2154
  156DOPC  H16R18773   5.944   6.732   5.127 -1.3228  2.4463 -0.4267
  156DOPC  H16S18774   5.951   6.796   5.288  1.3680 -0.1056 -1.3369
  156DOPC  C21718775   5.751   6.721   5.221  0.3018 -1.0389 -0.2796
  156DOPC  H17R18776   5.702   6.751   5.317  0.7094  0.8531 -0.6184
  156DOPC  H17S18777   5.705   6.625   5.190 -0.4652 -1.4685  1.9832
  156DOPC  C21818778   5.701   6.814   5.112 -0.2723 -0.0289  0.5054
  156DOPC  H18R18779   5.596   6.799   5.079  0.1214  0.3203 -0.9842
  156DOPC  H18S18780   5.771   6.811   5.025 -0.7017 -0.8814  0.1805
  156DOPC  H18T18781   5.714   6.920   5.144  0.2160  0.2285 -0.5028
  156DOPC   C3318782   7.034   6.416   5.996 -0.6347  0.0351  0.1813
  156DOPC   H3X18783   7.039   6.524   6.020 -0.9523  0.2021 -0.4865
  156DOPC   H3Y18784   6.947   6.367   6.046  1.8708 -1.3007  3.6079
  156DOPC   C3418785   7.038   6.392   5.848 -0.4963  0.5006  0.4883
  156DOPC   H4X18786   7.039   6.282   5.831  0.2808  0.5787 -0.0195
  156DOPC   H4Y18787   7.135   6.431   5.809 -0.3690  0.8120  1.0918
  156DOPC   C3518788   6.937   6.458   5.755 -0.2888  0.2674  0.9937
  156DOPC   H5X18789   6.919   6.564   5.782  1.1092  0.2364  2.1741
  156DOPC   H5Y18790   6.845   6.401   5.780  0.7832 -0.8979  2.5039
  156DOPC   C3618791   6.976   6.449   5.605 -0.1281  0.1512 -1.0422
  156DOPC   H6X18792   7.074   6.498   5.592 -1.0582  2.6890  0.6630
  156DOPC   H6Y18793   6.989   6.341   5.584  0.0798 -0.2342  0.8860
  156DOPC   C3718794   6.880   6.522   5.513  0.2285  0.6332  0.1055
  156DOPC   H7X18795   6.784   6.468   5.523 -0.0739  1.4099  1.7941
  156DOPC   H7Y18796   6.881   6.629   5.543 -1.0513  0.6743  0.0395
  156DOPC   C3818797   6.932   6.522   5.368  0.0723 -0.0747 -0.4475
  156DOPC   H8X18798   6.947   6.414   5.345  1.9422  0.3217 -1.2562
  156DOPC   H8Y18799   7.028   6.578   5.364 -0.0365  0.0455 -1.8990
  156DOPC   C3918800   6.828   6.590   5.277 -0.4645  0.3491 -0.0380
  156DOPC   H9X18801   6.834   6.699   5.280  0.3181  0.2971  0.6434
  156DOPC  C31018802   6.761   6.521   5.183  0.0773  0.2040  0.6027
  156DOPC  H10X18803   6.690   6.580   5.124 -0.9474 -2.4833 -1.0817
  156DOPC  C31118804   6.750   6.376   5.159 -0.1998  0.5473 -0.4267
  156DOPC  H11X18805   6.704   6.328   5.248 -0.9798  0.2032 -0.9975
  156DOPC  H11Y18806   6.855   6.340   5.152  0.1279  0.8521  1.9655
  156DOPC  C31218807   6.663   6.333   5.039 -0.2256  0.2253 -0.0613
  156DOPC  H12X18808   6.706   6.234   5.009  0.6186  0.4720  0.2929
  156DOPC  H12Y18809   6.686   6.411   4.964 -0.3582  3.0135  2.6172
  156DOPC  C31318810   6.519   6.343   5.073  0.2118  0.0736  0.8999
  156DOPC  H13X18811   6.488   6.280   5.160  0.1405  0.2217  0.9825
  156DOPC  H13Y18812   6.499   6.450   5.094 -1.4993  0.1329 -0.8014
  156DOPC  C31418813   6.427   6.293   4.958 -0.4385  0.4536 -0.1695
  156DOPC  H14X18814   6.451   6.357   4.871  0.9199 -0.2648 -0.3557
  156DOPC  H14Y18815   6.459   6.191   4.927 -1.1097  0.6063 -1.4075
  156DOPC  C31518816   6.279   6.298   4.978  0.9231  0.0491 -0.0824
  156DOPC  H15X18817   6.238   6.284   4.875 -0.4600  0.1164  0.4416
  156DOPC  H15Y18818   6.230   6.393   5.008  0.3752 -0.4859  0.7278
  156DOPC  C31618819   6.222   6.188   5.074  0.1609 -0.1063 -0.2489
  156DOPC  H16X18820   6.278   6.195   5.169 -0.2058 -0.3974 -0.0108
  156DOPC  H16Y18821   6.114   6.211   5.086  0.4279  0.9189  0.2473
  156DOPC  C31718822   6.220   6.045   5.020 -0.5056 -0.4113  0.1967
  156DOPC  H17X18823   6.175   6.039   4.918 -0.0834  0.9746 -0.0908
  156DOPC  H17Y18824   6.327   6.017   5.021 -0.6086 -1.3475 -2.7843
  156DOPC  C31818825   6.155   5.947   5.118  0.2182  0.8510 -0.2795
  156DOPC  H18X18826   6.174   5.848   5.070  1.4256  0.7860  0.2907
  156DOPC  H18Y18827   6.205   5.941   5.217 -1.7199 -1.1972  0.7012
  156DOPC  H18Z18828   6.045   5.965   5.122  0.0793 -0.0214  0.2128
  157DOPC     N18829   4.967   3.243   7.598 -0.4243  0.2274  0.1658
  157DOPC   C1218830   4.878   3.224   7.474 -0.1740 -0.2092 -0.8739
  157DOPC  H12A18831   4.923   3.255   7.380  0.2555  0.5036 -0.4429
  157DOPC  H12B18832   4.804   3.303   7.473  1.5165  1.4502 -1.9657
  157DOPC   C1318833   5.098   3.159   7.590  0.1501  0.1785 -0.1104
  157DOPC  H13A18834   5.086   3.052   7.603 -0.2208  0.0329 -1.4906
  157DOPC  H13B18835   5.153   3.184   7.500  0.8964 -0.2773  0.2125
  157DOPC  H13C18836   5.158   3.184   7.676  1.3318  0.8486 -1.0948
  157DOPC   C1418837   4.903   3.216   7.725  0.4405 -0.2171  0.4661
  157DOPC  H14A18838   4.872   3.114   7.740 -3.9838  0.6225 -1.2617
  157DOPC  H14B18839   4.970   3.238   7.807  0.8486 -0.5632  0.2223
  157DOPC  H14C18840   4.819   3.281   7.745 -1.1018 -1.4717 -1.5760
  157DOPC   C1518841   5.019   3.384   7.603  0.0570 -0.0605 -1.0624
  157DOPC  H15A18842   5.074   3.414   7.515 -0.2660  2.5797 -0.4427
  157DOPC  H15B18843   5.098   3.390   7.676  0.2452 -1.1613 -1.1657
  157DOPC  H15C18844   4.948   3.462   7.627  2.3776  2.2222 -1.1183
  157DOPC   C1118845   4.819   3.082   7.441  0.4560 -0.9981 -0.2897
  157DOPC  H11A18846   4.797   3.074   7.333  1.2051  1.1788 -0.6370
  157DOPC  H11B18847   4.896   3.007   7.470  1.8369  0.4456 -0.0946
  157DOPC     P18848   4.566   3.135   7.516 -0.2894 -0.1275  0.0122
  157DOPC   O1318849   4.587   3.279   7.540  0.1477 -0.1477  0.1382
  157DOPC   O1418850   4.474   3.068   7.609  0.0015  0.4632 -0.1462
  157DOPC   O1218851   4.704   3.060   7.523  0.9720  0.2326 -0.7173
  157DOPC   O1118852   4.519   3.123   7.359  0.1860 -0.0162  0.1492
  157DOPC    C118853   4.516   2.989   7.305 -0.5995 -0.3714 -1.3019
  157DOPC    HA18854   4.411   2.955   7.316 -0.5994  0.3822  2.9023
  157DOPC    HB18855   4.561   2.911   7.370 -0.7843  1.8825  1.7755
  157DOPC    C218856   4.570   2.980   7.164  0.4689  0.2204 -0.1201
  157DOPC    HS18857   4.674   3.020   7.158 -0.0252  1.6526  0.5795
  157DOPC   O2118858   4.488   3.070   7.085  0.7110  0.6007  0.5912
  157DOPC   C2118859   4.552   3.147   7.000 -1.0131 -0.3957 -0.0123
  157DOPC   O2218860   4.675   3.144   6.982 -0.3439  0.0602  0.2883
  157DOPC   C2218861   4.449   3.219   6.910  0.3787 -0.6753  1.1103
  157DOPC   H2R18862   4.359   3.256   6.964 -1.0102 -1.2795 -0.6901
  157DOPC   H2S18863   4.408   3.133   6.853 -2.4937  1.5112 -0.3689
  157DOPC    C318864   4.558   2.835   7.108 -0.6860 -0.7730  0.7061
  157DOPC    HX18865   4.459   2.790   7.130 -0.8103 -0.1119  1.5581
  157DOPC    HY18866   4.635   2.772   7.157 -0.2737 -0.8068  0.0296
  157DOPC   O3118867   4.579   2.842   6.964  0.4921 -0.2310 -0.1546
  157DOPC   C3118868   4.591   2.727   6.911 -0.3594 -0.1397  0.0389
  157DOPC   O3218869   4.572   2.616   6.962  0.2808  0.3457 -0.6270
  157DOPC   C3218870   4.615   2.753   6.763  0.0727 -0.4618 -0.6508
  157DOPC   H2X18871   4.726   2.757   6.760  0.2803 -2.4526  1.2489
  157DOPC   H2Y18872   4.566   2.671   6.706  1.5398 -0.9210 -1.3058
  157DOPC   C2318873   4.521   3.312   6.810  0.1603  0.2173 -0.0234
  157DOPC   H3R18874   4.619   3.270   6.779 -0.1349 -0.9115  0.5340
  157DOPC   H3S18875   4.532   3.410   6.862 -2.7878 -1.0028  3.2837
  157DOPC   C2418876   4.432   3.344   6.692  0.3558 -0.0674 -1.1225
  157DOPC   H4R18877   4.328   3.369   6.721  0.2745  0.3339 -1.7441
  157DOPC   H4S18878   4.415   3.255   6.628 -0.4081  0.7211 -2.0463
  157DOPC   C2518879   4.481   3.456   6.607 -0.8410 -0.3197  0.3762
  157DOPC   H5R18880   4.465   3.548   6.668  0.2973  0.0997  0.0632
  157DOPC   H5S18881   4.412   3.469   6.520 -1.7510 -1.7897  0.8321
  157DOPC   C2618882   4.625   3.438   6.553 -1.1482  0.2776  0.4240
  157DOPC   H6R18883   4.687   3.413   6.641 -0.6638 -0.1332 -0.0264
  157DOPC   H6S18884   4.655   3.536   6.511  0.8457 -1.1346 -1.7274
  157DOPC   C2718885   4.637   3.324   6.445 -0.1421  0.3483  0.0072
  157DOPC   H7R18886   4.563   3.245   6.469  1.7157 -0.9240  1.8844
  157DOPC   H7S18887   4.732   3.269   6.453 -0.3891 -0.6023 -2.6749
  157DOPC   C2818888   4.623   3.383   6.303  0.6665  0.0099  0.5952
  157DOPC   H8R18889   4.718   3.437   6.286 -1.2620  3.4640 -0.2196
  157DOPC   H8S18890   4.548   3.464   6.288  2.3219  1.2728 -1.2400
  157DOPC   C2918891   4.612   3.268   6.207  0.1167 -0.4859  0.2648
  157DOPC   H9R18892   4.708   3.219   6.184  0.3945 -0.0799  0.5588
  157DOPC  C21018893   4.504   3.221   6.140 -0.0205 -0.2514 -0.3617
  157DOPC  H10R18894   4.523   3.144   6.064  3.1250 -0.7995  0.8343
  157DOPC  C21118895   4.367   3.288   6.151 -0.2488  0.3600 -0.4234
  157DOPC  H11R18896   4.306   3.267   6.060  0.4685 -1.6851 -0.4756
  157DOPC  H11S18897   4.375   3.399   6.160  0.3062  0.2521  0.5655
  157DOPC  C21218898   4.295   3.225   6.280 -0.9246 -0.3023 -0.2317
  157DOPC  H12R18899   4.345   3.251   6.375 -2.1828 -0.4033  0.4857
  157DOPC  H12S18900   4.287   3.115   6.264 -0.5888 -0.5127  1.0218
  157DOPC  C21318901   4.158   3.300   6.286 -0.0311 -0.5765 -0.2816
  157DOPC  H13R18902   4.169   3.410   6.270  0.4141 -0.2936  1.7371
  157DOPC  H13S18903   4.110   3.286   6.385  1.2295 -2.3569  0.1183
  157DOPC  C21418904   4.058   3.267   6.177  0.7428 -0.2950  0.0484
  157DOPC  H14R18905   3.984   3.193   6.215  1.1615 -0.1208  1.2639
  157DOPC  H14S18906   4.119   3.214   6.101 -0.5560 -1.8191  0.0312
  157DOPC  C21518907   3.989   3.387   6.102 -0.3933  0.2350 -0.2506
  157DOPC  H15R18908   3.925   3.350   6.019  0.0735  1.4239 -1.1731
  157DOPC  H15S18909   4.075   3.443   6.058  0.1966 -0.8484 -0.5106
  157DOPC  C21618910   3.913   3.484   6.186  0.1381 -0.0330 -0.1428
  157DOPC  H16R18911   3.981   3.527   6.263 -1.9382  0.6276  1.4267
  157DOPC  H16S18912   3.841   3.418   6.239  0.4539 -1.2055 -1.1118
  157DOPC  C21718913   3.851   3.602   6.116 -0.2815 -0.3165 -0.4937
  157DOPC  H17R18914   3.785   3.551   6.043  0.3259 -3.1108  0.7762
  157DOPC  H17S18915   3.929   3.668   6.072  0.0837  0.8366  1.7169
  157DOPC  C21818916   3.760   3.684   6.206 -0.5782  0.3504  0.2082
  157DOPC  H18R18917   3.708   3.615   6.276 -1.9664  0.8475 -0.3034
  157DOPC  H18S18918   3.689   3.737   6.140 -0.2008  0.0198 -0.4745
  157DOPC  H18T18919   3.818   3.757   6.267 -0.4279 -0.1207  0.6361
  157DOPC   C3318920   4.545   2.880   6.706  0.6654 -0.0327 -0.3054
  157DOPC   H3X18921   4.573   2.968   6.767  1.7504 -0.9383  0.5302
  157DOPC   H3Y18922   4.434   2.872   6.711  0.5522  0.4469 -1.5761
  157DOPC   C3418923   4.570   2.902   6.557  0.2610  0.8109 -0.1569
  157DOPC   H4X18924   4.502   2.984   6.526  0.1656  0.8057  0.0366
  157DOPC   H4Y18925   4.535   2.806   6.512  2.2818  0.1079 -0.3280
  157DOPC   C3518926   4.714   2.931   6.528 -1.4939 -0.0391 -0.0714
  157DOPC   H5X18927   4.776   2.844   6.558 -0.5765  0.4638 -0.4605
  157DOPC   H5Y18928   4.750   3.020   6.584 -1.3624  0.0412 -0.2821
  157DOPC   C3618929   4.745   2.955   6.379  0.6677 -0.3213 -0.3797
  157DOPC   H6X18930   4.669   3.028   6.343  1.0616  1.1664  1.6525
  157DOPC   H6Y18931   4.848   2.993   6.367  1.7451 -2.7493  0.5824
  157DOPC   C3718932   4.732   2.819   6.302  0.2744  0.0435 -1.0103
  157DOPC   H7X18933   4.829   2.766   6.309  0.0459 -0.1795  1.4281
  157DOPC   H7Y18934   4.658   2.749   6.348 -1.7324  1.4402 -1.9399
  157DOPC   C3818935   4.675   2.846   6.164 -0.2203  0.4066  1.1935
  157DOPC   H8X18936   4.580   2.903   6.169 -0.2375  0.4993  0.1583
  157DOPC   H8Y18937   4.655   2.745   6.123  1.0808  1.0199 -1.1526
  157DOPC   C3918938   4.780   2.905   6.066 -0.4448  0.1284  0.3410
  157DOPC   H9X18939   4.873   2.948   6.107 -0.4515  0.4909 -0.0211
  157DOPC  C31018940   4.767   2.912   5.930  0.1676 -0.0668 -0.6663
  157DOPC  H10X18941   4.853   2.954   5.875 -1.3062  1.3820 -1.9615
  157DOPC  C31118942   4.658   2.839   5.850  0.8292  0.2221  0.2048
  157DOPC  H11X18943   4.575   2.906   5.818  2.6599  2.4365 -0.1105
  157DOPC  H11Y18944   4.619   2.751   5.906  1.5300 -1.3815 -1.6635
  157DOPC  C31218945   4.712   2.787   5.714  0.3392 -0.4572 -0.7732
  157DOPC  H12X18946   4.789   2.713   5.746  0.5267  1.3269  3.5695
  157DOPC  H12Y18947   4.754   2.874   5.659 -0.2162  0.5302  0.3120
  157DOPC  C31318948   4.603   2.735   5.618  0.0313  0.6496  0.1103
  157DOPC  H13X18949   4.590   2.629   5.650  1.2503 -0.3279 -2.3797
  157DOPC  H13Y18950   4.514   2.798   5.642  1.7303  2.5440  1.8412
  157DOPC  C31418951   4.642   2.737   5.466 -0.8941 -0.1448 -1.0165
  157DOPC  H14X18952   4.563   2.695   5.400  1.2049 -1.4762 -2.8189
  157DOPC  H14Y18953   4.669   2.839   5.433  0.6213  0.1383  0.8709
  157DOPC  C31518954   4.767   2.648   5.428  0.1022 -0.3084 -0.2310
  157DOPC  H15X18955   4.764   2.548   5.475 -1.0810  0.6631  1.9451
  157DOPC  H15Y18956   4.858   2.698   5.470 -0.1939  1.4983 -1.6088
  157DOPC  C31618957   4.775   2.630   5.277 -0.3050  0.5278 -0.4585
  157DOPC  H16X18958   4.693   2.566   5.238 -0.4390  0.4597 -0.0713
  157DOPC  H16Y18959   4.773   2.729   5.227  1.6750  1.2934  0.8225
  157DOPC  C31718960   4.903   2.568   5.224 -0.2876  0.4265  0.1170
  157DOPC  H17X18961   4.934   2.473   5.274  3.9602  0.0754 -2.6504
  157DOPC  H17Y18962   4.904   2.545   5.116 -1.2207  1.8797 -0.2202
  157DOPC  C31818963   5.016   2.665   5.240 -0.1960  0.2179 -0.2227
  157DOPC  H18X18964   5.018   2.755   5.175 -0.7432  1.0930  0.9302
  157DOPC  H18Y18965   5.011   2.685   5.350 -0.5169  1.4928 -0.4517
  157DOPC  H18Z18966   5.108   2.611   5.211 -0.2235  0.9325 -1.7001
  158DOPC     N18967   2.862   0.394   7.333  0.1620  0.6397  0.2268
  158DOPC   C1218968   2.967   0.287   7.309 -0.5839 -0.2573  0.5795
  158DOPC  H12A18969   2.941   0.227   7.223 -0.2604 -0.5007  0.6532
  158DOPC  H12B18970   2.964   0.214   7.388  0.2951  0.0745  0.9282
  158DOPC   C1318971   2.725   0.332   7.334  0.1314 -0.4710 -0.2356
  158DOPC  H13A18972   2.658   0.407   7.371  0.2048 -1.5899  2.3355
  158DOPC  H13B18973   2.699   0.309   7.231 -0.1720  1.1813 -0.5496
  158DOPC  H13C18974   2.720   0.252   7.406  1.9709 -0.0645  0.3980
  158DOPC   C1418975   2.870   0.502   7.228  0.9059 -0.0662 -0.5245
  158DOPC  H14A18976   2.780   0.556   7.206  0.8741 -0.0861 -0.4466
  158DOPC  H14B18977   2.941   0.580   7.252 -1.2714  1.1653  2.6049
  158DOPC  H14C18978   2.903   0.451   7.139  0.9157 -1.7607  0.3994
  158DOPC   C1518979   2.876   0.446   7.475 -0.2711 -0.5388 -0.0028
  158DOPC  H15A18980   2.857   0.365   7.543 -1.7623  0.4769  0.8616
  158DOPC  H15B18981   2.795   0.514   7.497 -0.3210 -0.4829 -0.3568
  158DOPC  H15C18982   2.974   0.481   7.504 -0.8788 -0.3914  2.0117
  158DOPC   C1118983   3.110   0.333   7.283  0.0066  0.3590 -0.0609
  158DOPC  H11A18984   3.161   0.248   7.234  0.3466 -1.3258  2.9555
  158DOPC  H11B18985   3.106   0.420   7.214 -0.9600  1.2593  1.0573
  158DOPC     P18986   3.226   0.273   7.508  0.3628 -0.0347 -0.3042
  158DOPC   O1318987   3.122   0.174   7.535 -0.0919  0.6771  0.4741
  158DOPC   O1418988   3.264   0.357   7.623  0.9246 -0.2544 -0.4652
  158DOPC   O1218989   3.164   0.369   7.406 -0.3745  0.3263  0.4167
  158DOPC   O1118990   3.352   0.217   7.436 -0.4091 -0.4734  0.5023
  158DOPC    C118991   3.455   0.309   7.397  0.4853  0.5933  0.4556
  158DOPC    HA18992   3.554   0.271   7.430 -0.0634 -0.5718  0.7996
  158DOPC    HB18993   3.449   0.415   7.431 -0.5881  0.5987  0.2833
  158DOPC    C218994   3.458   0.320   7.238  0.0025  0.4513  0.5323
  158DOPC    HS18995   3.359   0.367   7.220 -0.9144 -1.6164 -0.1083
  158DOPC   O2118996   3.481   0.187   7.186 -0.6571  0.2124 -0.0627
  158DOPC   C2118997   3.395   0.167   7.083 -0.1404 -0.3439  0.1513
  158DOPC   O2218998   3.341   0.257   7.019 -0.2297  0.1894 -0.4487
  158DOPC   C2218999   3.392   0.016   7.051 -0.1185 -0.8457  0.3981
  158DOPC   H2R19000   3.338  -0.050   7.122 -0.7340 -0.2044  0.5330
  158DOPC   H2S19001   3.495  -0.023   7.036 -0.3883 -1.0285 -1.1491
  158DOPC    C319002   3.568   0.416   7.189  0.0818 -0.1179 -0.1125
  158DOPC    HX19003   3.659   0.384   7.243  0.0279  0.4452  0.3232
  158DOPC    HY19004   3.540   0.518   7.224  1.2803  0.8105 -1.7505
  158DOPC   O3119005   3.584   0.407   7.050 -0.0220  0.1479  0.0247
  158DOPC   C3119006   3.500   0.481   6.978 -0.0601  0.2774  0.0432
  158DOPC   O3219007   3.415   0.556   7.024  0.3404  0.2018  0.3067
  158DOPC   C3219008   3.530   0.469   6.830 -0.0040  0.3767  0.7467
  158DOPC   H2X19009   3.616   0.530   6.794 -0.1621 -0.7681 -1.8252
  158DOPC   H2Y19010   3.559   0.368   6.795 -1.7347  0.6346 -1.7064
  158DOPC   C2319011   3.324  -0.002   6.915  0.8532 -0.0512 -0.6295
  158DOPC   H3R19012   3.394   0.061   6.855  0.9376  1.4735  0.9563
  158DOPC   H3S19013   3.227   0.052   6.918  0.5312 -0.4267 -2.9237
  158DOPC   C2419014   3.317  -0.153   6.867  0.1047  0.5773  0.8681
  158DOPC   H4R19015   3.273  -0.156   6.765  0.4035 -0.9030  0.7551
  158DOPC   H4S19016   3.262  -0.210   6.945 -0.1284 -1.5768 -0.7840
  158DOPC   C2519017   3.451  -0.225   6.864  0.3034 -0.1286 -0.2725
  158DOPC   H5R19018   3.486  -0.245   6.968  0.7258  0.2386 -0.3409
  158DOPC   H5S19019   3.522  -0.158   6.811  1.0106 -0.5126  0.1752
  158DOPC   C2619020   3.444  -0.352   6.777  0.8247  0.5437 -0.0452
  158DOPC   H6R19021   3.423  -0.313   6.676  1.1826 -1.1697 -0.8237
  158DOPC   H6S19022   3.360  -0.416   6.811 -1.0316  1.4439 -2.6279
  158DOPC   C2719023   3.573  -0.430   6.754  0.1746  0.3664  0.1538
  158DOPC   H7R19024   3.552  -0.529   6.709  0.5238  1.3001 -2.2229
  158DOPC   H7S19025   3.638  -0.432   6.845 -1.1803 -0.4322  1.1361
  158DOPC   C2819026   3.665  -0.346   6.659 -0.5329  0.3839 -0.5369
  158DOPC   H8R19027   3.697  -0.259   6.720 -0.5745 -0.5302  0.8278
  158DOPC   H8S19028   3.613  -0.301   6.572  1.3777 -0.8036 -2.3845
  158DOPC   C2919029   3.780  -0.438   6.613 -0.0309 -0.3258 -0.4923
  158DOPC   H9R19030   3.852  -0.464   6.691 -1.3393 -0.2243  0.8013
  158DOPC  C21019031   3.793  -0.491   6.491 -0.1841  0.2750  0.0376
  158DOPC  H10R19032   3.876  -0.562   6.478 -1.8830 -1.2284 -4.4009
  158DOPC  C21119033   3.716  -0.450   6.372 -0.8534  0.4185  0.0366
  158DOPC  H11R19034   3.794  -0.408   6.305  0.4102 -1.9814 -0.0946
  158DOPC  H11S19035   3.639  -0.372   6.391 -0.7178  0.7682 -0.8264
  158DOPC  C21219036   3.665  -0.572   6.290  0.2783 -0.3566  0.7876
  158DOPC  H12R19037   3.590  -0.625   6.353  2.2047  0.9006  4.4358
  158DOPC  H12S19038   3.747  -0.641   6.262 -1.6597 -2.3231 -0.4264
  158DOPC  C21319039   3.624  -0.532   6.144 -0.7594 -0.0719 -0.1517
  158DOPC  H13R19040   3.707  -0.481   6.091 -0.4729 -1.2187 -0.8457
  158DOPC  H13S19041   3.540  -0.460   6.136 -1.2093 -0.6205 -0.4940
  158DOPC  C21419042   3.584  -0.641   6.049 -0.5973 -0.0301 -0.2210
  158DOPC  H14R19043   3.659  -0.722   6.036 -0.6065  0.1904 -1.8594
  158DOPC  H14S19044   3.559  -0.601   5.948 -0.3876 -0.1183 -0.3077
  158DOPC  C21519045   3.461  -0.724   6.089 -0.3727 -0.4081  0.4234
  158DOPC  H15R19046   3.478  -0.767   6.190 -0.1420 -0.0441  0.5435
  158DOPC  H15S19047   3.453  -0.816   6.028 -2.0907 -0.8403  1.2493
  158DOPC  C21619048   3.322  -0.650   6.082 -0.4956  0.1053  0.4620
  158DOPC  H16R19049   3.330  -0.589   5.990 -1.3543 -1.4284 -0.6762
  158DOPC  H16S19050   3.319  -0.586   6.172 -0.0108 -0.2339  0.7294
  158DOPC  C21719051   3.203  -0.743   6.072 -0.2841 -0.0928 -1.0400
  158DOPC  H17R19052   3.195  -0.805   6.163 -0.7064  0.9518 -0.3443
  158DOPC  H17S19053   3.215  -0.816   5.990  0.1107  0.2872 -1.3251
  158DOPC  C21819054   3.078  -0.657   6.059  0.0673 -0.3439  0.5514
  158DOPC  H18R19055   3.085  -0.574   6.132  0.1903 -0.6176  0.8552
  158DOPC  H18S19056   2.986  -0.717   6.069 -0.1470 -0.1456 -0.1689
  158DOPC  H18T19057   3.072  -0.610   5.958  0.3435  0.2631  0.8136
  158DOPC   C3319058   3.404   0.502   6.748 -0.1226 -0.1925  0.7689
  158DOPC   H3X19059   3.436   0.549   6.652  0.2785 -2.1341 -0.1035
  158DOPC   H3Y19060   3.336   0.571   6.801 -0.6944  1.1004 -1.5255
  158DOPC   C3419061   3.321   0.386   6.694  0.4572 -0.0471 -0.4949
  158DOPC   H4X19062   3.220   0.420   6.661 -0.2260  0.2223  1.6537
  158DOPC   H4Y19063   3.308   0.330   6.790  2.5340  1.9847  1.0851
  158DOPC   C3519064   3.381   0.298   6.586  0.0863  0.0353 -0.4592
  158DOPC   H5X19065   3.477   0.250   6.616  1.1107  1.6030 -1.0738
  158DOPC   H5Y19066   3.422   0.364   6.507 -0.6088  0.3486 -0.5608
  158DOPC   C3619067   3.293   0.197   6.511 -0.2594 -0.4401 -0.3636
  158DOPC   H6X19068   3.204   0.252   6.475  0.6056 -0.5316 -2.7915
  158DOPC   H6Y19069   3.334   0.158   6.416 -0.8746 -0.1717 -0.7438
  158DOPC   C3719070   3.249   0.075   6.598  0.0669 -0.0538 -0.0577
  158DOPC   H7X19071   3.346   0.043   6.642 -0.2305  0.0786  0.6997
  158DOPC   H7Y19072   3.178   0.114   6.673  0.7609 -1.2591  1.2789
  158DOPC   C3819073   3.183  -0.041   6.521  0.6902 -0.6528 -0.0811
  158DOPC   H8X19074   3.095  -0.009   6.463 -1.5650 -0.8714  2.9649
  158DOPC   H8Y19075   3.131  -0.103   6.598  0.9548  0.8811  1.4059
  158DOPC   C3919076   3.287  -0.121   6.452 -0.4564  0.3438  0.3825
  158DOPC   H9X19077   3.390  -0.101   6.483  0.0016  2.0587 -1.9374
  158DOPC  C31019078   3.272  -0.209   6.354 -0.5157  0.3555 -0.7336
  158DOPC  H10X19079   3.366  -0.248   6.312 -1.8853 -2.4331 -1.4456
  158DOPC  C31119080   3.154  -0.253   6.279 -0.3798  0.0346  0.1545
  158DOPC  H11X19081   3.062  -0.214   6.327  0.3062  1.7138  0.1774
  158DOPC  H11Y19082   3.148  -0.362   6.301  1.5540 -0.1936 -0.2761
  158DOPC  C31219083   3.149  -0.231   6.127  0.1619 -0.2128  0.3524
  158DOPC  H12X19084   3.170  -0.125   6.101 -1.2608 -0.1846 -0.7826
  158DOPC  H12Y19085   3.045  -0.253   6.094 -0.2995  1.1191  0.8293
  158DOPC  C31319086   3.266  -0.310   6.052  0.3396  0.3206  0.4210
  158DOPC  H13X19087   3.364  -0.306   6.104  1.1810 -0.8743 -0.9978
  158DOPC  H13Y19088   3.233  -0.416   6.054  0.5540  0.2500  0.2627
  158DOPC  C31419089   3.292  -0.265   5.913  0.0047 -0.5381  0.0264
  158DOPC  H14X19090   3.205  -0.291   5.849 -0.2477 -2.2606  1.0232
  158DOPC  H14Y19091   3.300  -0.154   5.909  1.9161 -0.6665 -2.6346
  158DOPC  C31519092   3.414  -0.326   5.856  0.6289 -0.3579  0.4773
  158DOPC  H15X19093   3.424  -0.434   5.879  0.8104 -0.3424  0.4779
  158DOPC  H15Y19094   3.509  -0.277   5.886  1.7988 -2.2821  0.1170
  158DOPC  C31619095   3.419  -0.318   5.703 -0.1939  0.1716  0.2825
  158DOPC  H16X19096   3.332  -0.368   5.656  0.7354 -0.5697 -0.7021
  158DOPC  H16Y19097   3.413  -0.221   5.650 -1.3518  0.3661  0.7497
  158DOPC  C31719098   3.542  -0.398   5.663  0.6212 -0.0691  0.2392
  158DOPC  H17X19099   3.636  -0.351   5.700  0.0507  1.9295 -0.7272
  158DOPC  H17Y19100   3.535  -0.499   5.707  2.0457 -0.9297 -1.3427
  158DOPC  C31819101   3.545  -0.417   5.510  0.1084  0.1028 -0.1745
  158DOPC  H18X19102   3.628  -0.481   5.473 -1.0544 -1.2864 -0.4489
  158DOPC  H18Y19103   3.447  -0.435   5.461 -0.3312  0.5453  0.5189
  158DOPC  H18Z19104   3.573  -0.318   5.466  0.2347  1.6091  3.0273
  159DOPC     N19105   5.833   2.180   7.339  0.5202 -0.9716 -0.0324
  159DOPC   C1219106   5.962   2.262   7.348  0.1755  0.5331  0.2739
  159DOPC  H12A19107   6.048   2.196   7.357  0.0931  0.7599  4.5497
  159DOPC  H12B19108   5.958   2.326   7.435 -0.0400  0.1332  0.5647
  159DOPC   C1319109   5.809   2.105   7.467 -0.0533 -0.4439  0.3998
  159DOPC  H13A19110   5.724   2.039   7.451  0.7274 -0.8345 -2.6776
  159DOPC  H13B19111   5.892   2.047   7.505 -0.9451 -2.0161  0.0705
  159DOPC  H13C19112   5.780   2.173   7.546  0.5228 -0.2536  0.4526
  159DOPC   C1419113   5.844   2.080   7.232  0.0522 -0.4920 -0.0496
  159DOPC  H14A19114   5.866   2.136   7.143  1.1915  0.5689  0.8645
  159DOPC  H14B19115   5.921   2.006   7.250  1.1488  0.7570  0.5116
  159DOPC  H14C19116   5.750   2.030   7.211  0.1335 -0.4308 -0.5778
  159DOPC   C1519117   5.716   2.273   7.312 -0.0119  0.0729  0.2093
  159DOPC  H15A19118   5.717   2.328   7.219  0.1276  0.4520  0.4316
  159DOPC  H15B19119   5.676   2.329   7.395 -0.6118  0.7081 -0.4968
  159DOPC  H15C19120   5.625   2.214   7.308 -0.3601  0.6239 -0.2475
  159DOPC   C1119121   5.998   2.355   7.231 -0.3528 -0.8315  0.0370
  159DOPC  H11A19122   5.919   2.430   7.211 -1.2521 -1.4082  1.2676
  159DOPC  H11B19123   6.089   2.406   7.269  0.5496 -2.4166  0.0914
  159DOPC     P19124   6.052   2.363   6.977 -0.0263 -0.6194 -0.0059
  159DOPC   O1319125   6.093   2.261   6.876 -0.4783  0.3562 -0.4884
  159DOPC   O1419126   6.138   2.473   7.012 -0.2536  0.7895 -0.1293
  159DOPC   O1219127   6.027   2.276   7.109 -0.2984 -0.0281 -0.4371
  159DOPC   O1119128   5.908   2.423   6.942 -0.2356  0.2143  0.1020
  159DOPC    C119129   5.789   2.350   6.941 -0.5749 -0.1694  0.6445
  159DOPC    HA19130   5.726   2.400   7.018 -1.6048  0.8198 -0.7774
  159DOPC    HB19131   5.800   2.241   6.956 -0.3666 -0.0824  1.1410
  159DOPC    C219132   5.704   2.367   6.809  0.5624 -0.1009 -0.8302
  159DOPC    HS19133   5.618   2.297   6.819  0.2303  0.2231 -1.3966
  159DOPC   O2119134   5.779   2.335   6.697 -0.2422 -0.2084  0.1486
  159DOPC   C2119135   5.805   2.212   6.656 -0.4239 -0.4611  0.2718
  159DOPC   O2219136   5.763   2.110   6.709 -0.1143 -0.2439  0.3187
  159DOPC   C2219137   5.895   2.217   6.536  0.5517 -0.4340  0.2739
  159DOPC   H2R19138   6.002   2.214   6.565  0.4917 -3.0912  0.4212
  159DOPC   H2S19139   5.866   2.315   6.490  0.7757  0.0589  1.1558
  159DOPC    C319140   5.639   2.507   6.792  0.0111 -0.0752  0.2002
  159DOPC    HX19141   5.712   2.579   6.748 -0.3945 -1.2542 -2.6361
  159DOPC    HY19142   5.617   2.550   6.892  0.7148  1.2298 -0.1767
  159DOPC   O3119143   5.516   2.501   6.709 -0.5622  0.4135 -0.2759
  159DOPC   C3119144   5.400   2.468   6.773 -0.4843  0.8639  0.1499
  159DOPC   O3219145   5.395   2.438   6.893 -0.1458  0.2095  0.0005
  159DOPC   C3219146   5.285   2.485   6.663  0.2628  0.9542  0.1714
  159DOPC   H2X19147   5.280   2.591   6.631  2.4169  0.4981 -1.9127
  159DOPC   H2Y19148   5.311   2.427   6.572 -1.4100  0.6686 -0.1533
  159DOPC   C2319149   5.873   2.106   6.437  0.3088 -0.5262 -0.5786
  159DOPC   H3R19150   5.768   2.100   6.400  0.5027 -1.7499 -0.9721
  159DOPC   H3S19151   5.891   2.005   6.482 -0.5971  0.0671  1.2193
  159DOPC   C2419152   5.959   2.125   6.319  0.0077 -0.0547 -0.0785
  159DOPC   H4R19153   5.965   2.027   6.267  0.6855  0.5027 -1.1086
  159DOPC   H4S19154   6.060   2.153   6.356 -0.0827 -0.9464  0.8746
  159DOPC   C2519155   5.923   2.245   6.229  0.6571  0.0736  0.0057
  159DOPC   H5R19156   5.938   2.348   6.269 -1.8459  1.9062 -3.2543
  159DOPC   H5S19157   5.812   2.235   6.220  0.5615  1.1044 -0.0628
  159DOPC   C2619158   5.993   2.246   6.091 -0.6861 -0.7168  0.1467
  159DOPC   H6R19159   6.089   2.196   6.115 -0.2136  0.1030  0.0245
  159DOPC   H6S19160   6.016   2.350   6.059 -2.3607 -0.4351 -0.2365
  159DOPC   C2719161   5.919   2.170   5.985  0.2385 -0.1259 -0.5037
  159DOPC   H7R19162   5.816   2.208   5.970 -0.8291 -1.3913  2.6815
  159DOPC   H7S19163   5.903   2.068   6.028 -1.1937  1.2935  2.6572
  159DOPC   C2819164   5.982   2.154   5.844 -0.5038 -0.0985 -0.1272
  159DOPC   H8R19165   6.078   2.099   5.852 -0.4385  0.2254  1.7461
  159DOPC   H8S19166   6.005   2.257   5.809  2.3655 -0.5104  0.2854
  159DOPC   C2919167   5.901   2.080   5.741 -0.1618 -0.1433 -0.2283
  159DOPC   H9R19168   5.923   1.973   5.737 -0.6659 -0.2716  0.2608
  159DOPC  C21019169   5.810   2.127   5.660  0.3851 -0.0641 -0.3179
  159DOPC  H10R19170   5.755   2.054   5.599 -0.8813 -0.3289  1.0925
  159DOPC  C21119171   5.756   2.269   5.652  0.1000  0.6144  0.2279
  159DOPC  H11R19172   5.820   2.329   5.719  0.6026 -1.5970  1.8377
  159DOPC  H11S19173   5.655   2.269   5.699  0.5412 -1.4194  1.3226
  159DOPC  C21219174   5.738   2.324   5.509 -1.0425 -0.5120 -0.0895
  159DOPC  H12R19175   5.723   2.433   5.526 -0.6341 -0.5658  0.6984
  159DOPC  H12S19176   5.644   2.296   5.458 -0.5525 -1.1314 -0.6611
  159DOPC  C21319177   5.856   2.299   5.418  0.4054 -0.2017  0.1529
  159DOPC  H13R19178   5.875   2.191   5.401 -0.3151 -0.1573 -0.9998
  159DOPC  H13S19179   5.956   2.330   5.455  1.1084 -0.0299 -1.8276
  159DOPC  C21419180   5.837   2.357   5.277  0.1196 -0.3257  0.1467
  159DOPC  H14R19181   5.838   2.467   5.292  0.1995 -0.4455  1.0908
  159DOPC  H14S19182   5.737   2.327   5.238 -0.3542  1.9963 -0.5841
  159DOPC  C21519183   5.948   2.320   5.170 -0.0982 -0.0742 -0.9433
  159DOPC  H15R19184   6.037   2.290   5.229 -0.2306 -1.5384 -1.4392
  159DOPC  H15S19185   5.975   2.415   5.119 -0.1816 -0.2560 -1.3329
  159DOPC  C21619186   5.910   2.212   5.060 -0.2373 -1.2321 -0.3301
  159DOPC  H16R19187   5.819   2.249   5.009 -2.1778  0.2427  3.6994
  159DOPC  H16S19188   5.883   2.120   5.116  1.3169 -0.1291  2.4561
  159DOPC  C21719189   6.023   2.200   4.962  0.1676  1.1619 -0.8075
  159DOPC  H17R19190   6.107   2.254   5.010 -0.9678  0.0960  2.6239
  159DOPC  H17S19191   6.008   2.253   4.865 -0.8389  2.6611  0.1358
  159DOPC  C21819192   6.052   2.048   4.947  0.4403 -0.1089  0.0758
  159DOPC  H18R19193   6.044   1.999   5.046 -1.0019  0.2519  0.1623
  159DOPC  H18S19194   6.155   2.027   4.910  0.7301  0.2145  0.6946
  159DOPC  H18T19195   5.983   1.988   4.883 -1.7045 -0.4359  2.5248
  159DOPC   C3319196   5.150   2.445   6.728  0.0307  0.1099 -0.1184
  159DOPC   H3X19197   5.133   2.503   6.821  2.3780  1.1260 -0.2587
  159DOPC   H3Y19198   5.163   2.341   6.763  1.2042 -0.2462 -1.5078
  159DOPC   C3419199   5.029   2.462   6.640 -0.3035 -0.1074 -0.7821
  159DOPC   H4X19200   5.025   2.571   6.620  1.3531  0.1421  0.0941
  159DOPC   H4Y19201   4.942   2.426   6.700  0.9209  1.1387  1.8834
  159DOPC   C3519202   5.033   2.400   6.496  1.0132  0.4585 -0.3497
  159DOPC   H5X19203   5.048   2.290   6.494 -0.1048  0.3015 -1.0250
  159DOPC   H5Y19204   5.127   2.437   6.450  1.5127  1.0259  1.0574
  159DOPC   C3619205   4.904   2.435   6.419  0.2040 -0.0414  0.6467
  159DOPC   H6X19206   4.820   2.448   6.490 -2.2759 -1.8946 -1.7409
  159DOPC   H6Y19207   4.914   2.538   6.378  1.7956 -1.2139 -2.2402
  159DOPC   C3719208   4.869   2.340   6.305 -0.1658  0.1173  0.2923
  159DOPC   H7X19209   4.944   2.360   6.225  0.5835 -0.7430  0.7616
  159DOPC   H7Y19210   4.859   2.238   6.347 -1.9748  1.2367  2.7997
  159DOPC   C3819211   4.734   2.381   6.237 -0.5555  0.6579 -0.4956
  159DOPC   H8X19212   4.738   2.491   6.218  1.0519  0.6277 -0.4551
  159DOPC   H8Y19213   4.660   2.352   6.314 -1.4425 -0.4504 -1.7322
  159DOPC   C3919214   4.718   2.295   6.115 -0.0155 -0.4649 -0.1856
  159DOPC   H9X19215   4.797   2.218   6.106 -1.0404 -1.7306  1.0112
  159DOPC  C31019216   4.606   2.298   6.037  1.0454 -0.0353 -0.0180
  159DOPC  H10X19217   4.594   2.226   5.954 -1.6620  0.9173 -0.5455
  159DOPC  C31119218   4.495   2.399   6.045 -0.3075  0.0974  0.6804
  159DOPC  H11X19219   4.527   2.493   6.094  3.0425  0.4625 -1.8986
  159DOPC  H11Y19220   4.409   2.356   6.102 -0.6665  2.2093  1.8180
  159DOPC  C31219221   4.439   2.445   5.901 -0.2950  0.0305  0.7106
  159DOPC  H12X19222   4.523   2.486   5.840  0.1991 -1.7325  0.1471
  159DOPC  H12Y19223   4.362   2.522   5.920  0.6377  0.7729  1.5827
  159DOPC  C31319224   4.377   2.324   5.819  0.3007 -0.2586  0.4868
  159DOPC  H13X19225   4.455   2.251   5.790 -2.4703 -2.4719 -2.0791
  159DOPC  H13Y19226   4.291   2.279   5.874 -1.4250  1.3661 -0.7219
  159DOPC  C31419227   4.323   2.363   5.680 -0.3968  0.3194  0.1482
  159DOPC  H14X19228   4.245   2.440   5.697  0.4977  0.9605  1.4594
  159DOPC  H14Y19229   4.414   2.405   5.632 -0.3116  0.9308  0.8394
  159DOPC  C31519230   4.266   2.250   5.587 -0.3120 -0.0222 -0.2275
  159DOPC  H15X19231   4.212   2.312   5.513 -1.4378  1.1432  1.4823
  159DOPC  H15Y19232   4.183   2.204   5.645 -1.3508 -0.7422 -2.2230
  159DOPC  C31619233   4.371   2.150   5.530 -0.5061  0.4769 -0.2591
  159DOPC  H16X19234   4.450   2.201   5.470  0.6767  0.2206  1.0137
  159DOPC  H16Y19235   4.430   2.100   5.610  0.3855 -0.4671 -1.4675
  159DOPC  C31719236   4.302   2.042   5.448 -0.0638 -0.4688  0.4816
  159DOPC  H17X19237   4.221   2.012   5.518  0.1145  0.6317  1.1775
  159DOPC  H17Y19238   4.259   2.088   5.357  1.8733 -0.4904 -0.5042
  159DOPC  C31819239   4.397   1.925   5.413  0.1048  0.1954  0.4652
  159DOPC  H18X19240   4.340   1.831   5.394  0.3095  0.3622 -1.0270
  159DOPC  H18Y19241   4.460   1.947   5.324  0.9157 -0.7501  0.7743
  159DOPC  H18Z19242   4.464   1.907   5.500  0.9814 -4.1858 -0.8608
  160DOPC     N19243   1.666   0.381   6.940 -0.0144 -0.4854 -0.1051
  160DOPC   C1219244   1.665   0.436   7.085  0.1167 -0.0184  0.3828
  160DOPC  H12A19245   1.567   0.477   7.104 -0.9959 -1.8402 -1.1003
  160DOPC  H12B19246   1.736   0.518   7.090  0.3574 -0.1540 -0.5761
  160DOPC   C1319247   1.644   0.499   6.855 -0.4473  0.5156 -0.2488
  160DOPC  H13A19248   1.573   0.570   6.895 -0.2848  1.5482 -1.7077
  160DOPC  H13B19249   1.741   0.545   6.843  0.2004 -1.2630 -2.4002
  160DOPC  H13C19250   1.612   0.481   6.754  0.0514  1.2785 -0.5500
  160DOPC   C1419251   1.555   0.279   6.929  0.0880  0.3628 -0.2128
  160DOPC  H14A19252   1.462   0.324   6.961 -0.0097 -0.9472  1.5230
  160DOPC  H14B19253   1.546   0.237   6.831  0.0135 -0.5622  0.1830
  160DOPC  H14C19254   1.551   0.195   6.997  0.0684  1.4393  1.1879
  160DOPC   C1519255   1.801   0.317   6.912  0.1450  0.2197 -1.0748
  160DOPC  H15A19256   1.884   0.386   6.912  1.2319 -1.0516 -0.4324
  160DOPC  H15B19257   1.784   0.244   6.835  0.4907 -2.6272  1.3581
  160DOPC  H15C19258   1.820   0.257   7.000 -1.4243 -0.2111 -0.9951
  160DOPC   C1119259   1.683   0.331   7.198 -0.7873 -0.0684 -0.0822
  160DOPC  H11A19260   1.675   0.385   7.294 -2.0741  0.9763 -0.7445
  160DOPC  H11B19261   1.605   0.255   7.178 -1.4125  0.9010 -1.4649
  160DOPC     P19262   1.820   0.111   7.231 -0.1887  0.0926 -0.1117
  160DOPC   O1319263   1.763   0.098   7.368 -0.2470  0.0027 -0.2616
  160DOPC   O1419264   1.964   0.078   7.201  0.3551 -0.1968  0.1290
  160DOPC   O1219265   1.809   0.262   7.184 -0.3713  0.0471 -1.2316
  160DOPC   O1119266   1.731   0.034   7.128  0.4325 -0.1310 -0.3613
  160DOPC    C119267   1.747  -0.107   7.114  1.0777 -0.4665 -0.1380
  160DOPC    HA19268   1.656  -0.164   7.143 -0.1727  1.7941  0.5540
  160DOPC    HB19269   1.829  -0.143   7.180  1.7221  1.9777  0.4949
  160DOPC    C219270   1.770  -0.151   6.967  0.0826 -0.1810  0.1844
  160DOPC    HS19271   1.773  -0.262   6.965 -0.3823 -0.3059  2.5193
  160DOPC   O2119272   1.894  -0.088   6.924  0.3498  0.1160 -1.1848
  160DOPC   C2119273   2.009  -0.128   6.967  0.6104  0.7254 -0.3393
  160DOPC   O2219274   2.029  -0.235   7.026  0.4182  0.0547 -0.5352
  160DOPC   C2219275   2.113  -0.018   6.930 -0.4433 -0.2827  0.5285
  160DOPC   H2R19276   2.169   0.017   7.020  0.5077  0.0743 -0.1757
  160DOPC   H2S19277   2.063   0.074   6.894  2.2774  0.8393 -0.6598
  160DOPC    C319278   1.660  -0.093   6.869 -0.0727  0.1165  0.7474
  160DOPC    HX19279   1.662   0.015   6.896  1.2878  0.0710  0.8850
  160DOPC    HY19280   1.561  -0.141   6.887  0.0189 -1.1502 -1.6320
  160DOPC   O3119281   1.695  -0.109   6.733 -0.1784  0.1298  0.4938
  160DOPC   C3119282   1.742  -0.000   6.668  0.5932  0.1414  0.0322
  160DOPC   O3219283   1.717   0.115   6.701 -0.0104  0.4974  0.4313
  160DOPC   C3219284   1.795  -0.053   6.537 -0.1723  0.2267  0.6931
  160DOPC   H2X19285   1.874  -0.129   6.554  1.0699  0.7484 -2.0640
  160DOPC   H2Y19286   1.711  -0.094   6.477 -1.0627  2.7582  0.0676
  160DOPC   C2319287   2.228  -0.073   6.839 -0.0904 -0.1308 -0.6837
  160DOPC   H3R19288   2.244  -0.183   6.845  0.1125 -0.2045 -2.3334
  160DOPC   H3S19289   2.317  -0.015   6.870 -0.9170  0.4950  0.6468
  160DOPC   C2419290   2.195  -0.037   6.694 -0.5243 -0.3127 -0.1908
  160DOPC   H4R19291   2.128   0.052   6.688  0.6255  0.7418  1.6793
  160DOPC   H4S19292   2.146  -0.123   6.643 -0.2524  0.2756 -1.5118
  160DOPC   C2519293   2.318   0.011   6.623  0.8873 -0.0163 -0.1511
  160DOPC   H5R19294   2.379  -0.080   6.602 -0.7490 -0.8301 -1.6666
  160DOPC   H5S19295   2.379   0.091   6.671  1.1806  1.1951 -2.4107
  160DOPC   C2619296   2.291   0.067   6.479  0.0487 -0.2759  0.5069
  160DOPC   H6R19297   2.246   0.168   6.493  3.1694  1.2370  0.4353
  160DOPC   H6S19298   2.214   0.002   6.432  1.5070 -1.2094 -0.7024
  160DOPC   C2719299   2.417   0.073   6.393 -0.7021 -0.5408 -0.7787
  160DOPC   H7R19300   2.466  -0.024   6.415  2.2999  1.2938  1.4306
  160DOPC   H7S19301   2.484   0.154   6.429 -0.6693 -1.4399  1.3460
  160DOPC   C2819302   2.394   0.078   6.241 -0.1138  0.3687  0.6087
  160DOPC   H8R19303   2.352  -0.020   6.209  1.4121  0.4482 -1.8681
  160DOPC   H8S19304   2.494   0.088   6.194  0.0939  2.1433  1.3602
  160DOPC   C2919305   2.294   0.175   6.193  0.1878 -0.6482  0.2028
  160DOPC   H9R19306   2.187   0.162   6.216  0.0109  2.6188  1.8178
  160DOPC  C21019307   2.323   0.280   6.108 -0.1577  0.2368 -0.2429
  160DOPC  H10R19308   2.242   0.343   6.068 -1.8463 -0.4056  1.9614
  160DOPC  C21119309   2.458   0.323   6.062 -0.2572  0.9454  0.9709
  160DOPC  H11R19310   2.540   0.261   6.104 -0.8731 -1.0079 -0.5251
  160DOPC  H11S19311   2.469   0.430   6.090 -3.8776  2.2506 -1.7381
  160DOPC  C21219312   2.453   0.316   5.914  0.4610 -0.3024  0.3482
  160DOPC  H12R19313   2.543   0.366   5.873 -0.1186  1.0987  0.7446
  160DOPC  H12S19314   2.374   0.373   5.861  0.9305 -0.8152 -0.9522
  160DOPC  C21319315   2.446   0.172   5.857 -0.2166  0.2943  0.5121
  160DOPC  H13R19316   2.343   0.135   5.879 -0.3233  0.6021  0.5430
  160DOPC  H13S19317   2.519   0.103   5.905  0.4591  0.1865 -0.6519
  160DOPC  C21419318   2.467   0.155   5.706  0.0997  0.4909  0.0400
  160DOPC  H14R19319   2.567   0.191   5.675 -0.0868  0.6457 -0.4002
  160DOPC  H14S19320   2.396   0.206   5.637  0.3027  0.7905  0.0504
  160DOPC  C21519321   2.471   0.006   5.672  0.9434 -0.8059 -0.4178
  160DOPC  H15R19322   2.368  -0.035   5.679  0.5904  0.2264  0.6433
  160DOPC  H15S19323   2.526  -0.048   5.752  1.5055 -0.8632 -0.8330
  160DOPC  C21619324   2.535  -0.029   5.530  0.5095  0.3563  0.5742
  160DOPC  H16R19325   2.618   0.041   5.506 -0.7824  1.7142 -0.0905
  160DOPC  H16S19326   2.456  -0.009   5.455  1.4869 -0.0787 -0.6162
  160DOPC  C21719327   2.565  -0.180   5.511  0.0348  0.3902  0.2622
  160DOPC  H17R19328   2.466  -0.231   5.512  1.3387 -2.3405  1.6992
  160DOPC  H17S19329   2.615  -0.227   5.598 -1.6671  0.0167  1.0762
  160DOPC  C21819330   2.643  -0.203   5.383 -0.5311  0.4325 -0.5241
  160DOPC  H18R19331   2.585  -0.163   5.297  0.8130 -0.2995 -1.8233
  160DOPC  H18S19332   2.670  -0.307   5.356 -0.1990  1.1528 -3.2795
  160DOPC  H18T19333   2.746  -0.161   5.378  1.6881 -4.3386 -0.3563
  160DOPC   C3319334   1.870   0.062   6.456 -0.1907 -0.3025 -0.9874
  160DOPC   H3X19335   1.953   0.095   6.522 -1.0181  0.9921 -0.5525
  160DOPC   H3Y19336   1.804   0.147   6.430 -1.9499 -1.1732  0.4228
  160DOPC   C3419337   1.940   0.005   6.328  0.3893 -0.3287 -0.7080
  160DOPC   H4X19338   2.009  -0.078   6.355 -0.4503 -1.0534 -0.7450
  160DOPC   H4Y19339   2.005   0.082   6.281  0.5840 -0.3661 -0.5016
  160DOPC   C3519340   1.843  -0.029   6.215  0.2272  0.3352  0.2588
  160DOPC   H5X19341   1.801   0.068   6.180  1.2980  1.0212  0.7832
  160DOPC   H5Y19342   1.771  -0.103   6.255  0.1271  0.1895 -0.1891
  160DOPC   C3619343   1.918  -0.096   6.096 -0.1073 -0.3677 -0.6472
  160DOPC   H6X19344   1.962  -0.189   6.139  0.5838  0.4487  0.4394
  160DOPC   H6Y19345   1.838  -0.131   6.026 -1.0971  0.2227  0.1617
  160DOPC   C3719346   2.022  -0.006   6.027  0.6056  0.2439  0.2515
  160DOPC   H7X19347   1.979   0.096   6.018 -0.4836 -0.3898 -2.9614
  160DOPC   H7Y19348   2.115   0.003   6.087  0.9565  1.0402 -0.4061
  160DOPC   C3819349   2.059  -0.047   5.879 -0.1485 -0.0455 -0.2799
  160DOPC   H8X19350   2.115  -0.143   5.889  0.2765  0.2405  0.1246
  160DOPC   H8Y19351   2.137   0.025   5.847  0.9250 -1.1087 -0.1536
  160DOPC   C3919352   1.946  -0.066   5.781  0.2868 -0.1835  0.4125
  160DOPC   H9X19353   1.854  -0.010   5.803  1.2330  3.3350 -3.1634
  160DOPC  C31019354   1.961  -0.138   5.664  0.1951 -0.5797  0.7051
  160DOPC  H10X19355   1.877  -0.174   5.603  2.5907 -2.4601 -1.7646
  160DOPC  C31119356   2.092  -0.218   5.630  0.3708  0.3326 -0.7465
  160DOPC  H11X19357   2.186  -0.183   5.677 -0.2863 -0.1559  1.0163
  160DOPC  H11Y19358   2.115  -0.214   5.522  0.7738 -1.8564 -0.7922
  160DOPC  C31219359   2.072  -0.367   5.661 -0.4563 -0.1637 -0.3386
  160DOPC  H12X19360   1.990  -0.414   5.603  0.7197 -0.8061 -1.5451
  160DOPC  H12Y19361   2.046  -0.364   5.769 -0.1026  3.3470 -0.2548
  160DOPC  C31319362   2.206  -0.438   5.648  1.0574 -0.0059 -0.2507
  160DOPC  H13X19363   2.279  -0.377   5.706  0.2574  0.9506 -0.2099
  160DOPC  H13Y19364   2.198  -0.539   5.693 -0.8952  0.9224  1.6845
  160DOPC  C31419365   2.260  -0.452   5.497 -0.3624  0.2760 -0.2154
  160DOPC  H14X19366   2.179  -0.471   5.425  1.1769  0.1905 -1.9887
  160DOPC  H14Y19367   2.298  -0.350   5.474 -0.2376  0.5622  1.1370
  160DOPC  C31519368   2.369  -0.559   5.482 -0.0436  0.0137 -0.2398
  160DOPC  H15X19369   2.415  -0.553   5.382  0.8015  1.4847  0.2045
  160DOPC  H15Y19370   2.322  -0.659   5.492  1.0043 -0.4830 -0.1786
  160DOPC  C31619371   2.477  -0.555   5.589 -0.2880 -0.0315 -0.2812
  160DOPC  H16X19372   2.520  -0.452   5.585 -1.1253  0.3311 -0.2472
  160DOPC  H16Y19373   2.428  -0.570   5.688  0.3399 -1.6430 -0.1832
  160DOPC  C31719374   2.604  -0.639   5.568 -0.2526 -1.2079  0.3216
  160DOPC  H17X19375   2.560  -0.740   5.557 -1.8260 -0.4950 -0.2651
  160DOPC  H17Y19376   2.660  -0.604   5.479  1.5687 -1.1803  1.4345
  160DOPC  C31819377   2.692  -0.629   5.689  0.0556  0.0919 -1.0027
  160DOPC  H18X19378   2.641  -0.678   5.775 -0.3683 -0.0162 -1.3141
  160DOPC  H18Y19379   2.794  -0.672   5.682 -0.7871 -2.1198 -0.4381
  160DOPC  H18Z19380   2.713  -0.522   5.711 -1.6579  0.1099  0.8100
  161DOPC     N19381   3.522   1.259   7.434 -0.1755 -0.2729  0.3794
  161DOPC   C1219382   3.419   1.152   7.395 -0.1021  1.1060 -0.2106
  161DOPC  H12A19383   3.327   1.204   7.376 -0.2812  0.6547 -0.6018
  161DOPC  H12B19384   3.397   1.088   7.479 -1.2150  0.7016 -0.7914
  161DOPC   C1319385   3.555   1.340   7.316 -0.6340 -0.7463 -0.8404
  161DOPC  H13A19386   3.610   1.287   7.240  1.6135  0.8818 -0.4637
  161DOPC  H13B19387   3.460   1.364   7.270 -1.0308 -1.3218 -0.3401
  161DOPC  H13C19388   3.613   1.429   7.336  1.5523 -2.1352 -0.6582
  161DOPC   C1419389   3.653   1.198   7.483 -0.4195  0.0454 -0.7668
  161DOPC  H14A19390   3.730   1.271   7.503 -0.4092 -0.0458 -0.4666
  161DOPC  H14B19391   3.628   1.143   7.573  1.3020 -1.6551 -1.2808
  161DOPC  H14C19392   3.692   1.123   7.416  2.9777  0.0118  1.0750
  161DOPC   C1519393   3.475   1.349   7.545 -0.0435 -0.2477 -0.1272
  161DOPC  H15A19394   3.382   1.393   7.510 -1.5538 -1.2805  2.3009
  161DOPC  H15B19395   3.548   1.425   7.568 -0.3188 -0.5364  1.8924
  161DOPC  H15C19396   3.463   1.291   7.636  1.4600  2.6478  2.0538
  161DOPC   C1119397   3.450   1.065   7.274  0.6456  0.1480  0.0372
  161DOPC  H11A19398   3.558   1.039   7.276  0.5356 -0.3953 -0.5238
  161DOPC  H11B19399   3.400   0.967   7.289  2.3752 -0.5886  1.3040
  161DOPC     P19400   3.278   1.150   7.082 -0.4658 -0.3642 -0.0137
  161DOPC   O1319401   3.272   1.291   7.034  0.7505  0.4644 -0.3075
  161DOPC   O1419402   3.177   1.107   7.180 -0.4468  0.6141  0.9024
  161DOPC   O1219403   3.419   1.133   7.156  0.3051  0.1661 -0.0345
  161DOPC   O1119404   3.294   1.059   6.958  0.6895  0.4502  0.3399
  161DOPC    C119405   3.367   0.940   6.956 -0.2880  0.1303 -0.2710
  161DOPC    HA19406   3.311   0.868   7.020  1.0365  1.0670  2.0664
  161DOPC    HB19407   3.470   0.949   6.996 -0.1749 -0.2706 -0.4643
  161DOPC    C219408   3.378   0.891   6.810 -0.0471 -0.0264 -0.8660
  161DOPC    HS19409   3.410   0.784   6.811  0.1786  0.0223 -1.9459
  161DOPC   O2119410   3.473   0.959   6.740  0.0235  0.8498 -0.3742
  161DOPC   C2119411   3.605   0.949   6.763 -0.2950  0.2555 -0.2972
  161DOPC   O2219412   3.642   0.865   6.844 -0.1810  0.0212 -0.6078
  161DOPC   C2219413   3.682   1.032   6.671  1.2174 -0.5261 -0.1402
  161DOPC   H2R19414   3.791   1.019   6.690  1.1975 -3.7977 -1.6215
  161DOPC   H2S19415   3.666   1.141   6.684  1.0652 -0.4771 -0.6932
  161DOPC    C319416   3.238   0.895   6.741 -0.2919 -0.6148 -0.3715
  161DOPC    HX19417   3.202   0.999   6.727 -2.2486 -1.1495  0.3249
  161DOPC    HY19418   3.184   0.841   6.822  2.1653 -3.2295 -0.3532
  161DOPC   O3119419   3.253   0.832   6.613 -0.0473  0.6024  0.0186
  161DOPC   C3119420   3.154   0.752   6.591 -0.4475 -0.4884  0.0607
  161DOPC   O3219421   3.059   0.723   6.662 -0.2593  0.3413  0.1018
  161DOPC   C3219422   3.172   0.697   6.449 -0.2342  0.4037  0.6991
  161DOPC   H2X19423   3.231   0.760   6.381 -0.0563 -1.8848 -1.4084
  161DOPC   H2Y19424   3.224   0.599   6.450  1.7932  1.3010 -2.8701
  161DOPC   C2319425   3.648   1.000   6.523 -0.0890 -0.4481  0.0626
  161DOPC   H3R19426   3.685   1.082   6.458 -2.8114 -0.7886 -2.0617
  161DOPC   H3S19427   3.541   0.987   6.497 -0.8126  1.5374  1.7489
  161DOPC   C2419428   3.729   0.872   6.481 -0.2316  0.1638  0.1189
  161DOPC   H4R19429   3.701   0.788   6.549 -1.3800 -0.8110 -1.4933
  161DOPC   H4S19430   3.837   0.894   6.495  0.2790 -1.3462 -1.1987
  161DOPC   C2519431   3.704   0.828   6.330 -0.0510  0.6685 -0.3886
  161DOPC   H5R19432   3.774   0.745   6.307 -0.3402  0.3510 -0.1470
  161DOPC   H5S19433   3.735   0.907   6.258 -0.5138 -1.7427 -3.4151
  161DOPC   C2619434   3.564   0.783   6.295 -0.0449 -0.0570  0.0734
  161DOPC   H6R19435   3.492   0.868   6.292 -0.7259 -0.6586 -1.0103
  161DOPC   H6S19436   3.524   0.714   6.373 -2.2528  0.1943 -0.7558
  161DOPC   C2719437   3.557   0.717   6.156  0.0517 -0.3032 -0.2027
  161DOPC   H7R19438   3.646   0.653   6.136 -0.1296  0.3662 -3.7773
  161DOPC   H7S19439   3.582   0.797   6.082 -1.3984 -0.2414 -0.6487
  161DOPC   C2819440   3.437   0.644   6.118 -0.0666 -0.6209 -0.1877
  161DOPC   H8R19441   3.446   0.616   6.011 -1.1142  1.6666 -0.9272
  161DOPC   H8S19442   3.351   0.713   6.125 -0.6674 -1.5594  3.3033
  161DOPC   C2919443   3.406   0.521   6.200 -0.2788  0.1366  0.5010
  161DOPC   H9R19444   3.441   0.525   6.304  0.2648 -0.4452  0.3435
  161DOPC  C21019445   3.340   0.413   6.152 -0.4426  0.1173  0.2934
  161DOPC  H10R19446   3.333   0.332   6.226 -1.4572  2.2453  2.6576
  161DOPC  C21119447   3.279   0.391   6.017 -0.1488  0.8139 -0.0905
  161DOPC  H11R19448   3.307   0.469   5.942 -2.0490  1.1268 -0.5390
  161DOPC  H11S19449   3.168   0.393   6.018 -0.1382  1.3910  0.7264
  161DOPC  C21219450   3.333   0.252   5.961  0.1696  0.0802 -0.1843
  161DOPC  H12R19451   3.271   0.219   5.874 -2.5990 -2.2495  2.4490
  161DOPC  H12S19452   3.345   0.166   6.029  1.8536 -0.6605 -1.3628
  161DOPC  C21319453   3.471   0.267   5.903 -0.1402  0.3227  0.3594
  161DOPC  H13R19454   3.556   0.273   5.975 -0.4544 -1.2312  0.8888
  161DOPC  H13S19455   3.477   0.361   5.844  0.9559  1.3790  2.0448
  161DOPC  C21419456   3.508   0.152   5.806  0.0713 -0.3051  0.5631
  161DOPC  H14R19457   3.430   0.158   5.727  1.7128 -0.0360 -1.0926
  161DOPC  H14S19458   3.506   0.046   5.841 -2.2424 -0.6350 -0.4087
  161DOPC  C21519459   3.640   0.165   5.729 -0.3040  0.6028 -0.0367
  161DOPC  H15R19460   3.724   0.191   5.798 -0.7977  2.3505 -0.0525
  161DOPC  H15S19461   3.638   0.251   5.658  1.0699  1.2318  0.6365
  161DOPC  C21619462   3.667   0.050   5.621  0.1339  0.0006 -0.2424
  161DOPC  H16R19463   3.572  -0.003   5.602  0.0391  0.0002  0.2212
  161DOPC  H16S19464   3.733  -0.026   5.666  0.7592  0.8228  0.2651
  161DOPC  C21719465   3.714   0.085   5.481 -0.5250  0.0836  0.6217
  161DOPC  H17R19466   3.824   0.096   5.488 -0.2434 -1.8580 -0.1170
  161DOPC  H17S19467   3.678   0.188   5.457  2.0300  0.1757 -3.8846
  161DOPC  C21819468   3.673  -0.030   5.386  0.4036  0.3009 -0.5084
  161DOPC  H18R19469   3.696  -0.014   5.278 -0.5286  3.4607 -0.3409
  161DOPC  H18S19470   3.566  -0.062   5.379  0.0429  0.9126  1.5788
  161DOPC  H18T19471   3.743  -0.108   5.422 -0.0906  0.8178  1.6733
  161DOPC   C3319472   3.035   0.665   6.373  0.6781 -0.4528  0.1148
  161DOPC   H3X19473   2.995   0.761   6.336 -0.0369  0.3201  2.6608
  161DOPC   H3Y19474   2.959   0.638   6.450  0.9378  0.2981  0.6497
  161DOPC   C3419475   3.054   0.562   6.256 -0.1208 -0.3033 -0.0544
  161DOPC   H4X19476   3.078   0.467   6.307 -0.5370 -0.0919  0.5462
  161DOPC   H4Y19477   3.134   0.606   6.192  1.6251 -0.1373  2.0861
  161DOPC   C3519478   2.922   0.558   6.178 -0.6371  0.2389 -0.3113
  161DOPC   H5X19479   2.856   0.637   6.219 -0.6261  0.3082 -0.4281
  161DOPC   H5Y19480   2.868   0.464   6.200 -0.5831  0.2548 -0.1114
  161DOPC   C3619481   2.941   0.577   6.031  0.0525 -0.3067 -0.3109
  161DOPC   H6X19482   2.960   0.684   6.006  2.8727 -0.9445 -1.2597
  161DOPC   H6Y19483   3.037   0.524   6.012  0.3570  0.1832 -0.1575
  161DOPC   C3719484   2.823   0.524   5.950 -0.0554 -0.2950 -0.3078
  161DOPC   H7X19485   2.815   0.415   5.972 -0.7882 -0.1429  0.2125
  161DOPC   H7Y19486   2.727   0.573   5.980 -1.0641 -1.3268 -1.7413
  161DOPC   C3819487   2.849   0.543   5.800 -0.2092 -0.1267  0.1008
  161DOPC   H8X19488   2.942   0.487   5.776  0.0168  0.6498 -0.8906
  161DOPC   H8Y19489   2.861   0.651   5.777 -2.9197  0.1410 -0.3511
  161DOPC   C3919490   2.737   0.483   5.719 -0.2959 -0.2391 -0.1732
  161DOPC   H9X19491   2.742   0.374   5.719 -1.0523 -0.2806 -0.5688
  161DOPC  C31019492   2.648   0.557   5.654  0.3131 -0.0442  0.0474
  161DOPC  H10X19493   2.578   0.499   5.592  0.3205 -0.3315  0.3091
  161DOPC  C31119494   2.621   0.706   5.654 -0.6673  0.4232 -0.1697
  161DOPC  H11X19495   2.630   0.740   5.548 -0.8882 -2.5963 -1.2418
  161DOPC  H11Y19496   2.692   0.767   5.715 -2.6910  0.4103  2.3541
  161DOPC  C31219497   2.495   0.755   5.716  1.4663 -0.1230  0.4642
  161DOPC  H12X19498   2.421   0.692   5.662  1.3098  0.4814 -0.0488
  161DOPC  H12Y19499   2.474   0.863   5.699  0.6943 -0.2104  0.7985
  161DOPC  C31319500   2.491   0.719   5.871 -0.2623  0.3497 -0.2274
  161DOPC  H13X19501   2.491   0.612   5.899  0.9964  0.5304  0.5419
  161DOPC  H13Y19502   2.584   0.755   5.920 -0.2884 -1.6095  1.3518
  161DOPC  C31419503   2.365   0.781   5.937 -0.5860 -0.1556  0.0351
  161DOPC  H14X19504   2.398   0.887   5.950 -1.9600  0.6990 -2.5832
  161DOPC  H14Y19505   2.283   0.776   5.863  1.6853 -1.6870 -2.5785
  161DOPC  C31519506   2.322   0.713   6.065 -0.1911  0.4778  0.0638
  161DOPC  H15X19507   2.314   0.607   6.033 -1.1148  0.7560 -0.6522
  161DOPC  H15Y19508   2.221   0.750   6.092 -0.3511 -0.3352  0.5980
  161DOPC  C31619509   2.420   0.722   6.188  0.6918 -0.3394  0.2522
  161DOPC  H16X19510   2.516   0.668   6.172  0.6352 -0.8671  1.5634
  161DOPC  H16Y19511   2.461   0.825   6.195  2.3578 -0.9817  0.4107
  161DOPC  C31719512   2.343   0.676   6.314 -0.9594  0.1083 -0.1068
  161DOPC  H17X19513   2.237   0.709   6.306 -1.0380 -0.3168 -0.9680
  161DOPC  H17Y19514   2.352   0.565   6.319  1.2860  0.2564  0.4409
  161DOPC  C31819515   2.395   0.745   6.450 -0.0587  0.2543 -0.0064
  161DOPC  H18X19516   2.329   0.723   6.536 -1.6020 -0.6834 -1.3712
  161DOPC  H18Y19517   2.497   0.708   6.474 -0.0636  0.3715  0.1950
  161DOPC  H18Z19518   2.406   0.855   6.437 -0.6434  0.2537 -0.5340
  162DOPC     N19519   1.310   7.620   7.215  0.1354 -0.8364 -0.8731
  162DOPC   C1219520   1.219   7.603   7.093  0.3875  0.1652 -0.3467
  162DOPC  H12A19521   1.194   7.696   7.044  2.6149  1.3583  0.6418
  162DOPC  H12B19522   1.128   7.559   7.133  0.9103  0.2666  1.0180
  162DOPC   C1319523   1.229   7.702   7.315  0.3890 -0.2039 -0.3728
  162DOPC  H13A19524   1.216   7.800   7.274 -0.8139 -0.6232 -1.0651
  162DOPC  H13B19525   1.130   7.663   7.337 -0.7476  1.4876 -2.1819
  162DOPC  H13C19526   1.286   7.701   7.407  0.9365 -1.2772 -0.6958
  162DOPC   C1419527   1.425   7.705   7.183  0.5715  0.1033 -0.1628
  162DOPC  H14A19528   1.479   7.664   7.099  1.8337  1.1659  0.0826
  162DOPC  H14B19529   1.400   7.807   7.157  3.4897  0.1573 -3.6516
  162DOPC  H14C19530   1.503   7.718   7.257  0.0917 -0.2180  0.3975
  162DOPC   C1519531   1.354   7.488   7.272 -0.3442 -0.5104 -0.4317
  162DOPC  H15A19532   1.271   7.441   7.323 -0.9964 -0.1379 -1.1218
  162DOPC  H15B19533   1.436   7.486   7.343  1.7064 -2.1803 -2.6788
  162DOPC  H15C19534   1.381   7.418   7.195  1.4723  0.0885 -0.3935
  162DOPC   C1119535   1.271   7.502   6.985 -0.2038  0.2443  0.7825
  162DOPC  H11A19536   1.220   7.516   6.887  1.8236 -2.9142 -0.9006
  162DOPC  H11B19537   1.376   7.522   6.957 -0.4811  1.1662  0.3784
  162DOPC     P19538   1.149   7.262   6.965  0.0520  0.2963 -0.4189
  162DOPC   O1319539   1.043   7.276   7.067  0.1347 -0.1608 -0.0358
  162DOPC   O1419540   1.219   7.134   6.941  0.2467  0.2555 -0.7200
  162DOPC   O1219541   1.259   7.363   7.018  0.0286  0.3557  0.1600
  162DOPC   O1119542   1.103   7.329   6.832  0.6697 -0.2786 -0.0612
  162DOPC    C119543   1.176   7.306   6.712 -0.3954 -0.3661  0.2515
  162DOPC    HA19544   1.187   7.197   6.693 -2.1508 -0.3918 -0.8496
  162DOPC    HB19545   1.276   7.353   6.717 -0.6007  0.0639  0.4002
  162DOPC    C219546   1.115   7.375   6.584  0.0661 -0.9311  0.3503
  162DOPC    HS19547   1.068   7.469   6.619  1.4022  0.1062 -0.5521
  162DOPC   O2119548   1.026   7.283   6.527  1.0958 -0.3386 -0.2037
  162DOPC   C2119549   0.892   7.315   6.536  0.0075 -0.0365  0.3633
  162DOPC   O2219550   0.841   7.413   6.589 -0.3653 -0.1038 -0.3098
  162DOPC   C2219551   0.812   7.220   6.449 -0.2379  0.1822 -0.1374
  162DOPC   H2R19552   0.847   7.220   6.344 -0.2954  0.3175 -0.1572
  162DOPC   H2S19553   0.707   7.252   6.466  0.1635  1.4441  0.0483
  162DOPC    C319554   1.213   7.415   6.472 -0.1671 -0.2248 -0.0059
  162DOPC    HX19555   1.279   7.327   6.456 -0.7348 -0.6396 -0.0830
  162DOPC    HY19556   1.282   7.488   6.519 -0.3969 -0.0595  0.0721
  162DOPC   O3119557   1.162   7.442   6.343 -0.8263  0.2411  0.4679
  162DOPC   C3119558   1.114   7.557   6.310 -0.8396  0.1257  0.3447
  162DOPC   O3219559   1.111   7.656   6.385 -1.0794 -0.4101  0.4923
  162DOPC   C3219560   1.067   7.537   6.165  0.0916 -0.1383  0.2136
  162DOPC   H2X19561   1.149   7.513   6.094 -0.1091  0.6969 -0.3166
  162DOPC   H2Y19562   0.980   7.468   6.169 -0.7495  0.8809  0.0014
  162DOPC   C2319563   0.839   7.075   6.495  0.1051 -0.1295 -0.0062
  162DOPC   H3R19564   0.818   7.075   6.604 -1.2272 -1.1850 -0.2351
  162DOPC   H3S19565   0.945   7.048   6.510 -0.0303  0.3383  2.1050
  162DOPC   C2419566   0.758   6.967   6.422  0.5909  0.1044  0.1559
  162DOPC   H4R19567   0.802   6.970   6.320  0.7455 -1.9323  0.1245
  162DOPC   H4S19568   0.650   6.989   6.410 -0.1461 -2.5510  1.2697
  162DOPC   C2519569   0.776   6.827   6.494  1.0123  0.1593 -0.4907
  162DOPC   H5R19570   0.701   6.805   6.572 -0.3125  2.2042 -1.0960
  162DOPC   H5S19571   0.874   6.834   6.546  0.0051  0.1147  1.5037
  162DOPC   C2619572   0.773   6.725   6.380  0.8497  0.1567  0.0221
  162DOPC   H6R19573   0.846   6.754   6.302 -0.4643  1.3999 -0.7853
  162DOPC   H6S19574   0.678   6.731   6.322  0.0891 -1.5286  1.0043
  162DOPC   C2719575   0.792   6.579   6.416  0.0124  0.6876 -0.4768
  162DOPC   H7R19576   0.717   6.550   6.493  0.5443 -0.4367 -0.3638
  162DOPC   H7S19577   0.883   6.574   6.479  0.1898 -0.1901 -0.7835
  162DOPC   C2819578   0.816   6.484   6.292 -0.1611  0.4282  0.0984
  162DOPC   H8R19579   0.728   6.488   6.224 -0.6169 -0.6358  0.6130
  162DOPC   H8S19580   0.827   6.379   6.326 -0.4278  0.3117 -0.1654
  162DOPC   C2919581   0.941   6.518   6.209  0.3275  0.1579  0.2075
  162DOPC   H9R19582   1.034   6.533   6.266 -0.0224  1.7095  0.4195
  162DOPC  C21019583   0.949   6.518   6.073  0.4872 -0.4558  0.2146
  162DOPC  H10R19584   1.044   6.520   6.016  0.6770  1.4289  0.5424
  162DOPC  C21119585   0.827   6.515   5.982 -0.7506 -0.0646 -0.5366
  162DOPC  H11R19586   0.769   6.427   6.015 -2.1397  1.2805  0.7958
  162DOPC  H11S19587   0.869   6.481   5.885  1.0311  0.3803  0.0323
  162DOPC  C21219588   0.719   6.632   5.977  0.0400  0.3355  0.0955
  162DOPC  H12R19589   0.647   6.612   6.059  0.0970  0.7318  0.2431
  162DOPC  H12S19590   0.657   6.608   5.887  0.1644  1.7560 -0.3960
  162DOPC  C21319591   0.771   6.777   5.980  0.1091 -0.7905  0.0126
  162DOPC  H13R19592   0.841   6.790   5.895 -1.1467  0.1430 -0.9111
  162DOPC  H13S19593   0.826   6.784   6.076  0.1988 -0.5810 -0.0543
  162DOPC  C21419594   0.660   6.889   5.973 -0.4468  0.6668  0.4329
  162DOPC  H14R19595   0.595   6.867   6.061  0.4762  1.9085  1.4570
  162DOPC  H14S19596   0.593   6.887   5.885  0.6417 -0.1100 -0.4229
  162DOPC  C21519597   0.726   7.028   5.983  0.3675 -0.0211 -0.5243
  162DOPC  H15R19598   0.800   7.047   5.903 -1.4044 -2.0245 -2.8008
  162DOPC  H15S19599   0.768   7.024   6.086  0.6211  0.0584 -0.6240
  162DOPC  C21619600   0.618   7.145   5.976  0.0997  0.2252  0.0132
  162DOPC  H16R19601   0.521   7.101   6.009 -1.4407  2.4233 -1.2796
  162DOPC  H16S19602   0.610   7.189   5.875 -2.7078 -1.3018 -0.5461
  162DOPC  C21719603   0.660   7.256   6.080  0.1243 -0.2641 -0.6606
  162DOPC  H17R19604   0.756   7.307   6.058  0.6288 -0.4481  0.9352
  162DOPC  H17S19605   0.685   7.224   6.184  0.7263  1.1372 -0.3518
  162DOPC  C21819606   0.554   7.362   6.091 -0.1081 -1.2141 -0.2266
  162DOPC  H18R19607   0.455   7.317   6.113 -0.6186  0.3871  0.9435
  162DOPC  H18S19608   0.527   7.402   5.991 -1.3526 -0.3111  0.4381
  162DOPC  H18T19609   0.586   7.446   6.156 -2.1763 -0.0043 -0.6672
  162DOPC   C3319610   0.995   7.662   6.115  0.5395 -0.5766 -0.4628
  162DOPC   H3X19611   0.924   7.702   6.190  1.4755 -0.6604  0.4892
  162DOPC   H3Y19612   0.930   7.627   6.032 -0.8235  0.2950  0.2055
  162DOPC   C3419613   1.079   7.781   6.072  0.1687  0.2126 -0.4689
  162DOPC   H4X19614   1.155   7.747   5.999  0.2476 -0.9335  0.1250
  162DOPC   H4Y19615   1.124   7.832   6.160 -0.5140  0.0692 -0.0280
  162DOPC   C3519616   0.993   7.882   5.996 -0.6301 -0.3424 -0.3998
  162DOPC   H5X19617   0.896   7.915   6.039 -0.6502  1.3228 -1.6050
  162DOPC   H5Y19618   0.971   7.835   5.898  1.5069 -0.6640 -0.7797
  162DOPC   C3619619   1.074   8.015   5.976  0.6034  0.6307  0.7236
  162DOPC   H6X19620   1.177   7.987   5.948  1.2017 -0.1756  3.4567
  162DOPC   H6Y19621   1.031   8.068   5.888  0.6073  1.2249  1.0799
  162DOPC   C3719622   1.072   8.106   6.100 -0.0704 -0.7697  1.3881
  162DOPC   H7X19623   1.086   8.063   6.201 -2.0213  1.6066  2.8009
  162DOPC   H7Y19624   1.154   8.180   6.091 -0.3674 -0.4725  1.0831
  162DOPC   C3819625   0.939   8.189   6.112 -0.3459  0.3636  0.5626
  162DOPC   H8X19626   0.946   8.230   6.215  2.6339 -1.8093  1.3562
  162DOPC   H8Y19627   0.854   8.117   6.113 -0.2646  0.2418 -0.2420
  162DOPC   C3919628   0.929   8.294   6.010  0.3235  0.2568  0.6153
  162DOPC   H9X19629   1.010   8.367   6.012  1.0363 -0.4480 -0.8963
  162DOPC  C31019630   0.823   8.319   5.930  0.3626  0.5301  0.1018
  162DOPC  H10X19631   0.814   8.407   5.866  0.2282  1.3461  1.2048
  162DOPC  C31119632   0.695   8.236   5.927 -0.1203 -0.3021 -0.0122
  162DOPC  H11X19633   0.615   8.310   5.905  1.7458  1.9539  0.3275
  162DOPC  H11Y19634   0.674   8.194   6.028  0.1663 -0.1141  0.1274
  162DOPC  C31219635   0.683   8.125   5.821  0.0715 -0.0145  0.5970
  162DOPC  H12X19636   0.597   8.057   5.836 -0.3110  0.3535  0.0960
  162DOPC  H12Y19637   0.766   8.057   5.850  1.7363  0.6302 -2.2489
  162DOPC  C31319638   0.701   8.173   5.673  1.3066 -0.8794 -0.9813
  162DOPC  H13X19639   0.609   8.220   5.634 -0.2891 -1.8866  1.3311
  162DOPC  H13Y19640   0.787   8.243   5.669  0.7102 -0.0109  0.6837
  162DOPC  C31419641   0.738   8.063   5.572  0.1322  0.9072 -0.2164
  162DOPC  H14X19642   0.671   7.975   5.582  1.2184  0.1527  0.5123
  162DOPC  H14Y19643   0.722   8.105   5.470 -1.3942 -1.4157 -1.0023
  162DOPC  C31519644   0.876   8.006   5.586  0.2445  0.1494 -0.1776
  162DOPC  H15X19645   0.904   7.981   5.690  0.2309  1.1429  0.0765
  162DOPC  H15Y19646   0.940   8.093   5.557 -0.4298  0.6081 -0.3115
  162DOPC  C31619647   0.911   7.892   5.489  0.0480  0.4177  0.8536
  162DOPC  H16X19648   0.876   7.792   5.520  0.6063 -0.7598 -2.0126
  162DOPC  H16Y19649   0.870   7.921   5.390  1.4023  0.8094  0.3818
  162DOPC  C31719650   1.068   7.883   5.480  0.4205  0.4301  0.7279
  162DOPC  H17X19651   1.098   7.967   5.414  1.6171 -1.0787 -0.7668
  162DOPC  H17Y19652   1.110   7.889   5.582 -1.0491 -1.8059  1.5655
  162DOPC  C31819653   1.116   7.756   5.404 -0.0902 -0.2429 -0.1922
  162DOPC  H18X19654   1.096   7.666   5.466 -0.6348 -0.5595 -0.8105
  162DOPC  H18Y19655   1.073   7.745   5.302 -2.9685  0.5292  0.8501
  162DOPC  H18Z19656   1.226   7.766   5.391  0.0312 -1.0668  0.1149
  163DOPC     N19657   0.165   1.606   7.057 -0.1696  0.0368  0.5823
  163DOPC   C1219658   0.098   1.475   7.020 -0.2081 -0.5218 -0.1911
  163DOPC  H12A19659   0.018   1.456   7.090 -0.5103  0.4541 -0.2546
  163DOPC  H12B19660   0.172   1.396   7.021 -0.3754 -0.6831 -0.4181
  163DOPC   C1319661   0.248   1.660   6.951 -0.7068  0.2268 -0.2953
  163DOPC  H13A19662   0.326   1.587   6.932 -2.2598 -1.5223 -0.2505
  163DOPC  H13B19663   0.195   1.680   6.859 -3.2049 -0.6706  0.8615
  163DOPC  H13C19664   0.307   1.744   6.983 -1.0554  0.0513  0.8671
  163DOPC   C1419665   0.245   1.603   7.184  0.0996 -0.4370 -0.1962
  163DOPC  H14A19666   0.286   1.701   7.200 -3.6022  1.2968 -0.3406
  163DOPC  H14B19667   0.180   1.587   7.269  1.6177  1.9727  1.5399
  163DOPC  H14C19668   0.332   1.539   7.189  2.2307  2.3519  2.4253
  163DOPC   C1519669   0.066   1.723   7.080  0.3042  0.7051 -0.9601
  163DOPC  H15A19670   0.010   1.697   7.168 -0.1792 -0.2633 -1.5488
  163DOPC  H15B19671   0.003   1.738   6.994 -1.2554  2.6313  0.4145
  163DOPC  H15C19672   0.112   1.820   7.092 -1.1686  1.1108  2.3946
  163DOPC   C1119673   0.029   1.470   6.881  0.4450  0.4479  0.5467
  163DOPC  H11A19674   0.092   1.501   6.795 -1.3442  1.3717 -0.4787
  163DOPC  H11B19675   0.004   1.366   6.851 -0.6133  1.1740 -1.2357
  163DOPC     P19676  -0.230   1.505   6.931  0.0145 -0.2226  0.2187
  163DOPC   O1319677  -0.289   1.619   6.997 -0.1476  0.1326  0.3078
  163DOPC   O1419678  -0.214   1.389   7.017  0.6639 -0.0414 -0.9441
  163DOPC   O1219679  -0.091   1.555   6.878  0.2176 -0.9871 -0.2614
  163DOPC   O1119680  -0.308   1.469   6.803 -0.0248  0.2943 -0.6609
  163DOPC    C119681  -0.257   1.397   6.689  0.5797 -0.7419 -0.2616
  163DOPC    HA19682  -0.345   1.345   6.646 -0.3317  1.0161 -0.6007
  163DOPC    HB19683  -0.178   1.322   6.710  1.1174 -0.1775 -0.2448
  163DOPC    C219684  -0.211   1.484   6.573 -0.2619  0.3063 -0.1079
  163DOPC    HS19685  -0.127   1.546   6.610 -0.2620  0.3176 -0.1268
  163DOPC   O2119686  -0.328   1.564   6.540  0.2313 -0.0408  0.0256
  163DOPC   C2119687  -0.302   1.687   6.503  0.7137 -0.2854 -0.2912
  163DOPC   O2219688  -0.194   1.737   6.503  0.0470  0.0906  0.6107
  163DOPC   C2219689  -0.437   1.764   6.462 -0.1256 -0.1858 -0.0875
  163DOPC   H2R19690  -0.448   1.843   6.539  1.2011  0.3960 -0.4617
  163DOPC   H2S19691  -0.525   1.697   6.466  0.3932 -0.8145  2.2848
  163DOPC    C319692  -0.157   1.408   6.446  0.0282  0.8003 -0.6330
  163DOPC    HX19693  -0.237   1.334   6.426 -0.4469  0.8067  1.0704
  163DOPC    HY19694  -0.067   1.348   6.470 -1.0843 -0.1215  1.6337
  163DOPC   O3119695  -0.144   1.494   6.331 -0.8523  0.6127 -0.3093
  163DOPC   C3119696  -0.021   1.547   6.314  0.1209 -0.0271  0.8468
  163DOPC   O3219697   0.066   1.548   6.397 -0.1976 -0.1035  0.4839
  163DOPC   C3219698  -0.019   1.615   6.178  0.1123  0.4284 -0.3584
  163DOPC   H2X19699  -0.122   1.655   6.166  0.0804  1.0700  1.6767
  163DOPC   H2Y19700   0.051   1.699   6.193 -1.2544  1.5970 -0.3736
  163DOPC   C2319701  -0.427   1.832   6.320  0.8575  0.3138 -0.2299
  163DOPC   H3R19702  -0.332   1.888   6.309 -0.2834  2.1119 -1.3376
  163DOPC   H3S19703  -0.502   1.913   6.311  1.0785  0.5470  0.0082
  163DOPC   C2419704  -0.451   1.729   6.211 -0.8681  0.2563 -0.2984
  163DOPC   H4R19705  -0.554   1.692   6.227 -0.8310  0.9302  1.8137
  163DOPC   H4S19706  -0.387   1.640   6.226  0.3479  1.2662  0.8616
  163DOPC   C2519707  -0.452   1.788   6.073 -0.0282 -0.0020  0.2178
  163DOPC   H5R19708  -0.356   1.826   6.032 -0.8947  1.4546 -0.5200
  163DOPC   H5S19709  -0.505   1.885   6.074  3.1549  1.9265 -1.3348
  163DOPC   C2619710  -0.512   1.686   5.971  0.1623 -0.3327 -0.1972
  163DOPC   H6R19711  -0.622   1.686   5.987 -0.0354  1.3982 -1.3116
  163DOPC   H6S19712  -0.473   1.582   5.968  0.8093 -0.1182  0.4440
  163DOPC   C2719713  -0.497   1.734   5.829 -0.0485  0.0016  0.3141
  163DOPC   H7R19714  -0.390   1.757   5.811  0.1207 -0.7068  0.3713
  163DOPC   H7S19715  -0.552   1.831   5.823  1.8100  1.0620 -0.4078
  163DOPC   C2819716  -0.549   1.641   5.716  0.4032 -0.1058  0.3092
  163DOPC   H8R19717  -0.495   1.545   5.710  0.2331 -0.2257  0.6523
  163DOPC   H8S19718  -0.531   1.689   5.617 -0.6404  0.4986  0.3910
  163DOPC   C2919719  -0.700   1.618   5.721 -0.9788 -0.0794 -0.1961
  163DOPC   H9R19720  -0.750   1.656   5.811  0.8686 -2.6365  2.0594
  163DOPC  C21019721  -0.778   1.589   5.612 -0.0853  0.6265  0.2960
  163DOPC  H10R19722  -0.883   1.564   5.634 -0.2788 -0.7784 -1.9255
  163DOPC  C21119723  -0.736   1.586   5.465 -0.3201  0.9022 -0.0500
  163DOPC  H11R19724  -0.625   1.585   5.462 -0.2848  1.9152  0.4802
  163DOPC  H11S19725  -0.772   1.673   5.408  0.1668  0.7724 -0.5650
  163DOPC  C21219726  -0.767   1.471   5.368 -1.4556 -0.3131 -0.2284
  163DOPC  H12R19727  -0.721   1.506   5.273 -2.6038  2.2072  0.0757
  163DOPC  H12S19728  -0.875   1.447   5.368 -1.1302 -2.4223  3.2736
  163DOPC  C21319729  -0.701   1.335   5.405 -0.7204 -0.1440 -0.0146
  163DOPC  H13R19730  -0.747   1.298   5.499  1.2923 -0.9077  0.7211
  163DOPC  H13S19731  -0.591   1.334   5.413 -0.7835  0.1247  1.0859
  163DOPC  C21419732  -0.735   1.229   5.300  0.1065  0.3007 -0.0030
  163DOPC  H14R19733  -0.721   1.268   5.197  0.4511 -0.8548 -0.4019
  163DOPC  H14S19734  -0.844   1.209   5.312  0.1830 -0.7497 -0.9128
  163DOPC  C21519735  -0.650   1.102   5.314 -0.0852  0.3652 -0.5361
  163DOPC  H15R19736  -0.665   1.066   5.418  0.8160  0.6108 -0.3122
  163DOPC  H15S19737  -0.542   1.123   5.308  0.4427 -2.4114 -3.1267
  163DOPC  C21619738  -0.675   0.990   5.213 -0.8264 -0.2297  1.2457
  163DOPC  H16R19739  -0.777   0.949   5.224 -1.2742  0.5042  0.0725
  163DOPC  H16S19740  -0.620   0.900   5.248  3.0691  1.7012  0.7240
  163DOPC  C21719741  -0.639   1.015   5.069  0.3407  0.6299 -0.1488
  163DOPC  H17R19742  -0.643   1.121   5.038  0.3470  0.9558  0.9049
  163DOPC  H17S19743  -0.708   0.962   5.001  0.7511 -0.4494  0.2508
  163DOPC  C21819744  -0.496   0.968   5.035  0.6339 -0.1640  0.1666
  163DOPC  H18R19745  -0.427   1.017   5.107  0.6657 -1.2989  0.9351
  163DOPC  H18S19746  -0.473   1.003   4.932  0.6064 -1.3518 -0.2650
  163DOPC  H18T19747  -0.481   0.860   5.055  0.0167  0.2481  3.3141
  163DOPC   C3319748   0.040   1.532   6.062  0.2805  0.4491  0.5049
  163DOPC   H3X19749  -0.027   1.445   6.047  0.3183  0.2937  1.2336
  163DOPC   H3Y19750   0.140   1.497   6.094  1.5311  2.0454 -1.4229
  163DOPC   C3419751   0.047   1.617   5.938  0.7790 -0.2115  0.8222
  163DOPC   H4X19752   0.094   1.716   5.958  0.7885  0.3099 -1.4878
  163DOPC   H4Y19753  -0.050   1.634   5.886  2.2925  1.5403 -1.6600
  163DOPC   C3519754   0.141   1.554   5.841  0.4478 -0.0734  0.4470
  163DOPC   H5X19755   0.100   1.459   5.801  2.2327  0.2278 -2.4439
  163DOPC   H5Y19756   0.230   1.522   5.898  2.0989 -0.2138 -2.0716
  163DOPC   C3619757   0.185   1.651   5.731  0.1636 -0.6670  0.3634
  163DOPC   H6X19758   0.106   1.720   5.694 -0.0566 -1.0258  0.1560
  163DOPC   H6Y19759   0.245   1.732   5.778 -1.1423  0.3437  0.3757
  163DOPC   C3719760   0.268   1.582   5.615  0.0870 -0.0215  0.1350
  163DOPC   H7X19761   0.200   1.513   5.561 -1.2873  1.5949 -0.2879
  163DOPC   H7Y19762   0.304   1.658   5.543  2.9753 -0.2552  1.1837
  163DOPC   C3819763   0.399   1.508   5.647 -0.3767 -0.6308 -0.1268
  163DOPC   H8X19764   0.390   1.428   5.724 -1.0909 -1.2330 -0.8145
  163DOPC   H8Y19765   0.471   1.579   5.695  2.0374 -3.4552  0.7456
  163DOPC   C3919766   0.467   1.446   5.530 -0.3870 -0.7688 -0.2022
  163DOPC   H9X19767   0.546   1.510   5.487 -1.5606  2.0192  1.5355
  163DOPC  C31019768   0.427   1.334   5.472 -0.5044  0.6583 -0.3059
  163DOPC  H10X19769   0.487   1.296   5.389 -0.5599 -3.4144  1.3010
  163DOPC  C31119770   0.322   1.236   5.522 -0.3091  0.6658  0.0408
  163DOPC  H11X19771   0.242   1.287   5.580 -2.0373 -2.7561  0.9373
  163DOPC  H11Y19772   0.364   1.149   5.576 -0.6123  1.2630  1.2610
  163DOPC  C31219773   0.244   1.186   5.393 -0.3740  0.3843 -0.0814
  163DOPC  H12X19774   0.215   1.268   5.323  1.4246  0.5399 -0.7038
  163DOPC  H12Y19775   0.151   1.135   5.424  0.6477 -2.0307 -0.7389
  163DOPC  C31319776   0.313   1.085   5.308 -0.1001  0.4246 -0.3101
  163DOPC  H13X19777   0.397   1.138   5.258 -1.0510  1.6905 -0.6405
  163DOPC  H13Y19778   0.349   1.013   5.384 -0.9548  1.4824  1.1564
  163DOPC  C31419779   0.219   1.026   5.201 -0.0359  0.6018 -0.2024
  163DOPC  H14X19780   0.271   0.945   5.145  1.0368 -0.2858  1.9601
  163DOPC  H14Y19781   0.127   0.983   5.245  0.0993 -1.3944 -1.6872
  163DOPC  C31519782   0.186   1.137   5.100  0.0700  0.4556 -0.1880
  163DOPC  H15X19783   0.284   1.184   5.076 -0.1386  0.6734 -0.6100
  163DOPC  H15Y19784   0.119   1.217   5.138  0.1908  0.4560  0.0270
  163DOPC  C31619785   0.130   1.079   4.971  0.5374  0.4516 -0.1586
  163DOPC  H16X19786   0.189   0.991   4.938  1.4771  0.5580  1.1484
  163DOPC  H16Y19787   0.027   1.043   4.989  0.1385  1.0320 -1.2067
  163DOPC  C31719788   0.119   1.178   4.850  0.5943 -0.1409 -0.1233
  163DOPC  H17X19789   0.210   1.239   4.835  0.5088 -0.2771 -1.2336
  163DOPC  H17Y19790   0.113   1.118   4.757  0.8102  0.3657 -0.4642
  163DOPC  C31819791   0.004   1.275   4.850  0.4711  0.1783 -0.1993
  163DOPC  H18X19792  -0.086   1.212   4.831  0.6574 -0.0590 -0.2911
  163DOPC  H18Y19793  -0.003   1.340   4.940  0.1474 -0.0535 -0.0557
  163DOPC  H18Z19794   0.009   1.337   4.758 -0.7918  0.7172  0.0703
  164DOPC     N19795   1.065   1.103   7.217 -0.1409 -0.4218 -0.0620
  164DOPC   C1219796   1.142   0.997   7.142  0.0411  0.1045  1.1779
  164DOPC  H12A19797   1.230   0.966   7.196  0.3345  1.5718  1.5991
  164DOPC  H12B19798   1.192   1.042   7.058 -1.3395 -1.0310 -0.3117
  164DOPC   C1319799   0.991   1.034   7.330 -0.1107 -0.5346 -0.0901
  164DOPC  H13A19800   0.946   1.111   7.390  2.4861  0.0879  1.1573
  164DOPC  H13B19801   0.913   0.967   7.296  0.7288 -0.9512 -1.2779
  164DOPC  H13C19802   1.060   0.980   7.393  0.3265 -0.4596 -0.5037
  164DOPC   C1419803   0.963   1.170   7.126  0.3378 -0.3458  0.1883
  164DOPC  H14A19804   0.907   1.251   7.170 -0.7994 -0.3030 -1.2990
  164DOPC  H14B19805   1.017   1.210   7.042 -0.0558 -1.1716 -0.4678
  164DOPC  H14C19806   0.904   1.095   7.075  1.0740  0.6188 -2.1779
  164DOPC   C1519807   1.168   1.204   7.269  0.5599 -0.7009 -0.0610
  164DOPC  H15A19808   1.211   1.259   7.187 -2.6658  1.8885 -0.2101
  164DOPC  H15B19809   1.239   1.147   7.328 -0.0127 -2.3010 -0.8327
  164DOPC  H15C19810   1.127   1.273   7.341 -0.3836 -0.4792 -0.7925
  164DOPC   C1119811   1.053   0.883   7.086 -0.0415  0.8466  0.0852
  164DOPC  H11A19812   1.114   0.792   7.070  1.3606  1.7427  0.2219
  164DOPC  H11B19813   0.972   0.849   7.154  0.0039 -0.7297 -0.5823
  164DOPC     P19814   1.045   0.945   6.830  0.1166 -0.1304 -0.1925
  164DOPC   O1319815   1.069   0.809   6.779 -0.6418 -0.0916 -0.3399
  164DOPC   O1419816   1.152   1.041   6.831 -0.2011 -0.4157  0.3610
  164DOPC   O1219817   0.987   0.931   6.972  0.1033 -0.0483  0.1814
  164DOPC   O1119818   0.926   1.008   6.744  0.2519 -0.1285  0.6288
  164DOPC    C119819   0.793   1.005   6.789  0.2270 -0.1924 -0.8553
  164DOPC    HA19820   0.790   1.049   6.891  2.8877 -0.7639 -0.4455
  164DOPC    HB19821   0.754   0.901   6.789  0.1035 -0.1458 -0.2775
  164DOPC    C219822   0.694   1.088   6.698  0.2558 -0.2543  0.7694
  164DOPC    HS19823   0.724   1.191   6.726  0.8663  0.2000 -1.3798
  164DOPC   O2119824   0.561   1.060   6.740  0.0944 -0.1216 -0.7009
  164DOPC   C2119825   0.473   1.166   6.718  0.4204 -0.5650  0.4859
  164DOPC   O2219826   0.508   1.277   6.683 -0.0030  0.4799  0.1836
  164DOPC   C2219827   0.326   1.127   6.739  0.6115 -0.0865 -0.0052
  164DOPC   H2R19828   0.294   1.159   6.841 -0.0970 -1.2725  0.1589
  164DOPC   H2S19829   0.320   1.017   6.725  3.1012 -0.0547 -1.9394
  164DOPC    C319830   0.711   1.057   6.545  0.0922  0.3257  0.7212
  164DOPC    HX19831   0.711   0.946   6.538 -1.9441  0.4175 -2.1640
  164DOPC    HY19832   0.821   1.065   6.529  0.0499 -1.1664 -0.4438
  164DOPC   O3119833   0.636   1.123   6.442  1.3558 -0.4010  0.2056
  164DOPC   C3119834   0.685   1.243   6.419  0.2223  0.4268 -0.6586
  164DOPC   O3219835   0.781   1.291   6.478 -0.1531 -0.9827  0.1980
  164DOPC   C3219836   0.614   1.313   6.303 -0.3320 -0.2230  0.6431
  164DOPC   H2X19837   0.676   1.312   6.211  0.0879 -1.3274  0.9096
  164DOPC   H2Y19838   0.520   1.262   6.275  0.3628 -1.2490  0.1032
  164DOPC   C2319839   0.227   1.187   6.633 -0.8756 -0.4779 -0.1526
  164DOPC   H3R19840   0.222   1.297   6.648 -0.0459 -0.3474 -0.7848
  164DOPC   H3S19841   0.127   1.140   6.651 -1.5616  1.2917  0.8729
  164DOPC   C2419842   0.278   1.148   6.493 -0.1288 -0.1106  0.0194
  164DOPC   H4R19843   0.305   1.042   6.474  0.4578  0.2698 -1.4602
  164DOPC   H4S19844   0.374   1.199   6.469 -0.4608  0.7275  0.4277
  164DOPC   C2519845   0.174   1.174   6.381  0.1087 -0.5230 -0.0839
  164DOPC   H5R19846   0.138   1.279   6.376  0.4509 -0.2752  1.9141
  164DOPC   H5S19847   0.089   1.111   6.414  0.0803 -0.4901 -0.0929
  164DOPC   C2619848   0.213   1.122   6.241 -0.1755 -0.1439 -0.5830
  164DOPC   H6R19849   0.251   1.018   6.252  0.7942  0.2175 -0.4259
  164DOPC   H6S19850   0.294   1.188   6.204  0.1348  0.1539  0.5762
  164DOPC   C2719851   0.090   1.127   6.149 -0.0504  0.0172  0.4748
  164DOPC   H7R19852   0.029   1.220   6.156 -1.2630 -0.8679  2.7365
  164DOPC   H7S19853   0.015   1.054   6.188 -1.1884 -1.1056 -3.3359
  164DOPC   C2819854   0.134   1.079   6.007  0.7551  0.8176  0.6043
  164DOPC   H8R19855   0.036   1.068   5.956  0.2188 -0.0014  1.7546
  164DOPC   H8S19856   0.179   0.977   6.011 -1.5086 -0.2374  1.0373
  164DOPC   C2919857   0.205   1.170   5.906 -0.1346  0.0643 -0.4636
  164DOPC   H9R19858   0.143   1.246   5.857  0.4351 -0.0213 -1.3395
  164DOPC  C21019859   0.336   1.166   5.877  0.4016 -0.1080  0.3555
  164DOPC  H10R19860   0.368   1.217   5.785  0.8472  0.0543  0.5972
  164DOPC  C21119861   0.432   1.058   5.929 -0.1798 -0.2522  0.4911
  164DOPC  H11R19862   0.394   1.006   6.020  3.5715  1.2469  3.2074
  164DOPC  H11S19863   0.524   1.110   5.964 -0.2432  1.3899 -1.5774
  164DOPC  C21219864   0.477   0.959   5.816  0.7207  0.1101  0.0717
  164DOPC  H12R19865   0.573   0.907   5.838  0.1508 -1.2150 -0.4663
  164DOPC  H12S19866   0.498   1.020   5.725  2.3426 -0.6511 -0.0944
  164DOPC  C21319867   0.367   0.861   5.776 -0.3738  0.6606  0.3644
  164DOPC  H13R19868   0.265   0.901   5.793 -1.5819 -2.2985  0.5769
  164DOPC  H13S19869   0.370   0.774   5.845 -1.0909  0.0885 -0.3129
  164DOPC  C21419870   0.375   0.801   5.630  0.2667 -0.1826  0.0596
  164DOPC  H14R19871   0.468   0.740   5.634  1.0817  1.0616  2.5742
  164DOPC  H14S19872   0.387   0.879   5.552  1.2386 -1.3320 -0.9989
  164DOPC  C21519873   0.254   0.719   5.594  0.0110 -0.3622 -0.3214
  164DOPC  H15R19874   0.233   0.642   5.672 -0.7846  1.9430  1.8645
  164DOPC  H15S19875   0.277   0.655   5.506  0.3835 -2.0821  0.9791
  164DOPC  C21619876   0.129   0.796   5.560 -0.5602  0.3770  0.2546
  164DOPC  H16R19877   0.169   0.891   5.518  2.5211 -1.4237 -1.1738
  164DOPC  H16S19878   0.074   0.829   5.651  1.2768  0.0837  1.5021
  164DOPC  C21719879   0.026   0.731   5.462  0.1996 -0.0217 -0.0227
  164DOPC  H17R19880   0.069   0.665   5.383  2.2049 -0.4739  1.3446
  164DOPC  H17S19881  -0.027   0.811   5.407  1.3402  0.8385  0.0964
  164DOPC  C21819882  -0.073   0.644   5.539 -0.3728  0.2856  0.4723
  164DOPC  H18R19883  -0.111   0.701   5.626 -0.5359  2.5103 -0.9777
  164DOPC  H18S19884  -0.025   0.547   5.566  2.0623  0.6509 -2.0205
  164DOPC  H18T19885  -0.158   0.621   5.471 -0.9356  2.0802  0.5170
  164DOPC   C3319886   0.573   1.449   6.346 -0.4932 -1.0211 -0.0178
  164DOPC   H3X19887   0.654   1.517   6.316 -1.9132  1.0308  0.5667
  164DOPC   H3Y19888   0.572   1.467   6.456  1.1521  0.2902 -0.1903
  164DOPC   C3419889   0.447   1.502   6.285 -0.4292  0.0437 -0.2385
  164DOPC   H4X19890   0.413   1.604   6.313 -0.1850  0.3962 -1.2026
  164DOPC   H4Y19891   0.366   1.429   6.307 -0.3676  0.1118  0.2248
  164DOPC   C3519892   0.440   1.517   6.136 -0.3516  0.5212  0.4739
  164DOPC   H5X19893   0.344   1.562   6.105 -0.0947 -0.5656 -2.1182
  164DOPC   H5Y19894   0.447   1.420   6.083 -1.0871  1.5271 -1.5855
  164DOPC   C3619895   0.540   1.615   6.074 -0.5410 -0.8372  0.2865
  164DOPC   H6X19896   0.647   1.588   6.091  0.9768  2.1409 -3.2288
  164DOPC   H6Y19897   0.527   1.609   5.964  1.4754  0.0618 -0.0416
  164DOPC   C3719898   0.524   1.760   6.123 -0.0881  0.7535  0.2811
  164DOPC   H7X19899   0.418   1.782   6.097  0.0837  0.8670 -0.3543
  164DOPC   H7Y19900   0.554   1.767   6.229 -0.6901  1.2398  0.4243
  164DOPC   C3819901   0.607   1.855   6.039  0.2827 -0.5959 -0.9679
  164DOPC   H8X19902   0.614   1.953   6.091  0.1816 -0.8737 -0.4248
  164DOPC   H8Y19903   0.554   1.865   5.941 -1.3851 -1.9025 -0.2609
  164DOPC   C3919904   0.750   1.821   5.998 -0.5788 -0.5475 -0.4995
  164DOPC   H9X19905   0.753   1.788   5.893  0.2154 -1.0388 -0.3309
  164DOPC  C31019906   0.859   1.788   6.072  0.4252 -0.3830  0.3779
  164DOPC  H10X19907   0.957   1.761   6.028  0.2470 -2.0726  0.9528
  164DOPC  C31119908   0.868   1.789   6.226 -0.3721  0.3393  0.0575
  164DOPC  H11X19909   0.773   1.775   6.281 -0.5933 -2.3788 -0.8766
  164DOPC  H11Y19910   0.899   1.894   6.243  0.8790  0.2455 -1.4140
  164DOPC  C31219911   0.984   1.698   6.284  0.5620 -0.4127  0.1081
  164DOPC  H12X19912   1.000   1.708   6.394  0.2096 -2.6966  0.4100
  164DOPC  H12Y19913   1.075   1.729   6.230  0.2911  1.3689  0.6115
  164DOPC  C31319914   0.965   1.548   6.240 -0.0694  0.1492 -1.0541
  164DOPC  H13X19915   0.867   1.500   6.261 -0.2744  1.3600  1.0798
  164DOPC  H13Y19916   0.989   1.531   6.133 -0.5119  1.0692 -1.3086
  164DOPC  C31419917   1.064   1.456   6.328  0.2408 -0.0209  0.1511
  164DOPC  H14X19918   1.034   1.349   6.326 -2.3551  0.6318  0.5375
  164DOPC  H14Y19919   1.071   1.489   6.433  2.4288  0.7291 -0.1819
  164DOPC  C31519920   1.207   1.479   6.279  0.6765  0.6046  0.0557
  164DOPC  H15X19921   1.237   1.585   6.286  0.2258  0.7371 -0.0173
  164DOPC  H15Y19922   1.210   1.439   6.175  1.7118 -0.0502  0.3235
  164DOPC  C31619923   1.306   1.391   6.355  0.2268 -0.1975 -0.0425
  164DOPC  H16X19924   1.332   1.451   6.445 -0.3536  3.3277 -2.0570
  164DOPC  H16Y19925   1.243   1.308   6.393  0.0341  0.8189  2.0144
  164DOPC  C31719926   1.423   1.338   6.276  0.0952 -0.0324  0.7184
  164DOPC  H17X19927   1.487   1.271   6.338  2.0797  0.4882 -0.6601
  164DOPC  H17Y19928   1.394   1.280   6.186  0.7502 -0.5490  0.8318
  164DOPC  C31819929   1.514   1.446   6.220 -0.8332  0.1360  0.0526
  164DOPC  H18X19930   1.579   1.485   6.302 -0.0892  0.1532 -0.5339
  164DOPC  H18Y19931   1.583   1.414   6.140 -1.3036  2.4712 -1.4056
  164DOPC  H18Z19932   1.459   1.538   6.190  0.3972  1.3592  1.3719
  165DOPC     N19933   4.346   1.537   7.479 -0.3153 -0.1896 -0.2601
  165DOPC   C1219934   4.390   1.606   7.354  0.0951  0.8448 -0.3427
  165DOPC  H12A19935   4.393   1.532   7.275 -2.2658  0.1505  0.1436
  165DOPC  H12B19936   4.484   1.656   7.371 -0.5192  0.9063  3.9565
  165DOPC   C1319937   4.227   1.445   7.459 -0.5299  0.6017  0.3592
  165DOPC  H13A19938   4.154   1.492   7.393  0.3106  2.6213  0.7961
  165DOPC  H13B19939   4.261   1.351   7.418  0.9384  0.6087  1.4854
  165DOPC  H13C19940   4.185   1.417   7.554  1.2170  0.5418  1.1422
  165DOPC   C1419941   4.298   1.640   7.574 -0.5123  0.1258 -0.3148
  165DOPC  H14A19942   4.352   1.733   7.567 -0.9703  0.4931  0.7053
  165DOPC  H14B19943   4.199   1.670   7.544 -0.1618  1.6158 -0.0700
  165DOPC  H14C19944   4.295   1.595   7.673 -0.3731 -3.3070 -1.7207
  165DOPC   C1519945   4.469   1.468   7.535  0.0054 -0.7000  0.2395
  165DOPC  H15A19946   4.447   1.439   7.637 -0.0103 -0.7994  0.2079
  165DOPC  H15B19947   4.558   1.529   7.540 -0.8744  0.5782  0.7876
  165DOPC  H15C19948   4.497   1.382   7.477 -0.1362 -0.2215 -0.5465
  165DOPC   C1119949   4.292   1.710   7.292  0.0114  0.2657 -0.3533
  165DOPC  H11A19950   4.262   1.784   7.368  1.2196  0.1920  0.2189
  165DOPC  H11B19951   4.356   1.766   7.221  3.3883  2.5505  4.0158
  165DOPC     P19952   4.179   1.610   7.084  0.1388 -0.2033 -0.1646
  165DOPC   O1319953   4.066   1.535   7.044 -0.0419  0.1410  0.3077
  165DOPC   O1419954   4.310   1.550   7.056 -0.2064 -0.5483 -0.2635
  165DOPC   O1219955   4.170   1.647   7.231 -0.0334  0.1096 -0.2999
  165DOPC   O1119956   4.161   1.744   6.999  0.1901 -0.1467  0.7510
  165DOPC    C119957   4.258   1.779   6.892 -0.2340  0.5092  0.2068
  165DOPC    HA19958   4.217   1.854   6.821  1.1188 -1.0504 -2.3448
  165DOPC    HB19959   4.287   1.687   6.838 -2.6357 -1.5306  2.1274
  165DOPC    C219960   4.388   1.835   6.958  0.6779  0.1853  0.6397
  165DOPC    HS19961   4.416   1.785   7.053  1.0986  0.1659  0.5099
  165DOPC   O2119962   4.365   1.975   6.993  0.5019  0.0109 -0.1665
  165DOPC   C2119963   4.448   2.026   7.078  0.3175 -0.2315 -0.5390
  165DOPC   O2219964   4.532   1.967   7.142  0.1052 -0.1373  0.2288
  165DOPC   C2219965   4.435   2.177   7.087  0.1580  0.6476  0.0358
  165DOPC   H2R19966   4.510   2.224   7.154 -0.2386  1.6463 -0.1927
  165DOPC   H2S19967   4.329   2.200   7.112 -0.1292  0.1760 -0.6949
  165DOPC    C319968   4.509   1.842   6.857  0.8613 -0.0092 -0.2216
  165DOPC    HX19969   4.596   1.893   6.904  1.1741  1.6292 -2.4184
  165DOPC    HY19970   4.467   1.914   6.784 -0.5495 -2.7235 -2.2485
  165DOPC   O3119971   4.532   1.717   6.783 -0.6465  0.5763  0.2880
  165DOPC   C3119972   4.618   1.637   6.851  0.1750 -0.2156  0.2782
  165DOPC   O3219973   4.672   1.664   6.959  0.3887 -0.3445  0.9595
  165DOPC   C3219974   4.654   1.518   6.761  0.1260  0.3576 -0.8101
  165DOPC   H2X19975   4.692   1.441   6.831 -0.6550  1.3046  0.7444
  165DOPC   H2Y19976   4.559   1.469   6.731 -1.0869  0.1482  2.7626
  165DOPC   C2319977   4.443   2.234   6.941 -0.1013  0.2348 -0.2799
  165DOPC   H3R19978   4.529   2.197   6.882  1.2956  0.3988  1.5507
  165DOPC   H3S19979   4.470   2.341   6.953 -0.5371  0.5816 -2.0926
  165DOPC   C2419980   4.313   2.240   6.859 -0.1572 -0.3329  0.6724
  165DOPC   H4R19981   4.237   2.283   6.928 -1.7063 -0.5397 -0.8348
  165DOPC   H4S19982   4.287   2.146   6.806  2.4069 -0.2441 -0.9132
  165DOPC   C2519983   4.332   2.357   6.764  0.5329 -0.8291  0.4767
  165DOPC   H5R19984   4.358   2.454   6.812  1.0450 -0.1022 -1.1895
  165DOPC   H5S19985   4.236   2.383   6.715  0.2927 -0.4402  1.1338
  165DOPC   C2619986   4.444   2.338   6.662 -0.2808 -0.2192 -0.2654
  165DOPC   H6R19987   4.445   2.235   6.621 -0.2617 -0.7295  0.9618
  165DOPC   H6S19988   4.544   2.345   6.710 -0.2886 -0.3875 -0.2229
  165DOPC   C2719989   4.432   2.431   6.538  1.6162 -0.1859  0.8023
  165DOPC   H7R19990   4.525   2.431   6.478 -0.4066  1.5274 -2.6826
  165DOPC   H7S19991   4.412   2.536   6.566  0.3243  0.0065 -0.6718
  165DOPC   C2819992   4.319   2.379   6.431  0.0421 -0.3872 -0.3758
  165DOPC   H8R19993   4.300   2.460   6.357 -2.3725 -0.7131 -0.1937
  165DOPC   H8S19994   4.222   2.353   6.480  0.0129  2.3633  1.2237
  165DOPC   C2919995   4.380   2.264   6.358 -0.5615  0.5248  0.0950
  165DOPC   H9R19996   4.469   2.289   6.298  0.5383 -0.4852  1.2485
  165DOPC  C21019997   4.342   2.133   6.366  0.1223 -0.9218 -0.2234
  165DOPC  H10R19998   4.403   2.065   6.305  2.2369  0.1816  0.5396
  165DOPC  C21119999   4.217   2.078   6.426  0.2503 -0.2185  0.1881
  165DOPC  H11R20000   4.135   2.055   6.354 -0.2617 -1.5431  1.1524
  165DOPC  H11S20001   4.175   2.149   6.502 -2.1838 -1.1035 -0.2254
  165DOPC  C21220002   4.243   1.945   6.505  0.5756 -0.0950  0.0622
  165DOPC  H12R20003   4.157   1.917   6.569  1.7156 -3.1754  0.4073
  165DOPC  H12S20004   4.320   1.977   6.578  1.2216  1.3716 -1.1814
  165DOPC  C21320005   4.267   1.828   6.416  0.3751  0.1242  0.6299
  165DOPC  H13R20006   4.343   1.846   6.338 -0.2341 -2.5512 -0.7048
  165DOPC  H13S20007   4.177   1.798   6.359 -0.3739 -0.7687  2.2023
  165DOPC  C21420008   4.319   1.705   6.499  0.1917  0.0524 -0.2795
  165DOPC  H14R20009   4.234   1.643   6.535  0.6122 -0.2347  0.2465
  165DOPC  H14S20010   4.373   1.743   6.589 -0.5097  0.3518  0.0252
  165DOPC  C21520011   4.422   1.612   6.439 -0.1802 -0.0214  0.2424
  165DOPC  H15R20012   4.463   1.542   6.514  2.0293 -0.4081 -1.2282
  165DOPC  H15S20013   4.496   1.687   6.404  0.0977 -0.3092  0.2081
  165DOPC  C21620014   4.376   1.544   6.311 -0.2675 -0.2762  0.2259
  165DOPC  H16R20015   4.333   1.630   6.256 -1.2796 -1.2313 -0.5440
  165DOPC  H16S20016   4.307   1.460   6.337 -0.0963 -0.5160 -0.0946
  165DOPC  C21720017   4.485   1.496   6.217  0.0952  0.9497 -0.5141
  165DOPC  H17R20018   4.518   1.395   6.246 -1.5123  0.0082 -1.7663
  165DOPC  H17S20019   4.580   1.553   6.228  0.6218 -0.1407  0.7269
  165DOPC  C21820020   4.448   1.492   6.065  0.5876 -0.3509 -0.5851
  165DOPC  H18R20021   4.519   1.431   6.006 -0.7097 -0.0867 -2.4801
  165DOPC  H18S20022   4.441   1.594   6.021  1.7461  0.6279  1.3503
  165DOPC  H18T20023   4.349   1.446   6.045  2.1922 -3.5247 -1.8351
  165DOPC   C3320024   4.751   1.566   6.649 -0.1075  0.9381 -0.4408
  165DOPC   H3X20025   4.823   1.633   6.701 -0.3708  1.1189 -0.3040
  165DOPC   H3Y20026   4.697   1.620   6.567 -2.0722  2.0170  1.4387
  165DOPC   C3420027   4.831   1.445   6.589 -0.8540 -0.3907  0.4584
  165DOPC   H4X20028   4.755   1.382   6.538 -1.0029 -0.1415  0.3710
  165DOPC   H4Y20029   4.888   1.386   6.663 -1.1455  1.5488  2.3365
  165DOPC   C3520030   4.922   1.496   6.471  0.8379  0.2158 -0.0096
  165DOPC   H5X20031   4.975   1.591   6.495 -1.1043  1.2870  0.1928
  165DOPC   H5Y20032   4.859   1.522   6.383 -0.7407 -3.4002 -0.1319
  165DOPC   C3620033   5.030   1.395   6.436 -0.1414 -0.4701  0.1463
  165DOPC   H6X20034   5.099   1.372   6.520 -1.3410 -0.3484  1.1996
  165DOPC   H6Y20035   4.992   1.293   6.415  0.4742 -0.8099  0.6269
  165DOPC   C3720036   5.123   1.446   6.326  0.5031  0.0065  0.3493
  165DOPC   H7X20037   5.198   1.364   6.323  0.2864 -0.1705 -0.3085
  165DOPC   H7Y20038   5.174   1.540   6.357 -1.0370  1.0819 -0.2880
  165DOPC   C3820039   5.050   1.457   6.189  0.7780  0.2127  0.0482
  165DOPC   H8X20040   4.960   1.523   6.194  1.5613  1.3557 -0.4598
  165DOPC   H8Y20041   5.010   1.360   6.154 -0.7159  0.5324  0.7775
  165DOPC   C3920042   5.149   1.513   6.090  0.0857  0.1166  0.0607
  165DOPC   H9X20043   5.254   1.509   6.125  0.0844 -0.4238  0.0097
  165DOPC  C31020044   5.128   1.575   5.975 -0.0610  0.2284  0.2206
  165DOPC  H10X20045   5.214   1.609   5.915 -0.7552 -0.3992 -1.1678
  165DOPC  C31120046   4.999   1.592   5.904  0.2418 -0.4275 -0.6656
  165DOPC  H11X20047   4.918   1.560   5.972  0.9615 -1.8728 -0.4284
  165DOPC  H11Y20048   4.988   1.525   5.816  0.6141 -4.0766  1.8581
  165DOPC  C31220049   4.968   1.743   5.870  0.4015 -0.1926  0.2300
  165DOPC  H12X20050   5.028   1.761   5.777  1.2107  0.4450  0.8589
  165DOPC  H12Y20051   5.012   1.809   5.948  0.5866  0.7853 -0.6783
  165DOPC  C31320052   4.825   1.774   5.833 -0.6056  0.2775  0.3826
  165DOPC  H13X20053   4.798   1.728   5.736  0.0847 -0.7877  0.6751
  165DOPC  H13Y20054   4.767   1.729   5.916  0.0506 -1.2347  0.0594
  165DOPC  C31420055   4.803   1.921   5.833  0.2485 -1.1584  0.3437
  165DOPC  H14X20056   4.835   1.963   5.931  2.0533 -2.4289  0.3452
  165DOPC  H14Y20057   4.864   1.965   5.752 -1.5925  1.3186  0.2004
  165DOPC  C31520058   4.661   1.968   5.790 -0.4947  0.6517  0.1053
  165DOPC  H15X20059   4.645   1.927   5.688  2.1158 -0.3843  0.0253
  165DOPC  H15Y20060   4.674   2.078   5.780  1.5295  0.4128 -0.2969
  165DOPC  C31620061   4.543   1.922   5.883  0.3490 -0.1684 -0.4709
  165DOPC  H16X20062   4.562   1.816   5.909  0.7323  0.0024 -0.0356
  165DOPC  H16Y20063   4.557   1.982   5.976  0.9528  1.0476 -1.3224
  165DOPC  C31720064   4.402   1.950   5.837  0.4642  0.2673 -0.0178
  165DOPC  H17X20065   4.372   2.056   5.825 -0.8040  0.4617  3.7498
  165DOPC  H17Y20066   4.392   1.911   5.733  0.6918 -0.1993  0.1321
  165DOPC  C31820067   4.299   1.875   5.923 -0.0374 -0.7342  0.5088
  165DOPC  H18X20068   4.350   1.791   5.974 -1.1269 -1.4621  0.4196
  165DOPC  H18Y20069   4.254   1.952   5.990  0.5058  0.4073 -0.3944
  165DOPC  H18Z20070   4.217   1.832   5.862 -0.8548 -1.1229  1.8327
  166DOPC     N20071   5.883   2.996   7.360  0.5274 -0.2870 -0.3694
  166DOPC   C1220072   5.822   3.104   7.277  0.0338 -0.5452 -0.6659
  166DOPC  H12A20073   5.900   3.167   7.237 -1.8193  1.3902 -1.4735
  166DOPC  H12B20074   5.760   3.174   7.331 -0.4460 -1.4023 -0.0943
  166DOPC   C1320075   5.957   3.048   7.479 -0.6296  0.4354  0.1011
  166DOPC  H13A20076   6.043   3.110   7.460  1.3913 -2.5869 -1.5051
  166DOPC  H13B20077   5.886   3.095   7.545 -0.1187  0.2780  0.7762
  166DOPC  H13C20078   5.994   2.958   7.527 -0.5084  0.5421  0.2106
  166DOPC   C1420079   5.977   2.921   7.270  0.1408 -0.5603 -0.4065
  166DOPC  H14A20080   6.019   2.838   7.324  2.9713  0.6936 -0.4986
  166DOPC  H14B20081   5.929   2.886   7.179 -1.1748  0.0073  0.0417
  166DOPC  H14C20082   6.061   2.979   7.236  1.3765 -1.6456  0.7430
  166DOPC   C1520083   5.781   2.912   7.407  0.0038 -0.3176 -0.3184
  166DOPC  H15A20084   5.816   2.822   7.456 -0.5779 -0.5393 -0.2915
  166DOPC  H15B20085   5.706   2.884   7.334 -1.9217  0.3341  1.3169
  166DOPC  H15C20086   5.736   2.965   7.489 -0.3204 -2.2839  0.8560
  166DOPC   C1120087   5.741   3.053   7.146 -0.7346  0.0330 -0.4682
  166DOPC  H11A20088   5.726   3.141   7.080  1.4631  0.3575 -0.6162
  166DOPC  H11B20089   5.808   2.988   7.086 -1.2859  1.6776 -3.0482
  166DOPC     P20090   5.488   3.063   7.212  0.0278 -0.2065  0.1189
  166DOPC   O1320091   5.509   3.139   7.338 -0.0998 -0.5526  0.1674
  166DOPC   O1420092   5.388   2.956   7.216 -0.2515 -0.7824 -0.0425
  166DOPC   O1220093   5.621   2.990   7.191 -0.1398  0.5470 -0.3878
  166DOPC   O1120094   5.461   3.160   7.094  0.0102  0.1637  0.0009
  166DOPC    C120095   5.365   3.134   6.993  0.3721 -0.5339  0.2290
  166DOPC    HA20096   5.288   3.212   7.012  0.7436 -0.1591  0.1976
  166DOPC    HB20097   5.309   3.037   6.997  0.2312 -0.4575  0.1053
  166DOPC    C220098   5.433   3.164   6.851 -0.1667 -0.0286  0.1414
  166DOPC    HS20099   5.349   3.154   6.779 -0.0802  2.7878 -0.4519
  166DOPC   O2120100   5.543   3.078   6.826 -0.5639  0.0468  0.1330
  166DOPC   C2120101   5.525   2.948   6.811  0.0707  0.0772 -0.3469
  166DOPC   O2220102   5.414   2.900   6.810 -0.1497  0.3591 -0.5510
  166DOPC   C2220103   5.665   2.880   6.792  0.1849  0.3357 -0.5855
  166DOPC   H2R20104   5.657   2.774   6.823  2.3729 -0.8962 -3.7334
  166DOPC   H2S20105   5.744   2.921   6.859 -0.2250  0.3610 -0.1170
  166DOPC    C320106   5.482   3.309   6.831 -0.0686  0.1830 -0.5605
  166DOPC    HX20107   5.581   3.327   6.878 -0.0616 -0.3892 -0.3400
  166DOPC    HY20108   5.415   3.375   6.889  1.7799  1.4173  0.2547
  166DOPC   O3120109   5.475   3.349   6.694 -0.0820  0.1772 -0.3204
  166DOPC   C3120110   5.586   3.351   6.621  0.1171  0.7230 -0.0430
  166DOPC   O3220111   5.698   3.315   6.653  0.5871 -0.4659 -0.1822
  166DOPC   C3220112   5.554   3.427   6.486 -0.5642 -0.9897  0.4228
  166DOPC   H2X20113   5.445   3.449   6.486 -0.4751 -0.4172 -1.2935
  166DOPC   H2Y20114   5.599   3.529   6.491 -0.7083 -0.7746 -1.6637
  166DOPC   C2320115   5.702   2.884   6.645 -0.2428 -0.4748  0.4174
  166DOPC   H3R20116   5.810   2.866   6.632  0.1551  0.5576  1.9473
  166DOPC   H3S20117   5.679   2.986   6.607 -0.2480 -1.0270 -1.1201
  166DOPC   C2420118   5.625   2.792   6.550 -0.2688  0.0562  0.1840
  166DOPC   H4R20119   5.528   2.841   6.529 -0.1087  1.2757  2.0979
  166DOPC   H4S20120   5.610   2.688   6.585 -2.5783  1.2159  2.9852
  166DOPC   C2520121   5.696   2.792   6.410 -0.4269 -0.6728 -0.1079
  166DOPC   H5R20122   5.801   2.771   6.440 -0.1084 -0.2369 -0.9014
  166DOPC   H5S20123   5.698   2.894   6.366 -0.9092 -1.5542 -2.2581
  166DOPC   C2620124   5.656   2.681   6.316  0.6117  0.0549 -0.0902
  166DOPC   H6R20125   5.742   2.684   6.245 -1.3121  1.5347 -2.5475
  166DOPC   H6S20126   5.565   2.706   6.258 -0.2547  0.7542  1.4989
  166DOPC   C2720127   5.633   2.540   6.372 -0.6129 -0.2272  1.1742
  166DOPC   H7R20128   5.550   2.546   6.446 -1.8970  1.7805 -0.3077
  166DOPC   H7S20129   5.718   2.495   6.428  0.6860 -0.0684 -0.5970
  166DOPC   C2820130   5.593   2.443   6.263 -0.3235 -0.0832  0.2531
  166DOPC   H8R20131   5.596   2.345   6.315 -0.8068  0.6553  1.7175
  166DOPC   H8S20132   5.675   2.438   6.188 -1.0694 -1.6439 -0.4970
  166DOPC   C2920133   5.458   2.455   6.206 -0.1177 -0.7258 -0.9897
  166DOPC   H9R20134   5.398   2.543   6.235  1.4788  0.2517 -0.5788
  166DOPC  C21020135   5.393   2.360   6.143  0.5255 -0.0290  0.1343
  166DOPC  H10R20136   5.286   2.374   6.121  1.3073  1.8678 -3.1352
  166DOPC  C21120137   5.434   2.221   6.101  0.1249  0.0403 -0.7833
  166DOPC  H11R20138   5.545   2.217   6.089  0.0686  1.2744 -1.9656
  166DOPC  H11S20139   5.386   2.201   6.003 -0.7109 -0.7189 -0.2327
  166DOPC  C21220140   5.406   2.114   6.208  0.5182 -1.0872 -0.2941
  166DOPC  H12R20141   5.438   2.134   6.312  1.1303 -0.4509 -0.6027
  166DOPC  H12S20142   5.465   2.026   6.175 -0.3614 -1.2590 -1.5162
  166DOPC  C21320143   5.263   2.061   6.216  0.8976  0.2727 -0.7323
  166DOPC  H13R20144   5.238   2.020   6.116  0.7282  0.8209 -0.9191
  166DOPC  H13S20145   5.193   2.146   6.233  1.4775  0.6785 -0.2965
  166DOPC  C21420146   5.255   1.948   6.321 -0.2471  0.0020  0.5560
  166DOPC  H14R20147   5.239   1.990   6.423 -1.5532  2.3547 -0.5236
  166DOPC  H14S20148   5.352   1.895   6.316 -0.0011  0.5567 -1.1675
  166DOPC  C21520149   5.132   1.854   6.297 -0.6477 -0.2908  0.1035
  166DOPC  H15R20150   5.136   1.766   6.366  1.4520 -1.2812 -1.1757
  166DOPC  H15S20151   5.146   1.815   6.194  1.6546 -0.1402  0.2913
  166DOPC  C21620152   4.994   1.924   6.303  0.4658 -0.2893 -0.3704
  166DOPC  H16R20153   5.000   2.007   6.230 -0.9128  0.0585 -0.1036
  166DOPC  H16S20154   4.970   1.979   6.396 -1.7832 -1.5973 -0.1239
  166DOPC  C21720155   4.877   1.833   6.271 -0.9339 -0.0485  0.2091
  166DOPC  H17R20156   4.859   1.779   6.366 -0.4355 -1.1781 -0.3116
  166DOPC  H17S20157   4.898   1.767   6.183  2.0703  1.4788 -0.3829
  166DOPC  C21820158   4.749   1.903   6.231  0.4811 -0.1280 -0.1543
  166DOPC  H18R20159   4.773   1.984   6.158 -0.7391 -1.1485 -1.7516
  166DOPC  H18S20160   4.703   1.948   6.321  4.6212 -0.6901  2.5459
  166DOPC  H18T20161   4.686   1.831   6.175  0.8535 -1.1180  0.6670
  166DOPC   C3320162   5.606   3.348   6.357  0.0177  0.4288  0.3595
  166DOPC   H3X20163   5.696   3.295   6.396  0.2780  0.8786  0.3883
  166DOPC   H3Y20164   5.637   3.433   6.292  0.8044 -0.3849 -0.3569
  166DOPC   C3420165   5.496   3.257   6.294  0.4792  0.0938 -0.4818
  166DOPC   H4X20166   5.407   3.317   6.264 -0.7523 -1.1152  0.6486
  166DOPC   H4Y20167   5.471   3.182   6.371  1.2385  0.3288  0.0077
  166DOPC   C3520168   5.549   3.175   6.170  0.1563  0.0206 -0.2334
  166DOPC   H5X20169   5.653   3.137   6.176  0.3024  0.5280  0.8534
  166DOPC   H5Y20170   5.549   3.244   6.084  0.2466 -0.4106 -0.5805
  166DOPC   C3620171   5.458   3.057   6.129 -0.9056  1.0299 -0.1397
  166DOPC   H6X20172   5.484   2.970   6.193  2.0939  3.6544  2.4747
  166DOPC   H6Y20173   5.350   3.083   6.139 -1.0135  0.6951 -0.3813
  166DOPC   C3720174   5.484   3.010   5.980  0.4237 -0.5794 -0.8620
  166DOPC   H7X20175   5.407   2.937   5.948  1.7667 -2.9912  1.1111
  166DOPC   H7Y20176   5.490   3.102   5.918  1.6160 -1.6550 -2.4143
  166DOPC   C3820177   5.623   2.947   5.953 -0.3771 -0.2650 -0.0542
  166DOPC   H8X20178   5.636   2.866   6.028  0.1469 -0.5489 -0.4452
  166DOPC   H8Y20179   5.699   3.027   5.961 -0.2128 -0.2040 -1.7287
  166DOPC   C3920180   5.646   2.900   5.812 -0.3306  0.5076 -0.2828
  166DOPC   H9X20181   5.659   2.979   5.736  0.8014 -0.1981 -0.8538
  166DOPC  C31020182   5.630   2.777   5.759 -0.5236 -0.5351  0.3112
  166DOPC  H10X20183   5.662   2.760   5.655  1.3078  0.9866  0.5676
  166DOPC  C31120184   5.607   2.648   5.838 -0.7130 -0.5594 -0.0163
  166DOPC  H11X20185   5.640   2.659   5.944  0.8581 -0.8662 -0.4502
  166DOPC  H11Y20186   5.652   2.554   5.798 -3.7353 -1.2417 -2.1410
  166DOPC  C31220187   5.446   2.630   5.837 -0.1733  0.3874 -0.2484
  166DOPC  H12X20188   5.396   2.722   5.874  1.3520  0.5404  1.5687
  166DOPC  H12Y20189   5.424   2.557   5.918 -0.2751 -0.7762 -1.2940
  166DOPC  C31320190   5.381   2.568   5.709 -0.2410 -0.1817 -0.1720
  166DOPC  H13X20191   5.270   2.559   5.716 -0.4553  0.6210 -1.9514
  166DOPC  H13Y20192   5.394   2.634   5.621 -0.7226  1.1130  0.7042
  166DOPC  C31420193   5.429   2.426   5.668  0.5140 -0.8092 -0.0114
  166DOPC  H14X20194   5.528   2.444   5.621 -1.0621  0.3840 -3.1875
  166DOPC  H14Y20195   5.430   2.370   5.764  0.9024 -1.3394 -0.3213
  166DOPC  C31520196   5.345   2.359   5.570 -0.2350 -0.4167  0.2645
  166DOPC  H15X20197   5.238   2.340   5.595 -0.4785 -1.9455 -1.6509
  166DOPC  H15Y20198   5.377   2.253   5.564 -0.4552 -0.6072  1.9651
  166DOPC  C31620199   5.351   2.442   5.440 -0.2659 -0.1339  0.4364
  166DOPC  H16X20200   5.292   2.536   5.447  0.0403  0.0527  0.5565
  166DOPC  H16Y20201   5.455   2.467   5.410 -1.0795  1.6353 -1.0855
  166DOPC  C31720202   5.295   2.372   5.321 -0.2544 -0.1185  0.9484
  166DOPC  H17X20203   5.289   2.443   5.236  1.3175 -1.3485 -0.2656
  166DOPC  H17Y20204   5.346   2.287   5.269 -0.8060 -1.3740  2.3778
  166DOPC  C31820205   5.150   2.339   5.335  0.2258  0.1925  0.3531
  166DOPC  H18X20206   5.101   2.427   5.381 -0.1233  0.6889 -0.9471
  166DOPC  H18Y20207   5.107   2.315   5.235  0.8385 -0.9460  0.3362
  166DOPC  H18Z20208   5.134   2.259   5.411 -2.5878  1.9570  1.7805
  167DOPC     N20209   5.363   1.215   7.673 -0.4975  0.1449 -0.4232
  167DOPC   C1220210   5.248   1.126   7.643  0.1735  0.3789 -0.1072
  167DOPC  H12A20211   5.201   1.161   7.552  1.6227 -0.2435 -1.1283
  167DOPC  H12B20212   5.173   1.144   7.719  0.6305 -2.2515  1.1119
  167DOPC   C1320213   5.441   1.253   7.551  0.3983 -0.0779  0.6847
  167DOPC  H13A20214   5.477   1.163   7.502 -4.1286 -1.0472 -1.3694
  167DOPC  H13B20215   5.382   1.314   7.484  1.8810 -0.6869 -1.2976
  167DOPC  H13C20216   5.523   1.319   7.575  0.5251  0.8044 -1.8862
  167DOPC   C1420217   5.451   1.163   7.786 -0.1546  0.1233 -0.6717
  167DOPC  H14A20218   5.389   1.163   7.874 -0.0609 -4.1203 -0.3854
  167DOPC  H14B20219   5.478   1.059   7.772 -0.1380 -0.3540  2.2986
  167DOPC  H14C20220   5.548   1.212   7.790  0.7919 -1.3839 -2.8053
  167DOPC   C1520221   5.307   1.348   7.719  0.2387  0.0347  0.2317
  167DOPC  H15A20222   5.381   1.425   7.706 -0.3722  0.5436 -0.2254
  167DOPC  H15B20223   5.280   1.341   7.823  0.2539  1.7013  0.3652
  167DOPC  H15C20224   5.220   1.377   7.662 -0.3019  0.1306  1.0879
  167DOPC   C1120225   5.263   0.978   7.620  0.2899 -0.0560 -0.3467
  167DOPC  H11A20226   5.323   0.938   7.704  3.2193  0.7026 -1.9634
  167DOPC  H11B20227   5.166   0.924   7.614  0.4153 -0.1668 -1.7174
  167DOPC     P20228   5.270   0.971   7.365 -0.4967 -0.2819 -0.2277
  167DOPC   O1320229   5.340   0.894   7.261  0.5610  0.0649 -1.1701
  167DOPC   O1420230   5.273   1.114   7.337  0.3033  0.4072  0.1858
  167DOPC   O1220231   5.338   0.941   7.503 -0.0840  0.4343  0.0147
  167DOPC   O1120232   5.122   0.908   7.393  0.0406 -0.7312  0.4748
  167DOPC    C120233   5.055   0.849   7.275 -0.0946  0.3185 -0.3453
  167DOPC    HA20234   4.949   0.821   7.292  0.4736 -1.2013  0.9247
  167DOPC    HB20235   5.110   0.755   7.258  0.7836  0.0769  3.1248
  167DOPC    C220236   5.051   0.938   7.149 -0.1522 -0.3821 -1.6224
  167DOPC    HS20237   5.154   0.963   7.114  1.0888  0.5447  2.2476
  167DOPC   O2120238   4.977   1.064   7.180  0.2118  0.2859 -0.1101
  167DOPC   C2120239   4.994   1.156   7.087 -0.3905 -0.7923  0.0732
  167DOPC   O2220240   5.075   1.149   6.995  0.3676  0.3003  0.1717
  167DOPC   C2220241   4.894   1.271   7.114 -0.6960  0.1455 -0.3199
  167DOPC   H2R20242   4.910   1.299   7.220  3.0519 -0.7238 -0.5313
  167DOPC   H2S20243   4.791   1.233   7.097 -0.1781 -2.2103  1.2866
  167DOPC    C320244   4.969   0.850   7.051 -1.3800 -0.1581  0.1749
  167DOPC    HX20245   4.860   0.858   7.068 -1.9321 -3.3913 -1.0898
  167DOPC    HY20246   4.996   0.745   7.072 -1.4146 -0.6520 -1.9663
  167DOPC   O3120247   4.996   0.894   6.919 -0.0903 -0.8095  0.0042
  167DOPC   C3120248   5.121   0.862   6.872 -0.2764  0.1706  0.3108
  167DOPC   O3220249   5.209   0.808   6.932 -1.0973  0.0349  0.1090
  167DOPC   C3220250   5.135   0.902   6.723  0.1363 -0.9033 -0.6811
  167DOPC   H2X20251   5.041   0.889   6.666  0.9525  0.6922 -2.4976
  167DOPC   H2Y20252   5.173   1.006   6.711  2.4656 -1.7708 -1.4109
  167DOPC   C2320253   4.907   1.395   7.028 -0.3502  0.7381  0.0804
  167DOPC   H3R20254   4.822   1.454   7.068  0.8599  0.9810  2.5184
  167DOPC   H3S20255   4.890   1.375   6.920  0.1089 -0.2274  0.1746
  167DOPC   C2420256   5.027   1.480   7.051  0.0487 -0.7284  0.2097
  167DOPC   H4R20257   5.111   1.429   6.998  0.4355  1.4725 -1.4610
  167DOPC   H4S20258   5.048   1.487   7.160 -3.8094 -1.9041  1.1869
  167DOPC   C2520259   5.003   1.621   6.982  0.1853 -0.5248 -0.1959
  167DOPC   H5R20260   4.987   1.706   7.051 -1.2737  0.2256 -1.4171
  167DOPC   H5S20261   4.918   1.609   6.912  0.4723 -1.1935 -0.4448
  167DOPC   C2620262   5.112   1.661   6.885 -0.2901 -0.3273  0.1117
  167DOPC   H6R20263   5.209   1.642   6.935 -0.5672 -0.2537  0.6903
  167DOPC   H6S20264   5.107   1.767   6.850 -1.9207 -0.4763 -0.1913
  167DOPC   C2720265   5.123   1.579   6.752 -0.4325 -0.3965  0.3018
  167DOPC   H7R20266   5.025   1.595   6.703 -1.0438 -1.2134  1.2152
  167DOPC   H7S20267   5.139   1.470   6.767 -0.9063 -0.9276 -2.5926
  167DOPC   C2820268   5.235   1.622   6.657 -1.0404 -0.1487  0.2119
  167DOPC   H8R20269   5.210   1.719   6.608  1.9043  0.4655 -0.2814
  167DOPC   H8S20270   5.254   1.543   6.582  2.5134  0.0809  0.6616
  167DOPC   C2920271   5.369   1.649   6.723  0.8658  0.0328  0.1597
  167DOPC   H9R20272   5.411   1.567   6.783  1.3384  0.1530  0.0018
  167DOPC  C21020273   5.450   1.756   6.711  0.7665 -0.3409  0.1322
  167DOPC  H10R20274   5.532   1.765   6.784 -0.4495  0.9559  1.3872
  167DOPC  C21120275   5.425   1.882   6.629  0.1984 -0.1156 -0.9285
  167DOPC  H11R20276   5.324   1.876   6.584 -0.0244  0.6986 -0.5706
  167DOPC  H11S20277   5.496   1.895   6.544 -1.1255 -1.6237 -2.3064
  167DOPC  C21220278   5.434   2.005   6.719 -0.0613 -0.2079  0.2627
  167DOPC  H12R20279   5.534   2.009   6.767  0.7536  2.2975 -1.4294
  167DOPC  H12S20280   5.432   2.095   6.654  2.3720  1.0226  1.7559
  167DOPC  C21320281   5.312   2.021   6.813 -0.4180  0.4660  0.0453
  167DOPC  H13R20282   5.315   2.112   6.877 -0.9040 -0.2780  1.1610
  167DOPC  H13S20283   5.323   1.937   6.885  1.0332 -0.1922 -0.9020
  167DOPC  C21420284   5.169   2.018   6.745  0.0293  0.0985 -0.1917
  167DOPC  H14R20285   5.145   1.917   6.704  0.6750 -0.9973  1.9853
  167DOPC  H14S20286   5.172   2.092   6.663  0.3796  2.2579  1.6714
  167DOPC  C21520287   5.053   2.048   6.842  0.1817  0.3856 -0.3570
  167DOPC  H15R20288   5.046   2.157   6.863  1.5450  0.0977  1.9261
  167DOPC  H15S20289   5.077   2.006   6.942  0.4096 -0.0587 -0.5957
  167DOPC  C21620290   4.916   1.993   6.782 -0.6777  0.5569 -0.4140
  167DOPC  H16R20291   4.839   1.990   6.862  0.2842  0.7928  0.5338
  167DOPC  H16S20292   4.938   1.892   6.741 -0.8340 -0.2070  1.2776
  167DOPC  C21720293   4.866   2.086   6.669  0.2304  0.3838 -0.2519
  167DOPC  H17R20294   4.943   2.121   6.597 -1.0125  0.4208 -1.6145
  167DOPC  H17S20295   4.845   2.189   6.705  0.7079  0.8357 -1.2172
  167DOPC  C21820296   4.750   2.023   6.591 -0.2171 -0.2375 -0.0124
  167DOPC  H18R20297   4.717   2.095   6.514  0.0107 -0.0236  0.0896
  167DOPC  H18S20298   4.655   2.004   6.645 -0.4624  0.0916 -0.3221
  167DOPC  H18T20299   4.782   1.932   6.535  3.0020 -0.2537  1.5877
  167DOPC   C3320300   5.246   0.821   6.659  0.1313 -1.0703 -0.0952
  167DOPC   H3X20301   5.226   0.712   6.665 -1.5147 -0.7971 -0.0332
  167DOPC   H3Y20302   5.346   0.846   6.701 -0.2840  2.2400 -0.8062
  167DOPC   C3420303   5.262   0.861   6.518 -0.6104  0.1859  0.2242
  167DOPC   H4X20304   5.254   0.971   6.502 -0.1477  0.3456  1.0443
  167DOPC   H4Y20305   5.171   0.839   6.458 -1.4341  0.2657  1.4016
  167DOPC   C3520306   5.393   0.809   6.447  0.1389  0.2341 -0.2690
  167DOPC   H5X20307   5.405   0.701   6.469 -1.2143  0.2345  0.5896
  167DOPC   H5Y20308   5.478   0.867   6.490  2.0345 -1.9391 -0.8635
  167DOPC   C3620309   5.382   0.836   6.295  0.3584 -0.5760 -0.4648
  167DOPC   H6X20310   5.456   0.764   6.253  0.5870 -0.5227 -0.1528
  167DOPC   H6Y20311   5.282   0.810   6.252  1.1871 -0.9239 -2.2539
  167DOPC   C3720312   5.419   0.978   6.247 -0.2463  0.4838 -0.5485
  167DOPC   H7X20313   5.354   1.035   6.316 -2.2479 -1.5000 -0.7168
  167DOPC   H7Y20314   5.530   0.984   6.255 -0.0611 -2.2548  0.0918
  167DOPC   C3820315   5.375   0.993   6.092 -0.2262  0.1972 -0.5120
  167DOPC   H8X20316   5.267   0.972   6.084 -0.5997  1.9834 -0.6329
  167DOPC   H8Y20317   5.427   0.919   6.027 -0.2932 -0.1282 -0.1992
  167DOPC   C3920318   5.408   1.135   6.050 -0.1076  0.1520  1.4308
  167DOPC   H9X20319   5.493   1.178   6.105  0.6509 -0.6435  0.9193
  167DOPC  C31020320   5.367   1.180   5.934 -0.7338 -0.3427  0.2590
  167DOPC  H10X20321   5.382   1.288   5.922 -0.2868 -0.3545  0.6827
  167DOPC  C31120322   5.281   1.118   5.833  0.8467 -0.3641 -0.6759
  167DOPC  H11X20323   5.225   1.029   5.869 -2.5624  0.6956 -2.8928
  167DOPC  H11Y20324   5.333   1.086   5.741 -0.7584 -0.1450 -1.7056
  167DOPC  C31220325   5.178   1.221   5.783 -0.4899  0.2587 -0.3726
  167DOPC  H12X20326   5.123   1.258   5.872  1.3720  3.0272 -0.2520
  167DOPC  H12Y20327   5.105   1.163   5.723 -3.7252  4.1224 -0.5498
  167DOPC  C31320328   5.238   1.341   5.706  0.0596 -0.0469  0.1390
  167DOPC  H13X20329   5.278   1.420   5.772 -0.1345  0.7939 -0.7288
  167DOPC  H13Y20330   5.327   1.298   5.653 -0.4846 -0.5576 -0.3799
  167DOPC  C31420331   5.149   1.408   5.606  0.0279 -0.3617  0.2674
  167DOPC  H14X20332   5.102   1.328   5.544 -0.0817  0.3483 -0.5960
  167DOPC  H14Y20333   5.062   1.465   5.646 -1.3298  0.7438 -3.7486
  167DOPC  C31520334   5.220   1.489   5.498  0.4192  0.1502 -0.0529
  167DOPC  H15X20335   5.301   1.437   5.442  1.0889  1.2206 -0.1090
  167DOPC  H15Y20336   5.273   1.577   5.541  0.6062 -0.9427  2.0778
  167DOPC  C31620337   5.125   1.543   5.384  0.4838  0.1401 -0.5981
  167DOPC  H16X20338   5.178   1.608   5.311  0.6557  3.4418  2.2503
  167DOPC  H16Y20339   5.079   1.460   5.326 -1.5695  0.6469  0.2543
  167DOPC  C31720340   5.013   1.634   5.431  0.8120 -0.6939  0.5051
  167DOPC  H17X20341   5.042   1.687   5.524 -0.9880 -0.6418  1.0812
  167DOPC  H17Y20342   4.992   1.712   5.354  0.1259  0.1870  1.5410
  167DOPC  C31820343   4.878   1.572   5.470  0.1127 -0.1460 -0.1387
  167DOPC  H18X20344   4.882   1.502   5.556 -0.9440 -1.6343 -1.2409
  167DOPC  H18Y20345   4.803   1.647   5.502  1.5613  0.7695  1.2716
  167DOPC  H18Z20346   4.844   1.513   5.382  0.4016 -0.5862  0.0408
  168DOPC     N20347   2.205   1.070   7.156 -0.0610  0.0935  0.0773
  168DOPC   C1220348   2.065   1.055   7.211  0.2436 -0.1718  0.1009
  168DOPC  H12A20349   2.018   1.143   7.170  1.2458  0.0476 -0.6159
  168DOPC  H12B20350   2.078   1.064   7.318  0.3113 -0.0905  0.0862
  168DOPC   C1320351   2.281   0.950   7.199 -0.6487  0.3696  0.2858
  168DOPC  H13A20352   2.235   0.858   7.166  0.1762 -0.1276  0.4790
  168DOPC  H13B20353   2.383   0.960   7.165 -0.7967 -2.4357 -1.2348
  168DOPC  H13C20354   2.288   0.951   7.307 -1.4058 -0.7214  0.3567
  168DOPC   C1420355   2.279   1.188   7.197 -0.3025 -0.0569 -0.6423
  168DOPC  H14A20356   2.235   1.285   7.176 -2.3349 -0.9656 -0.8200
  168DOPC  H14B20357   2.282   1.187   7.305 -2.3183 -2.0815 -0.5354
  168DOPC  H14C20358   2.377   1.189   7.150 -0.1030  0.9910 -0.2426
  168DOPC   C1520359   2.198   1.067   7.008  0.1166  0.5348  0.0937
  168DOPC  H15A20360   2.293   1.038   6.965 -0.5731 -0.2755 -0.9303
  168DOPC  H15B20361   2.173   1.166   6.973  0.8772  0.8349  0.3745
  168DOPC  H15C20362   2.128   0.988   6.983  1.5885 -0.8556  0.2231
  168DOPC   C1120363   1.988   0.929   7.177  1.1020 -0.2345  0.3085
  168DOPC  H11A20364   2.060   0.852   7.212  0.7404 -0.2512  1.0203
  168DOPC  H11B20365   1.901   0.920   7.245  0.0028  1.6251 -0.7523
  168DOPC     P20366   1.874   0.775   7.004 -0.0684  0.1114  0.0309
  168DOPC   O1320367   1.727   0.787   7.024 -0.9995  0.3370 -0.0185
  168DOPC   O1420368   1.937   0.664   7.085  0.7327  0.5971  0.4644
  168DOPC   O1220369   1.947   0.910   7.035  0.0866 -0.0034  0.0623
  168DOPC   O1120370   1.888   0.747   6.850 -0.2958  0.1213 -0.1555
  168DOPC    C120371   1.986   0.795   6.767  0.2163 -0.2109 -0.0518
  168DOPC    HA20372   2.036   0.709   6.716 -0.7655 -0.3741 -0.7573
  168DOPC    HB20373   2.071   0.850   6.812  1.3623  0.7439 -3.1490
  168DOPC    C220374   1.933   0.892   6.657  0.2212 -0.3718 -0.5827
  168DOPC    HS20375   1.901   0.984   6.712  1.4098  0.1819 -0.7767
  168DOPC   O2120376   1.828   0.826   6.580  0.5618  0.2160  0.3140
  168DOPC   C2120377   1.731   0.916   6.559  0.9107 -0.0631  0.1460
  168DOPC   O2220378   1.731   1.036   6.583 -0.1540 -0.0156 -0.3264
  168DOPC   C2220379   1.620   0.842   6.490  0.4719  0.3024  0.3453
  168DOPC   H2R20380   1.555   0.809   6.574 -0.7148  0.2856 -0.5495
  168DOPC   H2S20381   1.657   0.763   6.422 -2.0315 -0.1560 -0.5843
  168DOPC    C320382   2.044   0.920   6.556 -0.1874  0.0761  0.4101
  168DOPC    HX20383   2.081   0.823   6.516  0.2026  0.3500  0.0943
  168DOPC    HY20384   2.133   0.950   6.615 -0.7013  1.2855  0.6062
  168DOPC   O3120385   2.008   1.019   6.456 -0.7165 -0.6115  0.2072
  168DOPC   C3120386   2.031   1.147   6.494 -0.1034  0.1509  0.2634
  168DOPC   O3220387   2.073   1.185   6.601  0.3001 -0.4961  0.0186
  168DOPC   C3220388   2.007   1.238   6.387 -0.1895 -0.1501 -0.5061
  168DOPC   H2X20389   1.930   1.197   6.318  0.0868 -1.3027 -0.1509
  168DOPC   H2Y20390   1.977   1.331   6.441  0.0592 -0.2004 -0.2802
  168DOPC   C2320391   1.542   0.940   6.404  0.2741  0.3529 -0.0784
  168DOPC   H3R20392   1.497   1.018   6.469 -1.0726 -0.3178 -0.1614
  168DOPC   H3S20393   1.458   0.884   6.358 -1.8435  2.7137  0.6558
  168DOPC   C2420394   1.633   0.996   6.291 -0.2051  0.1112 -0.7849
  168DOPC   H4R20395   1.727   0.938   6.296  0.4668  1.2416  3.1245
  168DOPC   H4S20396   1.664   1.096   6.328  1.0697 -0.5597  0.0471
  168DOPC   C2520397   1.549   1.009   6.161 -0.4062  0.1148  0.4689
  168DOPC   H5R20398   1.453   1.057   6.189  0.4519  2.0232  0.3051
  168DOPC   H5S20399   1.530   0.905   6.130  0.4847 -0.1758  0.8536
  168DOPC   C2620400   1.618   1.098   6.062 -0.7795  0.3033 -0.6629
  168DOPC   H6R20401   1.704   1.048   6.012 -2.3371 -2.2752 -0.9561
  168DOPC   H6S20402   1.636   1.199   6.103  1.3857 -0.3314  0.0994
  168DOPC   C2720403   1.525   1.127   5.937 -0.0514 -0.6561 -0.4003
  168DOPC   H7R20404   1.434   1.173   5.981  1.1012  1.4911 -0.1019
  168DOPC   H7S20405   1.512   1.038   5.872  2.7633 -0.4244 -1.4267
  168DOPC   C2820406   1.588   1.241   5.846 -0.9119  0.7331  0.7543
  168DOPC   H8R20407   1.681   1.189   5.816 -0.7786  1.8522 -0.8599
  168DOPC   H8S20408   1.592   1.340   5.897 -1.6498  1.0295  0.2589
  168DOPC   C2920409   1.505   1.254   5.719  0.0793 -0.5053 -0.3116
  168DOPC   H9R20410   1.489   1.155   5.674  0.0608 -2.1400  3.0108
  168DOPC  C21020411   1.443   1.371   5.675  0.2573 -0.5231 -0.2350
  168DOPC  H10R20412   1.395   1.374   5.577  1.6518 -2.2469 -1.0183
  168DOPC  C21120413   1.463   1.509   5.734  0.4435  0.7518 -0.1700
  168DOPC  H11R20414   1.461   1.584   5.653  2.9930  0.1120 -0.9244
  168DOPC  H11S20415   1.561   1.521   5.787 -0.2302  2.7310  0.7247
  168DOPC  C21220416   1.347   1.554   5.825 -0.3558  0.1137  0.2475
  168DOPC  H12R20417   1.320   1.475   5.899  1.2926  1.2470  2.1571
  168DOPC  H12S20418   1.264   1.561   5.752 -0.9494 -0.1478  0.8813
  168DOPC  C21320419   1.369   1.697   5.881  0.0758  0.7256 -0.4882
  168DOPC  H13R20420   1.434   1.754   5.811  1.6556 -1.0463 -0.5280
  168DOPC  H13S20421   1.414   1.701   5.983 -1.2900  0.5354  0.1426
  168DOPC  C21420422   1.246   1.784   5.893 -0.0766  0.1040 -0.1547
  168DOPC  H14R20423   1.176   1.723   5.954  0.1195  2.1523  2.2595
  168DOPC  H14S20424   1.205   1.790   5.790 -0.6177 -0.0482  0.0505
  168DOPC  C21520425   1.274   1.925   5.943 -0.0596 -0.6235 -0.5940
  168DOPC  H15R20426   1.346   1.971   5.872 -1.9010  1.6721 -1.0957
  168DOPC  H15S20427   1.323   1.914   6.042 -0.1487  0.3676 -0.4332
  168DOPC  C21620428   1.157   2.016   5.965  0.7540 -0.3326 -0.0400
  168DOPC  H16R20429   1.181   2.115   6.011 -0.8254 -0.2628  0.7023
  168DOPC  H16S20430   1.089   1.965   6.036  0.4846  1.6619  1.2274
  168DOPC  C21720431   1.092   2.053   5.834 -0.6767  0.1057  0.6496
  168DOPC  H17R20432   1.051   1.964   5.781 -1.8950  0.7619  0.4422
  168DOPC  H17S20433   1.166   2.094   5.763 -1.5352  0.1304 -0.2546
  168DOPC  C21820434   0.979   2.159   5.840  0.6596  0.4773  0.4413
  168DOPC  H18R20435   0.935   2.172   5.738 -4.0928  2.1372  2.4007
  168DOPC  H18S20436   1.015   2.255   5.882  1.9746  1.0504 -1.8219
  168DOPC  H18T20437   0.901   2.120   5.909 -0.1271 -3.7860 -2.4483
  168DOPC   C3320438   2.132   1.264   6.303 -0.0090 -0.3059 -0.5416
  168DOPC   H3X20439   2.198   1.343   6.345  0.9092 -1.3232 -0.0586
  168DOPC   H3Y20440   2.094   1.298   6.204  1.3479  3.1137 -0.0403
  168DOPC   C3420441   2.219   1.141   6.290  0.7799 -0.1805  0.4675
  168DOPC   H4X20442   2.156   1.064   6.241  1.5168  0.9121 -2.4000
  168DOPC   H4Y20443   2.246   1.099   6.390  1.8578 -0.5472  0.0474
  168DOPC   C3520444   2.344   1.157   6.197 -0.0165  0.0088 -0.7460
  168DOPC   H5X20445   2.388   1.056   6.196 -2.4549 -1.4149  4.1995
  168DOPC   H5Y20446   2.415   1.227   6.246  1.5196 -2.2692  0.4387
  168DOPC   C3620447   2.309   1.202   6.061 -0.6207  0.1787  0.1195
  168DOPC   H6X20448   2.242   1.125   6.017 -0.0717  0.0439 -0.4935
  168DOPC   H6Y20449   2.260   1.302   6.067 -2.0447 -0.4409 -0.6533
  168DOPC   C3720450   2.422   1.212   5.954  0.3499  0.1491  0.0953
  168DOPC   H7X20451   2.488   1.291   5.998 -1.4853  0.6583  2.1009
  168DOPC   H7Y20452   2.468   1.111   5.958 -0.4206 -0.2682 -1.2150
  168DOPC   C3820453   2.374   1.265   5.825  0.2372 -0.6291 -0.0538
  168DOPC   H8X20454   2.288   1.332   5.848 -1.0106 -1.5292 -1.8555
  168DOPC   H8Y20455   2.327   1.179   5.773  1.2623 -0.3305 -1.5132
  168DOPC   C3920456   2.472   1.340   5.740  0.0005  0.7342  0.1277
  168DOPC   H9X20457   2.547   1.284   5.682  0.6425  2.3823 -0.6928
  168DOPC  C31020458   2.475   1.472   5.714  0.1243  0.2760  0.1911
  168DOPC  H10X20459   2.557   1.504   5.648 -0.8180 -2.1762 -2.3682
  168DOPC  C31120460   2.381   1.576   5.768  0.4155 -0.4994 -0.1592
  168DOPC  H11X20461   2.382   1.555   5.877 -2.6143  1.0088  0.2649
  168DOPC  H11Y20462   2.278   1.555   5.732 -0.0343  0.5258  0.4952
  168DOPC  C31220463   2.408   1.721   5.737  0.1023 -0.2206 -0.1388
  168DOPC  H12X20464   2.419   1.744   5.628 -3.6009  3.0236 -0.0433
  168DOPC  H12Y20465   2.502   1.749   5.788 -0.0919  1.6690 -0.7492
  168DOPC  C31320466   2.293   1.808   5.792 -0.1993 -0.8257  0.1674
  168DOPC  H13X20467   2.198   1.762   5.756 -0.8704  0.4448  0.2654
  168DOPC  H13Y20468   2.293   1.818   5.903 -1.1560 -0.9664  0.1901
  168DOPC  C31420469   2.300   1.962   5.748 -0.3658  0.1611  0.7157
  168DOPC  H14X20470   2.402   1.998   5.772 -0.1961  1.0054 -1.1688
  168DOPC  H14Y20471   2.272   1.975   5.642  0.2566  2.3672  0.7695
  168DOPC  C31520472   2.200   2.044   5.827 -0.6238 -0.0983 -0.7141
  168DOPC  H15X20473   2.231   2.051   5.933 -1.0651 -1.2200 -0.4901
  168DOPC  H15Y20474   2.097   2.003   5.818 -0.5012 -0.3750 -0.8987
  168DOPC  C31620475   2.197   2.197   5.791 -0.5801 -0.1890  0.2894
  168DOPC  H16X20476   2.299   2.234   5.811 -0.3106  0.5335 -2.0503
  168DOPC  H16Y20477   2.175   2.212   5.683  0.5276  0.3287  0.1250
  168DOPC  C31720478   2.099   2.296   5.858  0.2203  0.9398 -0.5470
  168DOPC  H17X20479   2.121   2.394   5.811  1.0275 -0.1635 -2.5875
  168DOPC  H17Y20480   1.997   2.275   5.822  0.3715  1.4965 -1.3297
  168DOPC  C31820481   2.127   2.314   6.000 -0.5500 -0.1702 -0.8876
  168DOPC  H18X20482   2.143   2.216   6.050  2.3542  0.6386 -0.0617
  168DOPC  H18Y20483   2.220   2.371   6.019 -0.1873 -1.0221 -0.0347
  168DOPC  H18Z20484   2.050   2.368   6.058  1.0710 -0.2614  1.4677
  169DOPC     N20485   7.135   2.059   7.210 -1.0783  0.5389  0.1361
  169DOPC   C1220486   6.998   2.113   7.254  0.0950 -0.2136  0.2297
  169DOPC  H12A20487   6.991   2.200   7.190 -0.0988 -0.0169  0.5162
  169DOPC  H12B20488   7.009   2.152   7.354  1.7169 -0.6644  0.2520
  169DOPC   C1320489   7.146   2.042   7.062  0.3085 -1.0903  0.3693
  169DOPC  H13A20490   7.113   2.125   7.003  0.2652 -0.8181  0.7704
  169DOPC  H13B20491   7.250   2.027   7.036  0.4543 -0.7405  0.7443
  169DOPC  H13C20492   7.078   1.962   7.036  0.2812 -0.0768 -3.0793
  169DOPC   C1420493   7.171   1.931   7.288  0.6401  0.3152 -0.1294
  169DOPC  H14A20494   7.099   1.851   7.277  0.7355 -0.0378  1.5858
  169DOPC  H14B20495   7.268   1.899   7.252  1.5247  3.7142 -1.2134
  169DOPC  H14C20496   7.171   1.949   7.394 -1.2774 -2.1462  0.3779
  169DOPC   C1520497   7.237   2.161   7.256 -0.7547 -0.3930  0.4050
  169DOPC  H15A20498   7.240   2.194   7.359  2.3837  0.5312  0.1144
  169DOPC  H15B20499   7.219   2.247   7.194  1.6013 -1.8607 -2.5538
  169DOPC  H15C20500   7.335   2.123   7.229 -1.0965 -0.8117 -0.2601
  169DOPC   C1120501   6.878   2.024   7.242  0.2778  0.3318  0.1706
  169DOPC  H11A20502   6.900   1.927   7.291  1.9767 -0.8023 -2.6530
  169DOPC  H11B20503   6.791   2.071   7.292  1.5099  2.3999  0.4924
  169DOPC     P20504   6.804   1.864   7.046 -0.2640  0.0709 -0.0392
  169DOPC   O1320505   6.713   1.788   7.141 -0.5094 -0.4623 -0.3307
  169DOPC   O1420506   6.930   1.805   7.003 -0.5225  0.1348 -0.4856
  169DOPC   O1220507   6.833   2.009   7.109 -0.1312  0.2653  0.7341
  169DOPC   O1120508   6.716   1.904   6.921 -0.1036 -0.0239  0.1563
  169DOPC    C120509   6.761   1.992   6.817  0.5014 -0.4884  0.3944
  169DOPC    HA20510   6.863   2.033   6.831  0.4495 -0.1221 -0.2587
  169DOPC    HB20511   6.690   2.078   6.820  1.7820  0.6261 -0.1024
  169DOPC    C220512   6.747   1.926   6.680  0.1648  0.3073 -0.8258
  169DOPC    HS20513   6.734   2.002   6.600 -2.6850  0.2539 -0.5117
  169DOPC   O2120514   6.638   1.837   6.658  0.0263  0.0947  0.1102
  169DOPC   C2120515   6.515   1.889   6.671  0.3611  0.1802  0.1795
  169DOPC   O2220516   6.490   2.007   6.691  0.3071 -0.2423  0.1968
  169DOPC   C2220517   6.410   1.787   6.669  0.9710  0.5642 -0.9640
  169DOPC   H2R20518   6.369   1.778   6.772 -1.2438 -0.4957 -1.8704
  169DOPC   H2S20519   6.440   1.683   6.644 -0.3567 -0.2102  0.4987
  169DOPC    C320520   6.883   1.856   6.645 -0.4121  0.5086 -0.0034
  169DOPC    HX20521   6.918   1.777   6.715  1.3270 -0.2734 -1.6629
  169DOPC    HY20522   6.953   1.942   6.650 -1.3243  1.2975 -0.3283
  169DOPC   O3120523   6.867   1.822   6.511 -0.6881 -0.1435  0.4939
  169DOPC   C3120524   6.846   1.691   6.487  0.2847  0.4974 -0.7100
  169DOPC   O3220525   6.854   1.603   6.574 -0.2545 -0.0849 -0.2361
  169DOPC   C3220526   6.773   1.672   6.356 -0.0021  0.4188 -0.4791
  169DOPC   H2X20527   6.701   1.756   6.353 -0.0871  0.5823  2.6737
  169DOPC   H2Y20528   6.849   1.685   6.276 -0.1620 -0.0144 -0.7061
  169DOPC   C2320529   6.292   1.809   6.565 -0.4801  0.0571 -0.1687
  169DOPC   H3R20530   6.244   1.909   6.575 -2.0199 -0.6322 -0.4141
  169DOPC   H3S20531   6.215   1.734   6.593  0.8671 -1.3904 -0.2072
  169DOPC   C2420532   6.339   1.796   6.421 -0.2692 -0.6105  0.7959
  169DOPC   H4R20533   6.380   1.693   6.409  2.3571  0.4285  0.1723
  169DOPC   H4S20534   6.432   1.843   6.384 -1.3628  0.1630 -1.1291
  169DOPC   C2520535   6.228   1.818   6.314  0.0323  0.5290  0.0002
  169DOPC   H5R20536   6.176   1.912   6.338 -1.4697 -0.7924  2.3506
  169DOPC   H5S20537   6.149   1.742   6.333  0.1683 -0.0888 -1.7794
  169DOPC   C2620538   6.266   1.802   6.169  0.6454 -0.3624  0.2000
  169DOPC   H6R20539   6.332   1.713   6.160 -0.0426 -0.9198  0.5484
  169DOPC   H6S20540   6.323   1.895   6.145 -2.0219  1.2610 -0.2597
  169DOPC   C2720541   6.147   1.798   6.073 -0.1685 -0.1439  0.2536
  169DOPC   H7R20542   6.093   1.895   6.086  1.4874  0.5077  2.9398
  169DOPC   H7S20543   6.077   1.717   6.104 -0.3761 -0.7609 -1.6996
  169DOPC   C2820544   6.183   1.776   5.923  0.8813 -0.0395  0.6117
  169DOPC   H8R20545   6.097   1.795   5.855  1.2514 -0.6324 -0.0270
  169DOPC   H8S20546   6.207   1.668   5.916 -2.8547 -0.9279 -1.3247
  169DOPC   C2920547   6.298   1.863   5.872  0.0134  0.3128  0.0634
  169DOPC   H9R20548   6.266   1.968   5.863  1.1161  0.4712 -4.3517
  169DOPC  C21020549   6.416   1.832   5.817  0.1357 -0.1655 -0.0352
  169DOPC  H10R20550   6.476   1.923   5.800 -3.0132  1.9464 -0.8284
  169DOPC  C21120551   6.479   1.695   5.792 -0.1559 -0.3689 -0.6238
  169DOPC  H11R20552   6.424   1.616   5.848  0.5915  0.4020  1.2820
  169DOPC  H11S20553   6.590   1.693   5.796 -0.1611  0.5963  1.0417
  169DOPC  C21220554   6.452   1.662   5.643 -0.0590 -0.4718  0.1051
  169DOPC  H12R20555   6.343   1.658   5.625  0.3669 -1.4896 -2.7887
  169DOPC  H12S20556   6.479   1.558   5.612 -1.6333 -0.8970  0.0598
  169DOPC  C21320557   6.515   1.766   5.555 -0.5111  0.2667  0.5471
  169DOPC  H13R20558   6.620   1.786   5.586 -0.2832  1.1439 -0.7152
  169DOPC  H13S20559   6.460   1.863   5.555  0.9799  1.1424  1.4211
  169DOPC  C21420560   6.516   1.716   5.410 -0.1716  0.1820  0.6313
  169DOPC  H14R20561   6.414   1.688   5.377  0.9918 -3.0295 -0.6229
  169DOPC  H14S20562   6.581   1.629   5.391 -2.1405 -1.4043  0.8420
  169DOPC  C21520563   6.574   1.821   5.312 -0.5616 -0.4299 -0.3213
  169DOPC  H15R20564   6.676   1.844   5.351 -1.3737  1.5298  0.8031
  169DOPC  H15S20565   6.537   1.925   5.317  2.3329  0.7585 -1.4824
  169DOPC  C21620566   6.576   1.769   5.166  0.6101 -1.1174 -0.1354
  169DOPC  H16R20567   6.486   1.706   5.158 -0.4099  0.1560  0.7705
  169DOPC  H16S20568   6.659   1.698   5.146  1.0875 -0.4011 -0.7450
  169DOPC  C21720569   6.592   1.875   5.063 -0.1364  0.4846  0.5945
  169DOPC  H17R20570   6.678   1.939   5.091  3.3116 -3.6040  0.4384
  169DOPC  H17S20571   6.506   1.944   5.049 -1.7880 -1.4149  0.8793
  169DOPC  C21820572   6.621   1.818   4.924  0.3156  0.6630  0.2038
  169DOPC  H18R20573   6.540   1.745   4.902  1.5248  0.1504 -3.0148
  169DOPC  H18S20574   6.721   1.772   4.908  0.7889 -0.0632  4.1381
  169DOPC  H18T20575   6.611   1.887   4.838  1.8357  0.7505  0.0672
  169DOPC   C3320576   6.704   1.531   6.358 -0.1189 -0.9979  0.0830
  169DOPC   H3X20577   6.646   1.514   6.451 -2.3805 -1.1510 -1.2798
  169DOPC   H3Y20578   6.781   1.452   6.373 -1.4215 -1.8035  3.0754
  169DOPC   C3420579   6.631   1.511   6.235  0.4077 -0.7867  0.6320
  169DOPC   H4X20580   6.573   1.603   6.215  2.1864  0.7484  2.0834
  169DOPC   H4Y20581   6.570   1.420   6.250  0.6981 -1.3299 -1.2992
  169DOPC   C3520582   6.725   1.480   6.116 -0.2047  0.3951  0.2243
  169DOPC   H5X20583   6.785   1.391   6.145 -0.7654  0.4129  1.5600
  169DOPC   H5Y20584   6.799   1.560   6.095 -1.4070  1.6509  0.6214
  169DOPC   C3620585   6.642   1.438   5.997 -0.3795  0.0785 -0.5515
  169DOPC   H6X20586   6.569   1.361   6.031  1.2017 -1.5289 -0.6479
  169DOPC   H6Y20587   6.588   1.533   5.976 -0.5925  0.1438  0.2467
  169DOPC   C3720588   6.721   1.395   5.868  0.0438 -0.5480  0.2478
  169DOPC   H7X20589   6.657   1.409   5.778  0.3695 -1.0724 -0.0675
  169DOPC   H7Y20590   6.803   1.469   5.862 -2.2319  2.4091  2.3074
  169DOPC   C3820591   6.779   1.261   5.884  0.1376  0.0343 -0.2217
  169DOPC   H8X20592   6.831   1.247   5.982 -0.0327  0.4698 -0.0687
  169DOPC   H8Y20593   6.866   1.243   5.817 -0.9353 -1.8819 -1.1930
  169DOPC   C3920594   6.673   1.160   5.858  0.1580 -0.1898 -0.0549
  169DOPC   H9X20595   6.590   1.165   5.930  0.9381 -0.2094  0.8765
  169DOPC  C31020596   6.673   1.056   5.766 -0.1235  0.0821  0.1504
  169DOPC  H10X20597   6.582   0.995   5.757 -1.7406  2.4283 -0.3925
  169DOPC  C31120598   6.780   1.032   5.654  0.1955  0.5098 -0.3054
  169DOPC  H11X20599   6.819   0.929   5.661  0.0367  0.2723 -2.3298
  169DOPC  H11Y20600   6.870   1.098   5.658  2.0672 -1.9678  0.6557
  169DOPC  C31220601   6.722   1.050   5.510 -0.2046  0.6174  0.2434
  169DOPC  H12X20602   6.808   1.026   5.444 -0.0754 -1.9496  1.2378
  169DOPC  H12Y20603   6.702   1.159   5.501  0.0721  0.7506  1.1034
  169DOPC  C31320604   6.610   0.958   5.475  0.0061  0.0845  0.5783
  169DOPC  H13X20605   6.647   0.854   5.465 -1.3422 -0.4298  0.8515
  169DOPC  H13Y20606   6.534   0.958   5.555 -0.0163  1.1409  0.5734
  169DOPC  C31420607   6.540   1.004   5.353 -0.1082 -0.0157  0.1196
  169DOPC  H14X20608   6.506   1.109   5.368 -1.4400 -0.4520  0.2854
  169DOPC  H14Y20609   6.619   1.018   5.276 -0.0671 -0.5894  0.0542
  169DOPC  C31520610   6.426   0.910   5.313  0.5529  0.1715 -0.8462
  169DOPC  H15X20611   6.383   0.868   5.406  1.0528 -0.0651 -0.7190
  169DOPC  H15Y20612   6.472   0.817   5.274  1.1606 -1.4917  3.3430
  169DOPC  C31620613   6.307   0.972   5.228  0.3552  0.4211 -0.2113
  169DOPC  H16X20614   6.267   1.062   5.280 -1.5153  0.1749 -1.1577
  169DOPC  H16Y20615   6.347   1.018   5.135 -1.3139  0.7451 -0.8114
  169DOPC  C31720616   6.196   0.876   5.182  0.1395 -0.0055  0.0789
  169DOPC  H17X20617   6.173   0.884   5.074 -0.2882 -1.2271  0.0623
  169DOPC  H17Y20618   6.240   0.774   5.181 -2.3071 -1.1307 -0.0163
  169DOPC  C31820619   6.071   0.876   5.272  1.3176  0.1537 -0.2694
  169DOPC  H18X20620   5.989   0.824   5.217  0.4323  0.2950  0.8852
  169DOPC  H18Y20621   6.095   0.827   5.369 -1.8112 -0.3034  0.3709
  169DOPC  H18Z20622   6.045   0.984   5.272 -1.0614 -0.3489 -1.6624
  170DOPC     N20623   6.856   6.888   7.251  0.2659  0.3635  0.0434
  170DOPC   C1220624   6.767   6.945   7.134 -0.0176 -0.2626  0.2336
  170DOPC  H12A20625   6.705   6.861   7.107  1.6490 -1.5835  0.3412
  170DOPC  H12B20626   6.830   6.962   7.048 -3.3798  0.3959 -2.2902
  170DOPC   C1320627   6.964   6.985   7.286 -0.6987 -0.4222  0.0714
  170DOPC  H13A20628   6.932   7.083   7.318 -1.0544 -0.5095 -0.0225
  170DOPC  H13B20629   7.034   6.950   7.360 -0.4163 -0.7663 -0.3511
  170DOPC  H13C20630   7.021   7.008   7.197  0.0266  1.3088  0.9242
  170DOPC   C1420631   6.932   6.762   7.206  0.1647 -0.1180 -0.5596
  170DOPC  H14A20632   7.006   6.741   7.282 -0.3842  0.7934  0.2492
  170DOPC  H14B20633   6.866   6.676   7.207 -2.4424  1.6686  2.2595
  170DOPC  H14C20634   6.983   6.770   7.112  2.4907  2.1148  0.7598
  170DOPC   C1520635   6.771   6.857   7.372  0.3566  0.0289 -0.3593
  170DOPC  H15A20636   6.715   6.768   7.347 -2.2509  2.0418 -2.3699
  170DOPC  H15B20637   6.704   6.937   7.400  0.3903  0.4902 -1.5360
  170DOPC  H15C20638   6.838   6.833   7.453 -1.6388 -0.8440  1.1211
  170DOPC   C1120639   6.679   7.073   7.150 -0.3740  0.5723  0.5745
  170DOPC  H11A20640   6.751   7.152   7.180  1.1097 -0.6156  0.2575
  170DOPC  H11B20641   6.639   7.105   7.051 -1.2951  2.2795  1.4614
  170DOPC     P20642   6.431   7.021   7.215 -0.1279 -0.3180  0.4519
  170DOPC   O1320643   6.356   7.019   7.343 -0.7614 -0.0676 -0.5581
  170DOPC   O1420644   6.420   6.904   7.127  0.1171  0.4882  0.7863
  170DOPC   O1220645   6.577   7.054   7.249 -0.9984 -0.5780  0.7251
  170DOPC   O1120646   6.389   7.150   7.125 -0.2663  0.5657 -0.3543
  170DOPC    C120647   6.400   7.286   7.187 -0.5920  0.0358 -0.0751
  170DOPC    HA20648   6.486   7.296   7.256 -1.4250  1.0286  0.8507
  170DOPC    HB20649   6.314   7.300   7.256 -0.2503  2.1067 -0.0194
  170DOPC    C220650   6.395   7.390   7.077 -0.4068 -0.3508  0.6183
  170DOPC    HS20651   6.414   7.493   7.112 -1.7993 -0.9662  3.5920
  170DOPC   O2120652   6.268   7.391   7.004  0.3527 -0.3298  0.7783
  170DOPC   C2120653   6.169   7.458   7.072 -0.2434  0.1225 -0.0724
  170DOPC   O2220654   6.196   7.526   7.171  0.1106 -0.0633 -0.2258
  170DOPC   C2220655   6.028   7.431   7.013 -0.4246  0.2677  0.8717
  170DOPC   H2R20656   5.990   7.352   7.081 -1.1268  0.2763  0.4955
  170DOPC   H2S20657   6.043   7.398   6.908  0.3239 -2.4634  1.7564
  170DOPC    C320658   6.520   7.355   6.984 -0.6798  0.5240 -0.3275
  170DOPC    HX20659   6.477   7.271   6.925 -0.2274 -0.3740  0.5879
  170DOPC    HY20660   6.600   7.312   7.048 -1.1022 -0.3514 -0.3795
  170DOPC   O3120661   6.563   7.462   6.898 -0.0306  0.0793 -0.1308
  170DOPC   C3120662   6.633   7.560   6.960 -0.5074 -0.1035 -0.4357
  170DOPC   O3220663   6.654   7.569   7.080  0.2349 -0.1220 -0.1359
  170DOPC   C3220664   6.688   7.662   6.851 -0.6155 -0.3781 -0.4057
  170DOPC   H2X20665   6.605   7.693   6.783 -1.1255  0.3196  0.5079
  170DOPC   H2Y20666   6.718   7.745   6.918  1.4637 -2.8445  1.9280
  170DOPC   C2320667   5.933   7.550   7.034  0.1997 -0.0875  0.2586
  170DOPC   H3R20668   5.956   7.632   6.963  0.2070 -0.5118 -0.2353
  170DOPC   H3S20669   5.957   7.594   7.133  1.0604  0.0235  0.0063
  170DOPC   C2420670   5.788   7.505   7.033 -0.3558 -0.6983  0.0986
  170DOPC   H4R20671   5.718   7.584   7.069 -0.7710 -0.2847 -1.4911
  170DOPC   H4S20672   5.779   7.423   7.108 -0.5329 -0.2268  0.5997
  170DOPC   C2520673   5.725   7.464   6.896 -0.7275 -0.2123 -0.1270
  170DOPC   H5R20674   5.777   7.521   6.817 -2.8149 -0.3716 -1.6929
  170DOPC   H5S20675   5.617   7.491   6.889 -0.8861 -1.2207 -2.2043
  170DOPC   C2620676   5.753   7.316   6.872  0.1820  0.3630 -0.1535
  170DOPC   H6R20677   5.713   7.249   6.950  2.7520 -2.5302 -1.0879
  170DOPC   H6S20678   5.864   7.303   6.878  0.2885  0.8721 -0.8420
  170DOPC   C2720679   5.698   7.254   6.735 -0.0018  0.4739 -0.4423
  170DOPC   H7R20680   5.745   7.156   6.711 -1.8827 -0.5034 -0.3323
  170DOPC   H7S20681   5.725   7.329   6.658 -0.6610  0.6235 -0.5341
  170DOPC   C2820682   5.544   7.247   6.750 -0.1807 -0.6710  0.0856
  170DOPC   H8R20683   5.517   7.350   6.780  0.1255 -0.1537 -1.3630
  170DOPC   H8S20684   5.504   7.183   6.833 -1.3779  1.3747  1.1747
  170DOPC   C2920685   5.474   7.233   6.616  0.3872 -0.5054  0.1836
  170DOPC   H9R20686   5.498   7.302   6.535  0.9617 -0.0703  0.7118
  170DOPC  C21020687   5.387   7.133   6.574  0.4510 -0.0216  0.1201
  170DOPC  H10R20688   5.339   7.132   6.475  1.4263 -0.2194 -0.3622
  170DOPC  C21120689   5.340   7.013   6.655 -0.2032  0.4880 -0.0861
  170DOPC  H11R20690   5.361   7.020   6.764 -0.9355 -3.5655  0.4741
  170DOPC  H11S20691   5.392   6.921   6.621 -1.1337 -0.4756  0.9716
  170DOPC  C21220692   5.187   6.989   6.648 -0.3496  0.3590 -0.4741
  170DOPC  H12R20693   5.157   6.964   6.544 -2.3374  0.5907  0.0000
  170DOPC  H12S20694   5.140   7.087   6.673  0.4589  1.1464 -1.8985
  170DOPC  C21320695   5.139   6.888   6.753  0.0160  0.0115 -0.2308
  170DOPC  H13R20696   5.185   6.927   6.847 -3.8721  0.7434  1.5382
  170DOPC  H13S20697   5.167   6.784   6.727 -2.1801 -0.0790 -2.6605
  170DOPC  C21420698   4.991   6.901   6.778 -0.0220  0.4132  0.2577
  170DOPC  H14R20699   4.972   7.002   6.820  1.2432  0.9703 -0.4670
  170DOPC  H14S20700   4.969   6.825   6.857  0.4718 -0.2993 -0.2846
  170DOPC  C21520701   4.914   6.878   6.643 -0.6384 -0.0002  0.1852
  170DOPC  H15R20702   4.829   6.809   6.664 -0.9926  1.0487  2.3530
  170DOPC  H15S20703   4.982   6.830   6.568  1.7901 -0.4785  2.5472
  170DOPC  C21620704   4.871   7.010   6.579 -0.0756  0.4605  0.3209
  170DOPC  H16R20705   4.952   7.086   6.593  2.3764 -1.5037 -2.1597
  170DOPC  H16S20706   4.778   7.027   6.637 -0.2617  0.6710 -0.0381
  170DOPC  C21720707   4.835   6.988   6.430  0.2362 -0.5171 -0.2835
  170DOPC  H17R20708   4.792   7.086   6.398  2.8403  0.5324 -0.8610
  170DOPC  H17S20709   4.764   6.903   6.422  0.6605 -0.8342 -0.7468
  170DOPC  C21820710   4.948   6.957   6.334  0.4730 -0.1702  0.4452
  170DOPC  H18R20711   5.007   6.866   6.359 -1.7137 -2.4345 -2.0771
  170DOPC  H18S20712   5.021   7.038   6.312  0.3572 -0.6439 -1.9341
  170DOPC  H18T20713   4.907   6.927   6.235 -0.2664 -1.4398  1.1018
  170DOPC   C3320714   6.803   7.600   6.770  0.1956  0.6604 -0.4784
  170DOPC   H3X20715   6.810   7.490   6.787  2.3373  0.8535  0.1795
  170DOPC   H3Y20716   6.898   7.644   6.806  1.4148 -1.1187 -1.3644
  170DOPC   C3420717   6.809   7.629   6.617  0.0558 -0.4535  0.3239
  170DOPC   H4X20718   6.890   7.698   6.584 -2.0200  1.8800 -0.1858
  170DOPC   H4Y20719   6.722   7.689   6.585 -1.1981 -3.2396 -1.9444
  170DOPC   C3520720   6.814   7.498   6.533  0.2453 -0.6500 -0.3347
  170DOPC   H5X20721   6.720   7.440   6.547  0.2295 -0.2775  1.3386
  170DOPC   H5Y20722   6.899   7.447   6.583  1.2349  1.2273  0.0099
  170DOPC   C3620723   6.845   7.527   6.387 -0.6025  0.3184 -0.3975
  170DOPC   H6X20724   6.758   7.591   6.361 -0.1580  1.4317  0.7463
  170DOPC   H6Y20725   6.944   7.576   6.385 -1.6914  2.7590  1.0896
  170DOPC   C3720726   6.844   7.388   6.304 -0.3669  0.5045 -0.0503
  170DOPC   H7X20727   6.932   7.337   6.347  0.0646  0.9040 -0.4506
  170DOPC   H7Y20728   6.750   7.336   6.332  0.9656 -2.0444  0.0181
  170DOPC   C3820729   6.855   7.407   6.153 -0.1644 -0.0656  0.4278
  170DOPC   H8X20730   6.938   7.477   6.133 -0.1862 -0.1412  0.0687
  170DOPC   H8Y20731   6.763   7.459   6.118  0.2932  0.8872  0.6302
  170DOPC   C3920732   6.862   7.271   6.092 -0.2573 -0.1842  0.9100
  170DOPC   H9X20733   6.812   7.197   6.156 -1.9495 -0.2133 -0.3625
  170DOPC  C31020734   6.927   7.235   5.983 -0.2983  0.2130 -0.2930
  170DOPC  H10X20735   6.948   7.133   5.947 -0.8295  0.4002 -1.1586
  170DOPC  C31120736   6.980   7.334   5.886  0.3770 -0.0920  0.6121
  170DOPC  H11X20737   7.091   7.334   5.891  0.4532 -2.4912  0.1068
  170DOPC  H11Y20738   6.942   7.437   5.904 -2.4719 -0.9657  0.1165
  170DOPC  C31220739   6.936   7.316   5.737  0.1534  0.2509  0.9400
  170DOPC  H12X20740   6.828   7.342   5.735  0.5423  1.8921  0.3548
  170DOPC  H12Y20741   6.959   7.214   5.699  1.4580  1.2780 -1.1825
  170DOPC  C31320742   7.018   7.409   5.657  0.0756  0.2519 -0.0862
  170DOPC  H13X20743   7.008   7.511   5.701 -0.5780  1.1593 -2.1910
  170DOPC  H13Y20744   7.125   7.382   5.661 -0.2837 -1.1274  0.5160
  170DOPC  C31420745   6.958   7.414   5.513 -0.1721 -0.0306  0.8327
  170DOPC  H14X20746   6.993   7.328   5.452 -2.2360 -0.1223 -0.3176
  170DOPC  H14Y20747   6.848   7.408   5.525  0.1394 -1.6976  3.5777
  170DOPC  C31520748   7.005   7.530   5.425  0.4867 -0.0654 -0.6857
  170DOPC  H15X20749   7.111   7.546   5.456  0.0674  0.4167  0.5781
  170DOPC  H15Y20750   6.955   7.618   5.471 -1.9462 -2.1770  1.0088
  170DOPC  C31620751   6.993   7.512   5.273 -0.0715 -1.2380 -0.4222
  170DOPC  H16X20752   7.052   7.421   5.251  0.3531 -0.5100 -2.4656
  170DOPC  H16Y20753   6.887   7.512   5.239 -0.1086 -0.5981 -0.3236
  170DOPC  C31720754   7.054   7.635   5.205 -0.6825  0.3122 -0.6845
  170DOPC  H17X20755   7.023   7.732   5.251 -1.2231  0.2150 -0.8457
  170DOPC  H17Y20756   7.162   7.620   5.228 -0.8261 -1.0573 -0.8489
  170DOPC  C31820757   7.034   7.633   5.054  0.5127 -0.2417  0.3990
  170DOPC  H18X20758   6.927   7.656   5.037  0.6149 -1.0530 -1.6928
  170DOPC  H18Y20759   7.098   7.708   5.002  0.7323 -0.8399 -0.2185
  170DOPC  H18Z20760   7.043   7.529   5.015 -2.4869  0.0282 -1.3169
  171DOPC     N20761   1.948   3.632   2.897  0.0405  0.4156  1.2632
  171DOPC   C1220762   2.027   3.524   2.817 -0.2926  0.1991 -0.0563
  171DOPC  H12A20763   2.082   3.580   2.743  0.3881 -0.2371  0.0995
  171DOPC  H12B20764   1.949   3.462   2.776 -2.5418  1.6889  1.7180
  171DOPC   C1320765   1.860   3.722   2.816  0.1206  0.1536 -0.5235
  171DOPC  H13A20766   1.794   3.779   2.880 -0.9154 -2.3558  0.7486
  171DOPC  H13B20767   1.923   3.792   2.762  0.9950 -0.7596 -0.7023
  171DOPC  H13C20768   1.790   3.671   2.752 -1.4129 -1.7081  2.4330
  171DOPC   C1420769   2.047   3.701   2.988  0.3721 -0.2087 -0.4085
  171DOPC  H14A20770   2.127   3.750   2.935 -0.5230 -1.5353 -3.1687
  171DOPC  H14B20771   2.004   3.779   3.050  2.5093  0.8906 -0.2210
  171DOPC  H14C20772   2.088   3.626   3.054  1.8878  0.8330 -0.1303
  171DOPC   C1520773   1.857   3.549   2.981  0.7731  0.1729 -0.6130
  171DOPC  H15A20774   1.810   3.605   3.061  0.6030 -1.4834  0.5071
  171DOPC  H15B20775   1.914   3.472   3.030  3.2401  0.3674 -2.9192
  171DOPC  H15C20776   1.787   3.495   2.918  1.4014 -0.6690 -0.6001
  171DOPC   C1120777   2.138   3.436   2.889  0.0292  0.2574  0.1487
  171DOPC  H11A20778   2.164   3.369   2.805  0.4969  0.1109  0.4056
  171DOPC  H11B20779   2.230   3.490   2.923 -0.2620  0.3249  0.8523
  171DOPC     P20780   2.150   3.236   3.044  0.0134  0.1991  0.0648
  171DOPC   O1320781   2.205   3.177   2.920  0.1536  0.4367  0.0578
  171DOPC   O1420782   2.041   3.151   3.107 -0.2041  0.0494  0.3185
  171DOPC   O1220783   2.092   3.377   3.009  0.1546 -0.5745  0.1751
  171DOPC   O1120784   2.270   3.272   3.145  0.7332 -0.4009  1.0498
  171DOPC    C120785   2.227   3.361   3.251  0.6589 -0.4565  0.2705
  171DOPC    HA20786   2.125   3.343   3.292  0.5821 -3.2588 -0.9509
  171DOPC    HB20787   2.235   3.465   3.213 -1.2862 -0.1245  0.6884
  171DOPC    C220788   2.325   3.353   3.366 -0.7635  0.7750 -0.5767
  171DOPC    HS20789   2.321   3.444   3.430 -0.9765 -1.1837  2.3866
  171DOPC   O2120790   2.457   3.326   3.314  0.1377  0.5099  0.2897
  171DOPC   C2120791   2.518   3.437   3.270  0.3608 -0.2211  0.8694
  171DOPC   O2220792   2.481   3.549   3.288  0.4964 -0.2469 -0.7461
  171DOPC   C2220793   2.647   3.386   3.202 -0.6248 -0.0040 -0.7465
  171DOPC   H2R20794   2.704   3.479   3.178  0.0158 -0.6536 -1.8099
  171DOPC   H2S20795   2.623   3.337   3.106 -2.4213 -0.8831  0.1082
  171DOPC    C320796   2.297   3.222   3.448  0.4571 -0.8652  0.1236
  171DOPC    HX20797   2.383   3.209   3.518  1.8620  1.9190 -0.9168
  171DOPC    HY20798   2.298   3.136   3.377 -1.6654 -1.0111  0.2037
  171DOPC   O3120799   2.176   3.232   3.525  0.4561  0.0041 -0.7813
  171DOPC   C3120800   2.141   3.110   3.578  0.0632  0.6635  0.5517
  171DOPC   O3220801   2.209   3.008   3.557 -0.1584 -0.1308 -0.2909
  171DOPC   C3220802   2.026   3.126   3.674  0.2068 -0.3936  0.0199
  171DOPC   H2X20803   1.941   3.166   3.615 -1.1078  1.1841  2.7787
  171DOPC   H2Y20804   2.007   3.025   3.717 -0.6053 -0.2081  0.1227
  171DOPC   C2320805   2.736   3.290   3.286  0.4014  0.4020  0.4264
  171DOPC   H3R20806   2.817   3.257   3.218 -0.7496 -0.1602 -0.7162
  171DOPC   H3S20807   2.680   3.200   3.322  2.4032 -0.8522  0.5455
  171DOPC   C2420808   2.798   3.358   3.404  0.0770 -0.0741 -0.1666
  171DOPC   H4R20809   2.721   3.383   3.481 -0.6125 -0.3649 -0.7485
  171DOPC   H4S20810   2.841   3.451   3.362  0.4273 -0.4825 -0.7269
  171DOPC   C2520811   2.911   3.272   3.465  0.0249  0.1636  0.3518
  171DOPC   H5R20812   2.970   3.229   3.381 -1.4978 -0.4412 -0.4334
  171DOPC   H5S20813   2.862   3.180   3.502 -0.1982  1.0637  2.4474
  171DOPC   C2620814   2.987   3.337   3.579  0.7644 -0.0764 -0.6040
  171DOPC   H6R20815   2.920   3.349   3.666  0.1259  0.4039 -1.1566
  171DOPC   H6S20816   3.015   3.439   3.546 -0.6361  0.6537  0.3916
  171DOPC   C2720817   3.102   3.260   3.643 -0.3660 -0.1062  0.0860
  171DOPC   H7R20818   3.134   3.325   3.727 -0.8008  0.5064 -0.2120
  171DOPC   H7S20819   3.181   3.262   3.564  0.4772  0.0051  0.9179
  171DOPC   C2820820   3.075   3.116   3.686  1.2978 -0.2521 -0.1613
  171DOPC   H8R20821   3.042   3.053   3.601 -0.4110 -1.3353  1.2335
  171DOPC   H8S20822   2.998   3.117   3.767  0.3354  1.5874 -1.0336
  171DOPC   C2920823   3.190   3.049   3.745 -0.1835  0.4440  1.1203
  171DOPC   H9R20824   3.283   3.092   3.708 -0.4287  0.1395  0.1223
  171DOPC  C21020825   3.202   2.970   3.858 -0.4202 -0.0832  0.1299
  171DOPC  H10R20826   3.300   2.926   3.883  0.2827  2.3561  2.0621
  171DOPC  C21120827   3.092   2.932   3.948  0.5124  0.6422  0.1028
  171DOPC  H11R20828   3.097   2.821   3.953  3.9075  0.4247 -3.3810
  171DOPC  H11S20829   2.994   2.962   3.905  0.7140  0.2536 -0.6272
  171DOPC  C21220830   3.091   2.989   4.082  0.3157 -0.0605 -0.3415
  171DOPC  H12R20831   3.094   3.098   4.064 -1.8859 -0.0242 -0.7056
  171DOPC  H12S20832   3.184   2.958   4.135  0.5743  2.0264  0.5041
  171DOPC  C21320833   2.960   2.959   4.160  0.0378  1.0653 -0.2386
  171DOPC  H13R20834   2.949   2.848   4.163 -2.2379  1.2399 -0.3564
  171DOPC  H13S20835   2.869   2.986   4.103 -1.6562 -1.7744  0.9137
  171DOPC  C21420836   2.956   3.020   4.300  0.1341  0.7581 -0.3475
  171DOPC  H14R20837   2.988   3.126   4.291  2.1606  0.3049  0.9063
  171DOPC  H14S20838   3.034   2.972   4.362 -1.4436  0.7124  1.6933
  171DOPC  C21520839   2.822   2.983   4.368 -0.1799  0.2172 -0.5757
  171DOPC  H15R20840   2.798   2.874   4.369  0.6434 -0.0297 -2.6087
  171DOPC  H15S20841   2.746   3.031   4.303  0.1040  0.8613 -0.4363
  171DOPC  C21620842   2.798   3.043   4.506 -0.1204  0.1349  0.7386
  171DOPC  H16R20843   2.818   3.150   4.483 -0.6706  0.2718  0.8983
  171DOPC  H16S20844   2.873   2.999   4.576 -0.8615 -0.1296  1.3832
  171DOPC  C21720845   2.664   3.015   4.574 -0.0635 -0.2334  0.7509
  171DOPC  H17R20846   2.590   3.014   4.492 -0.4640  1.9260  1.0273
  171DOPC  H17S20847   2.640   3.108   4.630 -2.0057 -0.1626 -0.1495
  171DOPC  C21820848   2.648   2.886   4.657  0.1352 -0.0681 -0.3601
  171DOPC  H18R20849   2.541   2.872   4.681  0.1432  0.2209 -0.1510
  171DOPC  H18S20850   2.705   2.893   4.752  2.0987  1.7593 -1.5755
  171DOPC  H18T20851   2.691   2.797   4.606  0.4043  0.0564 -0.3566
  171DOPC   C3320852   2.052   3.217   3.797  0.6070 -0.0040  0.2304
  171DOPC   H3X20853   1.957   3.232   3.852 -0.7867 -0.8399 -1.8375
  171DOPC   H3Y20854   2.089   3.314   3.758 -2.2742  0.7660 -0.8494
  171DOPC   C3420855   2.142   3.142   3.891 -0.0667  0.6116  0.3011
  171DOPC   H4X20856   2.241   3.129   3.842  0.5477  0.8529  1.4460
  171DOPC   H4Y20857   2.100   3.045   3.923  0.6971  0.5271  1.0830
  171DOPC   C3520858   2.171   3.228   4.011 -1.0969  0.5079 -0.6369
  171DOPC   H5X20859   2.082   3.289   4.037 -1.2732 -0.2457  0.6209
  171DOPC   H5Y20860   2.250   3.305   3.999  1.3617 -1.3575  2.0902
  171DOPC   C3620861   2.219   3.143   4.133 -0.2124  0.0706 -0.1674
  171DOPC   H6X20862   2.203   3.213   4.218  0.9062  0.4599 -0.2655
  171DOPC   H6Y20863   2.153   3.054   4.134  0.6823 -0.6047 -0.4029
  171DOPC   C3720864   2.368   3.099   4.135  0.6227  0.2648  0.3285
  171DOPC   H7X20865   2.390   3.072   4.029 -0.1386 -1.8748  0.6678
  171DOPC   H7Y20866   2.429   3.188   4.162  0.3354  0.6896 -0.3790
  171DOPC   C3820867   2.406   2.980   4.223 -0.5308  0.6749  0.5568
  171DOPC   H8X20868   2.391   3.006   4.330  0.2226  1.0319  0.5813
  171DOPC   H8Y20869   2.510   2.943   4.213  0.0043  1.8313  1.6904
  171DOPC   C3920870   2.328   2.857   4.179  0.6923 -0.7117  0.4513
  171DOPC   H9X20871   2.353   2.820   4.079  1.0548 -1.6327  0.8745
  171DOPC  C31020872   2.243   2.785   4.255 -0.1258 -0.4095  0.1005
  171DOPC  H10X20873   2.199   2.694   4.211  0.1007 -0.4462 -0.0546
  171DOPC  C31120874   2.203   2.815   4.396  0.3478 -0.6020 -0.1541
  171DOPC  H11X20875   2.092   2.819   4.405  0.4251 -2.4294  3.9249
  171DOPC  H11Y20876   2.235   2.909   4.444  0.1033 -0.7121  0.2317
  171DOPC  C31220877   2.246   2.713   4.502 -0.4639  0.2241  0.2463
  171DOPC  H12X20878   2.353   2.737   4.514 -0.3769 -0.9171  2.1993
  171DOPC  H12Y20879   2.239   2.609   4.463 -1.2022  0.3409  0.0417
  171DOPC  C31320880   2.168   2.730   4.630 -0.0099  0.3410  0.5974
  171DOPC  H13X20881   2.201   2.828   4.670  0.9695 -0.0652  0.8101
  171DOPC  H13Y20882   2.060   2.739   4.602 -0.4370 -1.7438  1.3769
  171DOPC  C31420883   2.163   2.599   4.713 -0.1276 -0.5710 -0.0017
  171DOPC  H14X20884   2.107   2.524   4.654  0.4526 -1.2304  0.2776
  171DOPC  H14Y20885   2.258   2.548   4.739 -0.6411 -0.6743  1.8663
  171DOPC  C31520886   2.085   2.607   4.845  0.2284  0.2689 -0.5421
  171DOPC  H15X20887   1.992   2.667   4.833  0.5126  1.4430  2.3064
  171DOPC  H15Y20888   2.150   2.657   4.921 -0.6137 -2.4821  2.1708
  171DOPC  C31620889   2.049   2.467   4.901 -0.0757 -1.2281  0.2087
  171DOPC  H16X20890   1.967   2.420   4.843 -2.5783  0.4968  2.1327
  171DOPC  H16Y20891   2.139   2.403   4.896  0.6561 -0.3967  1.9546
  171DOPC  C31720892   2.001   2.471   5.052 -0.5623  0.3568  0.4061
  171DOPC  H17X20893   1.997   2.364   5.079 -1.1936 -0.2058 -1.7331
  171DOPC  H17Y20894   2.077   2.514   5.121 -0.1043 -0.0773  0.1792
  171DOPC  C31820895   1.875   2.542   5.091  0.1827 -0.0044  0.2011
  171DOPC  H18X20896   1.877   2.652   5.072  1.0009  0.4808  2.7559
  171DOPC  H18Y20897   1.799   2.495   5.025  2.4871 -0.5490 -2.2604
  171DOPC  H18Z20898   1.862   2.523   5.199 -2.9593  1.4424  0.2039
  172DOPC     N20899   2.016   5.049   2.626  0.0490  0.0699  0.3322
  172DOPC   C1220900   1.924   4.935   2.569 -0.2519  0.2970 -0.4256
  172DOPC  H12A20901   1.966   4.840   2.599  0.6367  0.1207 -2.0825
  172DOPC  H12B20902   1.922   4.928   2.461 -0.6611 -2.0366 -0.3367
  172DOPC   C1320903   2.027   5.005   2.773 -0.0510  0.0902  0.8380
  172DOPC  H13A20904   2.044   4.898   2.768  0.7357  0.2699 -2.1426
  172DOPC  H13B20905   2.107   5.048   2.830  1.4238 -0.8428 -0.4277
  172DOPC  H13C20906   1.931   5.025   2.818 -0.7050 -0.9294 -0.0449
  172DOPC   C1420907   1.952   5.184   2.622 -0.0310 -0.6733  0.3854
  172DOPC  H14A20908   2.001   5.265   2.672 -1.2240  0.2393  0.1252
  172DOPC  H14B20909   1.937   5.224   2.522 -0.9048  1.8550  1.4498
  172DOPC  H14C20910   1.856   5.176   2.670 -0.0041 -1.2507  0.3465
  172DOPC   C1520911   2.152   5.047   2.551  0.1001  0.2476  0.0115
  172DOPC  H15A20912   2.185   4.944   2.550 -1.9367 -0.4999  1.6154
  172DOPC  H15B20913   2.230   5.105   2.597  1.9576 -3.4465  1.9287
  172DOPC  H15C20914   2.135   5.078   2.449 -0.1894 -3.1665 -1.1160
  172DOPC   C1120915   1.775   4.942   2.602  0.8941  0.1572  0.2615
  172DOPC  H11A20916   1.730   5.033   2.558  1.5007  1.8979  2.9940
  172DOPC  H11B20917   1.731   4.852   2.555  0.5486 -0.0061  0.8869
  172DOPC     P20918   1.658   5.049   2.810  0.4709 -0.1044 -0.2786
  172DOPC   O1320919   1.516   5.030   2.775 -0.0352  0.2380  0.0306
  172DOPC   O1420920   1.708   5.187   2.789  0.5689  0.2919  0.1780
  172DOPC   O1220921   1.740   4.930   2.743 -0.3610  0.5743  0.5804
  172DOPC   O1120922   1.673   5.007   2.965 -0.1560  0.0585  0.9395
  172DOPC    C120923   1.763   4.918   3.021  0.0927  0.2784 -0.3897
  172DOPC    HA20924   1.831   4.977   3.085 -0.8941  0.6674  0.3143
  172DOPC    HB20925   1.839   4.882   2.947  0.0446  0.8370 -0.7108
  172DOPC    C220926   1.701   4.801   3.101  0.7249 -0.8598  0.0374
  172DOPC    HS20927   1.612   4.775   3.040  0.9568  0.5545 -0.9657
  172DOPC   O2120928   1.668   4.863   3.229 -0.3193 -0.5405 -0.1952
  172DOPC   C2120929   1.561   4.806   3.288  0.4864  0.3642  0.3353
  172DOPC   O2220930   1.501   4.711   3.240 -0.2718  0.3629  0.3577
  172DOPC   C2220931   1.536   4.875   3.419  0.4387  0.1501  0.2495
  172DOPC   H2R20932   1.494   4.971   3.382  1.5404  1.7096  2.7494
  172DOPC   H2S20933   1.634   4.891   3.469  0.2999  0.1762  0.5154
  172DOPC    C320934   1.797   4.684   3.125 -0.1611  0.0113 -0.6002
  172DOPC    HX20935   1.806   4.634   3.027 -2.4041 -1.4863 -0.1117
  172DOPC    HY20936   1.747   4.604   3.183  1.0256 -0.8735 -0.7733
  172DOPC   O3120937   1.934   4.718   3.165  0.2913  0.2558 -0.7098
  172DOPC   C3120938   1.947   4.745   3.297 -0.2647 -0.0596 -1.1032
  172DOPC   O3220939   1.861   4.724   3.385  0.1017 -0.1736  0.1402
  172DOPC   C3220940   2.097   4.786   3.319 -0.0074  0.3893 -0.3344
  172DOPC   H2X20941   2.142   4.711   3.250  0.5265 -0.8123  1.2816
  172DOPC   H2Y20942   2.111   4.882   3.264 -3.7779  0.5223 -1.3219
  172DOPC   C2320943   1.423   4.804   3.494  0.1749 -0.0985  0.7900
  172DOPC   H3R20944   1.453   4.697   3.504  0.8482  0.1204  1.1547
  172DOPC   H3S20945   1.323   4.807   3.445 -0.5172 -0.6976  2.1064
  172DOPC   C2420946   1.400   4.861   3.633 -0.4337  0.1775 -0.2691
  172DOPC   H4R20947   1.500   4.858   3.683 -0.8039 -2.7301  0.4869
  172DOPC   H4S20948   1.330   4.794   3.688  0.1671  0.0919  0.4034
  172DOPC   C2520949   1.344   4.999   3.634 -0.2353  0.3414  1.1890
  172DOPC   H5R20950   1.250   4.996   3.574  1.3874 -2.3132 -1.5636
  172DOPC   H5S20951   1.417   5.067   3.585  1.7576 -2.9381 -0.8033
  172DOPC   C2620952   1.340   5.049   3.777  0.3333 -0.0441 -1.0554
  172DOPC   H6R20953   1.424   5.022   3.845  0.6034  0.0818 -1.3404
  172DOPC   H6S20954   1.247   5.001   3.815  0.3207  0.0849 -0.9212
  172DOPC   C2720955   1.320   5.206   3.786 -0.7153  0.8427  0.3859
  172DOPC   H7R20956   1.367   5.250   3.695  1.3800  0.1207  1.0712
  172DOPC   H7S20957   1.386   5.247   3.865  1.3913 -1.6963  0.0575
  172DOPC   C2820958   1.182   5.252   3.815 -0.0271 -0.7670  0.2498
  172DOPC   H8R20959   1.170   5.360   3.834 -1.1660 -1.0688  1.4530
  172DOPC   H8S20960   1.161   5.203   3.913  0.3992 -1.1453  0.1581
  172DOPC   C2920961   1.081   5.218   3.707 -0.4430 -1.0905  0.0371
  172DOPC   H9R20962   1.112   5.236   3.603 -0.6374 -0.7208  0.0426
  172DOPC  C21020963   0.959   5.168   3.736 -0.3241  0.4173  0.1976
  172DOPC  H10R20964   0.890   5.155   3.651 -1.8160 -3.7231  1.8190
  172DOPC  C21120965   0.910   5.122   3.868  0.2699 -0.3069 -0.9098
  172DOPC  H11R20966   0.992   5.076   3.928  0.8458  0.8429 -0.7831
  172DOPC  H11S20967   0.848   5.031   3.853  1.5827 -0.9002 -3.2589
  172DOPC  C21220968   0.845   5.227   3.961 -0.6200 -0.0769 -0.6281
  172DOPC  H12R20969   0.756   5.274   3.914 -1.1621 -0.6149 -0.1466
  172DOPC  H12S20970   0.923   5.296   3.998 -0.5029 -1.0721  1.0550
  172DOPC  C21320971   0.783   5.166   4.090  0.1044  0.4416 -0.2021
  172DOPC  H13R20972   0.864   5.122   4.152 -1.5858 -0.0024  1.8275
  172DOPC  H13S20973   0.703   5.094   4.064  0.0201  0.7199 -0.7237
  172DOPC  C21420974   0.731   5.274   4.180  0.0750 -0.3448  1.0544
  172DOPC  H14R20975   0.648   5.325   4.126 -0.2477  0.5119  2.3016
  172DOPC  H14S20976   0.812   5.350   4.188  1.0583 -1.0109 -1.5850
  172DOPC  C21520977   0.696   5.238   4.320  0.0411  0.1072 -0.0229
  172DOPC  H15R20978   0.785   5.194   4.370 -1.1917 -0.3995  1.8407
  172DOPC  H15S20979   0.620   5.158   4.334  0.4292  0.2814  4.6415
  172DOPC  C21620980   0.656   5.359   4.411  0.0726  0.0022  0.4206
  172DOPC  H16R20981   0.579   5.419   4.358  0.5675  1.3553  1.1693
  172DOPC  H16S20982   0.746   5.420   4.433  0.8991 -1.4725  1.2856
  172DOPC  C21720983   0.604   5.321   4.547 -0.8317 -0.5276 -0.3207
  172DOPC  H17R20984   0.673   5.255   4.602 -3.1814 -1.6155  1.4969
  172DOPC  H17S20985   0.507   5.267   4.538 -1.6030  0.4168  1.7054
  172DOPC  C21820986   0.584   5.439   4.643  0.6047  0.3149 -0.1184
  172DOPC  H18R20987   0.677   5.500   4.640  0.5723  0.5173  1.8739
  172DOPC  H18S20988   0.564   5.408   4.748  0.5372 -1.4361 -0.6216
  172DOPC  H18T20989   0.501   5.508   4.615  0.0973  0.7157  2.1998
  172DOPC   C3320990   2.146   4.788   3.465  0.4372 -0.0873  0.1914
  172DOPC   H3X20991   2.077   4.842   3.533  1.0491 -2.7241  3.1200
  172DOPC   H3Y20992   2.243   4.843   3.463  0.2365  0.2658  0.0555
  172DOPC   C3420993   2.186   4.643   3.514  0.0960 -0.1300  0.6255
  172DOPC   H4X20994   2.237   4.582   3.436 -1.1320  0.7427 -0.8921
  172DOPC   H4Y20995   2.091   4.588   3.531  0.7815 -2.5217 -2.2603
  172DOPC   C3520996   2.264   4.654   3.650 -0.2828  0.1993  0.1921
  172DOPC   H5X20997   2.359   4.712   3.640 -0.0593  0.0753  1.3659
  172DOPC   H5Y20998   2.295   4.549   3.669  1.9893  0.0074 -3.6457
  172DOPC   C3620999   2.173   4.689   3.762 -0.4500 -0.3263 -0.3257
  172DOPC   H6X21000   2.147   4.797   3.753 -0.7637 -0.3977 -0.2809
  172DOPC   H6Y21001   2.076   4.635   3.760 -1.7594  1.8569  0.5623
  172DOPC   C3721002   2.250   4.676   3.900 -0.0302  0.2670 -0.0262
  172DOPC   H7X21003   2.294   4.574   3.907 -2.9385 -1.2010 -1.2782
  172DOPC   H7Y21004   2.333   4.749   3.895  0.1693  0.0232 -0.2947
  172DOPC   C3821005   2.171   4.704   4.030 -0.0405  0.1592  0.5975
  172DOPC   H8X21006   2.121   4.803   4.028 -2.6594 -0.9586  3.5046
  172DOPC   H8Y21007   2.243   4.717   4.114 -0.4785  1.4444  0.7930
  172DOPC   C3921008   2.068   4.594   4.060  0.5478  0.1144  0.0694
  172DOPC   H9X21009   1.990   4.590   3.982  2.3057 -3.6248 -1.7353
  172DOPC  C31021010   2.053   4.507   4.165 -0.0562  0.3081  0.6064
  172DOPC  H10X21011   1.960   4.450   4.182 -1.5168  2.5283  0.4862
  172DOPC  C31121012   2.142   4.512   4.287  0.1391 -0.4245  0.0834
  172DOPC  H11X21013   2.244   4.505   4.245  0.0607  0.5125 -0.2679
  172DOPC  H11Y21014   2.133   4.421   4.351  0.0167 -1.4028 -1.2793
  172DOPC  C31221015   2.121   4.636   4.377 -0.5063 -0.2333 -0.9046
  172DOPC  H12X21016   2.131   4.721   4.307 -1.4273 -0.1201 -0.9085
  172DOPC  H12Y21017   2.203   4.645   4.451 -1.2959  2.4545 -0.2604
  172DOPC  C31321018   1.977   4.653   4.444  0.0235  0.3872  0.2347
  172DOPC  H13X21019   1.976   4.744   4.509 -2.0996 -1.2410  2.7173
  172DOPC  H13Y21020   1.905   4.664   4.361  0.5749  0.8872 -0.1877
  172DOPC  C31421021   1.928   4.541   4.534 -0.6329  0.2128  0.0201
  172DOPC  H14X21022   1.825   4.564   4.568 -0.9732 -1.8394  0.5076
  172DOPC  H14Y21023   1.937   4.445   4.480  0.7776 -1.2815  2.7213
  172DOPC  C31521024   2.022   4.549   4.660 -0.0729  0.1478  0.6709
  172DOPC  H15X21025   2.040   4.656   4.685  2.2825 -0.1133  0.3005
  172DOPC  H15Y21026   2.119   4.506   4.629  0.5685  1.3934  0.8983
  172DOPC  C31621027   1.971   4.473   4.783 -0.0530 -0.5893 -0.3070
  172DOPC  H16X21028   1.865   4.497   4.807 -0.4197  0.2821 -2.5858
  172DOPC  H16Y21029   1.959   4.366   4.756 -0.5349 -0.1981 -1.7555
  172DOPC  C31721030   2.069   4.468   4.900 -0.0675  0.5812  0.1603
  172DOPC  H17X21031   2.119   4.369   4.898 -1.5351 -0.1995  0.7355
  172DOPC  H17Y21032   2.157   4.536   4.890  0.8347 -0.4268  1.0007
  172DOPC  C31821033   2.004   4.495   5.034  0.0320 -0.8120  0.9171
  172DOPC  H18X21034   1.926   4.420   5.058  0.7960 -1.7544  0.5118
  172DOPC  H18Y21035   2.075   4.489   5.120 -1.1973 -0.7050  1.9749
  172DOPC  H18Z21036   1.961   4.597   5.031  1.1706 -0.3302 -1.8177
  173DOPC     N21037   1.952   0.934   3.107 -0.8529 -0.1810  0.0951
  173DOPC   C1221038   1.837   0.929   3.202 -0.2524 -0.7317 -0.7396
  173DOPC  H12A21039   1.841   0.842   3.265  0.8886 -1.2474 -1.4824
  173DOPC  H12B21040   1.749   0.911   3.142 -0.9278  0.3204 -0.1043
  173DOPC   C1321041   1.939   1.039   3.007  0.9480  0.2172 -0.0954
  173DOPC  H13A21042   1.857   1.013   2.942  0.4428 -1.9519  1.2890
  173DOPC  H13B21043   1.915   1.130   3.060  0.9006 -1.0920  2.2762
  173DOPC  H13C21044   2.026   1.053   2.945  1.5564  0.2622  0.7396
  173DOPC   C1421045   1.974   0.803   3.040  0.6228  0.2484  0.3904
  173DOPC  H14A21046   2.053   0.811   2.967  1.4188 -0.3563  1.1710
  173DOPC  H14B21047   1.993   0.721   3.108 -1.4901 -0.0035  0.7442
  173DOPC  H14C21048   1.882   0.774   2.992  1.2459 -0.7643 -0.2295
  173DOPC   C1521049   2.081   0.961   3.184 -0.1485 -0.3390 -0.2861
  173DOPC  H15A21050   2.067   1.047   3.248  1.4976 -0.6484  0.5366
  173DOPC  H15B21051   2.169   0.971   3.123 -0.4224 -0.1678 -0.6560
  173DOPC  H15C21052   2.085   0.881   3.257 -3.6396 -0.2674  0.1764
  173DOPC   C1121053   1.813   1.056   3.290 -0.0272 -0.1581 -0.3749
  173DOPC  H11A21054   1.732   1.034   3.361 -0.5411  2.3155 -0.1197
  173DOPC  H11B21055   1.902   1.070   3.356 -0.0198  0.6834 -0.5530
  173DOPC     P21056   1.653   1.203   3.153  0.3560  0.2344 -0.4697
  173DOPC   O1321057   1.619   1.090   3.063  0.7882  0.2390  0.1222
  173DOPC   O1421058   1.656   1.338   3.092 -0.0493 -0.2229  0.2217
  173DOPC   O1221059   1.795   1.179   3.213 -0.0765 -0.0740 -0.3295
  173DOPC   O1121060   1.548   1.206   3.272  0.4303 -0.5784  0.6990
  173DOPC    C121061   1.542   1.313   3.364  0.4582 -0.3916  0.0748
  173DOPC    HA21062   1.440   1.357   3.361 -0.0933 -1.5704  0.5832
  173DOPC    HB21063   1.597   1.408   3.349  0.8582 -0.6327 -0.0122
  173DOPC    C221064   1.556   1.267   3.510 -0.1452  0.4008  0.3994
  173DOPC    HS21065   1.661   1.233   3.514  0.0991  1.0238 -0.4632
  173DOPC   O2121066   1.468   1.161   3.550  0.7102 -0.1223 -0.1277
  173DOPC   C2121067   1.501   1.105   3.666 -0.3535  0.3050  0.5153
  173DOPC   O2221068   1.617   1.098   3.710 -0.5933 -0.2995 -0.5080
  173DOPC   C2221069   1.384   1.033   3.722 -0.2852  0.2679 -0.3370
  173DOPC   H2R21070   1.393   0.924   3.703 -0.1524  0.0832  0.7114
  173DOPC   H2S21071   1.293   1.069   3.668  0.5446 -0.2287 -2.1229
  173DOPC    C321072   1.538   1.396   3.592 -0.1292 -0.0625  0.0098
  173DOPC    HX21073   1.437   1.432   3.562  0.7756  1.3438 -1.4838
  173DOPC    HY21074   1.607   1.469   3.546  0.2525 -0.3540  0.1083
  173DOPC   O3121075   1.546   1.392   3.735 -0.0001 -0.5875  0.8505
  173DOPC   C3121076   1.673   1.399   3.779 -0.1508  0.0196 -0.0767
  173DOPC   O3221077   1.770   1.421   3.712  0.0093 -0.8090  0.2669
  173DOPC   C3221078   1.681   1.359   3.924 -0.5337 -0.2046  0.2962
  173DOPC   H2X21079   1.640   1.258   3.946 -1.6382  0.3339  0.7631
  173DOPC   H2Y21080   1.791   1.355   3.945 -0.8043  2.3196  2.8836
  173DOPC   C2321081   1.369   1.064   3.878 -0.1184  0.4573  0.9096
  173DOPC   H3R21082   1.467   1.051   3.930  0.5483  0.8289 -0.2102
  173DOPC   H3S21083   1.292   0.994   3.917 -0.8906  0.8650  0.1446
  173DOPC   C2421084   1.304   1.201   3.912  0.6209 -0.2583 -0.3104
  173DOPC   H4R21085   1.365   1.276   3.859  1.7141  0.0107  1.2513
  173DOPC   H4S21086   1.306   1.207   4.023 -0.8376 -0.0402 -0.2673
  173DOPC   C2521087   1.165   1.223   3.852  0.0690 -0.4473  0.4264
  173DOPC   H5R21088   1.096   1.155   3.907  0.7774 -0.9249  0.7395
  173DOPC   H5S21089   1.156   1.185   3.748  0.9520  1.1039 -0.2380
  173DOPC   C2621090   1.119   1.372   3.853  0.1933  0.2138  0.3947
  173DOPC   H6R21091   1.204   1.430   3.811  1.0691 -0.6993  0.8590
  173DOPC   H6S21092   1.107   1.406   3.958 -0.1081  1.6675 -0.0791
  173DOPC   C2721093   0.992   1.382   3.769 -0.1021 -0.2333 -0.5366
  173DOPC   H7R21094   0.911   1.328   3.821  0.2218  2.0194  2.5893
  173DOPC   H7S21095   1.011   1.339   3.668  1.3075 -0.7897 -0.0578
  173DOPC   C2821096   0.946   1.527   3.771 -0.0000  0.1916 -0.2905
  173DOPC   H8R21097   1.026   1.590   3.726 -0.3113  1.9007  1.4448
  173DOPC   H8S21098   0.911   1.554   3.872 -0.9726 -1.7861 -0.0733
  173DOPC   C2921099   0.822   1.532   3.683 -0.1459  0.7257 -0.3447
  173DOPC   H9R21100   0.846   1.571   3.583 -0.3475  2.7456  0.3508
  173DOPC  C21021101   0.694   1.515   3.718 -0.0692 -0.4065 -0.2495
  173DOPC  H10R21102   0.620   1.507   3.637 -0.0716  0.8248 -0.3917
  173DOPC  C21121103   0.644   1.478   3.856 -0.5180  0.5840  0.4288
  173DOPC  H11R21104   0.712   1.509   3.938  1.5425 -2.4544  0.0034
  173DOPC  H11S21105   0.647   1.368   3.872  1.3203  0.8397  2.0886
  173DOPC  C21221106   0.499   1.514   3.865  0.1044 -0.3201  0.9672
  173DOPC  H12R21107   0.440   1.460   3.788  1.6778  1.4153 -1.6296
  173DOPC  H12S21108   0.487   1.621   3.836 -1.8673 -0.5658  0.7509
  173DOPC  C21321109   0.429   1.493   4.002  0.4440 -0.6438 -0.2232
  173DOPC  H13R21110   0.486   1.541   4.084  0.2470 -0.5924 -0.1144
  173DOPC  H13S21111   0.428   1.382   4.006  2.8224 -0.7766 -1.5776
  173DOPC  C21421112   0.290   1.554   4.005  0.0275 -0.1101 -0.3986
  173DOPC  H14R21113   0.219   1.506   3.934 -0.0071  1.3792 -1.4295
  173DOPC  H14S21114   0.295   1.660   3.971 -0.8248 -0.6240 -2.2669
  173DOPC  C21521115   0.230   1.555   4.145  0.4344 -0.0668  0.2185
  173DOPC  H15R21116   0.132   1.602   4.126 -0.5324 -2.7592 -2.0954
  173DOPC  H15S21117   0.287   1.610   4.223 -0.2691 -0.0882  0.7592
  173DOPC  C21621118   0.200   1.420   4.216  0.0178 -0.8275 -0.2498
  173DOPC  H16R21119   0.294   1.362   4.231 -0.6540 -1.7742  0.4121
  173DOPC  H16S21120   0.149   1.351   4.146  0.7191  0.0967 -1.7191
  173DOPC  C21721121   0.131   1.439   4.354  0.1501  0.2377  0.0390
  173DOPC  H17R21122   0.025   1.473   4.351  0.9065  2.7551 -0.0338
  173DOPC  H17S21123   0.191   1.521   4.399  2.0479 -1.2120  0.2653
  173DOPC  C21821124   0.155   1.319   4.451  0.4466 -0.0194  0.2874
  173DOPC  H18R21125   0.087   1.317   4.538 -2.1396  0.7146 -1.5823
  173DOPC  H18S21126   0.259   1.306   4.489  0.6188 -1.1392 -0.4877
  173DOPC  H18T21127   0.132   1.226   4.394  3.1980 -0.3084 -0.5222
  173DOPC   C3321128   1.627   1.471   4.021  0.1154 -0.4698  0.5048
  173DOPC   H3X21129   1.518   1.479   4.000 -0.7419 -2.6256  3.4602
  173DOPC   H3Y21130   1.665   1.573   3.994 -1.4702  0.0953  0.3025
  173DOPC   C3421131   1.648   1.442   4.166  0.1320 -0.2460 -0.2052
  173DOPC   H4X21132   1.755   1.438   4.192  0.3438 -0.1209 -1.0193
  173DOPC   H4Y21133   1.613   1.340   4.193  0.2544  0.0523  1.1643
  173DOPC   C3521134   1.578   1.547   4.252  0.4274  0.4276 -0.6520
  173DOPC   H5X21135   1.474   1.548   4.213 -0.0062 -0.3816  0.4320
  173DOPC   H5Y21136   1.621   1.647   4.231  1.0214  0.4326  0.5104
  173DOPC   C3621137   1.561   1.504   4.400 -0.4723 -0.3733  1.0187
  173DOPC   H6X21138   1.472   1.439   4.411 -2.6280  1.5680 -2.8704
  173DOPC   H6Y21139   1.652   1.452   4.437  0.1093  1.1881  1.8890
  173DOPC   C3721140   1.543   1.620   4.500  0.1287 -0.4725  0.1050
  173DOPC   H7X21141   1.623   1.693   4.476 -0.6756  0.2572 -0.4173
  173DOPC   H7Y21142   1.449   1.678   4.485  0.3391 -0.1416  0.0679
  173DOPC   C3821143   1.556   1.580   4.643 -0.1386  0.1324 -0.0975
  173DOPC   H8X21144   1.599   1.667   4.697  1.8063  1.2938 -3.2560
  173DOPC   H8Y21145   1.641   1.509   4.647  1.9197  2.2266 -2.3423
  173DOPC   C3921146   1.424   1.529   4.694 -0.0357  0.0746  0.9687
  173DOPC   H9X21147   1.390   1.427   4.672  0.0768 -0.0292  1.2590
  173DOPC  C31021148   1.339   1.597   4.775  0.2644  0.5457 -0.1243
  173DOPC  H10X21149   1.257   1.541   4.823  2.1139 -2.0102  0.2859
  173DOPC  C31121150   1.361   1.738   4.828  0.4905 -0.2686  0.0886
  173DOPC  H11X21151   1.266   1.792   4.809 -1.5576 -1.5048  5.2013
  173DOPC  H11Y21152   1.432   1.792   4.762 -0.2605 -0.2084 -0.6965
  173DOPC  C31221153   1.408   1.761   4.973 -0.5531 -0.8153  0.1242
  173DOPC  H12X21154   1.519   1.758   4.975 -0.3100  1.6912 -2.2228
  173DOPC  H12Y21155   1.374   1.684   5.045 -1.8466  0.2417  0.6932
  173DOPC  C31321156   1.366   1.900   5.017  0.2015  1.0918  0.6542
  173DOPC  H13X21157   1.368   1.982   4.942 -3.3192  0.3800 -0.3882
  173DOPC  H13Y21158   1.257   1.893   5.037 -0.0239 -1.2410 -0.9951
  173DOPC  C31421159   1.421   1.935   5.154  0.2326  0.1918  0.4653
  173DOPC  H14X21160   1.435   1.837   5.206 -1.2088  0.8021  2.0708
  173DOPC  H14Y21161   1.514   1.988   5.126 -0.6829  1.2171 -0.7223
  173DOPC  C31521162   1.331   2.028   5.238 -0.0354  0.0896 -0.3604
  173DOPC  H15X21163   1.240   1.970   5.264  0.5121 -1.4219 -1.6823
  173DOPC  H15Y21164   1.306   2.120   5.181 -1.4388  0.9514  1.5169
  173DOPC  C31621165   1.407   2.077   5.365 -0.5399 -0.3757 -0.4834
  173DOPC  H16X21166   1.500   2.125   5.328 -0.6160 -1.3447 -2.0548
  173DOPC  H16Y21167   1.341   2.150   5.415  0.3027  0.0913 -0.0242
  173DOPC  C31721168   1.453   1.968   5.458  0.2537 -0.0066  0.2062
  173DOPC  H17X21169   1.530   1.913   5.399 -1.4249 -0.7514 -1.4221
  173DOPC  H17Y21170   1.513   2.017   5.537  0.7003  0.9679 -0.7148
  173DOPC  C31821171   1.348   1.870   5.516  0.0635 -0.2398  0.1030
  173DOPC  H18X21172   1.398   1.799   5.586 -0.7918 -0.6544  0.3123
  173DOPC  H18Y21173   1.265   1.920   5.570  0.2371  0.8802 -0.6511
  173DOPC  H18Z21174   1.304   1.813   5.431 -0.7852 -0.1259  0.4621
  174DOPC     N21175   4.406   2.640   2.760  0.4599  0.3680  0.7698
  174DOPC   C1221176   4.435   2.527   2.850 -0.5367  0.0364 -0.1000
  174DOPC  H12A21177   4.357   2.451   2.849 -2.1828  1.6594  0.2013
  174DOPC  H12B21178   4.438   2.562   2.952  2.0332  1.5665 -0.6192
  174DOPC   C1321179   4.517   2.740   2.766  0.6438 -0.8955 -0.0473
  174DOPC  H13A21180   4.488   2.837   2.727  0.3543 -0.8223  0.3436
  174DOPC  H13B21181   4.535   2.753   2.872 -0.0045  0.3391 -0.0580
  174DOPC  H13C21182   4.609   2.706   2.722  0.4222 -0.5721 -0.7712
  174DOPC   C1421183   4.279   2.697   2.806  0.7100 -0.4875 -0.1733
  174DOPC  H14A21184   4.187   2.645   2.783  1.2746 -1.7403  0.3191
  174DOPC  H14B21185   4.288   2.715   2.912 -2.1096 -2.1824  0.4576
  174DOPC  H14C21186   4.260   2.790   2.755 -0.1169 -0.6956 -0.2581
  174DOPC   C1521187   4.396   2.589   2.618  0.6189  0.0580  0.3755
  174DOPC  H15A21188   4.317   2.516   2.611 -0.5279  1.1942  0.9846
  174DOPC  H15B21189   4.485   2.559   2.565 -1.8999 -2.9575 -2.6221
  174DOPC  H15C21190   4.380   2.676   2.557  0.7824  0.3829  0.7904
  174DOPC   C1121191   4.566   2.449   2.845 -0.5416 -0.6875  0.2744
  174DOPC  H11A21192   4.571   2.356   2.905 -0.0486 -0.9748 -0.2000
  174DOPC  H11B21193   4.586   2.411   2.742 -0.6609  0.8816 -0.3581
  174DOPC     P21194   4.684   2.562   3.039 -0.3473 -0.1211 -0.5575
  174DOPC   O1321195   4.693   2.712   3.055 -0.8397  0.0486 -0.0454
  174DOPC   O1421196   4.799   2.478   3.083  0.4412 -0.3666  0.1185
  174DOPC   O1221197   4.678   2.527   2.885  0.0303  0.8059 -0.5174
  174DOPC   O1121198   4.552   2.507   3.099 -0.0175 -0.4786 -0.1479
  174DOPC    C121199   4.541   2.391   3.181  0.1588 -0.3475  0.2595
  174DOPC    HA21200   4.621   2.317   3.157  2.2291  1.8005  0.1788
  174DOPC    HB21201   4.442   2.344   3.162 -0.0736 -0.2296  1.1590
  174DOPC    C221202   4.538   2.426   3.335  0.0446  0.2720 -0.2858
  174DOPC    HS21203   4.493   2.342   3.391 -1.0330  1.6184  0.9346
  174DOPC   O2121204   4.474   2.551   3.354  0.0574  0.1661 -0.5570
  174DOPC   C2121205   4.344   2.549   3.357  0.2546  0.5440 -0.4140
  174DOPC   O2221206   4.269   2.454   3.329 -0.0071 -0.7117  0.1210
  174DOPC   C2221207   4.295   2.686   3.410 -0.7082 -0.3086  0.1590
  174DOPC   H2R21208   4.191   2.697   3.372 -0.7089  1.3796  0.5640
  174DOPC   H2S21209   4.350   2.772   3.365  0.0651 -1.6333 -1.5645
  174DOPC    C321210   4.687   2.416   3.389  0.0315 -0.0080  0.2318
  174DOPC    HX21211   4.736   2.506   3.346 -2.7486  0.5202 -2.1645
  174DOPC    HY21212   4.728   2.327   3.337  0.6106 -0.2400  1.0824
  174DOPC   O3121213   4.694   2.420   3.530  0.3325  0.6675 -0.1995
  174DOPC   C3121214   4.808   2.380   3.573 -0.4291  0.0901 -0.8440
  174DOPC   O3221215   4.902   2.353   3.502  0.4293  0.3895  0.2622
  174DOPC   C3221216   4.801   2.359   3.722  0.1118  0.3726  0.7372
  174DOPC   H2X21217   4.764   2.448   3.777 -2.1704 -1.2734  1.9847
  174DOPC   H2Y21218   4.722   2.282   3.731 -0.5935  1.1690  1.4639
  174DOPC   C2321219   4.293   2.698   3.562 -0.1717  0.0921  0.1517
  174DOPC   H3R21220   4.244   2.606   3.601  0.3637 -0.0746  0.4360
  174DOPC   H3S21221   4.234   2.790   3.584  0.8810  1.0369 -0.8760
  174DOPC   C2421222   4.433   2.722   3.622  0.5923 -0.7702  0.1268
  174DOPC   H4R21223   4.481   2.810   3.573 -1.9072 -0.0356 -1.1834
  174DOPC   H4S21224   4.492   2.629   3.612  0.2646 -0.9098 -0.5673
  174DOPC   C2521225   4.429   2.749   3.774  0.5329 -0.0442 -0.3302
  174DOPC   H5R21226   4.377   2.666   3.827  1.8900 -0.8775 -0.2482
  174DOPC   H5S21227   4.380   2.846   3.796  1.3512  0.9808 -2.7141
  174DOPC   C2621228   4.561   2.765   3.847 -0.5821 -0.5071  0.0494
  174DOPC   H6R21229   4.632   2.831   3.793  0.0650 -0.0666  1.3750
  174DOPC   H6S21230   4.605   2.664   3.846  1.5797  0.3325  1.9063
  174DOPC   C2721231   4.550   2.809   3.993 -0.0990  0.4692 -0.1013
  174DOPC   H7R21232   4.484   2.736   4.044 -1.5201  1.4939 -0.4055
  174DOPC   H7S21233   4.498   2.904   4.015 -1.0435 -0.3136  1.1481
  174DOPC   C2821234   4.690   2.809   4.069 -0.4679 -0.3985  0.0680
  174DOPC   H8R21235   4.738   2.714   4.036 -1.0167 -0.9738  0.8681
  174DOPC   H8S21236   4.675   2.797   4.178  0.1922  0.1085  0.2171
  174DOPC   C2921237   4.760   2.940   4.033  0.1147 -0.5890  0.0669
  174DOPC   H9R21238   4.773   2.938   3.924  0.9335  0.3333  0.1313
  174DOPC  C21021239   4.825   3.034   4.106 -0.7622  0.3040 -0.0656
  174DOPC  H10R21240   4.855   3.126   4.053  1.5274  0.3116  1.0935
  174DOPC  C21121241   4.837   3.038   4.255 -0.1966  0.0965 -0.2060
  174DOPC  H11R21242   4.746   2.998   4.306 -0.0036 -0.2743 -0.1501
  174DOPC  H11S21243   4.863   3.141   4.288  3.5442 -1.1316  1.1246
  174DOPC  C21221244   4.963   2.957   4.289 -0.1208 -0.5665  0.7337
  174DOPC  H12R21245   5.043   2.980   4.215  0.8398 -1.7612  1.3902
  174DOPC  H12S21246   4.947   2.849   4.268  2.5809 -0.4268 -3.0322
  174DOPC  C21321247   5.005   2.994   4.431 -0.0530 -0.5067 -0.2109
  174DOPC  H13R21248   4.916   2.963   4.490  0.8261  0.9593  2.0126
  174DOPC  H13S21249   5.021   3.103   4.441  1.2493 -0.6446 -0.5544
  174DOPC  C21421250   5.127   2.907   4.468 -0.2164  0.4943  0.4509
  174DOPC  H14R21251   5.216   2.951   4.418  0.5333 -0.3270  1.0411
  174DOPC  H14S21252   5.103   2.804   4.437  1.4335  0.8632 -2.4355
  174DOPC  C21521253   5.165   2.912   4.619  0.4850 -0.6956 -0.0984
  174DOPC  H15R21254   5.085   2.873   4.686  0.0085 -1.5816 -1.1543
  174DOPC  H15S21255   5.173   3.017   4.652  0.3822  0.4604 -3.4607
  174DOPC  C21621256   5.289   2.834   4.648 -0.6912 -0.7255  0.6693
  174DOPC  H16R21257   5.374   2.903   4.629  0.4295 -1.6427  2.1198
  174DOPC  H16S21258   5.284   2.746   4.581  1.6170  0.2911 -0.9606
  174DOPC  C21721259   5.288   2.773   4.788 -0.1315 -0.3666  0.8322
  174DOPC  H17R21260   5.376   2.708   4.803 -0.6297 -1.0046  1.0495
  174DOPC  H17S21261   5.197   2.708   4.796 -1.8928  1.7063 -1.0142
  174DOPC  C21821262   5.280   2.879   4.907 -0.1615 -0.2198 -0.8907
  174DOPC  H18R21263   5.198   2.954   4.903 -0.0663 -0.1632 -2.9559
  174DOPC  H18S21264   5.376   2.934   4.897  0.1838 -1.1052 -2.7489
  174DOPC  H18T21265   5.277   2.823   5.003  0.0574  1.2075 -0.0070
  174DOPC   C3321266   4.935   2.303   3.786  0.9649 -0.1300 -0.1130
  174DOPC   H3X21267   4.996   2.234   3.724 -0.4298 -0.0968 -1.5943
  174DOPC   H3Y21268   4.904   2.260   3.883  0.0988  1.6915  0.4407
  174DOPC   C3421269   5.029   2.416   3.837  0.4935  0.2092  0.1545
  174DOPC   H4X21270   5.067   2.487   3.761  1.6465 -1.2029 -0.6341
  174DOPC   H4Y21271   5.118   2.368   3.882  0.2955  1.1268  1.6037
  174DOPC   C3521272   4.990   2.506   3.953  0.2479  0.1817 -0.0207
  174DOPC   H5X21273   4.890   2.544   3.926 -0.0234 -1.4431 -1.4544
  174DOPC   H5Y21274   5.059   2.594   3.958 -0.6874  0.9753 -0.7995
  174DOPC   C3621275   4.992   2.451   4.098 -0.4446 -0.5207  0.8286
  174DOPC   H6X21276   4.932   2.521   4.159  1.0906 -1.0838  3.0906
  174DOPC   H6Y21277   4.941   2.352   4.099  0.2764 -0.8952  1.3022
  174DOPC   C3721278   5.130   2.449   4.158  0.0131 -0.2393 -0.7164
  174DOPC   H7X21279   5.190   2.376   4.098  0.4585  1.4542 -2.4346
  174DOPC   H7Y21280   5.175   2.550   4.154 -0.9920  0.1978 -1.3410
  174DOPC   C3821281   5.122   2.404   4.307  0.7436 -0.7946  0.1173
  174DOPC   H8X21282   5.076   2.303   4.311  1.1544 -0.9538  2.2538
  174DOPC   H8Y21283   5.044   2.454   4.369  1.2093 -0.3624  0.3586
  174DOPC   C3921284   5.259   2.418   4.356  0.2846 -0.8534 -0.0410
  174DOPC   H9X21285   5.303   2.516   4.335  0.8963 -1.0959  0.0864
  174DOPC  C31021286   5.337   2.323   4.404 -0.5987 -0.1820  0.0805
  174DOPC  H10X21287   5.439   2.347   4.436 -0.1238  0.6469 -1.8676
  174DOPC  C31121288   5.299   2.180   4.434 -0.5740 -0.3781 -0.1072
  174DOPC  H11X21289   5.189   2.187   4.450 -0.3578  0.1655  1.2878
  174DOPC  H11Y21290   5.347   2.154   4.531 -1.2384  1.8782  0.9002
  174DOPC  C31221291   5.332   2.080   4.323 -0.0768  0.4615  0.0327
  174DOPC  H12X21292   5.285   1.983   4.352 -2.4509  1.3798 -0.4975
  174DOPC  H12Y21293   5.442   2.067   4.312  0.2596  1.2707  2.0894
  174DOPC  C31321294   5.259   2.115   4.184  0.1820  0.2450 -0.5054
  174DOPC  H13X21295   5.149   2.112   4.198 -0.1373 -3.3765 -2.5308
  174DOPC  H13Y21296   5.307   2.211   4.153  0.4372  0.6876  1.1895
  174DOPC  C31421297   5.290   2.007   4.073 -0.6661  0.2157 -0.2478
  174DOPC  H14X21298   5.399   2.007   4.049 -0.8159  0.5879 -0.9662
  174DOPC  H14Y21299   5.272   1.905   4.113  3.2038 -0.5909 -0.1288
  174DOPC  C31521300   5.200   2.024   3.948  0.2714 -0.6612 -0.1212
  174DOPC  H15X21301   5.240   2.114   3.897  0.5482 -0.0654  1.0959
  174DOPC  H15Y21302   5.102   2.063   3.983  1.7954  3.0418  0.4727
  174DOPC  C31621303   5.192   1.894   3.861 -0.9501 -0.3105 -0.4239
  174DOPC  H16X21304   5.149   1.814   3.925 -0.2845 -1.4205 -1.3116
  174DOPC  H16Y21305   5.124   1.910   3.774 -1.1825 -2.4173 -0.6937
  174DOPC  C31721306   5.327   1.839   3.814 -0.0490  0.3947  0.2488
  174DOPC  H17X21307   5.382   1.912   3.750  1.9753  2.1039  3.6265
  174DOPC  H17Y21308   5.389   1.828   3.906  0.6977 -3.8581 -0.5668
  174DOPC  C31821309   5.323   1.701   3.737  0.0858  0.0961 -0.2134
  174DOPC  H18X21310   5.427   1.665   3.724  0.6323  1.5338 -0.0255
  174DOPC  H18Y21311   5.264   1.627   3.794  0.8660 -0.6868 -0.3959
  174DOPC  H18Z21312   5.277   1.713   3.636 -2.8116  0.3046  1.0296
  175DOPC     N21313   2.844   6.554   3.046 -0.2249  0.1458  0.2593
  175DOPC   C1221314   2.856   6.403   3.041  0.3450  0.2635 -0.3482
  175DOPC  H12A21315   2.824   6.364   3.137 -1.8080  1.0886 -0.6728
  175DOPC  H12B21316   2.959   6.373   3.034 -0.0011 -1.1504  0.2437
  175DOPC   C1321317   2.934   6.616   3.153 -0.1353 -0.2381 -0.0567
  175DOPC  H13A21318   2.941   6.549   3.237 -1.4574  0.1558  0.3962
  175DOPC  H13B21319   3.034   6.622   3.114 -0.4631  0.7443 -0.7793
  175DOPC  H13C21320   2.903   6.712   3.191  1.5887  0.4284 -0.2520
  175DOPC   C1421321   2.708   6.590   3.090  0.6497 -0.8423  0.0066
  175DOPC  H14A21322   2.635   6.576   3.012  0.2971  0.0302  0.1750
  175DOPC  H14B21323   2.684   6.520   3.168  1.1521 -0.6064  0.3764
  175DOPC  H14C21324   2.701   6.689   3.133  2.9080 -1.1284  1.2070
  175DOPC   C1521325   2.865   6.624   2.912  0.1090  0.8635 -0.0671
  175DOPC  H15A21326   2.800   6.573   2.842 -0.4373 -0.6238  1.4547
  175DOPC  H15B21327   2.967   6.619   2.879  0.0101 -2.3740 -0.1954
  175DOPC  H15C21328   2.831   6.725   2.928 -0.7623  0.3976  1.2767
  175DOPC   C1121329   2.763   6.323   2.936  0.1092 -0.1361 -0.0788
  175DOPC  H11A21330   2.777   6.356   2.831  1.6798  1.3911  0.5556
  175DOPC  H11B21331   2.786   6.214   2.934 -1.5924 -0.5026 -1.3486
  175DOPC     P21332   2.565   6.261   3.095 -0.3327  0.0477  0.0655
  175DOPC   O1321333   2.679   6.190   3.156 -0.2846 -0.0552 -0.6133
  175DOPC   O1421334   2.457   6.190   3.028 -0.0609 -0.2649  0.4578
  175DOPC   O1221335   2.624   6.341   2.978 -0.4523 -0.8143 -0.1561
  175DOPC   O1121336   2.515   6.374   3.188  0.0590 -0.1008 -0.1006
  175DOPC    C121337   2.397   6.451   3.155  0.2671 -0.3179 -1.1309
  175DOPC    HA21338   2.358   6.431   3.053  1.5745 -0.5626 -1.5971
  175DOPC    HB21339   2.425   6.559   3.160 -0.1706 -0.2484  0.2790
  175DOPC    C221340   2.280   6.443   3.264  0.7522 -0.0305  0.1464
  175DOPC    HS21341   2.195   6.507   3.230  0.1092 -0.6024  0.6710
  175DOPC   O2121342   2.340   6.486   3.389 -0.1280 -0.2806 -0.3732
  175DOPC   C2121343   2.262   6.567   3.456 -0.0235 -0.1609  0.4306
  175DOPC   O2221344   2.161   6.615   3.412  0.3679 -0.0393 -0.0353
  175DOPC   C2221345   2.337   6.602   3.579  0.1271 -0.4411 -0.4278
  175DOPC   H2R21346   2.304   6.698   3.622 -1.2979 -2.0293  2.3328
  175DOPC   H2S21347   2.445   6.597   3.556  0.5212 -0.2886  1.2794
  175DOPC    C321348   2.224   6.303   3.278  0.6384  0.6939 -0.5694
  175DOPC    HX21349   2.306   6.233   3.302 -0.6028 -0.5533  0.2058
  175DOPC    HY21350   2.192   6.262   3.179 -1.6045 -1.7028  1.0118
  175DOPC   O3121351   2.115   6.298   3.377  0.2170  0.2543 -0.3141
  175DOPC   C3121352   1.990   6.268   3.337  0.8943  0.2637 -0.1335
  175DOPC   O3221353   1.960   6.252   3.219 -0.2722  0.4819  0.4599
  175DOPC   C3221354   1.892   6.260   3.461 -0.4587 -0.9033  0.2267
  175DOPC   H2X21355   1.871   6.366   3.486 -2.1397 -1.6603  2.2971
  175DOPC   H2Y21356   1.795   6.222   3.423 -0.4760 -0.4960 -0.1462
  175DOPC   C2321357   2.303   6.502   3.698 -0.2111 -0.4361  0.3941
  175DOPC   H3R21358   2.383   6.507   3.775 -1.7364 -1.9222  2.1658
  175DOPC   H3S21359   2.317   6.402   3.651 -1.6058 -0.9763  1.0956
  175DOPC   C2421360   2.176   6.526   3.775 -0.0248 -0.4276  0.6335
  175DOPC   H4R21361   2.140   6.438   3.833 -0.3693 -0.1554  0.8366
  175DOPC   H4S21362   2.104   6.555   3.695  1.8689  0.1405 -0.9543
  175DOPC   C2521363   2.187   6.647   3.873  0.1207 -0.7365 -0.4848
  175DOPC   H5R21364   2.081   6.672   3.897  0.2430  0.0296 -0.7063
  175DOPC   H5S21365   2.242   6.734   3.831  2.0196 -0.1664  2.8160
  175DOPC   C2621366   2.266   6.616   4.003  0.3076  0.0847 -0.1282
  175DOPC   H6R21367   2.286   6.698   4.075 -0.0713 -1.9706  2.4560
  175DOPC   H6S21368   2.365   6.579   3.968  0.0317 -2.0774  1.1950
  175DOPC   C2721369   2.188   6.513   4.096  0.1681  0.4995 -0.0452
  175DOPC   H7R21370   2.167   6.420   4.039  0.4368  0.0731  0.5367
  175DOPC   H7S21371   2.086   6.549   4.120 -0.3933 -1.6905  1.0751
  175DOPC   C2821372   2.246   6.499   4.236  0.2476  0.6433  0.3304
  175DOPC   H8R21373   2.259   6.594   4.291 -0.4341  0.1993  1.2967
  175DOPC   H8S21374   2.344   6.449   4.220  0.3641  0.8036  0.5513
  175DOPC   C2921375   2.153   6.407   4.308  0.3148  0.4960 -0.3781
  175DOPC   H9R21376   2.103   6.338   4.238  2.5426  1.1223 -2.7281
  175DOPC  C21021377   2.143   6.389   4.440 -0.6771  0.3780 -0.4870
  175DOPC  H10R21378   2.061   6.327   4.480 -1.2199  2.7964  2.4961
  175DOPC  C21121379   2.202   6.459   4.558 -0.2276 -0.1548 -0.1433
  175DOPC  H11R21380   2.153   6.554   4.589  0.1055  0.2104 -0.7145
  175DOPC  H11S21381   2.308   6.480   4.534  0.2160 -1.2739  0.7246
  175DOPC  C21221382   2.203   6.379   4.691 -0.0254  0.4662  0.2453
  175DOPC  H12R21383   2.276   6.424   4.762 -1.2773  0.0869  1.8290
  175DOPC  H12S21384   2.240   6.279   4.660  0.3513  1.2811 -2.1336
  175DOPC  C21321385   2.061   6.375   4.757  0.0687  0.8677 -0.5298
  175DOPC  H13R21386   1.987   6.331   4.687 -3.2813  2.5515  1.6988
  175DOPC  H13S21387   2.027   6.477   4.784  0.0901  0.4755  1.0808
  175DOPC  C21421388   2.064   6.282   4.886  0.1362 -0.1583 -0.3034
  175DOPC  H14R21389   1.966   6.300   4.936 -0.0357  2.5736 -1.4301
  175DOPC  H14S21390   2.150   6.323   4.942  0.4644  0.4317 -1.2031
  175DOPC  C21521391   2.083   6.137   4.873  0.1574  0.1081  0.9176
  175DOPC  H15R21392   2.177   6.119   4.815  0.4576  1.1283  1.0796
  175DOPC  H15S21393   2.006   6.090   4.808 -0.1519 -0.5682  1.7513
  175DOPC  C21621394   2.097   6.058   5.008 -0.1751  0.4821  0.4390
  175DOPC  H16R21395   1.992   6.041   5.042  0.0769  0.9621  1.4818
  175DOPC  H16S21396   2.148   6.116   5.087  1.2958 -0.3142  0.1170
  175DOPC  C21721397   2.174   5.928   4.984  0.6927 -0.2066  0.6320
  175DOPC  H17R21398   2.181   5.876   5.082 -0.3229  1.6062  1.7072
  175DOPC  H17S21399   2.275   5.955   4.946  0.3255  0.6753  0.2601
  175DOPC  C21821400   2.093   5.830   4.899 -0.3948 -0.0641  0.3161
  175DOPC  H18R21401   2.140   5.731   4.881 -0.6324 -0.0566 -0.3787
  175DOPC  H18S21402   2.071   5.872   4.798 -0.4168  0.5622  0.5836
  175DOPC  H18T21403   1.993   5.809   4.943  0.7104 -1.1795  2.4610
  175DOPC   C3321404   1.951   6.170   3.577  0.4171  1.0652 -0.1257
  175DOPC   H3X21405   2.062   6.179   3.574  0.7507 -1.6907  1.2857
  175DOPC   H3Y21406   1.927   6.062   3.569 -0.3700  1.1554  0.8936
  175DOPC   C3421407   1.911   6.229   3.714  0.1441  0.1344  1.0510
  175DOPC   H4X21408   1.801   6.243   3.711  0.2365  0.8391  0.8727
  175DOPC   H4Y21409   1.953   6.331   3.722  0.4273  0.1212 -0.1288
  175DOPC   C3521410   1.951   6.139   3.831  0.1159  0.1788 -0.2214
  175DOPC   H5X21411   2.061   6.125   3.827  0.2844  1.2743  0.2420
  175DOPC   H5Y21412   1.905   6.038   3.829  0.9572 -0.3119  2.3667
  175DOPC   C3621413   1.900   6.183   3.968 -0.1008  0.5756 -0.0446
  175DOPC   H6X21414   1.925   6.289   3.988 -0.0859  0.2707  1.7038
  175DOPC   H6Y21415   1.790   6.168   3.973  0.1424 -1.2751  0.5600
  175DOPC   C3721416   1.971   6.102   4.074 -0.0080  0.1989  0.2610
  175DOPC   H7X21417   1.978   5.994   4.047  2.1151  0.2531  0.4626
  175DOPC   H7Y21418   2.068   6.149   4.096 -0.1216 -0.1385  1.5832
  175DOPC   C3821419   1.902   6.121   4.216 -0.1169 -0.4582  0.3603
  175DOPC   H8X21420   1.792   6.112   4.212 -0.5119  3.0090  0.4540
  175DOPC   H8Y21421   1.918   6.227   4.246 -0.2264 -0.7044  1.3030
  175DOPC   C3921422   1.954   6.024   4.322 -1.5666  0.4695  0.8218
  175DOPC   H9X21423   2.047   5.972   4.296 -0.4670  2.3060  0.9585
  175DOPC  C31021424   1.888   5.974   4.427 -0.0990  0.4528  0.3665
  175DOPC  H10X21425   1.933   5.895   4.489 -0.4378 -0.8286 -0.9517
  175DOPC  C31121426   1.752   6.018   4.473  0.1774  0.2902  0.0624
  175DOPC  H11X21427   1.697   5.923   4.489  2.1671 -0.7134  1.3340
  175DOPC  H11Y21428   1.698   6.074   4.393  0.1481 -0.2161 -0.2817
  175DOPC  C31221429   1.743   6.115   4.595  0.1326  0.3334 -0.2499
  175DOPC  H12X21430   1.778   6.216   4.565 -1.9360  1.6724  1.5524
  175DOPC  H12Y21431   1.812   6.074   4.672 -2.1783 -0.4467  1.5302
  175DOPC  C31321432   1.600   6.127   4.637  0.2048 -0.0448  0.3170
  175DOPC  H13X21433   1.548   6.194   4.565 -0.1240  0.0047  0.6000
  175DOPC  H13Y21434   1.562   6.023   4.638  1.1905 -0.4072  1.4642
  175DOPC  C31421435   1.576   6.197   4.771 -0.7049  0.2075  0.2007
  175DOPC  H14X21436   1.605   6.303   4.756 -1.7159  0.3480 -0.9536
  175DOPC  H14Y21437   1.465   6.200   4.784 -1.0227 -2.6683 -1.1599
  175DOPC  C31521438   1.642   6.132   4.889 -0.2429 -0.2081  0.0765
  175DOPC  H15X21439   1.750   6.133   4.864 -0.2351  0.4052  0.1234
  175DOPC  H15Y21440   1.607   6.026   4.897 -0.1427 -0.2678 -0.2867
  175DOPC  C31621441   1.619   6.198   5.023 -0.4162  0.4080 -0.5044
  175DOPC  H16X21442   1.667   6.154   5.113 -2.1862  0.3951  0.4848
  175DOPC  H16Y21443   1.653   6.303   5.017  1.0091  0.0483  0.7427
  175DOPC  C31721444   1.474   6.195   5.075 -0.6455 -0.2421  0.1324
  175DOPC  H17X21445   1.425   6.259   4.998 -0.4826  0.7611  0.8395
  175DOPC  H17Y21446   1.440   6.090   5.080  0.4422 -0.5748  1.0392
  175DOPC  C31821447   1.454   6.256   5.215 -0.2286 -0.6376  0.0886
  175DOPC  H18X21448   1.347   6.273   5.235  0.1510  0.4991  1.2644
  175DOPC  H18Y21449   1.499   6.193   5.294  0.3255  1.8111  1.8453
  175DOPC  H18Z21450   1.513   6.350   5.226 -0.6270 -0.4814  0.9019
  176DOPC     N21451   2.740   1.459   3.717  0.0113  0.2832 -0.2823
  176DOPC   C1221452   2.657   1.491   3.840  0.5994  0.2013 -0.0923
  176DOPC  H12A21453   2.687   1.413   3.909 -2.5940 -2.4550 -1.4132
  176DOPC  H12B21454   2.552   1.473   3.820  0.3902 -0.3620  1.3929
  176DOPC   C1321455   2.887   1.481   3.756  0.0971 -0.7092  0.8459
  176DOPC  H13A21456   2.919   1.448   3.853  1.3801  1.6180  1.3040
  176DOPC  H13B21457   2.953   1.442   3.680 -0.1634  0.7491 -0.1837
  176DOPC  H13C21458   2.915   1.585   3.767  1.8627 -1.0534  0.0113
  176DOPC   C1421459   2.698   1.550   3.615  0.2815 -0.8491 -0.3797
  176DOPC  H14A21460   2.680   1.641   3.671 -0.7497 -1.1637 -0.1832
  176DOPC  H14B21461   2.778   1.567   3.543  0.0207 -0.7823 -0.6556
  176DOPC  H14C21462   2.604   1.519   3.572  0.1928 -1.9463  0.5784
  176DOPC   C1521463   2.728   1.314   3.671  0.2235  0.1735  0.5449
  176DOPC  H15A21464   2.637   1.282   3.622 -0.1528 -2.5919  2.8262
  176DOPC  H15B21465   2.722   1.246   3.754  0.1831  2.1833  2.2687
  176DOPC  H15C21466   2.807   1.286   3.603  1.1111 -0.4085  1.7837
  176DOPC   C1121467   2.668   1.626   3.908 -0.3965 -0.4306 -0.2070
  176DOPC  H11A21468   2.612   1.614   4.003  0.0253  0.9621  0.2455
  176DOPC  H11B21469   2.771   1.663   3.928 -0.9336  0.2181  1.4927
  176DOPC     P21470   2.462   1.757   3.834 -0.0527 -0.1851 -0.0878
  176DOPC   O1321471   2.392   1.627   3.802  0.3411 -0.0364  0.1090
  176DOPC   O1421472   2.425   1.882   3.756  0.2935  0.3175 -0.1789
  176DOPC   O1221473   2.612   1.729   3.829  0.1130 -0.3227  0.4090
  176DOPC   O1121474   2.432   1.787   3.984 -0.2446  0.1558  0.1817
  176DOPC    C121475   2.432   1.923   4.026  0.4746  0.1734  0.6208
  176DOPC    HA21476   2.325   1.942   4.049  0.3144 -0.9088  0.8386
  176DOPC    HB21477   2.479   1.995   3.956  0.1378 -1.4193 -1.3034
  176DOPC    C221478   2.506   1.942   4.167 -0.0543 -0.3059  0.3105
  176DOPC    HS21479   2.604   1.901   4.135  1.0558 -0.1129  3.1569
  176DOPC   O2121480   2.440   1.852   4.258 -0.0733 -0.6958  0.8482
  176DOPC   C2121481   2.534   1.786   4.336 -0.5010 -0.7118  0.5503
  176DOPC   O2221482   2.654   1.798   4.315 -0.1851  0.0639  0.1989
  176DOPC   C2221483   2.470   1.702   4.447  0.4357 -0.0272  0.3803
  176DOPC   H2R21484   2.503   1.599   4.422  1.7905  0.6467 -0.7971
  176DOPC   H2S21485   2.361   1.709   4.427  0.2460  0.2306  1.4685
  176DOPC    C321486   2.519   2.095   4.209  0.1778  0.2021 -0.0168
  176DOPC    HX21487   2.419   2.125   4.246  0.1018 -1.3064  1.1064
  176DOPC    HY21488   2.558   2.150   4.120  2.2861 -1.3958 -0.1673
  176DOPC   O3121489   2.604   2.105   4.323  0.3129  0.0629  0.0400
  176DOPC   C3121490   2.738   2.107   4.288 -0.2398  0.1916 -0.5672
  176DOPC   O3221491   2.779   2.116   4.177 -0.5698  0.2863  0.2715
  176DOPC   C3221492   2.826   2.106   4.412  0.4114 -0.2889  0.6241
  176DOPC   H2X21493   2.785   2.185   4.478  1.1912  0.0740  0.6740
  176DOPC   H2Y21494   2.816   2.005   4.459 -1.1820 -0.6414 -0.3844
  176DOPC   C2321495   2.515   1.737   4.592  0.1371  0.6380 -0.5519
  176DOPC   H3R21496   2.487   1.842   4.616 -0.4220  1.1014 -2.9524
  176DOPC   H3S21497   2.625   1.737   4.602  0.3086  1.2496 -2.1195
  176DOPC   C2421498   2.454   1.644   4.700  0.6367  0.7633  0.0162
  176DOPC   H4R21499   2.475   1.542   4.659  1.4013  0.7044  0.5176
  176DOPC   H4S21500   2.345   1.658   4.715  0.4438 -2.9301  4.6523
  176DOPC   C2521501   2.538   1.657   4.826 -0.2709  0.1596 -0.5430
  176DOPC   H5R21502   2.525   1.758   4.870 -0.5179 -0.0281 -0.1737
  176DOPC   H5S21503   2.644   1.651   4.795 -0.1576  0.5475 -0.2321
  176DOPC   C2621504   2.501   1.549   4.931 -0.7736 -0.2871  0.0650
  176DOPC   H6R21505   2.577   1.549   5.012 -0.2247 -2.8134 -0.3537
  176DOPC   H6S21506   2.514   1.451   4.880 -1.9515  0.5103 -1.8821
  176DOPC   C2721507   2.373   1.580   5.000 -0.0683 -0.4061  0.1652
  176DOPC   H7R21508   2.287   1.594   4.931 -1.2751  0.5020  1.7768
  176DOPC   H7S21509   2.382   1.678   5.053  0.2589 -1.0909  1.3996
  176DOPC   C2821510   2.332   1.465   5.096 -0.4750  0.3820 -0.5245
  176DOPC   H8R21511   2.346   1.366   5.049 -0.4415 -0.6900  1.6097
  176DOPC   H8S21512   2.225   1.482   5.122 -0.7825  0.5109 -1.8044
  176DOPC   C2921513   2.404   1.477   5.229  0.0358  0.0978  0.1715
  176DOPC   H9R21514   2.378   1.560   5.297  2.8948 -0.2443  1.8163
  176DOPC  C21021515   2.504   1.395   5.264 -0.1071 -0.1172  0.3030
  176DOPC  H10R21516   2.534   1.408   5.369 -1.1734 -0.3221  0.6363
  176DOPC  C21121517   2.573   1.288   5.189  0.3994  0.2908  0.0696
  176DOPC  H11R21518   2.678   1.276   5.223  0.5605  0.7148 -0.2662
  176DOPC  H11S21519   2.606   1.325   5.090 -0.3545  0.5324 -0.0951
  176DOPC  C21221520   2.498   1.157   5.164 -0.5072  0.0102  0.1947
  176DOPC  H12R21521   2.410   1.181   5.101 -0.9639  2.8692  1.7788
  176DOPC  H12S21522   2.461   1.129   5.265  0.9253 -0.1165  0.7110
  176DOPC  C21321523   2.588   1.049   5.108 -0.3377 -0.2401  0.5157
  176DOPC  H13R21524   2.670   1.022   5.178  0.3372 -1.2897 -0.6516
  176DOPC  H13S21525   2.626   1.099   5.016  0.2527 -1.3662  0.1189
  176DOPC  C21421526   2.520   0.919   5.044 -0.6202 -0.4374  0.0057
  176DOPC  H14R21527   2.597   0.848   5.009  1.5620  1.9458 -0.2769
  176DOPC  H14S21528   2.462   0.949   4.955 -0.0047 -0.6769 -0.4789
  176DOPC  C21521529   2.415   0.847   5.130 -0.3085  0.5489 -0.0540
  176DOPC  H15R21530   2.373   0.762   5.072  1.8390 -0.6465  0.0536
  176DOPC  H15S21531   2.333   0.921   5.145 -1.7064 -1.2513  1.9690
  176DOPC  C21621532   2.465   0.809   5.268 -0.0119  0.0428 -0.0730
  176DOPC  H16R21533   2.468   0.901   5.330 -1.3494  1.3045 -1.7897
  176DOPC  H16S21534   2.572   0.784   5.252  0.2011  0.5350  0.5592
  176DOPC  C21721535   2.390   0.699   5.340  0.4710  0.5044  0.4127
  176DOPC  H17R21536   2.427   0.676   5.442 -0.3602 -0.9744  0.4084
  176DOPC  H17S21537   2.390   0.607   5.278 -1.0360 -0.8690  2.3125
  176DOPC  C21821538   2.244   0.737   5.349 -0.1631 -0.3557 -0.4996
  176DOPC  H18R21539   2.195   0.697   5.440 -1.9128  0.1302 -1.1843
  176DOPC  H18S21540   2.184   0.698   5.264 -1.3965 -2.1187  1.1045
  176DOPC  H18T21541   2.229   0.847   5.350  1.1730 -0.1186 -2.3433
  176DOPC   C3321542   2.973   2.154   4.379  0.1358 -0.0111  0.3879
  176DOPC   H3X21543   2.983   2.256   4.336  1.9014  0.4927  1.8645
  176DOPC   H3Y21544   3.010   2.087   4.299  0.3168  2.7023 -1.9536
  176DOPC   C3421545   3.061   2.152   4.504  0.0510  0.4117 -0.6171
  176DOPC   H4X21546   3.038   2.060   4.562  0.0553  0.0829 -1.1301
  176DOPC   H4Y21547   3.054   2.242   4.568  1.9317  0.5615 -0.5885
  176DOPC   C3521548   3.212   2.140   4.463 -0.2408  0.3654  0.0171
  176DOPC   H5X21549   3.258   2.223   4.405  2.1424 -1.1180 -0.3754
  176DOPC   H5Y21550   3.213   2.042   4.410 -0.5910  0.3052  0.1189
  176DOPC   C3621551   3.307   2.116   4.580  0.5038 -0.1019 -0.0513
  176DOPC   H6X21552   3.276   2.024   4.635  0.8238 -1.1497 -1.5472
  176DOPC   H6Y21553   3.411   2.087   4.553  0.1809 -2.6592  1.1724
  176DOPC   C3721554   3.311   2.242   4.674  0.2353 -0.3156 -0.6692
  176DOPC   H7X21555   3.359   2.323   4.616  2.0419 -0.0071  1.1353
  176DOPC   H7Y21556   3.208   2.266   4.707  1.1506  0.9623  1.3996
  176DOPC   C3821557   3.403   2.215   4.798  0.3379  0.2970 -0.3446
  176DOPC   H8X21558   3.488   2.161   4.751 -1.3297 -0.2218 -2.9708
  176DOPC   H8Y21559   3.350   2.143   4.864  2.4405 -0.5637  0.4828
  176DOPC   C3921560   3.444   2.342   4.871  0.2089  0.0453  0.2812
  176DOPC   H9X21561   3.533   2.387   4.824  0.2474  0.2994  0.5943
  176DOPC  C31021562   3.382   2.403   4.975  0.4717 -0.5106  0.5317
  176DOPC  H10X21563   3.429   2.496   5.010 -0.0917 -0.9872  2.6643
  176DOPC  C31121564   3.262   2.359   5.048  1.0793 -0.3492  0.5167
  176DOPC  H11X21565   3.290   2.281   5.122 -0.3262  0.9025  2.4774
  176DOPC  H11Y21566   3.184   2.317   4.981  0.3570 -0.0985  1.1825
  176DOPC  C31221567   3.191   2.473   5.129  0.2421  0.0219 -0.1372
  176DOPC  H12X21568   3.253   2.531   5.200  2.1211 -2.4236  0.3706
  176DOPC  H12Y21569   3.118   2.421   5.195 -1.4782  1.3301 -0.9267
  176DOPC  C31321570   3.115   2.577   5.045  0.2262  0.3594  0.3726
  176DOPC  H13X21571   3.186   2.642   4.990 -0.8686 -0.5740 -2.2874
  176DOPC  H13Y21572   3.059   2.521   4.967  0.9560 -0.1844  0.2173
  176DOPC  C31421573   3.019   2.669   5.118 -0.5125 -0.9005 -0.4105
  176DOPC  H14X21574   2.941   2.615   5.175  0.0202 -0.3720  0.8646
  176DOPC  H14Y21575   3.087   2.715   5.193  1.2139 -1.9205 -1.2859
  176DOPC  C31521576   2.951   2.769   5.017  0.6421 -0.5380  0.8273
  176DOPC  H15X21577   2.864   2.721   4.967  0.4450 -0.9749  1.5631
  176DOPC  H15Y21578   3.024   2.805   4.943 -0.7982  2.9141  0.9182
  176DOPC  C31621579   2.899   2.896   5.096  0.2646  0.1192 -0.0030
  176DOPC  H16X21580   2.976   2.964   5.138 -1.0596  0.9723  1.1023
  176DOPC  H16Y21581   2.851   2.947   5.010  0.2537  1.9826  1.0610
  176DOPC  C31721582   2.796   2.859   5.201  0.4990 -0.0227 -0.4832
  176DOPC  H17X21583   2.754   2.758   5.185 -3.4060  0.7511  3.0474
  176DOPC  H17Y21584   2.853   2.839   5.294 -0.8856  1.4207  0.7376
  176DOPC  C31821585   2.691   2.965   5.234 -0.4452  0.1821  0.1080
  176DOPC  H18X21586   2.644   2.936   5.331 -0.0395 -1.1694 -0.0779
  176DOPC  H18Y21587   2.734   3.067   5.240 -0.5689  0.3352 -1.3107
  176DOPC  H18Z21588   2.623   2.964   5.146  0.1749 -0.6529 -0.3773
  177DOPC     N21589   3.869   4.866   3.046 -0.7574  0.0162 -0.0506
  177DOPC   C1221590   3.792   4.844   3.176  0.4298 -0.4801  0.2250
  177DOPC  H12A21591   3.815   4.747   3.218  0.4365  0.1898  1.8356
  177DOPC  H12B21592   3.685   4.844   3.164  0.2502 -0.0213  1.6190
  177DOPC   C1321593   4.021   4.860   3.082 -0.0352  0.4090  0.3241
  177DOPC  H13A21594   4.063   4.763   3.104  1.4089  1.2072  1.2502
  177DOPC  H13B21595   4.082   4.901   3.003  1.1785  0.9743  1.5201
  177DOPC  H13C21596   4.040   4.911   3.176 -0.4065 -1.3725  1.4151
  177DOPC   C1421597   3.850   4.999   2.978  0.5207  0.0473  0.2968
  177DOPC  H14A21598   3.755   5.008   2.929  0.5003 -3.9016 -0.6556
  177DOPC  H14B21599   3.843   5.065   3.064 -1.4748 -0.0770  0.2569
  177DOPC  H14C21600   3.935   5.026   2.917  0.3101  2.8691  1.0687
  177DOPC   C1521601   3.838   4.765   2.943 -0.3739 -0.0737 -0.3723
  177DOPC  H15A21602   3.871   4.665   2.971 -0.3459 -0.3820 -1.4704
  177DOPC  H15B21603   3.887   4.790   2.850  0.7241  0.2058  0.2605
  177DOPC  H15C21604   3.731   4.761   2.931 -0.4791 -1.5724  0.6500
  177DOPC   C1121605   3.818   4.946   3.296 -0.0654  0.6495  0.0478
  177DOPC  H11A21606   3.771   4.908   3.390  0.5376 -0.9138 -0.2496
  177DOPC  H11B21607   3.927   4.928   3.313 -0.6865 -0.6728  3.3890
  177DOPC     P21608   3.835   5.199   3.367 -0.2892 -0.6923 -0.0874
  177DOPC   O1321609   3.877   5.321   3.284 -0.0733  0.2141 -0.0560
  177DOPC   O1421610   3.948   5.143   3.447  0.2166  0.2807  0.1700
  177DOPC   O1221611   3.790   5.081   3.267 -0.2751  0.4598 -0.6652
  177DOPC   O1121612   3.716   5.229   3.460  0.7015  0.3172  0.5451
  177DOPC    C121613   3.666   5.126   3.545 -0.8940  0.3657  0.1034
  177DOPC    HA21614   3.746   5.087   3.612  0.0145 -1.8229 -2.1110
  177DOPC    HB21615   3.638   5.036   3.486  1.4912 -0.6960  0.4505
  177DOPC    C221616   3.533   5.164   3.620 -0.8382  0.0857 -0.1436
  177DOPC    HS21617   3.449   5.141   3.551 -1.3289  1.5140 -0.0728
  177DOPC   O2121618   3.533   5.308   3.645  0.4780  0.5373 -0.8760
  177DOPC   C2121619   3.412   5.350   3.683  0.7428 -0.0059 -0.0914
  177DOPC   O2221620   3.311   5.290   3.655  0.1578 -0.3621  0.0283
  177DOPC   C2221621   3.421   5.489   3.745 -0.3366 -0.0170  0.6066
  177DOPC   H2R21622   3.447   5.564   3.667  0.8068  0.6134  1.5744
  177DOPC   H2S21623   3.496   5.488   3.827 -1.1766 -1.7951  1.4230
  177DOPC    C321624   3.515   5.076   3.749  0.9526 -0.0311  0.5232
  177DOPC    HX21625   3.498   4.971   3.719 -1.1982  0.4011  0.0659
  177DOPC    HY21626   3.418   5.101   3.796 -0.4972 -1.1358 -1.7629
  177DOPC   O3121627   3.627   5.085   3.840 -0.1882 -0.1461  0.3834
  177DOPC   C3121628   3.625   5.181   3.934 -0.0017  0.0076  0.0116
  177DOPC   O3221629   3.532   5.255   3.953 -0.3117  0.2771 -0.1067
  177DOPC   C3221630   3.761   5.202   3.999  0.9167 -0.9976  0.0274
  177DOPC   H2X21631   3.831   5.115   3.996  1.9413 -0.1820 -0.6338
  177DOPC   H2Y21632   3.813   5.278   3.938  0.0925 -0.8242 -0.4605
  177DOPC   C2321633   3.289   5.533   3.812 -0.2394  0.0788  0.6597
  177DOPC   H3R21634   3.257   5.453   3.882  1.5792 -0.4976  0.8975
  177DOPC   H3S21635   3.216   5.556   3.732 -0.1175 -0.6247  0.3417
  177DOPC   C2421636   3.304   5.660   3.895 -0.7821  0.1409 -0.1260
  177DOPC   H4R21637   3.364   5.729   3.832 -0.3205 -0.7207 -0.6465
  177DOPC   H4S21638   3.359   5.643   3.990 -2.3153 -0.4827  0.6899
  177DOPC   C2521639   3.177   5.731   3.952 -0.1137 -0.4201  0.4934
  177DOPC   H5R21640   3.200   5.804   4.032  1.2061 -0.9562  0.6174
  177DOPC   H5S21641   3.114   5.657   4.005 -2.1805 -0.7479 -2.1600
  177DOPC   C2621642   3.097   5.802   3.843 -0.3554 -0.2673  0.6477
  177DOPC   H6R21643   3.032   5.719   3.809  1.0284 -1.7986  1.5817
  177DOPC   H6S21644   3.166   5.841   3.766  0.5165  2.0002  2.4632
  177DOPC   C2721645   3.014   5.920   3.900  0.3344 -0.8592 -0.2835
  177DOPC   H7R21646   2.942   5.891   3.980  0.2361 -0.1005 -0.0887
  177DOPC   H7S21647   2.945   5.953   3.819  0.7871  0.2272 -0.2382
  177DOPC   C2821648   3.103   6.043   3.944  0.0078  0.7198  0.0823
  177DOPC   H8R21649   3.187   6.046   3.872 -0.2011 -1.6396 -0.3601
  177DOPC   H8S21650   3.148   6.020   4.043  0.9189 -1.3707 -0.7471
  177DOPC   C2921651   3.014   6.161   3.949  0.7602 -0.1263  0.2611
  177DOPC   H9R21652   2.960   6.176   3.855  1.0060 -2.3692 -0.2991
  177DOPC  C21021653   2.993   6.231   4.062 -0.1867 -0.1057 -0.6885
  177DOPC  H10R21654   2.930   6.321   4.063  1.5532  1.1981 -2.4637
  177DOPC  C21121655   3.035   6.197   4.208  0.3154  0.1138  0.3229
  177DOPC  H11R21656   3.145   6.196   4.223  0.0232 -2.1519  3.3085
  177DOPC  H11S21657   3.004   6.098   4.247 -0.1037  0.3910  0.7015
  177DOPC  C21221658   2.983   6.307   4.303 -0.2763  0.0970 -0.5458
  177DOPC  H12R21659   2.872   6.301   4.308 -0.2965 -0.0588 -1.1343
  177DOPC  H12S21660   3.015   6.409   4.271  2.1532  0.2167  1.8742
  177DOPC  C21321661   3.050   6.295   4.442 -0.5711 -0.2525 -0.2232
  177DOPC  H13R21662   3.161   6.304   4.443 -0.5216 -0.7660  0.5647
  177DOPC  H13S21663   3.031   6.194   4.485  0.1292 -0.4494 -0.3627
  177DOPC  C21421664   3.003   6.401   4.543 -0.2682  0.4616 -0.0706
  177DOPC  H14R21665   2.893   6.395   4.536 -0.2298  0.3473 -0.5351
  177DOPC  H14S21666   3.030   6.508   4.527 -0.0947  0.3444 -0.5650
  177DOPC  C21521667   3.049   6.372   4.691  0.0488 -0.4298 -0.1497
  177DOPC  H15R21668   3.006   6.277   4.730  0.7496 -0.8166 -0.2957
  177DOPC  H15S21669   3.008   6.457   4.749  0.9699  0.4763 -0.7992
  177DOPC  C21621670   3.203   6.365   4.707 -0.3676  1.1120  0.1670
  177DOPC  H16R21671   3.258   6.449   4.660 -0.9967  1.9291  0.8613
  177DOPC  H16S21672   3.243   6.269   4.668  0.0983  1.6445 -0.6738
  177DOPC  C21721673   3.244   6.371   4.851  0.3197 -0.4043 -0.7163
  177DOPC  H17R21674   3.187   6.295   4.908  0.2629  0.8099  0.8932
  177DOPC  H17S21675   3.221   6.471   4.893  1.4419 -0.5629  0.3261
  177DOPC  C21821676   3.393   6.367   4.870 -0.2526  0.4792  0.7114
  177DOPC  H18R21677   3.433   6.268   4.839 -1.2046 -0.0130  0.9945
  177DOPC  H18S21678   3.429   6.382   4.974 -1.6902  0.1045  1.2938
  177DOPC  H18T21679   3.441   6.442   4.804  0.4117  0.2329  0.9023
  177DOPC   C3321680   3.772   5.239   4.148  0.2678  0.4667 -0.7241
  177DOPC   H3X21681   3.715   5.334   4.156 -1.3956 -0.6329  1.5021
  177DOPC   H3Y21682   3.875   5.259   4.181  0.1062 -1.6418  1.2906
  177DOPC   C3421683   3.710   5.135   4.241  0.1664 -0.1420  0.2017
  177DOPC   H4X21684   3.757   5.035   4.233 -1.3297 -0.7546 -1.4480
  177DOPC   H4Y21685   3.603   5.125   4.213 -0.2975  2.3116  0.8554
  177DOPC   C3521686   3.718   5.184   4.391  0.2352  0.1265  0.4584
  177DOPC   H5X21687   3.695   5.292   4.404  0.8484  0.1658  1.3781
  177DOPC   H5Y21688   3.826   5.169   4.413  0.4174  0.5537 -0.1314
  177DOPC   C3621689   3.636   5.093   4.479  0.0675  0.0999 -0.4272
  177DOPC   H6X21690   3.530   5.083   4.447  0.0742 -2.2789  0.1138
  177DOPC   H6Y21691   3.678   4.991   4.477 -0.4900 -0.1265 -0.5839
  177DOPC   C3721692   3.622   5.150   4.618  0.0675  0.6513  0.1958
  177DOPC   H7X21693   3.726   5.169   4.652  1.5980 -1.3690 -2.8871
  177DOPC   H7Y21694   3.576   5.252   4.617 -0.6195  0.3498  0.0970
  177DOPC   C3821695   3.545   5.057   4.712  0.2570  0.0250  0.2282
  177DOPC   H8X21696   3.569   4.952   4.686 -0.5097 -0.6165  1.9138
  177DOPC   H8Y21697   3.435   5.064   4.704  0.2514 -0.1671  0.1171
  177DOPC   C3921698   3.585   5.084   4.851 -0.9371  0.2468 -0.4252
  177DOPC   H9X21699   3.577   5.191   4.876  2.8691  0.6167 -0.3365
  177DOPC  C31021700   3.646   4.996   4.941  0.9400  0.3084 -0.4064
  177DOPC  H10X21701   3.672   5.040   5.038  0.4684  0.4434 -0.3418
  177DOPC  C31121702   3.674   4.849   4.905  0.4405 -0.6883  0.4256
  177DOPC  H11X21703   3.708   4.835   4.800 -1.7976  2.1314 -0.8062
  177DOPC  H11Y21704   3.582   4.787   4.910  0.3953 -0.5838  0.9661
  177DOPC  C31221705   3.763   4.787   5.015  0.5517  0.3909 -0.1536
  177DOPC  H12X21706   3.828   4.872   5.045  3.7131 -1.7953 -0.3976
  177DOPC  H12Y21707   3.832   4.711   4.974  2.0201  1.4619  0.2313
  177DOPC  C31321708   3.690   4.750   5.146 -0.4251  0.0872 -1.3492
  177DOPC  H13X21709   3.590   4.798   5.158  0.7114  2.5954 -1.1834
  177DOPC  H13Y21710   3.682   4.640   5.157 -1.0271  0.1567 -1.0630
  177DOPC  C31421711   3.779   4.800   5.267  0.2236  0.8660  0.1953
  177DOPC  H14X21712   3.883   4.763   5.254  0.0226 -0.8462  2.7253
  177DOPC  H14Y21713   3.775   4.911   5.267 -1.2246  0.8255 -0.0485
  177DOPC  C31521714   3.730   4.743   5.401  0.1716  0.0028 -0.1373
  177DOPC  H15X21715   3.746   4.634   5.387  3.3049  0.1573  1.3858
  177DOPC  H15Y21716   3.623   4.762   5.423  0.1893 -1.7690  1.7314
  177DOPC  C31621717   3.817   4.781   5.518  0.0050 -0.3335  1.0639
  177DOPC  H16X21718   3.791   4.886   5.544 -1.1626  0.1988 -1.8630
  177DOPC  H16Y21719   3.801   4.715   5.607 -0.5768  0.6215  1.6791
  177DOPC  C31721720   3.968   4.763   5.497 -0.1149  0.0923 -0.3366
  177DOPC  H17X21721   3.984   4.654   5.488 -1.7727 -0.4618  2.2819
  177DOPC  H17Y21722   4.000   4.811   5.401 -0.9396  1.0017 -0.1773
  177DOPC  C31821723   4.059   4.800   5.610  0.0198  0.6392 -0.9078
  177DOPC  H18X21724   4.165   4.798   5.577  1.0136 -0.8864  1.9884
  177DOPC  H18Y21725   4.040   4.901   5.652  2.7951  0.1218  1.9902
  177DOPC  H18Z21726   4.055   4.726   5.693 -0.5872 -0.9070 -2.2656
  178DOPC     N21727   1.473   5.663   2.967 -0.3067  0.5191  0.0935
  178DOPC   C1221728   1.500   5.787   3.048 -0.2741 -0.0452  0.4281
  178DOPC  H12A21729   1.572   5.850   2.998  1.4954 -1.9157  0.4510
  178DOPC  H12B21730   1.546   5.747   3.138 -0.1761 -0.4409  0.2036
  178DOPC   C1321731   1.603   5.598   2.950 -0.1766 -1.0066  0.0745
  178DOPC  H13A21732   1.648   5.572   3.045  2.1926  0.5471 -0.5302
  178DOPC  H13B21733   1.614   5.520   2.876  1.7766 -1.8340  1.1599
  178DOPC  H13C21734   1.674   5.670   2.913 -0.8230 -1.2816 -1.8284
  178DOPC   C1421735   1.413   5.692   2.831  0.1990  0.4220 -1.0167
  178DOPC  H14A21736   1.325   5.754   2.837  0.9561  1.4391  3.1832
  178DOPC  H14B21737   1.493   5.744   2.780  1.2576  0.0301  0.1770
  178DOPC  H14C21738   1.394   5.597   2.784 -0.8799 -0.3307  0.8347
  178DOPC   C1521739   1.387   5.564   3.039 -0.4837 -0.9451 -0.1543
  178DOPC  H15A21740   1.422   5.517   3.130 -0.9538 -0.7234  0.1435
  178DOPC  H15B21741   1.352   5.492   2.967  1.4067 -1.4816 -0.5873
  178DOPC  H15C21742   1.303   5.628   3.061  0.2757 -0.2169  0.7472
  178DOPC   C1121743   1.379   5.875   3.096  0.1039 -0.6576  0.0899
  178DOPC  H11A21744   1.411   5.953   3.168 -0.1515 -1.4179  1.0402
  178DOPC  H11B21745   1.320   5.911   3.009  0.1989  2.8738  1.3170
  178DOPC     P21746   1.138   5.778   3.182  0.1185 -0.4282 -0.0954
  178DOPC   O1321747   1.115   5.631   3.167 -0.0249  0.2483  0.6325
  178DOPC   O1421748   1.072   5.865   3.085  0.2852  0.1592 -0.1291
  178DOPC   O1221749   1.295   5.795   3.177  0.6716  0.5247 -0.4015
  178DOPC   O1121750   1.097   5.839   3.322  0.2808 -0.2333  0.0027
  178DOPC    C121751   1.204   5.849   3.412 -0.0733  0.3464 -0.5417
  178DOPC    HA21752   1.280   5.919   3.370 -0.2248  1.9467  1.7084
  178DOPC    HB21753   1.260   5.759   3.444 -0.2459  0.9112  1.4541
  178DOPC    C221754   1.178   5.934   3.539  0.2652  0.7100  0.3555
  178DOPC    HS21755   1.276   5.971   3.575  0.4048  1.2195 -0.5079
  178DOPC   O2121756   1.112   5.859   3.638 -0.8100  0.0063 -0.2816
  178DOPC   C2121757   1.159   5.871   3.758 -0.5501 -0.6562  0.4617
  178DOPC   O2221758   1.251   5.939   3.801 -0.2645  0.0579  0.4326
  178DOPC   C2221759   1.070   5.787   3.846  0.4331  0.0142 -0.5775
  178DOPC   H2R21760   1.080   5.680   3.816  0.1883  0.3044 -1.7575
  178DOPC   H2S21761   0.961   5.807   3.834  0.0338 -0.7461  1.4152
  178DOPC    C321762   1.077   6.049   3.501 -0.3961  0.2406  0.2505
  178DOPC    HX21763   0.987   5.992   3.470  0.7165 -1.2180 -0.4298
  178DOPC    HY21764   1.114   6.101   3.410  0.9875 -0.9498  0.1071
  178DOPC   O3121765   1.048   6.140   3.608 -0.0211 -0.3855 -0.5849
  178DOPC   C3121766   1.146   6.226   3.642  0.6994  0.2257 -0.7049
  178DOPC   O3221767   1.255   6.229   3.588  0.0494  0.5868 -0.7404
  178DOPC   C3221768   1.098   6.317   3.755 -0.0451 -0.2682 -0.0156
  178DOPC   H2X21769   1.045   6.406   3.713  1.8106  0.1685 -1.5389
  178DOPC   H2Y21770   1.027   6.265   3.823  0.1981  2.2280  2.3562
  178DOPC   C2321771   1.096   5.814   3.996 -0.2301  0.4627  0.0248
  178DOPC   H3R21772   1.067   5.915   4.032  1.0351  0.5416  0.8722
  178DOPC   H3S21773   1.202   5.796   4.021 -0.1576 -0.1896 -0.7038
  178DOPC   C2421774   1.011   5.722   4.084  0.1800  0.2466 -0.0470
  178DOPC   H4R21775   1.038   5.615   4.071 -0.2896  0.0365  0.6496
  178DOPC   H4S21776   0.906   5.749   4.059  0.3877  1.0881 -0.0493
  178DOPC   C2521777   1.030   5.744   4.238 -0.4310  0.2457 -0.4909
  178DOPC   H5R21778   1.081   5.838   4.269  2.0410 -0.7374 -1.3207
  178DOPC   H5S21779   1.107   5.669   4.264 -2.2018 -2.0458 -1.5493
  178DOPC   C2621780   0.909   5.716   4.328  1.4021  0.6599  0.4984
  178DOPC   H6R21781   0.937   5.717   4.436 -0.4803 -1.4241  1.0953
  178DOPC   H6S21782   0.879   5.611   4.306  1.0665  0.8823 -0.1002
  178DOPC   C2721783   0.789   5.815   4.311  0.2391  0.0255  0.0980
  178DOPC   H7R21784   0.703   5.797   4.379 -1.2369  1.3936 -1.3237
  178DOPC   H7S21785   0.740   5.810   4.212 -1.9152 -0.6702  1.1452
  178DOPC   C2821786   0.825   5.960   4.318  0.1176 -0.9122  0.1301
  178DOPC   H8R21787   0.866   5.973   4.215  0.1789 -0.6707  0.1844
  178DOPC   H8S21788   0.913   5.989   4.379  0.2087  1.6750 -1.0785
  178DOPC   C2921789   0.705   6.050   4.351 -0.1304  0.1498 -0.4056
  178DOPC   H9R21790   0.612   6.025   4.298  0.9559 -3.0680 -1.0243
  178DOPC  C21021791   0.691   6.146   4.450 -0.2087  0.1250  0.3900
  178DOPC  H10R21792   0.600   6.207   4.452  0.1269  0.8316 -2.1343
  178DOPC  C21121793   0.805   6.199   4.525 -0.0285 -0.0098 -0.1909
  178DOPC  H11R21794   0.783   6.298   4.570 -1.5343 -0.9868  1.3449
  178DOPC  H11S21795   0.893   6.207   4.458  0.0266 -1.5237 -0.3395
  178DOPC  C21221796   0.854   6.105   4.638 -0.2976  0.4738 -0.4624
  178DOPC  H12R21797   0.849   5.998   4.609  0.6106  0.4994 -0.7366
  178DOPC  H12S21798   0.783   6.118   4.723 -0.0410 -0.1617 -0.1440
  178DOPC  C21321799   1.000   6.128   4.670  0.0863 -0.2312 -0.0264
  178DOPC  H13R21800   1.057   6.118   4.575  0.0777  3.2512 -0.5283
  178DOPC  H13S21801   1.038   6.054   4.743  0.0028 -0.9672 -0.7072
  178DOPC  C21421802   1.035   6.263   4.741 -0.4040 -0.1295  0.1316
  178DOPC  H14R21803   0.985   6.344   4.683  1.4552 -0.9340 -2.8446
  178DOPC  H14S21804   1.145   6.272   4.735 -0.4185 -0.2345 -0.3054
  178DOPC  C21521805   0.975   6.254   4.881  1.0042 -0.6368  0.0037
  178DOPC  H15R21806   1.002   6.170   4.947  2.7214  0.6045  0.9832
  178DOPC  H15S21807   0.866   6.259   4.862  0.9371  0.0634  0.5033
  178DOPC  C21621808   1.000   6.385   4.959 -0.0482 -0.0152  0.4814
  178DOPC  H16R21809   0.923   6.394   5.039 -0.3782 -1.9898  0.4477
  178DOPC  H16S21810   0.987   6.474   4.894  1.2954  0.4396  0.7991
  178DOPC  C21721811   1.146   6.390   5.015 -0.2076  0.1018  0.5046
  178DOPC  H17R21812   1.209   6.365   4.927 -1.1099  0.4815 -0.2684
  178DOPC  H17S21813   1.158   6.316   5.096  1.9770 -0.6195 -0.3954
  178DOPC  C21821814   1.191   6.528   5.071 -0.0334  0.3711  0.1104
  178DOPC  H18R21815   1.121   6.575   5.143 -0.3836 -2.7975  2.0313
  178DOPC  H18S21816   1.192   6.592   4.980 -1.5785 -0.5370 -0.5695
  178DOPC  H18T21817   1.289   6.515   5.123  0.3765  0.5563 -0.6044
  178DOPC   C3321818   1.220   6.363   3.842 -0.5787 -0.5746  0.5446
  178DOPC   H3X21819   1.180   6.449   3.899 -0.2399 -0.2622  0.3157
  178DOPC   H3Y21820   1.306   6.395   3.779 -0.0586  0.2526  1.6348
  178DOPC   C3421821   1.279   6.249   3.933  0.0911 -0.5914 -0.2534
  178DOPC   H4X21822   1.324   6.167   3.873 -0.5586 -1.2376  0.1099
  178DOPC   H4Y21823   1.202   6.187   3.985 -1.5573  2.8151  1.7681
  178DOPC   C3521824   1.402   6.295   4.011 -0.2577 -0.2075 -0.0643
  178DOPC   H5X21825   1.452   6.376   3.954  0.7752 -0.6180  0.2324
  178DOPC   H5Y21826   1.473   6.210   4.020  0.7813  0.6982  0.5306
  178DOPC   C3621827   1.371   6.318   4.161 -0.4813 -0.8653  0.1166
  178DOPC   H6X21828   1.466   6.352   4.207 -2.2549  1.0130  2.6567
  178DOPC   H6Y21829   1.310   6.411   4.165  1.2528  0.4063 -1.3869
  178DOPC   C3721830   1.315   6.204   4.245 -0.5062  0.4042  0.6940
  178DOPC   H7X21831   1.223   6.161   4.199 -0.2301 -1.5143  1.8440
  178DOPC   H7Y21832   1.398   6.132   4.238 -0.7152  0.0032  1.9717
  178DOPC   C3821833   1.288   6.235   4.388 -0.3798 -0.5345 -0.7107
  178DOPC   H8X21834   1.376   6.292   4.425 -0.0382 -2.1487  1.1026
  178DOPC   H8Y21835   1.271   6.142   4.446 -2.0993  0.7468  0.9977
  178DOPC   C3921836   1.160   6.318   4.399 -0.5225  0.2340 -0.5851
  178DOPC   H9X21837   1.063   6.281   4.362 -2.3068  1.1941  2.7270
  178DOPC  C31021838   1.148   6.437   4.462 -0.2894  0.7276  0.0121
  178DOPC  H10X21839   1.052   6.490   4.473  1.3218  3.5142  2.0862
  178DOPC  C31121840   1.270   6.503   4.521 -0.6657 -0.8122 -0.0564
  178DOPC  H11X21841   1.356   6.508   4.450 -0.1487 -1.2961  0.5319
  178DOPC  H11Y21842   1.306   6.446   4.609  1.6561  1.5343  0.6619
  178DOPC  C31221843   1.250   6.652   4.561  0.4200 -0.6442 -0.0346
  178DOPC  H12X21844   1.200   6.704   4.476 -0.0291  2.1296  1.8148
  178DOPC  H12Y21845   1.354   6.689   4.570  1.3024 -3.1251  0.6784
  178DOPC  C31321846   1.184   6.678   4.695 -0.5703 -0.6266 -0.1317
  178DOPC  H13X21847   1.103   6.604   4.711 -1.2617 -0.3371 -2.0035
  178DOPC  H13Y21848   1.237   6.656   4.790  0.0114  1.7407  0.1543
  178DOPC  C31421849   1.138   6.831   4.708  0.0376  0.0611 -0.1684
  178DOPC  H14X21850   1.225   6.893   4.741  0.9089  0.0835 -2.3104
  178DOPC  H14Y21851   1.113   6.862   4.604  0.1079 -2.9583 -1.1739
  178DOPC  C31521852   1.029   6.839   4.821  0.2969  0.2428 -0.1246
  178DOPC  H15X21853   1.057   6.792   4.918 -3.6732  0.1284  1.1651
  178DOPC  H15Y21854   0.945   6.780   4.778  1.5041 -0.4266 -1.6399
  178DOPC  C31621855   0.980   6.973   4.851  0.3682 -0.6949 -0.5603
  178DOPC  H16X21856   1.062   7.038   4.886 -1.9043  1.5230  1.0497
  178DOPC  H16Y21857   0.948   7.029   4.760 -1.1031 -1.1532 -0.3527
  178DOPC  C31721858   0.855   6.990   4.952  0.4722 -0.7750 -0.4017
  178DOPC  H17X21859   0.778   6.922   4.910  1.4713 -1.2864 -1.4653
  178DOPC  H17Y21860   0.886   6.942   5.047  0.6912 -2.9239 -1.4957
  178DOPC  C31821861   0.796   7.133   4.965 -0.5626 -0.4255  0.5870
  178DOPC  H18X21862   0.760   7.162   4.864  1.0612  1.0633  0.3905
  178DOPC  H18Y21863   0.718   7.133   5.044 -1.0998  1.2074  0.1016
  178DOPC  H18Z21864   0.880   7.194   5.004  0.1490 -1.8362  1.3446
  179DOPC     N21865   4.304   3.583   3.177  0.3357  0.4647  0.5371
  179DOPC   C1221866   4.235   3.583   3.309 -0.0652  0.1660  0.1876
  179DOPC  H12A21867   4.267   3.674   3.356 -0.3487  1.1815 -1.5096
  179DOPC  H12B21868   4.277   3.503   3.368 -0.3352 -0.6589 -0.7082
  179DOPC   C1321869   4.456   3.599   3.200  0.3924  0.3998  0.1153
  179DOPC  H13A21870   4.510   3.620   3.109 -1.1172 -0.2616 -0.9755
  179DOPC  H13B21871   4.480   3.680   3.267  0.3755  0.7644 -0.3147
  179DOPC  H13C21872   4.496   3.515   3.256 -2.3395 -1.8133 -1.0335
  179DOPC   C1421873   4.260   3.696   3.098  0.2361  0.2640  0.2040
  179DOPC  H14A21874   4.323   3.704   3.010 -0.0479  1.3951  0.0769
  179DOPC  H14B21875   4.154   3.699   3.075  0.4228 -2.1019 -1.2391
  179DOPC  H14C21876   4.281   3.789   3.149 -1.4991  0.4329  0.6902
  179DOPC   C1521877   4.286   3.452   3.101 -0.0704 -0.2322 -0.2204
  179DOPC  H15A21878   4.339   3.445   3.007  2.1711 -2.2920  1.0802
  179DOPC  H15B21879   4.181   3.439   3.080 -0.1366  0.6036 -0.4677
  179DOPC  H15C21880   4.318   3.364   3.156 -0.1921 -0.0661  0.1218
  179DOPC   C1121881   4.077   3.574   3.318 -0.3072  0.2172  0.3361
  179DOPC  H11A21882   4.047   3.508   3.234  0.3903 -0.4091  0.5662
  179DOPC  H11B21883   4.038   3.539   3.416 -0.3019  2.8585  1.3448
  179DOPC     P21884   4.013   3.804   3.414  0.3517 -0.4099  0.4620
  179DOPC   O1321885   3.964   3.936   3.374  0.9334  0.4200 -0.2141
  179DOPC   O1421886   4.146   3.808   3.472  0.1340  0.5120 -0.0548
  179DOPC   O1221887   4.018   3.700   3.292  0.3622  0.0443 -0.1799
  179DOPC   O1121888   3.914   3.738   3.509  0.6988 -0.7775  0.5487
  179DOPC    C121889   3.775   3.729   3.491 -0.1651 -0.2925 -0.0417
  179DOPC    HA21890   3.739   3.624   3.498 -2.2106  0.4286  1.1171
  179DOPC    HB21891   3.736   3.770   3.395 -4.0732  0.2736  1.5732
  179DOPC    C221892   3.685   3.806   3.595 -0.1989 -0.6777 -0.6751
  179DOPC    HS21893   3.705   3.915   3.592 -0.3768 -0.6295 -0.2507
  179DOPC   O2121894   3.712   3.747   3.722 -0.0578  0.2330  0.0901
  179DOPC   C2121895   3.789   3.814   3.807 -0.3805  0.0517 -1.1361
  179DOPC   O2221896   3.846   3.917   3.779  0.3303 -0.0791  0.1617
  179DOPC   C2221897   3.789   3.754   3.946  0.2930 -0.0589  0.0969
  179DOPC   H2R21898   3.828   3.650   3.938 -4.4836 -1.9700 -1.6739
  179DOPC   H2S21899   3.687   3.748   3.988  0.2692  1.6133  0.3734
  179DOPC    C321900   3.534   3.793   3.571  0.2731 -0.8284  0.0770
  179DOPC    HX21901   3.504   3.688   3.590  3.0347 -2.0218 -1.5596
  179DOPC    HY21902   3.505   3.818   3.467 -1.2129  1.3799  0.9340
  179DOPC   O3121903   3.468   3.880   3.672 -0.0124 -0.5861 -0.6671
  179DOPC   C3121904   3.401   3.983   3.626  0.0116  0.0870 -0.0796
  179DOPC   O3221905   3.390   4.017   3.508  0.4185 -0.0348 -0.4346
  179DOPC   C3221906   3.349   4.054   3.744  0.2610  0.1980 -0.1064
  179DOPC   H2X21907   3.242   4.071   3.719 -0.1964  1.0911  2.2079
  179DOPC   H2Y21908   3.357   4.000   3.840 -1.0151  0.0636 -0.0575
  179DOPC   C2321909   3.893   3.831   4.038  0.5533  0.3424  0.5997
  179DOPC   H3R21910   3.846   3.922   4.080  1.5967  1.5313 -0.7136
  179DOPC   H3S21911   3.975   3.863   3.970 -0.5489 -0.0128 -0.9272
  179DOPC   C2421912   3.949   3.738   4.154  0.0525 -0.4348 -0.2156
  179DOPC   H4R21913   4.035   3.794   4.198 -1.3548  0.1095  1.9993
  179DOPC   H4S21914   3.994   3.648   4.107  0.6055 -0.4217  0.2704
  179DOPC   C2521915   3.851   3.686   4.259  0.1521 -0.2724  0.6310
  179DOPC   H5R21916   3.913   3.629   4.332  2.1991 -1.9302 -2.2100
  179DOPC   H5S21917   3.791   3.607   4.210  0.3629  0.1418 -0.3050
  179DOPC   C2621918   3.757   3.803   4.318 -0.0527  0.8294  0.2301
  179DOPC   H6R21919   3.705   3.838   4.226 -2.2544 -0.7436  0.8001
  179DOPC   H6S21920   3.825   3.879   4.363 -0.1052 -0.0271  1.8055
  179DOPC   C2721921   3.653   3.766   4.426 -0.1033 -0.1637  0.3290
  179DOPC   H7R21922   3.597   3.680   4.383  2.5801 -1.7986 -0.1283
  179DOPC   H7S21923   3.579   3.849   4.427 -0.3155 -0.3135  2.9068
  179DOPC   C2821924   3.708   3.722   4.561 -0.5093  0.2348  0.0387
  179DOPC   H8R21925   3.773   3.803   4.600  0.6098 -2.4910  4.5660
  179DOPC   H8S21926   3.774   3.636   4.536 -0.8939  0.7697 -3.1512
  179DOPC   C2921927   3.599   3.680   4.650  0.9332 -0.3696 -0.4265
  179DOPC   H9R21928   3.501   3.714   4.613  0.6197 -0.6443  0.1381
  179DOPC  C21021929   3.609   3.600   4.762  0.2316 -0.3435  0.2373
  179DOPC  H10R21930   3.520   3.574   4.821  1.1109 -2.2821  0.7994
  179DOPC  C21121931   3.738   3.536   4.818  1.0287  0.2772  0.9506
  179DOPC  H11R21932   3.765   3.588   4.913 -1.9554  1.8656  1.0530
  179DOPC  H11S21933   3.823   3.543   4.747  0.5309 -2.1228  0.0296
  179DOPC  C21221934   3.732   3.383   4.831 -0.1430 -0.7476  0.6592
  179DOPC  H12R21935   3.817   3.340   4.889 -0.5616 -1.3262  0.8564
  179DOPC  H12S21936   3.729   3.347   4.726 -1.2395 -1.4675  0.9141
  179DOPC  C21321937   3.603   3.331   4.897 -0.6477 -0.3361  0.1326
  179DOPC  H13R21938   3.608   3.220   4.894 -0.1506 -0.3054 -0.3286
  179DOPC  H13S21939   3.515   3.356   4.834 -0.6226  0.3874  0.3771
  179DOPC  C21421940   3.579   3.377   5.039 -0.3590 -0.8649 -0.1147
  179DOPC  H14R21941   3.484   3.342   5.085  0.9020 -0.5966  2.9281
  179DOPC  H14S21942   3.578   3.488   5.037 -0.7584 -0.7913  1.9360
  179DOPC  C21521943   3.698   3.339   5.130  0.0042 -0.5236 -0.3029
  179DOPC  H15R21944   3.679   3.381   5.231  1.7527  1.6628 -0.8029
  179DOPC  H15S21945   3.790   3.395   5.103  2.0595 -2.6364  1.7816
  179DOPC  C21621946   3.704   3.186   5.153  0.0414 -0.3994  0.4412
  179DOPC  H16R21947   3.732   3.150   5.052 -0.4875  1.0241 -0.2346
  179DOPC  H16S21948   3.606   3.156   5.196 -1.2253  2.1167 -0.5061
  179DOPC  C21721949   3.812   3.143   5.250  0.3972  0.5191  0.0768
  179DOPC  H17R21950   3.800   3.188   5.351  0.8227 -1.6554  1.1683
  179DOPC  H17S21951   3.906   3.176   5.201  0.7266  1.3926  1.2526
  179DOPC  C21821952   3.819   2.989   5.269  0.1884 -1.1687  0.1348
  179DOPC  H18R21953   3.836   2.936   5.173  2.1257 -3.8803  1.8073
  179DOPC  H18S21954   3.739   2.945   5.333 -0.1758  0.5182  0.8888
  179DOPC  H18T21955   3.912   2.975   5.329  0.7414  1.2068 -0.0544
  179DOPC   C3321956   3.401   4.193   3.769  0.6324 -0.1561  0.0216
  179DOPC   H3X21957   3.348   4.268   3.706  0.3111 -0.1263  0.3243
  179DOPC   H3Y21958   3.509   4.205   3.743 -0.1904  4.5596 -2.2418
  179DOPC   C3421959   3.382   4.233   3.913  0.2504  0.3890 -0.7026
  179DOPC   H4X21960   3.460   4.178   3.970 -0.5455  0.5988  0.6415
  179DOPC   H4Y21961   3.286   4.195   3.953  1.8160 -1.6374  1.3668
  179DOPC   C3521962   3.403   4.374   3.958  0.1291  0.0370  0.0649
  179DOPC   H5X21963   3.411   4.391   4.067 -1.3668  0.9429  0.0527
  179DOPC   H5Y21964   3.318   4.430   3.914 -0.3895  0.6534  1.7796
  179DOPC   C3621965   3.539   4.432   3.913 -0.3859  0.3331 -0.5065
  179DOPC   H6X21966   3.616   4.367   3.960 -2.0211 -0.8265  0.6316
  179DOPC   H6Y21967   3.553   4.421   3.803 -0.2236 -1.1349 -0.3506
  179DOPC   C3721968   3.559   4.578   3.944 -0.6116 -0.2020 -0.1748
  179DOPC   H7X21969   3.478   4.632   3.891 -0.6278  0.3551  0.4030
  179DOPC   H7Y21970   3.565   4.577   4.055 -1.2507 -0.4516 -0.1408
  179DOPC   C3821971   3.693   4.642   3.898 -0.4937  0.0746 -0.1483
  179DOPC   H8X21972   3.696   4.753   3.897  0.7069  0.0693  0.9928
  179DOPC   H8Y21973   3.707   4.629   3.788  0.1270  2.0552 -0.3452
  179DOPC   C3921974   3.828   4.601   3.959 -0.3446 -0.6379  0.4168
  179DOPC   H9X21975   3.868   4.508   3.915 -1.9532 -1.9375  1.5611
  179DOPC  C31021976   3.891   4.673   4.053  0.4832  0.0729  0.4373
  179DOPC  H10X21977   3.993   4.640   4.078  0.2391 -1.0012  0.0661
  179DOPC  C31121978   3.826   4.790   4.130  0.2454 -0.0068  0.3862
  179DOPC  H11X21979   3.747   4.842   4.072  0.6494  2.2252  1.6968
  179DOPC  H11Y21980   3.897   4.875   4.140 -1.1375  0.9873  2.5816
  179DOPC  C31221981   3.745   4.745   4.256 -0.9896 -0.2124  0.3591
  179DOPC  H12X21982   3.679   4.661   4.227 -0.9043 -0.4249  0.7756
  179DOPC  H12Y21983   3.693   4.839   4.285  0.8534  0.8320  0.4558
  179DOPC  C31321984   3.833   4.714   4.377 -0.4383 -0.1621 -0.2087
  179DOPC  H13X21985   3.877   4.614   4.360 -0.7620 -0.5775  1.2436
  179DOPC  H13Y21986   3.918   4.787   4.378 -0.6984  0.1974 -1.8062
  179DOPC  C31421987   3.759   4.704   4.510  0.6062  0.0100  0.1871
  179DOPC  H14X21988   3.840   4.707   4.586  1.5464 -0.8543 -0.7590
  179DOPC  H14Y21989   3.688   4.789   4.518 -1.7357 -1.8232 -0.0508
  179DOPC  C31521990   3.682   4.566   4.528  0.2911 -0.3128  0.4449
  179DOPC  H15X21991   3.750   4.480   4.509 -1.0022 -1.1239 -0.7798
  179DOPC  H15Y21992   3.604   4.562   4.449  2.2427  0.5080 -1.6198
  179DOPC  C31621993   3.623   4.527   4.662  0.3844 -0.9323 -0.5622
  179DOPC  H16X21994   3.701   4.552   4.737  1.9243 -1.1177 -2.0348
  179DOPC  H16Y21995   3.535   4.590   4.688 -0.4842 -1.1703 -2.6882
  179DOPC  C31721996   3.582   4.377   4.673  0.4084  0.1497  0.3010
  179DOPC  H17X21997   3.671   4.310   4.677  0.5370  0.3395  0.6258
  179DOPC  H17Y21998   3.528   4.369   4.770 -0.5069 -0.1922 -0.2272
  179DOPC  C31821999   3.489   4.339   4.558  0.5670  0.2477 -0.8153
  179DOPC  H18X22000   3.533   4.314   4.459  2.2691  1.4147 -0.4009
  179DOPC  H18Y22001   3.424   4.256   4.594 -2.4093  3.1096  0.9331
  179DOPC  H18Z22002   3.406   4.411   4.545  0.0555 -0.4672 -1.5592
  180DOPC     N22003   6.600   3.936   3.119  0.0783 -0.8945  0.3998
  180DOPC   C1222004   6.481   3.875   3.193 -0.2935 -0.0355 -0.0344
  180DOPC  H12A22005   6.472   3.774   3.156 -1.5779 -1.0572  2.7886
  180DOPC  H12B22006   6.389   3.925   3.166 -0.0389  1.0489  0.9930
  180DOPC   C1322007   6.731   3.861   3.147  0.5281 -0.9641  0.2987
  180DOPC  H13A22008   6.816   3.923   3.124  0.1881 -0.6290 -0.0628
  180DOPC  H13B22009   6.730   3.837   3.252 -1.3200  0.5852  0.6943
  180DOPC  H13C22010   6.745   3.774   3.085  2.6481 -0.4650 -0.0044
  180DOPC   C1422011   6.614   4.084   3.163  0.2372  0.2363 -0.3283
  180DOPC  H14A22012   6.517   4.132   3.169  0.4424  0.5086  3.8085
  180DOPC  H14B22013   6.662   4.094   3.259 -0.1872 -0.1419 -0.0741
  180DOPC  H14C22014   6.676   4.134   3.091 -0.2771  0.7729 -0.4076
  180DOPC   C1522015   6.578   3.939   2.971  0.2692 -0.0940 -0.1311
  180DOPC  H15A22016   6.584   3.839   2.929  0.6587  0.1140 -0.5722
  180DOPC  H15B22017   6.638   4.009   2.915 -0.9165  0.9936 -0.0982
  180DOPC  H15C22018   6.479   3.969   2.940  0.0404  0.2326  0.8868
  180DOPC   C1122019   6.497   3.867   3.348  0.3598 -0.1743 -0.1891
  180DOPC  H11A22020   6.509   3.969   3.391  2.3712 -0.4816  0.0431
  180DOPC  H11B22021   6.401   3.834   3.393  1.2416 -2.6490  0.0240
  180DOPC     P22022   6.596   3.621   3.392  0.2647  0.2215  0.0913
  180DOPC   O1322023   6.713   3.561   3.329 -0.1700 -0.3277  0.3148
  180DOPC   O1422024   6.463   3.582   3.338 -0.1453 -0.2982 -0.0142
  180DOPC   O1222025   6.597   3.778   3.397 -0.1264 -0.2426  0.2044
  180DOPC   O1122026   6.600   3.577   3.545 -0.3346  0.7578  0.3178
  180DOPC    C122027   6.524   3.657   3.637 -0.0811 -0.7171 -0.4108
  180DOPC    HA22028   6.439   3.708   3.585  0.9366  0.7757 -0.6720
  180DOPC    HB22029   6.591   3.737   3.675 -0.5512  0.0245 -1.0747
  180DOPC    C222030   6.475   3.565   3.752 -0.0927  0.1622 -0.8775
  180DOPC    HS22031   6.396   3.628   3.798  0.4222  0.4390 -0.3561
  180DOPC   O2122032   6.590   3.551   3.839 -0.1627  0.6692  0.2680
  180DOPC   C2122033   6.550   3.530   3.968 -0.5907  0.7728 -0.0389
  180DOPC   O2222034   6.437   3.545   4.016 -0.3316 -0.2229  0.1379
  180DOPC   C2222035   6.673   3.500   4.052  0.4131  0.2978 -0.1766
  180DOPC   H2R22036   6.774   3.513   4.008  1.6716 -0.2096  2.3674
  180DOPC   H2S22037   6.672   3.391   4.077  0.9433  0.1856 -0.6425
  180DOPC    C322038   6.406   3.435   3.700 -0.3531  0.4387 -0.5453
  180DOPC    HX22039   6.484   3.391   3.634  0.3394  0.7211  0.0752
  180DOPC    HY22040   6.320   3.483   3.648 -0.6176 -0.2866 -0.7829
  180DOPC   O3122041   6.375   3.348   3.806 -0.0968  0.6832  0.0271
  180DOPC   C3122042   6.251   3.350   3.859  0.8789  0.4345  0.0785
  180DOPC   O3222043   6.155   3.416   3.819 -0.3444  0.5575  0.2340
  180DOPC   C3222044   6.249   3.258   3.982 -0.2511 -0.8530  0.2061
  180DOPC   H2X22045   6.247   3.154   3.945  2.4464 -0.8377 -0.1641
  180DOPC   H2Y22046   6.330   3.276   4.056 -1.0258  0.4712  0.7871
  180DOPC   C2322047   6.677   3.586   4.184 -0.7800  0.3784  0.1763
  180DOPC   H3R22048   6.576   3.592   4.230 -0.3537  0.2014  1.1423
  180DOPC   H3S22049   6.727   3.684   4.169 -0.4446  1.0143  4.2732
  180DOPC   C2422050   6.758   3.515   4.292  0.0956 -0.4993  0.2862
  180DOPC   H4R22051   6.862   3.490   4.264  0.4098 -0.9234  1.7390
  180DOPC   H4S22052   6.716   3.414   4.315  1.0373 -0.4150  2.6469
  180DOPC   C2522053   6.790   3.610   4.411 -0.6582  0.0772 -0.1820
  180DOPC   H5R22054   6.695   3.604   4.469  0.1072  0.5494  1.1703
  180DOPC   H5S22055   6.803   3.715   4.377 -0.4364  0.2081  0.3008
  180DOPC   C2622056   6.910   3.559   4.490 -0.7336  0.0734 -0.5732
  180DOPC   H6R22057   6.992   3.543   4.416 -0.5975 -1.0551 -0.1910
  180DOPC   H6S22058   6.883   3.465   4.542  0.2139  1.4367  2.6372
  180DOPC   C2722059   6.959   3.654   4.602  0.0143 -0.0317  0.7459
  180DOPC   H7R22060   6.888   3.649   4.688 -0.4570  2.7759  0.5960
  180DOPC   H7S22061   6.946   3.760   4.573  1.7670 -0.0951 -0.4600
  180DOPC   C2822062   7.108   3.630   4.652  0.2416  0.4260  0.8297
  180DOPC   H8R22063   7.134   3.715   4.719  0.5766  2.9594 -2.2585
  180DOPC   H8S22064   7.170   3.630   4.559  1.7749 -0.6205  1.8070
  180DOPC   C2922065   7.115   3.500   4.733 -0.2520 -0.1955 -0.7913
  180DOPC   H9R22066   7.108   3.411   4.668  2.7766 -0.2211 -1.2639
  180DOPC  C21022067   7.127   3.478   4.864  0.3116 -0.7373  0.1270
  180DOPC  H10R22068   7.126   3.378   4.910 -0.2379 -0.4234  0.8369
  180DOPC  C21122069   7.141   3.581   4.975  0.0461  0.0248  0.5367
  180DOPC  H11R22070   7.081   3.670   4.945 -0.5620 -0.1633  1.1732
  180DOPC  H11S22071   7.246   3.613   4.989 -0.0220  1.7857 -2.1344
  180DOPC  C21222072   7.076   3.516   5.104 -0.3003 -0.5108  0.5945
  180DOPC  H12R22073   7.137   3.426   5.126  2.1236  1.1858  1.1984
  180DOPC  H12S22074   6.970   3.491   5.085 -0.0306 -1.8419  0.7375
  180DOPC  C21322075   7.066   3.621   5.221 -0.9908 -0.0851  0.1111
  180DOPC  H13R22076   6.984   3.677   5.173 -0.5039 -0.0588 -0.7052
  180DOPC  H13S22077   7.162   3.676   5.229 -0.4261 -0.7839 -1.5778
  180DOPC  C21422078   7.027   3.566   5.360 -0.2030 -0.3170 -0.0803
  180DOPC  H14R22079   7.026   3.658   5.422  1.5575  0.4965 -1.1835
  180DOPC  H14S22080   7.102   3.490   5.394  0.5044  0.1801 -0.5085
  180DOPC  C21522081   6.888   3.506   5.352  0.3074  0.1250  0.9196
  180DOPC  H15R22082   6.859   3.461   5.254 -1.1891  1.3321  0.7775
  180DOPC  H15S22083   6.825   3.597   5.352  1.3193  0.8364  0.8465
  180DOPC  C21622084   6.863   3.392   5.456  0.2188  1.1152  0.5072
  180DOPC  H16R22085   6.947   3.320   5.445  0.3909  1.4202 -0.2726
  180DOPC  H16S22086   6.773   3.334   5.428  2.1277 -1.9763  0.2725
  180DOPC  C21722087   6.847   3.436   5.601  0.2620  0.0889  0.0355
  180DOPC  H17R22088   6.743   3.474   5.618 -0.1833 -1.5051  1.0787
  180DOPC  H17S22089   6.919   3.520   5.609  1.2984 -0.9026  1.5704
  180DOPC  C21822090   6.880   3.327   5.700 -0.0486 -0.1589 -0.3517
  180DOPC  H18R22091   6.825   3.235   5.670 -1.0038 -0.7013  2.6874
  180DOPC  H18S22092   6.847   3.355   5.802 -1.0895  1.7164 -1.1593
  180DOPC  H18T22093   6.990   3.312   5.699 -0.1781 -1.2063 -1.1780
  180DOPC   C3322094   6.119   3.276   4.062 -0.1533 -0.6655 -0.3628
  180DOPC   H3X22095   6.034   3.291   3.993  1.8130  0.7142 -2.6244
  180DOPC   H3Y22096   6.124   3.371   4.118  2.2906 -1.4805  0.9430
  180DOPC   C3422097   6.103   3.170   4.175  0.2047 -0.1967 -1.1336
  180DOPC   H4X22098   6.175   3.201   4.254 -3.0045  2.8870  0.8616
  180DOPC   H4Y22099   6.131   3.068   4.142  1.5661 -0.3932  0.4670
  180DOPC   C3522100   5.962   3.166   4.241 -0.3253  0.0844 -0.3347
  180DOPC   H5X22101   5.893   3.136   4.159 -1.2083  0.4787  0.2498
  180DOPC   H5Y22102   5.930   3.265   4.280 -0.8929 -0.2087 -0.0408
  180DOPC   C3622103   5.951   3.063   4.356  0.3595 -0.5330  0.2748
  180DOPC   H6X22104   5.980   2.960   4.328  3.9341  0.5248 -0.3996
  180DOPC   H6Y22105   6.028   3.068   4.436 -2.1051 -3.1079  3.0695
  180DOPC   C3722106   5.812   3.043   4.424 -0.2625 -0.3415  0.1270
  180DOPC   H7X22107   5.837   3.018   4.529 -0.5245 -1.2050 -0.0081
  180DOPC   H7Y22108   5.764   3.142   4.435  1.5971  0.5467  0.7713
  180DOPC   C3822109   5.708   2.948   4.351 -0.6613 -0.9120 -0.0505
  180DOPC   H8X22110   5.695   2.975   4.244 -1.4485 -1.4670 -0.1022
  180DOPC   H8Y22111   5.617   2.977   4.407 -0.7266  0.3223 -0.7595
  180DOPC   C3922112   5.724   2.804   4.358  0.8923 -0.1366 -0.3259
  180DOPC   H9X22113   5.823   2.764   4.385  0.5808 -0.7273 -0.0233
  180DOPC  C31022114   5.620   2.723   4.349  0.0875 -0.1181  0.7638
  180DOPC  H10X22115   5.641   2.615   4.359  1.0841 -0.1034 -0.8802
  180DOPC  C31122116   5.470   2.749   4.338 -0.1065 -0.1198 -0.3290
  180DOPC  H11X22117   5.451   2.857   4.357  0.2613 -0.1961  0.4750
  180DOPC  H11Y22118   5.420   2.696   4.422  3.1075 -1.9413  0.5712
  180DOPC  C31222119   5.406   2.714   4.201 -0.4185 -0.7506 -0.0132
  180DOPC  H12X22120   5.296   2.727   4.207 -0.6264 -2.4039  0.2776
  180DOPC  H12Y22121   5.425   2.607   4.178 -1.3793 -1.2424  1.3824
  180DOPC  C31322122   5.451   2.818   4.093  0.7492 -0.1908  0.0573
  180DOPC  H13X22123   5.424   2.917   4.136  0.2540  0.2628 -1.2479
  180DOPC  H13Y22124   5.561   2.818   4.078  0.6172  1.2825 -1.1401
  180DOPC  C31422125   5.380   2.800   3.962  0.3126 -0.6086  0.2208
  180DOPC  H14X22126   5.423   2.872   3.889  0.1759 -0.5868  0.1596
  180DOPC  H14Y22127   5.394   2.699   3.918  0.4121 -1.4600  2.1061
  180DOPC  C31522128   5.230   2.823   3.961 -0.7963 -0.2815  0.5542
  180DOPC  H15X22129   5.215   2.917   4.017 -1.0272  1.1788 -1.8088
  180DOPC  H15Y22130   5.189   2.741   4.024 -1.1877 -0.4351  0.1069
  180DOPC  C31622131   5.178   2.832   3.817  0.0580  0.4818  0.4051
  180DOPC  H16X22132   5.239   2.906   3.761  1.3940 -1.8163 -1.3875
  180DOPC  H16Y22133   5.158   2.739   3.758 -3.4085  1.7669 -0.7221
  180DOPC  C31722134   5.037   2.886   3.828 -0.1776  0.0124 -0.0810
  180DOPC  H17X22135   4.991   2.823   3.907  0.1369 -0.7595 -0.5041
  180DOPC  H17Y22136   5.040   2.991   3.863 -0.0156 -0.0398  0.0620
  180DOPC  C31822137   4.949   2.876   3.696 -0.1182  0.1383  0.7176
  180DOPC  H18X22138   4.907   2.777   3.668 -0.5539  0.5485 -0.1279
  180DOPC  H18Y22139   4.857   2.938   3.704  0.3220  1.0887 -1.0173
  180DOPC  H18Z22140   4.988   2.924   3.604 -2.4718  1.4022  0.2801
  181DOPC     N22141   6.700   3.507   2.732 -0.6168  0.0861  0.3587
  181DOPC   C1222142   6.751   3.369   2.751 -0.3456  0.0056 -0.1882
  181DOPC  H12A22143   6.782   3.345   2.852 -1.4156 -0.6681  0.0035
  181DOPC  H12B22144   6.833   3.346   2.685 -1.0918 -0.9508 -0.8322
  181DOPC   C1322145   6.668   3.538   2.586 -0.2601 -0.3936 -0.5596
  181DOPC  H13A22146   6.653   3.644   2.571  2.3689  0.0203 -0.8529
  181DOPC  H13B22147   6.754   3.506   2.529  1.1810  1.4292  0.4745
  181DOPC  H13C22148   6.579   3.482   2.564 -1.6830  1.5552 -0.0245
  181DOPC   C1422149   6.812   3.597   2.759  0.3340  0.0975 -0.1657
  181DOPC  H14A22150   6.903   3.558   2.716 -0.1586 -0.4400 -0.7412
  181DOPC  H14B22151   6.790   3.700   2.734  1.6974  0.9579  1.8196
  181DOPC  H14C22152   6.825   3.596   2.867  0.6244 -0.1215 -0.2009
  181DOPC   C1522153   6.579   3.549   2.816 -0.0145 -0.1110  0.2840
  181DOPC  H15A22154   6.495   3.496   2.773 -0.0725  0.9993 -1.0402
  181DOPC  H15B22155   6.572   3.656   2.807 -0.5177 -0.0660  1.0554
  181DOPC  H15C22156   6.605   3.528   2.919  2.0410  0.2449 -0.1192
  181DOPC   C1122157   6.643   3.261   2.726 -0.1056 -0.3367 -0.4357
  181DOPC  H11A22158   6.581   3.296   2.641 -1.2610 -1.3071 -0.0191
  181DOPC  H11B22159   6.679   3.163   2.687 -1.2906 -1.8667  2.0333
  181DOPC     P22160   6.630   3.155   2.967 -0.5915  0.0097 -0.2293
  181DOPC   O1322161   6.747   3.229   3.015 -0.4861  0.2899  0.4967
  181DOPC   O1422162   6.652   3.019   2.926 -0.0119  0.3398  0.4347
  181DOPC   O1222163   6.568   3.237   2.845 -0.3207  0.3221  0.0253
  181DOPC   O1122164   6.510   3.167   3.072 -0.4467  0.4541  0.4185
  181DOPC    C122165   6.532   3.218   3.205 -0.1965  0.2231  0.6107
  181DOPC    HA22166   6.428   3.213   3.244 -1.2127 -2.4632 -2.0696
  181DOPC    HB22167   6.550   3.328   3.196 -1.2917  0.4861  1.4427
  181DOPC    C222168   6.626   3.142   3.296  0.1061 -0.4338 -0.2832
  181DOPC    HS22169   6.732   3.147   3.261 -0.4979  0.4851 -2.1273
  181DOPC   O2122170   6.585   3.009   3.308  0.6317  0.3155 -0.2968
  181DOPC   C2122171   6.682   2.919   3.290  0.1424  0.8802  0.2322
  181DOPC   O2222172   6.798   2.940   3.261 -0.1943  0.3372  0.6353
  181DOPC   C2222173   6.633   2.790   3.350  0.3333  0.3134 -0.0554
  181DOPC   H2R22174   6.538   2.751   3.307  0.1401 -0.0406  0.6789
  181DOPC   H2S22175   6.623   2.796   3.461  4.3514 -0.8157  0.5188
  181DOPC    C322176   6.636   3.194   3.444 -0.4451 -0.4244  0.0718
  181DOPC    HX22177   6.529   3.195   3.476 -1.2132 -1.9149 -2.1934
  181DOPC    HY22178   6.681   3.294   3.458 -0.2795 -0.7271  1.9463
  181DOPC   O3122179   6.699   3.098   3.534 -0.4015 -0.3859 -0.1736
  181DOPC   C3122180   6.834   3.099   3.520 -0.2178 -0.3079  0.4097
  181DOPC   O3222181   6.891   3.174   3.443  0.3305 -0.8037  0.0987
  181DOPC   C3222182   6.900   3.006   3.617  0.6894 -0.2723 -0.7444
  181DOPC   H2X22183   6.921   3.062   3.710 -1.7982 -0.0021 -0.2796
  181DOPC   H2Y22184   6.819   2.936   3.645 -0.8740  2.5223  2.4480
  181DOPC   C2322185   6.739   2.676   3.321 -0.4165  0.0074 -0.5213
  181DOPC   H3R22186   6.840   2.706   3.357 -1.7370  2.9551  1.1551
  181DOPC   H3S22187   6.756   2.659   3.213 -1.1274  0.6363 -0.7430
  181DOPC   C2422188   6.695   2.546   3.392  0.0665 -0.1086  0.6578
  181DOPC   H4R22189   6.659   2.563   3.496 -0.5244 -1.1688  0.6472
  181DOPC   H4S22190   6.778   2.473   3.403 -1.5734 -2.0874  0.7043
  181DOPC   C2522191   6.579   2.488   3.309  0.0675  0.2480 -0.1631
  181DOPC   H5R22192   6.611   2.499   3.204 -1.1399  1.1931 -0.4458
  181DOPC   H5S22193   6.485   2.547   3.312 -0.9559 -1.2428 -1.2349
  181DOPC   C2622194   6.554   2.337   3.352  0.2571  0.1399 -1.0751
  181DOPC   H6R22195   6.445   2.320   3.361 -0.1727  1.9754 -2.0921
  181DOPC   H6S22196   6.602   2.310   3.448 -0.6575 -0.1383 -0.6910
  181DOPC   C2722197   6.628   2.253   3.248  0.1442 -0.0242 -0.4547
  181DOPC   H7R22198   6.731   2.282   3.277 -0.7973  1.5071  1.6710
  181DOPC   H7S22199   6.604   2.281   3.144 -2.5263 -2.7714 -0.7371
  181DOPC   C2822200   6.605   2.105   3.270 -0.6106  0.3952 -0.7404
  181DOPC   H8R22201   6.648   2.082   3.370 -1.2587  1.6733 -0.1354
  181DOPC   H8S22202   6.685   2.049   3.217  1.5111  0.4727  2.1162
  181DOPC   C2922203   6.465   2.055   3.250 -0.6392 -0.7301 -0.2904
  181DOPC   H9R22204   6.438   2.070   3.144 -2.1197  0.5889  0.2392
  181DOPC  C21022205   6.377   2.009   3.341  0.5457  0.0645  0.6850
  181DOPC  H10R22206   6.277   1.979   3.307 -0.0320  2.0021  0.5778
  181DOPC  C21122207   6.405   1.997   3.490 -0.3545  0.5856 -0.1908
  181DOPC  H11R22208   6.483   2.069   3.525 -1.3686  1.9317 -0.6119
  181DOPC  H11S22209   6.444   1.894   3.502 -2.2376 -0.1381 -0.0142
  181DOPC  C21222210   6.275   2.009   3.577  0.1053 -0.0816  0.6732
  181DOPC  H12R22211   6.210   2.096   3.555 -0.8997 -0.3788  2.2792
  181DOPC  H12S22212   6.317   2.009   3.680 -0.9503  2.2232  1.1517
  181DOPC  C21322213   6.183   1.882   3.565  0.3588 -0.0638 -0.1626
  181DOPC  H13R22214   6.114   1.896   3.479 -0.0615  0.9231  0.3143
  181DOPC  H13S22215   6.116   1.881   3.654 -1.5861 -1.8670 -1.5333
  181DOPC  C21422216   6.242   1.738   3.551  0.4125 -0.6600 -0.5851
  181DOPC  H14R22217   6.333   1.739   3.613 -0.6326  3.4347  1.2214
  181DOPC  H14S22218   6.265   1.717   3.444  0.9061  2.0169 -1.0895
  181DOPC  C21522219   6.149   1.629   3.609 -0.2646  0.3063  0.2322
  181DOPC  H15R22220   6.187   1.529   3.579  1.0227  0.5674  0.9274
  181DOPC  H15S22221   6.047   1.648   3.569  0.5514 -0.6998 -2.5840
  181DOPC  C21622222   6.148   1.627   3.769  0.6757 -0.6895  0.3322
  181DOPC  H16R22223   6.108   1.719   3.817  1.2412 -0.7278  0.8788
  181DOPC  H16S22224   6.254   1.618   3.802  0.1400 -0.1128  2.3676
  181DOPC  C21722225   6.064   1.513   3.833  0.3611  0.5289 -0.2640
  181DOPC  H17R22226   6.108   1.417   3.799  0.1675  0.1141  0.6268
  181DOPC  H17S22227   5.962   1.515   3.789  0.2326  4.3785 -0.1975
  181DOPC  C21822228   6.051   1.516   3.985  0.5761  0.0716  0.6589
  181DOPC  H18R22229   6.145   1.516   4.045  2.3234  1.8224 -1.8598
  181DOPC  H18S22230   5.994   1.426   4.015 -0.1632  0.5787  0.8056
  181DOPC  H18T22231   5.980   1.596   4.013 -0.6830  0.0310 -2.0772
  181DOPC   C3322232   7.014   2.918   3.561  0.1897  0.2656 -0.1280
  181DOPC   H3X22233   7.097   2.974   3.513  0.9633 -2.6447 -2.5294
  181DOPC   H3Y22234   6.969   2.871   3.471 -2.5235  0.7615  0.8626
  181DOPC   C3422235   7.069   2.816   3.667 -0.7499  0.3797  0.3450
  181DOPC   H4X22236   6.981   2.758   3.702 -0.2223 -0.7010 -0.0963
  181DOPC   H4Y22237   7.113   2.855   3.761 -0.9946 -0.4825  0.8296
  181DOPC   C3522238   7.166   2.707   3.611 -0.2086 -0.7344 -0.7574
  181DOPC   H5X22239   7.262   2.747   3.570 -0.2679 -0.9852 -1.1487
  181DOPC   H5Y22240   7.113   2.661   3.525 -0.5993  2.2711 -2.2887
  181DOPC   C3622241   7.203   2.614   3.724 -0.2047 -0.0486  0.4805
  181DOPC   H6X22242   7.254   2.665   3.808  0.0067  0.0276  0.3058
  181DOPC   H6Y22243   7.108   2.582   3.773 -1.7487  0.8940 -1.7286
  181DOPC   C3722244   7.286   2.496   3.670 -0.1190 -0.0567  0.5209
  181DOPC   H7X22245   7.237   2.436   3.590 -1.2279 -0.7838  1.6833
  181DOPC   H7Y22246   7.377   2.538   3.623  0.3394  0.8513  2.1277
  181DOPC   C3822247   7.323   2.396   3.781  0.4581 -0.0239  0.5305
  181DOPC   H8X22248   7.381   2.459   3.852  1.0145  0.1909 -0.1083
  181DOPC   H8Y22249   7.388   2.320   3.732 -1.0136 -2.3898  2.0043
  181DOPC   C3922250   7.212   2.316   3.845  0.4716 -0.1372  0.4571
  181DOPC   H9X22251   7.172   2.240   3.776 -1.9936 -0.1371  1.7892
  181DOPC  C31022252   7.160   2.324   3.968  0.6886  0.8350  0.0860
  181DOPC  H10X22253   7.088   2.252   4.010  0.8290  1.0256  0.6558
  181DOPC  C31122254   7.210   2.415   4.072  0.0454  0.3963 -0.5842
  181DOPC  H11X22255   7.295   2.475   4.034 -0.3770  0.7847 -0.9300
  181DOPC  H11Y22256   7.249   2.370   4.166 -2.1652  1.6216  1.0071
  181DOPC  C31222257   7.119   2.527   4.110 -0.1038 -0.2014 -0.0108
  181DOPC  H12X22258   7.041   2.473   4.167 -1.6791 -0.2731 -2.1129
  181DOPC  H12Y22259   7.067   2.594   4.038 -1.8705  0.0266  1.4036
  181DOPC  C31322260   7.181   2.623   4.214  1.2278 -0.2978 -0.7283
  181DOPC  H13X22261   7.238   2.556   4.281  1.1686 -0.0816 -0.4568
  181DOPC  H13Y22262   7.250   2.694   4.162  0.5804 -0.7295 -2.2444
  181DOPC  C31422263   7.081   2.715   4.281 -0.1224  0.1146 -0.3382
  181DOPC  H14X22264   7.013   2.759   4.205  0.2485 -1.4862 -1.6451
  181DOPC  H14Y22265   7.026   2.655   4.357  0.9307 -1.4327 -0.7645
  181DOPC  C31522266   7.156   2.830   4.357 -0.0109  0.5336 -0.4076
  181DOPC  H15X22267   7.192   2.915   4.295  0.2210  0.8660  0.1726
  181DOPC  H15Y22268   7.247   2.794   4.410 -0.5905 -1.3744 -0.6483
  181DOPC  C31622269   7.060   2.892   4.458 -0.1329 -0.0003  0.4947
  181DOPC  H16X22270   6.960   2.911   4.414 -0.9189 -1.6276  1.4784
  181DOPC  H16Y22271   7.041   2.815   4.536  1.1090 -2.7941 -1.7618
  181DOPC  C31722272   7.109   3.015   4.519  0.7108 -0.3384 -0.8183
  181DOPC  H17X22273   7.196   2.985   4.581 -0.8528 -4.6399 -0.2957
  181DOPC  H17Y22274   7.151   3.082   4.442 -0.3625  3.0654  1.3521
  181DOPC  C31822275   7.004   3.088   4.605 -0.3628 -0.3444 -0.2150
  181DOPC  H18X22276   6.986   3.027   4.696 -2.0018 -0.4534 -0.5748
  181DOPC  H18Y22277   7.044   3.190   4.621 -0.5539 -0.5433  1.7135
  181DOPC  H18Z22278   6.903   3.104   4.560 -0.3154 -0.2649 -0.2925
  182DOPC     N22279   1.450   0.773   3.116 -0.3534 -0.0996  1.1139
  182DOPC   C1222280   1.468   0.850   3.252 -0.5105 -0.3320  0.6262
  182DOPC  H12A22281   1.371   0.883   3.284 -0.3166  1.6160 -0.6297
  182DOPC  H12B22282   1.528   0.937   3.229  1.2154 -1.6788 -0.2574
  182DOPC   C1322283   1.380   0.649   3.147  0.1628 -0.1098 -0.1338
  182DOPC  H13A22284   1.282   0.666   3.191  0.4939  1.8295 -0.0484
  182DOPC  H13B22285   1.362   0.587   3.060  1.7458 -1.0770  0.2078
  182DOPC  H13C22286   1.434   0.597   3.224 -1.1312  0.1459  0.9994
  182DOPC   C1422287   1.580   0.743   3.045 -0.5710 -0.5156  0.3927
  182DOPC  H14A22288   1.638   0.687   3.117 -1.3829 -0.1290  1.3726
  182DOPC  H14B22289   1.569   0.679   2.959 -1.5137 -1.3584  1.1089
  182DOPC  H14C22290   1.631   0.829   3.005  0.0559 -1.3768 -0.7167
  182DOPC   C1522291   1.365   0.855   3.031  0.0439  0.2625  0.0826
  182DOPC  H15A22292   1.286   0.893   3.093  0.6552 -0.1582  1.1345
  182DOPC  H15B22293   1.310   0.799   2.956 -1.4607  1.0941  0.5374
  182DOPC  H15C22294   1.413   0.942   2.989  0.1922 -0.8511 -2.2496
  182DOPC   C1122295   1.541   0.775   3.373  0.0184 -0.1059  0.0410
  182DOPC  H11A22296   1.539   0.846   3.458 -1.0124 -0.1853  0.0886
  182DOPC  H11B22297   1.481   0.685   3.395  0.9252 -0.5596  0.7233
  182DOPC     P22298   1.743   0.607   3.380 -0.0149  0.0620  0.2543
  182DOPC   O1322299   1.886   0.633   3.402 -0.2306  0.4432 -0.1059
  182DOPC   O1422300   1.707   0.498   3.286  0.0476  0.4124 -1.0811
  182DOPC   O1222301   1.672   0.732   3.330 -0.2117 -0.3017  0.1085
  182DOPC   O1122302   1.671   0.587   3.515 -0.4153  0.6475  0.1037
  182DOPC    C122303   1.707   0.652   3.636  0.2207 -0.2530 -0.0513
  182DOPC    HA22304   1.694   0.759   3.609 -4.7020 -1.2834 -2.9002
  182DOPC    HB22305   1.807   0.623   3.676 -0.4393 -0.5479  1.4538
  182DOPC    C222306   1.613   0.633   3.752  1.4398  0.1770 -0.3773
  182DOPC    HS22307   1.620   0.527   3.786  1.6915  0.7448  1.4220
  182DOPC   O2122308   1.478   0.670   3.712 -0.2655 -0.0190  0.4560
  182DOPC   C2122309   1.392   0.575   3.684 -0.8648 -0.1464 -0.1140
  182DOPC   O2222310   1.421   0.453   3.676 -0.1190 -0.1279  0.2034
  182DOPC   C2222311   1.255   0.632   3.634 -0.5376 -0.3629 -1.2660
  182DOPC   H2R22312   1.201   0.557   3.573  1.0365  0.6024 -4.0436
  182DOPC   H2S22313   1.277   0.712   3.560  2.1104  0.8008  0.6236
  182DOPC    C322314   1.646   0.737   3.873  0.4025  0.3231  0.9019
  182DOPC    HX22315   1.601   0.831   3.836 -1.8965 -1.2196 -0.4733
  182DOPC    HY22316   1.755   0.760   3.880  0.2565  1.1629  0.4896
  182DOPC   O3122317   1.583   0.700   4.000 -0.1293  0.0048  0.4118
  182DOPC   C3122318   1.650   0.614   4.072  0.3361  0.2245 -0.7641
  182DOPC   O3222319   1.750   0.553   4.042  0.4090  0.4465 -0.7120
  182DOPC   C3222320   1.589   0.611   4.215  0.5361 -0.1907  0.3777
  182DOPC   H2X22321   1.588   0.712   4.260  0.6511 -1.3483  3.1731
  182DOPC   H2Y22322   1.483   0.581   4.202  1.3610 -2.5085 -1.8048
  182DOPC   C2322323   1.160   0.675   3.756 -0.7874 -0.1622  0.1804
  182DOPC   H3R22324   1.067   0.707   3.704 -2.0941 -0.4980  2.1976
  182DOPC   H3S22325   1.204   0.764   3.807 -1.4367 -0.3462  1.0823
  182DOPC   C2422326   1.132   0.558   3.858  0.4665 -0.6851  0.2027
  182DOPC   H4R22327   1.223   0.502   3.887  2.3222  1.8749 -0.3593
  182DOPC   H4S22328   1.074   0.489   3.793  1.8413  1.3642 -3.5011
  182DOPC   C2522329   1.047   0.586   3.983  0.2647 -0.1561  0.6738
  182DOPC   H5R22330   1.016   0.487   4.023 -1.0804  0.2543  0.6791
  182DOPC   H5S22331   0.950   0.637   3.965  0.6471 -0.1755 -1.7882
  182DOPC   C2622332   1.120   0.655   4.098  0.0664 -0.0246  0.4058
  182DOPC   H6R22333   1.134   0.761   4.066 -0.8686 -0.7353 -2.6874
  182DOPC   H6S22334   1.214   0.597   4.110  0.0512 -0.2795 -0.6269
  182DOPC   C2722335   1.061   0.646   4.231  0.3508 -0.1128 -0.3964
  182DOPC   H7R22336   1.019   0.547   4.258 -2.2551  0.4421 -2.0869
  182DOPC   H7S22337   0.972   0.712   4.232  0.5206  0.1152  0.3820
  182DOPC   C2822338   1.143   0.706   4.354  0.0163 -0.1008  0.5803
  182DOPC   H8R22339   1.223   0.633   4.382  0.9455  0.6973  0.0602
  182DOPC   H8S22340   1.085   0.733   4.445  0.2450  0.8482  0.4504
  182DOPC   C2922341   1.227   0.820   4.303  0.3095 -0.6430 -0.0801
  182DOPC   H9R22342   1.307   0.796   4.232  1.2023  1.9253 -0.0662
  182DOPC  C21022343   1.230   0.947   4.345 -0.2683 -0.3278  0.2267
  182DOPC  H10R22344   1.298   1.018   4.296 -0.6471  0.7850  1.2450
  182DOPC  C21122345   1.153   1.007   4.461  1.2094  0.3804 -0.1443
  182DOPC  H11R22346   1.217   1.040   4.546  1.5752  1.0971 -0.6843
  182DOPC  H11S22347   1.074   0.937   4.493  2.9926 -1.9475 -0.5967
  182DOPC  C21222348   1.082   1.140   4.414  0.5853 -0.3332 -0.0099
  182DOPC  H12R22349   0.985   1.147   4.468  2.0786 -0.9037  2.9898
  182DOPC  H12S22350   1.046   1.124   4.310 -0.5146  1.9449 -0.0315
  182DOPC  C21322351   1.186   1.254   4.447  0.0926  0.5101  0.5096
  182DOPC  H13R22352   1.276   1.231   4.386 -0.9725 -0.0577 -0.9155
  182DOPC  H13S22353   1.206   1.251   4.556 -0.2277 -1.5926  0.5562
  182DOPC  C21422354   1.140   1.391   4.410 -0.3359  0.0088  0.0632
  182DOPC  H14R22355   1.208   1.460   4.464 -0.5104  0.4666 -0.2910
  182DOPC  H14S22356   1.037   1.398   4.452 -0.1566  0.4854  0.4356
  182DOPC  C21522357   1.158   1.418   4.262 -0.0369  0.4505 -0.9999
  182DOPC  H15R22358   1.116   1.337   4.198 -2.1316  0.2870  0.5029
  182DOPC  H15S22359   1.265   1.434   4.236 -0.2187  1.6657 -1.0247
  182DOPC  C21622360   1.088   1.551   4.219 -0.0922 -0.2597 -0.0157
  182DOPC  H16R22361   1.141   1.585   4.128  0.6798 -0.1837  0.4570
  182DOPC  H16S22362   1.102   1.628   4.298  0.0939  0.2920 -0.5809
  182DOPC  C21722363   0.940   1.533   4.186 -0.3324  0.1127 -0.1526
  182DOPC  H17R22364   0.885   1.490   4.272 -0.1328 -0.7878 -0.4597
  182DOPC  H17S22365   0.933   1.459   4.103 -0.0221 -0.2810  0.1698
  182DOPC  C21822366   0.871   1.662   4.136  0.1296 -0.2473  0.0277
  182DOPC  H18R22367   0.886   1.739   4.215  2.2555  0.7479 -1.2776
  182DOPC  H18S22368   0.761   1.647   4.127  0.3322 -2.6421  0.6220
  182DOPC  H18T22369   0.925   1.703   4.048  2.0785 -0.5040  1.0432
  182DOPC   C3322370   1.651   0.502   4.308  0.2928  0.3851  1.0550
  182DOPC   H3X22371   1.658   0.406   4.252 -0.1545 -0.3245  2.1521
  182DOPC   H3Y22372   1.577   0.490   4.391  0.9046  1.8437  1.8513
  182DOPC   C3422373   1.790   0.527   4.372  0.3071  0.5459 -0.1001
  182DOPC   H4X22374   1.787   0.625   4.425  3.1474  0.5574  0.1788
  182DOPC   H4Y22375   1.869   0.528   4.295  1.5788 -1.1161  1.1163
  182DOPC   C3522376   1.830   0.416   4.468  0.9988  0.6353 -0.1263
  182DOPC   H5X22377   1.915   0.443   4.535 -1.6847  0.8644  3.4920
  182DOPC   H5Y22378   1.866   0.328   4.411 -1.0473 -0.7980  0.6606
  182DOPC   C3622379   1.722   0.377   4.569  0.1632  0.3635  0.1038
  182DOPC   H6X22380   1.641   0.323   4.517 -0.8150  1.2456  0.6835
  182DOPC   H6Y22381   1.776   0.306   4.636 -0.8543 -1.9115 -1.3778
  182DOPC   C3722382   1.661   0.490   4.650  0.3954 -0.1842 -0.3434
  182DOPC   H7X22383   1.735   0.553   4.704 -0.6830  0.7033  0.1377
  182DOPC   H7Y22384   1.613   0.559   4.578 -1.5284 -2.0344 -0.9137
  182DOPC   C3822385   1.567   0.437   4.767  0.6949 -0.2354  0.5305
  182DOPC   H8X22386   1.558   0.514   4.847 -1.9508 -0.7152  0.7903
  182DOPC   H8Y22387   1.600   0.342   4.814  0.0095 -0.6363  0.2251
  182DOPC   C3922388   1.422   0.415   4.706 -1.1366  0.3603  0.7710
  182DOPC   H9X22389   1.429   0.420   4.596  0.0894 -2.0345  0.6736
  182DOPC  C31022390   1.302   0.424   4.770  0.1298 -1.1639 -0.2826
  182DOPC  H10X22391   1.208   0.392   4.723 -0.2662  1.9113 -1.8268
  182DOPC  C31122392   1.301   0.427   4.928 -0.2708  0.4541  0.1976
  182DOPC  H11X22393   1.394   0.380   4.966 -1.0295 -0.6374  0.7647
  182DOPC  H11Y22394   1.223   0.353   4.953 -1.6554  0.8058 -2.6385
  182DOPC  C31222395   1.267   0.549   5.006  0.1443  0.0622  0.3608
  182DOPC  H12X22396   1.176   0.592   4.960  1.7391  1.1306 -1.9804
  182DOPC  H12Y22397   1.346   0.627   4.996  0.2492 -0.0648  0.2046
  182DOPC  C31322398   1.244   0.527   5.155  0.4164  0.2522 -0.1324
  182DOPC  H13X22399   1.171   0.446   5.176 -0.0977  1.1610  1.8009
  182DOPC  H13Y22400   1.342   0.501   5.202 -0.9426 -0.2663  2.5990
  182DOPC  C31422401   1.182   0.644   5.227  0.2322 -0.0742  0.9813
  182DOPC  H14X22402   1.253   0.728   5.214 -0.0724 -0.2347 -2.3903
  182DOPC  H14Y22403   1.093   0.683   5.175  0.9978 -1.6550 -1.7479
  182DOPC  C31522404   1.157   0.615   5.371 -0.3660  0.8385 -0.0887
  182DOPC  H15X22405   1.235   0.547   5.413 -0.6192  0.0508 -0.8690
  182DOPC  H15Y22406   1.066   0.552   5.372  1.3271 -1.8087 -0.0609
  182DOPC  C31622407   1.126   0.742   5.447  0.4111  0.3828 -0.1783
  182DOPC  H16X22408   1.206   0.819   5.460  0.4695  0.2712  0.1310
  182DOPC  H16Y22409   1.046   0.794   5.390 -0.0676 -1.2316 -1.0279
  182DOPC  C31722410   1.069   0.713   5.586  0.4749  0.0641  0.1158
  182DOPC  H17X22411   1.021   0.807   5.621  0.9830  0.5726 -0.5298
  182DOPC  H17Y22412   0.981   0.648   5.567  0.7137 -1.3760  3.2725
  182DOPC  C31822413   1.153   0.639   5.685 -1.0661  0.4083 -0.0321
  182DOPC  H18X22414   1.092   0.607   5.773  1.1614  0.7357  1.7443
  182DOPC  H18Y22415   1.190   0.546   5.638  0.1801  0.9611 -0.1964
  182DOPC  H18Z22416   1.240   0.700   5.718 -0.6916 -0.3625  0.4500
  183DOPC     N22417   5.896   5.004   3.106  0.3388  0.7856  0.4140
  183DOPC   C1222418   5.867   4.873   3.190 -0.1631  0.3896  0.5470
  183DOPC  H12A22419   5.910   4.891   3.288 -2.1294 -0.4859  1.6192
  183DOPC  H12B22420   5.921   4.792   3.143 -2.4295 -1.4151  0.9095
  183DOPC   C1322421   5.843   5.123   3.177 -0.0075  0.3111  0.2322
  183DOPC  H13A22422   5.854   5.111   3.284 -3.4120 -2.8845  0.4625
  183DOPC  H13B22423   5.897   5.211   3.145  0.0629  1.2868  2.8415
  183DOPC  H13C22424   5.738   5.133   3.154  0.0610 -0.5762 -0.5438
  183DOPC   C1422425   5.826   5.000   2.972  0.1542 -0.0626  0.5369
  183DOPC  H14A22426   5.875   4.938   2.899 -0.3324  0.8839 -0.6240
  183DOPC  H14B22427   5.726   4.961   2.982  0.5148 -1.4114 -0.8211
  183DOPC  H14C22428   5.802   5.099   2.936 -0.4741 -0.5758 -0.4913
  183DOPC   C1522429   6.050   5.019   3.084 -0.3565  0.5829 -0.0738
  183DOPC  H15A22430   6.091   4.927   3.043  2.6309  1.1167  1.4794
  183DOPC  H15B22431   6.087   5.049   3.180 -1.8903  0.5937  0.5469
  183DOPC  H15C22432   6.072   5.100   3.016 -1.4648  1.4146  0.5365
  183DOPC   C1122433   5.721   4.821   3.190  0.0737  0.5542  0.3787
  183DOPC  H11A22434   5.712   4.770   3.288  1.2740 -1.9070 -0.6712
  183DOPC  H11B22435   5.657   4.911   3.189 -0.0731  0.5021  2.3956
  183DOPC     P22436   5.759   4.605   3.048 -0.2540 -0.2930  0.0853
  183DOPC   O1322437   5.884   4.639   2.974  0.3540 -0.1401  0.2201
  183DOPC   O1422438   5.665   4.510   2.985 -0.3998  0.2426  0.3173
  183DOPC   O1222439   5.687   4.738   3.082 -0.1936 -0.3265  0.0777
  183DOPC   O1122440   5.805   4.551   3.182 -0.5919 -0.0561  0.7749
  183DOPC    C122441   5.709   4.480   3.268 -0.1278 -0.7643 -0.6309
  183DOPC    HA22442   5.674   4.387   3.218 -2.6921 -0.5972  0.7071
  183DOPC    HB22443   5.617   4.542   3.275  1.3114  1.6301 -1.4591
  183DOPC    C222444   5.775   4.444   3.401 -0.1217 -0.5447  0.2323
  183DOPC    HS22445   5.711   4.372   3.457 -2.0854 -0.6089 -1.9513
  183DOPC   O2122446   5.805   4.559   3.484  0.3484 -0.8640  0.0111
  183DOPC   C2122447   5.705   4.599   3.555  0.1676 -0.2846  0.3083
  183DOPC   O2222448   5.592   4.562   3.542 -0.1631  0.2331 -0.2977
  183DOPC   C2222449   5.755   4.705   3.658 -0.1212  0.2355  0.1519
  183DOPC   H2R22450   5.822   4.774   3.604  0.5179 -0.4184  0.0927
  183DOPC   H2S22451   5.803   4.646   3.739 -0.7693 -2.3571 -1.2300
  183DOPC    C322452   5.908   4.374   3.391  0.5337  0.0196  0.4774
  183DOPC    HX22453   5.975   4.435   3.327  0.6181 -2.5342 -2.0464
  183DOPC    HY22454   5.895   4.280   3.334  2.0291  0.0339  0.0717
  183DOPC   O3122455   5.969   4.349   3.522  0.3956 -0.8052  0.6931
  183DOPC   C3122456   6.079   4.419   3.547 -0.7034  0.4767  0.2810
  183DOPC   O3222457   6.135   4.494   3.467  0.7923  0.1726 -0.7500
  183DOPC   C3222458   6.131   4.390   3.689  0.2517  0.2336 -0.2620
  183DOPC   H2X22459   6.080   4.298   3.725  1.3694 -0.2755  0.0609
  183DOPC   H2Y22460   6.240   4.366   3.692  0.0848 -0.4663  0.8315
  183DOPC   C2322461   5.646   4.798   3.712  0.4088  0.1186 -0.3479
  183DOPC   H3R22462   5.544   4.756   3.723 -0.1463  1.9086  2.2164
  183DOPC   H3S22463   5.642   4.881   3.639 -1.5979  0.3382 -0.0515
  183DOPC   C2422464   5.674   4.861   3.847  0.6424  0.2191 -0.5959
  183DOPC   H4R22465   5.782   4.884   3.857  0.6830 -0.6540  1.4052
  183DOPC   H4S22466   5.661   4.788   3.929 -0.4775 -0.0297 -0.9678
  183DOPC   C2522467   5.584   4.987   3.895 -0.3039 -0.0550  0.2333
  183DOPC   H5R22468   5.638   5.005   3.990 -0.5078  1.8300  0.0290
  183DOPC   H5S22469   5.478   4.960   3.913 -0.2118 -0.6361 -0.0546
  183DOPC   C2622470   5.599   5.109   3.807  0.6870 -0.3630 -0.2478
  183DOPC   H6R22471   5.566   5.093   3.702 -4.0879  0.2360  0.9392
  183DOPC   H6S22472   5.707   5.132   3.798  0.4549  1.4601  0.9100
  183DOPC   C2722473   5.531   5.234   3.868  0.5450  0.0559  0.3658
  183DOPC   H7R22474   5.439   5.216   3.928 -0.1090  2.8373  0.2999
  183DOPC   H7S22475   5.484   5.285   3.781  0.5000 -0.5069  0.0516
  183DOPC   C2822476   5.620   5.326   3.948 -0.6518  0.1329  0.6012
  183DOPC   H8R22477   5.677   5.268   4.024  1.2667  0.4492 -0.5371
  183DOPC   H8S22478   5.551   5.396   4.000 -2.7303 -0.8479 -0.7103
  183DOPC   C2922479   5.706   5.414   3.856  0.2264 -0.1867  0.1245
  183DOPC   H9R22480   5.670   5.441   3.756  0.9129  1.1354  0.2144
  183DOPC  C21022481   5.835   5.452   3.886  0.0539 -0.1047 -0.0784
  183DOPC  H10R22482   5.891   5.499   3.804  2.6198 -0.3931  1.4170
  183DOPC  C21122483   5.907   5.446   4.015 -0.5049 -0.2346  0.0594
  183DOPC  H11R22484   5.860   5.382   4.093  0.0377  0.8514  1.3389
  183DOPC  H11S22485   5.915   5.547   4.062 -0.9091  0.0710 -0.5089
  183DOPC  C21222486   6.047   5.382   3.991  0.5363  0.1290  0.1995
  183DOPC  H12R22487   6.109   5.432   3.914  0.0450  1.3219  0.5572
  183DOPC  H12S22488   6.029   5.276   3.961 -1.9898  0.4503  0.3577
  183DOPC  C21322489   6.123   5.382   4.127  0.3308 -0.0016 -0.1988
  183DOPC  H13R22490   6.194   5.296   4.128  0.1474 -0.1471  0.7593
  183DOPC  H13S22491   6.049   5.359   4.206  1.0046 -2.3519 -0.1494
  183DOPC  C21422492   6.200   5.510   4.161 -0.2957  0.0605 -0.2660
  183DOPC  H14R22493   6.132   5.596   4.180  1.7606  1.9383 -0.9752
  183DOPC  H14S22494   6.265   5.543   4.077  1.0493 -0.1366  0.6689
  183DOPC  C21522495   6.288   5.494   4.286 -0.6845 -0.3848 -0.3227
  183DOPC  H15R22496   6.357   5.581   4.285 -2.0841  0.7593 -1.0219
  183DOPC  H15S22497   6.354   5.404   4.281  2.2326  1.5130  1.2619
  183DOPC  C21622498   6.224   5.510   4.429 -0.1762 -0.1068  0.3491
  183DOPC  H16R22499   6.142   5.435   4.431 -0.5539  0.1961 -1.8479
  183DOPC  H16S22500   6.180   5.612   4.433  2.4511  1.2538 -2.1115
  183DOPC  C21722501   6.317   5.475   4.543  0.0566 -0.2161 -0.0697
  183DOPC  H17R22502   6.418   5.438   4.514  0.8904  1.4044  0.6195
  183DOPC  H17S22503   6.279   5.399   4.614  4.7219 -0.5297  2.5000
  183DOPC  C21822504   6.338   5.593   4.646 -0.0282 -0.5813 -0.5606
  183DOPC  H18R22505   6.394   5.678   4.601 -1.7525  0.4635 -0.8102
  183DOPC  H18S22506   6.409   5.557   4.723  1.0431 -1.1333 -1.7688
  183DOPC  H18T22507   6.239   5.616   4.691  1.0604 -3.0334  3.6734
  183DOPC   C3322508   6.098   4.511   3.785 -0.7441  0.4960 -0.3527
  183DOPC   H3X22509   6.006   4.498   3.846 -0.5485  0.8266  0.0161
  183DOPC   H3Y22510   6.079   4.606   3.730 -2.4501  2.2229  2.9117
  183DOPC   C3422511   6.212   4.529   3.884 -0.6058  0.0723 -0.4539
  183DOPC   H4X22512   6.303   4.565   3.831 -0.8949  2.4295  0.4975
  183DOPC   H4Y22513   6.247   4.431   3.922  0.5421  0.2271 -1.0718
  183DOPC   C3522514   6.185   4.613   4.009  0.0808 -0.0661 -0.3318
  183DOPC   H5X22515   6.267   4.593   4.082 -0.7788 -0.0184  0.6700
  183DOPC   H5Y22516   6.086   4.583   4.050 -0.1092 -1.1727 -1.5262
  183DOPC   C3622517   6.183   4.763   3.983  0.1675 -0.2670 -0.0452
  183DOPC   H6X22518   6.285   4.801   3.962 -1.2544  2.7384 -2.3801
  183DOPC   H6Y22519   6.134   4.776   3.884  0.0262 -1.0205 -0.0813
  183DOPC   C3722520   6.112   4.849   4.098  0.0946  0.5354  0.0828
  183DOPC   H7X22521   6.005   4.823   4.083  0.4298 -0.5375 -0.5632
  183DOPC   H7Y22522   6.142   4.807   4.196 -0.0188  1.5353  0.5621
  183DOPC   C3822523   6.122   5.004   4.111 -0.4247 -0.3685  0.8185
  183DOPC   H8X22524   6.088   5.061   4.021  0.4154 -1.9227 -0.5287
  183DOPC   H8Y22525   6.231   5.023   4.121  0.1007 -2.4058 -0.4813
  183DOPC   C3922526   6.036   5.041   4.229  0.1048  0.1834 -0.2388
  183DOPC   H9X22527   5.931   5.038   4.200  0.1016 -0.9667 -0.1634
  183DOPC  C31022528   6.070   5.069   4.362 -0.1133 -0.7286 -0.1182
  183DOPC  H10X22529   5.994   5.078   4.441 -1.7502  2.0356 -1.8272
  183DOPC  C31122530   6.214   5.094   4.400  0.6620 -0.3964 -0.4254
  183DOPC  H11X22531   6.223   5.204   4.385 -3.3656 -0.0767 -1.7759
  183DOPC  H11Y22532   6.288   5.040   4.338 -0.6771 -1.9971 -0.7018
  183DOPC  C31222533   6.252   5.049   4.544 -0.3677 -0.3408 -0.0071
  183DOPC  H12X22534   6.231   4.941   4.562  0.5811 -0.3658  1.0227
  183DOPC  H12Y22535   6.195   5.101   4.623 -0.9995  0.0456 -0.7044
  183DOPC  C31322536   6.401   5.070   4.571  0.3914 -0.9489 -0.0276
  183DOPC  H13X22537   6.463   5.012   4.499  0.6523  0.9362 -1.3911
  183DOPC  H13Y22538   6.436   5.175   4.562  0.2488 -0.8545  0.4815
  183DOPC  C31422539   6.438   5.023   4.709 -0.5533  0.1421 -0.2293
  183DOPC  H14X22540   6.385   5.088   4.781 -1.3689 -1.0736  0.3099
  183DOPC  H14Y22541   6.397   4.924   4.739  0.9910 -0.4933 -0.1213
  183DOPC  C31522542   6.596   5.013   4.725  0.1128 -0.5063  1.3884
  183DOPC  H15X22543   6.634   4.927   4.666  1.3599  0.8945  0.1025
  183DOPC  H15Y22544   6.616   4.986   4.831  2.4718  1.0786  1.4296
  183DOPC  C31622545   6.675   5.140   4.698 -0.5654 -0.7691 -0.3464
  183DOPC  H16X22546   6.669   5.166   4.590 -0.7307  0.1293 -0.1263
  183DOPC  H16Y22547   6.623   5.223   4.749  1.4803  0.1338  0.3803
  183DOPC  C31722548   6.819   5.134   4.745  0.0537  0.7384  0.3388
  183DOPC  H17X22549   6.823   5.092   4.847 -1.4285 -1.0037 -0.2728
  183DOPC  H17Y22550   6.853   5.048   4.684 -1.0572 -0.6730  1.6275
  183DOPC  C31822551   6.893   5.268   4.719  0.3588  0.1506 -0.2721
  183DOPC  H18X22552   6.970   5.279   4.798 -2.2915 -0.5796  2.6074
  183DOPC  H18Y22553   6.913   5.285   4.611 -2.1805 -1.6096 -1.1467
  183DOPC  H18Z22554   6.831   5.353   4.754  1.9636  0.7267  1.3202
  184DOPC     N22555   3.522   0.561   2.828  0.5716  0.5865  0.2652
  184DOPC   C1222556   3.666   0.570   2.863  0.3251 -0.1523  0.6583
  184DOPC  H12A22557   3.694   0.663   2.816 -2.1760  0.3524  0.0729
  184DOPC  H12B22558   3.720   0.485   2.822 -0.6742 -0.5996  0.2515
  184DOPC   C1322559   3.501   0.579   2.682 -0.2828  0.0015 -0.4827
  184DOPC  H13A22560   3.532   0.681   2.665 -0.7289  0.0987 -0.7344
  184DOPC  H13B22561   3.552   0.511   2.616  2.2293  1.3218 -0.0176
  184DOPC  H13C22562   3.398   0.570   2.651 -1.7311  0.4055  3.5796
  184DOPC   C1422563   3.449   0.660   2.915 -0.1743 -0.0641  0.2720
  184DOPC  H14A22564   3.475   0.764   2.905  0.9034 -0.0461  2.5245
  184DOPC  H14B22565   3.342   0.664   2.899 -0.5123 -2.8205  1.1749
  184DOPC  H14C22566   3.461   0.636   3.020  1.6717 -2.0563 -0.3187
  184DOPC   C1522567   3.470   0.426   2.873 -0.0416  0.1173 -0.7624
  184DOPC  H15A22568   3.539   0.360   2.822  0.4332  1.6072 -2.1099
  184DOPC  H15B22569   3.364   0.409   2.870  0.0398 -0.8158  0.5397
  184DOPC  H15C22570   3.504   0.427   2.976  2.1081 -0.8430 -1.3921
  184DOPC   C1122571   3.707   0.577   3.009 -0.0160 -0.2160 -0.4660
  184DOPC  H11A22572   3.817   0.568   3.015 -0.0898 -0.1993  2.1475
  184DOPC  H11B22573   3.689   0.677   3.053 -0.2775 -0.4161 -0.1053
  184DOPC     P22574   3.588   0.493   3.220  0.0245 -0.3105 -0.0760
  184DOPC   O1322575   3.567   0.365   3.296  0.7817  0.5708  0.2943
  184DOPC   O1422576   3.464   0.572   3.195  0.2076  0.1287  0.0788
  184DOPC   O1222577   3.670   0.464   3.090 -0.1773 -0.3104  0.3181
  184DOPC   O1122578   3.684   0.586   3.300 -0.5173  0.2308  0.4376
  184DOPC    C122579   3.825   0.561   3.314  0.1380 -0.8195 -0.1296
  184DOPC    HA22580   3.882   0.634   3.252  2.2513 -2.1502  0.1724
  184DOPC    HB22581   3.852   0.458   3.283  0.8259 -1.4740  2.3519
  184DOPC    C222582   3.861   0.584   3.459 -0.2051  0.0194 -0.1345
  184DOPC    HS22583   3.971   0.583   3.476 -0.1988  0.3609 -0.1418
  184DOPC   O2122584   3.797   0.490   3.553 -0.2244  0.7031 -0.3630
  184DOPC   C2122585   3.814   0.358   3.540  0.1455  0.0765 -0.4797
  184DOPC   O2222586   3.892   0.300   3.463  0.1352  0.6583  0.0623
  184DOPC   C2222587   3.731   0.276   3.635 -0.5229  0.5667 -0.6123
  184DOPC   H2R22588   3.704   0.183   3.582 -0.8417  0.0875  0.3597
  184DOPC   H2S22589   3.642   0.329   3.677 -1.3195 -0.4683 -0.9588
  184DOPC    C322590   3.825   0.724   3.500 -0.3548  0.1736 -0.2190
  184DOPC    HX22591   3.723   0.754   3.471 -0.6935  0.9756  1.6370
  184DOPC    HY22592   3.897   0.780   3.436  0.1160  0.0717  0.2105
  184DOPC   O3122593   3.844   0.750   3.637 -0.0549  0.5877  0.0874
  184DOPC   C3122594   3.805   0.871   3.680  0.7853  0.2510 -0.6012
  184DOPC   O3222595   3.739   0.949   3.617  0.0979 -0.2004 -0.2676
  184DOPC   C3222596   3.864   0.895   3.822 -0.3265 -0.7806 -0.2340
  184DOPC   H2X22597   3.908   0.801   3.861 -1.5973 -0.8026  1.2659
  184DOPC   H2Y22598   3.951   0.963   3.807  0.9454 -2.3618 -0.2864
  184DOPC   C2322599   3.812   0.240   3.769 -0.0521  0.3322  0.7129
  184DOPC   H3R22600   3.888   0.164   3.741 -0.1498 -0.3762  2.2429
  184DOPC   H3S22601   3.751   0.191   3.848  1.0026  1.0576  2.0422
  184DOPC   C2422602   3.881   0.361   3.835  0.3428  0.4464  0.5665
  184DOPC   H4R22603   3.808   0.442   3.858 -0.5927 -0.0560 -0.4995
  184DOPC   H4S22604   3.952   0.401   3.760 -0.7611 -0.1428 -0.8560
  184DOPC   C2522605   3.954   0.332   3.960 -0.1759  0.6067 -0.6586
  184DOPC   H5R22606   3.876   0.288   4.025  0.6056 -1.4383 -1.0457
  184DOPC   H5S22607   3.990   0.426   4.007  0.3572  1.3372 -2.4370
  184DOPC   C2622608   4.080   0.241   3.942  0.2820  0.0384  0.3724
  184DOPC   H6R22609   4.156   0.300   3.886  0.7371 -0.1307  0.8104
  184DOPC   H6S22610   4.057   0.148   3.886 -1.6552  0.4624  0.3904
  184DOPC   C2722611   4.154   0.202   4.073  0.0504 -0.0785 -0.3315
  184DOPC   H7R22612   4.177   0.299   4.121  0.0183  0.0544 -0.5818
  184DOPC   H7S22613   4.251   0.154   4.046  0.1041  0.5357 -1.2783
  184DOPC   C2822614   4.084   0.105   4.169  0.7057 -0.0872 -0.0704
  184DOPC   H8R22615   3.992   0.154   4.208  0.5215 -1.4321  1.2648
  184DOPC   H8S22616   4.144   0.086   4.260 -1.2549 -1.9378  0.9187
  184DOPC   C2922617   4.052  -0.023   4.105 -0.1184  0.7196 -0.2537
  184DOPC   H9R22618   4.137  -0.091   4.090 -2.6714 -2.3628 -2.1222
  184DOPC  C21022619   3.931  -0.080   4.092  0.2210 -0.0307 -0.9267
  184DOPC  H10R22620   3.921  -0.176   4.041 -1.3676 -0.1724 -0.3884
  184DOPC  C21122621   3.800  -0.007   4.128  0.1019  0.0707  0.4978
  184DOPC  H11R22622   3.767   0.065   4.050  2.2112  0.0702 -0.4601
  184DOPC  H11S22623   3.818   0.043   4.226 -1.3092 -1.0475  1.3641
  184DOPC  C21222624   3.689  -0.108   4.158 -0.2197 -0.1495 -0.2077
  184DOPC  H12R22625   3.676  -0.169   4.066  2.0372  0.7150 -1.1920
  184DOPC  H12S22626   3.592  -0.054   4.168 -0.3644 -0.2861 -0.8548
  184DOPC  C21322627   3.710  -0.216   4.265 -1.6095  0.2034 -0.2859
  184DOPC  H13R22628   3.740  -0.154   4.352 -2.0048 -1.6635  1.2414
  184DOPC  H13S22629   3.797  -0.279   4.237  0.5841  2.2767  1.4335
  184DOPC  C21422630   3.589  -0.289   4.312 -0.2443 -0.8665  0.7094
  184DOPC  H14R22631   3.514  -0.306   4.232 -0.0946 -1.6860  0.7336
  184DOPC  H14S22632   3.519  -0.231   4.377 -2.7851  0.6391 -3.0287
  184DOPC  C21522633   3.615  -0.421   4.390  0.0517 -0.0421 -0.2123
  184DOPC  H15R22634   3.675  -0.483   4.320  1.4180  0.4661  0.4712
  184DOPC  H15S22635   3.524  -0.483   4.410 -0.5107  0.5601 -0.8525
  184DOPC  C21622636   3.707  -0.404   4.517  0.4449  0.4972  0.5687
  184DOPC  H16R22637   3.649  -0.351   4.595  2.2662  1.8711  1.0451
  184DOPC  H16S22638   3.797  -0.340   4.508  1.0345 -0.4010  0.0130
  184DOPC  C21722639   3.750  -0.542   4.574 -0.0911  0.1099 -0.0676
  184DOPC  H17R22640   3.820  -0.590   4.502 -0.5977 -0.7474 -0.0036
  184DOPC  H17S22641   3.661  -0.607   4.587  0.2126 -0.4710 -0.8476
  184DOPC  C21822642   3.826  -0.539   4.703  0.7274  0.6989  0.3108
  184DOPC  H18R22643   3.790  -0.458   4.769  0.0042  0.0654  0.7143
  184DOPC  H18S22644   3.935  -0.520   4.696  0.6146  1.6552  0.9739
  184DOPC  H18T22645   3.815  -0.635   4.759  0.0199  0.9428  0.6024
  184DOPC   C3322646   3.752   0.938   3.923  0.0866 -0.2904 -0.3479
  184DOPC   H3X22647   3.687   0.850   3.945  2.2363 -1.0057  4.6053
  184DOPC   H3Y22648   3.687   1.019   3.884  0.2223  0.0575  0.1367
  184DOPC   C3422649   3.816   0.972   4.057  0.3020 -0.1702  0.5865
  184DOPC   H4X22650   3.887   1.058   4.055  2.5906 -1.8596  2.8044
  184DOPC   H4Y22651   3.889   0.888   4.065  2.7627  1.9167  1.5731
  184DOPC   C3522652   3.717   0.981   4.175 -0.0327  0.1465 -0.2208
  184DOPC   H5X22653   3.638   0.904   4.163 -0.6270  0.7858 -0.5153
  184DOPC   H5Y22654   3.678   1.085   4.167  0.5197  0.3168 -0.7801
  184DOPC   C3622655   3.776   0.958   4.311 -0.4437  0.8104 -0.1654
  184DOPC   H6X22656   3.697   0.967   4.389  0.4035 -1.7646  1.1017
  184DOPC   H6Y22657   3.824   0.858   4.312 -0.2625  0.8866  1.3236
  184DOPC   C3722658   3.874   1.072   4.351 -0.0710 -0.1205  0.7787
  184DOPC   H7X22659   3.960   1.071   4.281  0.6631  0.2767  1.6495
  184DOPC   H7Y22660   3.820   1.168   4.334  0.4655 -0.0200 -0.4372
  184DOPC   C3822661   3.925   1.056   4.491 -0.2367  0.1568 -0.4684
  184DOPC   H8X22662   3.841   1.054   4.564  0.1422  2.2404  0.1173
  184DOPC   H8Y22663   3.978   1.151   4.515  0.4872  0.4948 -3.1123
  184DOPC   C3922664   4.013   0.933   4.509 -0.0045  0.3197 -0.8141
  184DOPC   H9X22665   4.082   0.914   4.425 -1.2367 -0.9649 -1.5864
  184DOPC  C31022666   4.014   0.843   4.609  0.3086 -0.1171  0.0351
  184DOPC  H10X22667   4.087   0.760   4.606 -0.3065 -0.7951  1.9883
  184DOPC  C31122668   3.925   0.842   4.736  0.1033  0.2163 -0.2764
  184DOPC  H11X22669   3.876   0.742   4.738 -1.8720  1.1576  0.3916
  184DOPC  H11Y22670   3.852   0.925   4.726  0.3352  0.4609  0.0416
  184DOPC  C31222671   4.008   0.872   4.856 -0.0117  0.0063 -0.5711
  184DOPC  H12X22672   4.043   0.975   4.837 -1.4693  0.3761 -1.4004
  184DOPC  H12Y22673   4.101   0.812   4.874  0.3851  0.7136 -0.2471
  184DOPC  C31322674   3.937   0.865   4.997 -0.2562 -0.1283 -0.5450
  184DOPC  H13X22675   4.000   0.908   5.077 -3.3062  1.2105  1.3051
  184DOPC  H13Y22676   3.858   0.943   4.992  0.5512  0.8386  1.1258
  184DOPC  C31422677   3.888   0.728   5.058  0.1432  0.0759 -0.5873
  184DOPC  H14X22678   3.837   0.668   4.979  2.5031 -0.4160 -1.8344
  184DOPC  H14Y22679   3.975   0.670   5.093  1.1490  2.0019  0.2371
  184DOPC  C31522680   3.808   0.749   5.187  0.5422  0.2084 -0.3506
  184DOPC  H15X22681   3.872   0.816   5.247  0.9690 -0.2786 -0.2588
  184DOPC  H15Y22682   3.799   0.650   5.238  1.8209  0.6030  0.6872
  184DOPC  C31622683   3.671   0.817   5.174 -0.0881 -0.5306  0.3767
  184DOPC  H16X22684   3.684   0.923   5.143  1.3132 -0.2266  1.8604
  184DOPC  H16Y22685   3.609   0.767   5.097  0.0681 -0.6705  0.3409
  184DOPC  C31722686   3.584   0.828   5.301  0.3862  0.2691  0.2228
  184DOPC  H17X22687   3.574   0.724   5.338  0.4706  0.1725 -0.0222
  184DOPC  H17Y22688   3.636   0.891   5.377  1.6184 -0.4812  0.0402
  184DOPC  C31822689   3.445   0.878   5.289 -0.3983  0.0799  0.5815
  184DOPC  H18X22690   3.393   0.850   5.195  2.3991 -1.4709 -0.6317
  184DOPC  H18Y22691   3.382   0.837   5.371 -3.0663 -0.7130 -1.7167
  184DOPC  H18Z22692   3.449   0.988   5.299  1.7065  0.2806 -1.6274
  185DOPC     N22693   6.675   6.269   2.966  0.5491 -0.1391 -0.0965
  185DOPC   C1222694   6.704   6.188   3.094 -0.5910  0.3110 -0.2991
  185DOPC  H12A22695   6.800   6.217   3.135 -0.6369  0.2163 -0.1250
  185DOPC  H12B22696   6.726   6.087   3.064 -0.7041 -0.1374  1.0637
  185DOPC   C1322697   6.639   6.406   2.997  0.7103  0.1116  0.5490
  185DOPC  H13A22698   6.675   6.458   2.910  1.0387 -0.8680  0.0917
  185DOPC  H13B22699   6.533   6.418   3.013 -0.3388  0.2751 -4.7141
  185DOPC  H13C22700   6.692   6.443   3.084 -0.5450 -0.7097  1.7039
  185DOPC   C1422701   6.575   6.197   2.878 -0.3015 -0.0550 -0.5360
  185DOPC  H14A22702   6.488   6.168   2.934  1.2659 -0.5005  1.7923
  185DOPC  H14B22703   6.535   6.253   2.794 -0.0447  0.6915 -0.1698
  185DOPC  H14C22704   6.621   6.112   2.831 -2.0104 -0.0468 -2.3822
  185DOPC   C1522705   6.803   6.290   2.887  0.4570  0.6337  0.3741
  185DOPC  H15A22706   6.868   6.363   2.933  0.3357  1.9663 -1.4786
  185DOPC  H15B22707   6.786   6.324   2.786  1.3859 -1.5415 -0.5710
  185DOPC  H15C22708   6.848   6.192   2.879  0.0275  0.3279  1.5562
  185DOPC   C1122709   6.602   6.173   3.210  0.4069 -0.2057 -0.2954
  185DOPC  H11A22710   6.637   6.125   3.304 -0.4212 -1.1531 -0.4587
  185DOPC  H11B22711   6.583   6.277   3.246 -0.6993  0.0106 -1.4146
  185DOPC     P22712   6.459   5.960   3.155 -0.0940 -0.0760  0.0684
  185DOPC   O1322713   6.585   5.904   3.110  0.5162 -0.3988 -0.3900
  185DOPC   O1422714   6.337   5.930   3.071 -0.0293  0.0351  0.3296
  185DOPC   O1222715   6.476   6.119   3.157 -0.6653  0.6848  0.3624
  185DOPC   O1122716   6.425   5.923   3.305  0.1286  0.0514  0.1145
  185DOPC    C122717   6.337   5.999   3.390 -0.3514 -0.0229  0.0916
  185DOPC    HA22718   6.381   6.099   3.415  0.8110 -0.4237 -0.2894
  185DOPC    HB22719   6.335   5.946   3.488 -0.5076 -1.5127 -0.6976
  185DOPC    C222720   6.195   6.012   3.342  0.1555 -0.3051  0.3972
  185DOPC    HS22721   6.197   6.072   3.249 -1.0355  1.5635  1.5345
  185DOPC   O2122722   6.118   6.091   3.437 -0.2424 -0.8192  0.3513
  185DOPC   C2122723   6.147   6.218   3.456  0.3007 -0.4290  0.0965
  185DOPC   O2222724   6.236   6.280   3.402  0.2877  0.5861 -0.8517
  185DOPC   C2222725   6.065   6.275   3.569  0.3506  0.4925 -0.3077
  185DOPC   H2R22726   6.062   6.196   3.647  0.5489  0.3404 -0.4545
  185DOPC   H2S22727   5.958   6.283   3.539 -0.1578  0.0117  1.3070
  185DOPC    C322728   6.119   5.872   3.322 -0.5423  0.0537  0.1297
  185DOPC    HX22729   6.200   5.818   3.269 -2.8828 -2.9011 -0.7392
  185DOPC    HY22730   6.030   5.887   3.256  0.0806  1.1343 -0.4881
  185DOPC   O3122731   6.099   5.801   3.449  0.1793 -0.5568 -0.1792
  185DOPC   C3122732   5.995   5.848   3.522  0.1695  0.4085  1.1742
  185DOPC   O3222733   5.912   5.929   3.490  0.5170  0.1834  0.5789
  185DOPC   C3222734   5.985   5.763   3.645 -0.1684 -0.0286 -0.7653
  185DOPC   H2X22735   5.878   5.738   3.637 -0.4314  0.8323 -0.1239
  185DOPC   H2Y22736   6.049   5.675   3.624  2.3152  1.8491 -1.5936
  185DOPC   C2322737   6.111   6.411   3.627 -0.3796 -0.3199 -0.2363
  185DOPC   H3R22738   6.078   6.487   3.553  2.1342  0.6737 -0.4567
  185DOPC   H3S22739   6.221   6.415   3.641 -0.0552 -2.4187 -1.7192
  185DOPC   C2422740   6.037   6.452   3.760 -0.0057  0.0410 -0.0514
  185DOPC   H4R22741   5.932   6.473   3.733 -0.7410 -1.5896  1.3375
  185DOPC   H4S22742   6.081   6.550   3.786 -1.2019  0.7836 -0.7559
  185DOPC   C2522743   6.024   6.350   3.878 -0.0634  0.5102  0.2015
  185DOPC   H5R22744   6.054   6.407   3.969  1.2430 -0.4528  0.4023
  185DOPC   H5S22745   6.092   6.262   3.881 -1.2495 -0.4144  1.5314
  185DOPC   C2622746   5.883   6.282   3.891 -0.0961  0.0282  0.4898
  185DOPC   H6R22747   5.871   6.219   3.800 -0.3978  0.8702 -0.0662
  185DOPC   H6S22748   5.801   6.358   3.890  0.2711  0.4404  1.3067
  185DOPC   C2722749   5.864   6.197   4.018  0.1940  0.0638  0.3382
  185DOPC   H7R22750   5.875   6.253   4.114 -3.3173 -1.5176  1.8282
  185DOPC   H7S22751   5.940   6.117   4.003  0.8348  0.7895 -0.3859
  185DOPC   C2822752   5.721   6.131   4.012  0.0305 -0.3142  0.2194
  185DOPC   H8R22753   5.651   6.212   3.983 -0.9943 -1.1410  0.3109
  185DOPC   H8S22754   5.692   6.089   4.111  1.6469 -0.2189  0.7652
  185DOPC   C2922755   5.716   6.014   3.916  0.1084 -0.3959  0.3973
  185DOPC   H9R22756   5.710   6.041   3.809  0.8638  0.8645  0.6569
  185DOPC  C21022757   5.726   5.883   3.944 -0.0323 -0.2958 -0.0151
  185DOPC  H10R22758   5.738   5.812   3.861 -0.2472  0.1900 -0.4752
  185DOPC  C21122759   5.741   5.807   4.073 -0.1431 -1.1035  0.3782
  185DOPC  H11R22760   5.782   5.876   4.150  1.0011  0.3190 -1.4485
  185DOPC  H11S22761   5.809   5.723   4.051 -0.0384 -0.8858 -0.1254
  185DOPC  C21222762   5.598   5.752   4.113  0.0271  0.3811 -0.1374
  185DOPC  H12R22763   5.568   5.678   4.036  0.7717  2.0545 -2.1048
  185DOPC  H12S22764   5.520   5.831   4.123 -1.0142 -0.6918  0.6432
  185DOPC  C21322765   5.601   5.697   4.257 -0.9535  0.8685 -0.1040
  185DOPC  H13R22766   5.501   5.650   4.271 -1.5715  2.0879 -0.2911
  185DOPC  H13S22767   5.612   5.787   4.321 -2.5046  0.8197  0.2733
  185DOPC  C21422768   5.715   5.593   4.286 -0.6687  0.0552 -0.1124
  185DOPC  H14R22769   5.820   5.612   4.253 -0.8312  1.6168  0.2199
  185DOPC  H14S22770   5.694   5.500   4.228 -0.3587  0.4557 -0.8801
  185DOPC  C21522771   5.715   5.567   4.434  0.2408 -0.3373  0.2510
  185DOPC  H15R22772   5.613   5.545   4.471 -0.4552 -4.4372 -3.3535
  185DOPC  H15S22773   5.751   5.654   4.494 -2.3710  0.4236  0.8394
  185DOPC  C21622774   5.807   5.444   4.457  0.1307 -0.1863  0.6390
  185DOPC  H16R22775   5.896   5.448   4.391 -0.0642  0.1966  0.3905
  185DOPC  H16S22776   5.749   5.349   4.449  0.3315 -0.2101 -0.9426
  185DOPC  C21722777   5.873   5.456   4.594  0.5787 -0.5140 -0.3839
  185DOPC  H17R22778   5.796   5.483   4.670  0.0754 -1.4394 -0.5515
  185DOPC  H17S22779   5.940   5.543   4.579  0.0584 -0.0563 -0.0862
  185DOPC  C21822780   5.950   5.331   4.639 -0.8567 -0.6583 -0.2348
  185DOPC  H18R22781   6.036   5.313   4.571  0.7185  0.5712  1.3296
  185DOPC  H18S22782   5.886   5.240   4.647 -1.7441 -0.1819 -1.5299
  185DOPC  H18T22783   5.992   5.344   4.741 -1.3296 -1.6300  0.0987
  185DOPC   C3322784   6.011   5.837   3.774  0.1194 -0.2922  0.0102
  185DOPC   H3X22785   5.969   5.775   3.856 -1.4052  0.1169 -0.4146
  185DOPC   H3Y22786   5.948   5.929   3.783 -0.9837 -0.9462 -0.7645
  185DOPC   C3422787   6.159   5.860   3.802 -0.3246  0.0235 -0.0289
  185DOPC   H4X22788   6.216   5.893   3.712  0.7927  0.4042  0.7982
  185DOPC   H4Y22789   6.197   5.758   3.824  0.1655  0.2158  0.0346
  185DOPC   C3522790   6.185   5.965   3.915 -0.2465  0.2627 -0.3552
  185DOPC   H5X22791   6.111   6.047   3.901  0.9264  1.4942  0.4455
  185DOPC   H5Y22792   6.284   6.013   3.913 -0.9917  1.8416 -1.3364
  185DOPC   C3622793   6.160   5.901   4.056  0.3097  0.1976  0.3402
  185DOPC   H6X22794   6.056   5.863   4.050  0.8640 -1.1484 -2.9617
  185DOPC   H6Y22795   6.223   5.810   4.059  2.5720  1.5664 -1.6022
  185DOPC   C3722796   6.179   5.991   4.180 -0.2202 -0.3796  0.4010
  185DOPC   H7X22797   6.090   6.057   4.186 -0.7045 -0.4602 -3.6119
  185DOPC   H7Y22798   6.183   5.929   4.272  2.8493  0.0408  0.6822
  185DOPC   C3822799   6.314   6.079   4.187 -0.8590  0.0620 -0.2098
  185DOPC   H8X22800   6.326   6.133   4.091 -0.7387  0.5635  0.0856
  185DOPC   H8Y22801   6.395   6.003   4.192 -0.6859  0.1088 -1.7704
  185DOPC   C3922802   6.322   6.186   4.296 -0.3921  0.2765  0.6456
  185DOPC   H9X22803   6.266   6.278   4.273 -0.3667  0.0668 -0.2837
  185DOPC  C31022804   6.402   6.186   4.404  0.5729 -0.2493 -0.2774
  185DOPC  H10X22805   6.400   6.280   4.461  1.9828 -0.8992  0.9337
  185DOPC  C31122806   6.488   6.071   4.457 -0.6649 -0.2888  0.1231
  185DOPC  H11X22807   6.593   6.080   4.422 -1.2327  1.9878 -1.1961
  185DOPC  H11Y22808   6.453   5.969   4.430  1.4449 -1.1943  0.5300
  185DOPC  C31222809   6.499   6.076   4.610 -0.1585 -0.0328 -0.2469
  185DOPC  H12X22810   6.399   6.083   4.657 -0.0308 -0.8104  0.1696
  185DOPC  H12Y22811   6.558   6.159   4.654 -2.1418  0.8036  0.9805
  185DOPC  C31322812   6.563   5.941   4.647 -0.5543  0.3095 -0.1412
  185DOPC  H13X22813   6.509   5.855   4.602  0.5068 -0.9813  0.9461
  185DOPC  H13Y22814   6.664   5.940   4.599 -1.0366 -0.7166 -1.1883
  185DOPC  C31422815   6.577   5.911   4.798  0.3944 -0.4700  0.6494
  185DOPC  H14X22816   6.635   5.982   4.861 -0.4148 -0.0777  0.9662
  185DOPC  H14Y22817   6.471   5.917   4.832 -0.2310  1.1446 -1.3604
  185DOPC  C31522818   6.647   5.776   4.831  0.8082 -0.3375  0.2075
  185DOPC  H15X22819   6.748   5.770   4.787  0.0229 -1.0878 -1.5913
  185DOPC  H15Y22820   6.581   5.692   4.799  0.7140 -0.7612  1.4497
  185DOPC  C31622821   6.665   5.767   4.988 -0.1347 -0.3096 -0.1933
  185DOPC  H16X22822   6.717   5.860   5.018  0.3678 -1.1986  1.8717
  185DOPC  H16Y22823   6.566   5.757   5.038 -0.9530  1.4832 -1.3517
  185DOPC  C31722824   6.766   5.658   5.038  0.5727  0.6219  0.2305
  185DOPC  H17X22825   6.854   5.672   4.971  1.4248 -2.5045  0.5536
  185DOPC  H17Y22826   6.807   5.673   5.140 -0.5569  1.3323  0.5978
  185DOPC  C31822827   6.700   5.516   5.021 -0.8435 -1.2666 -0.3920
  185DOPC  H18X22828   6.774   5.444   5.064 -0.5619  0.0912  1.5450
  185DOPC  H18Y22829   6.617   5.523   5.095 -0.0220 -0.2324  0.4699
  185DOPC  H18Z22830   6.662   5.492   4.920  0.5689 -1.2364 -0.9598
  186DOPC     N22831   6.132   1.378   2.603 -0.2429 -0.4379  0.1854
  186DOPC   C1222832   6.233   1.400   2.718 -0.0333  0.0007  0.1650
  186DOPC  H12A22833   6.211   1.328   2.796  0.2641  0.7247  0.9290
  186DOPC  H12B22834   6.214   1.494   2.768  0.7943  0.0645  0.3711
  186DOPC   C1322835   6.167   1.475   2.493 -0.0345  0.2075  0.2541
  186DOPC  H13A22836   6.096   1.460   2.413 -1.0117  0.7314  1.0078
  186DOPC  H13B22837   6.167   1.579   2.523  0.7472  0.6470 -1.1322
  186DOPC  H13C22838   6.270   1.458   2.465 -0.7791  0.4988 -3.1035
  186DOPC   C1422839   5.990   1.406   2.658  0.2866 -0.4216  0.1405
  186DOPC  H14A22840   5.968   1.344   2.745  0.1114  0.7108  0.9211
  186DOPC  H14B22841   5.980   1.507   2.694 -3.5557 -0.6833  0.2135
  186DOPC  H14C22842   5.911   1.395   2.585  0.2280  2.4257 -0.3018
  186DOPC   C1522843   6.136   1.237   2.539 -0.5986 -0.8971 -0.0964
  186DOPC  H15A22844   6.239   1.221   2.513 -0.1372  1.6187 -0.0763
  186DOPC  H15B22845   6.067   1.241   2.456 -1.5196  1.5588  0.6945
  186DOPC  H15C22846   6.109   1.163   2.613 -0.1853 -1.8575 -0.8976
  186DOPC   C1122847   6.383   1.393   2.693 -0.6682  0.2963 -0.6518
  186DOPC  H11A22848   6.440   1.374   2.786  0.3249  0.1836 -1.2691
  186DOPC  H11B22849   6.393   1.300   2.633  1.1647 -0.5001  0.8186
  186DOPC     P22850   6.460   1.654   2.704  0.1737  0.2725  0.0003
  186DOPC   O1322851   6.326   1.710   2.727 -0.7141  0.0856  0.2315
  186DOPC   O1422852   6.553   1.733   2.629 -0.2924 -0.2331 -0.2696
  186DOPC   O1222853   6.428   1.517   2.633 -0.3567 -0.3044  0.8308
  186DOPC   O1122854   6.529   1.606   2.840 -0.3934 -0.4971 -0.0013
  186DOPC    C122855   6.514   1.692   2.957 -0.0160 -0.3122  0.8801
  186DOPC    HA22856   6.409   1.694   2.992 -0.9999  0.5820 -1.8345
  186DOPC    HB22857   6.564   1.790   2.941  0.9392 -0.8712  0.2825
  186DOPC    C222858   6.603   1.645   3.072 -0.0480 -0.3162 -0.0465
  186DOPC    HS22859   6.709   1.671   3.054 -0.5550  1.7035 -0.3828
  186DOPC   O2122860   6.583   1.509   3.099 -0.1990  0.3536  0.5068
  186DOPC   C2122861   6.681   1.436   3.147  0.2023  0.3781  0.4543
  186DOPC   O2222862   6.787   1.471   3.189  0.0870 -0.1805 -0.7003
  186DOPC   C2222863   6.643   1.293   3.130 -0.4200  0.0338  0.4203
  186DOPC   H2R22864   6.688   1.258   3.035 -0.6644 -1.0037  0.6726
  186DOPC   H2S22865   6.533   1.280   3.121 -0.6824  2.2223 -0.1576
  186DOPC    C322866   6.569   1.736   3.197 -0.7549 -0.5244  0.2561
  186DOPC    HX22867   6.457   1.735   3.197 -0.8088  0.1848  2.3439
  186DOPC    HY22868   6.600   1.840   3.172 -0.7211 -0.0528  2.1171
  186DOPC   O3122869   6.617   1.689   3.324 -0.0572 -0.0612  0.4003
  186DOPC   C3122870   6.745   1.720   3.361  0.5073 -0.0123  0.4178
  186DOPC   O3222871   6.828   1.776   3.294 -0.6708 -0.3306  0.1985
  186DOPC   C3222872   6.775   1.649   3.502  0.4864 -0.4349 -0.3481
  186DOPC   H2X22873   6.747   1.543   3.487 -0.9708 -0.4227  1.7450
  186DOPC   H2Y22874   6.878   1.666   3.539  0.2436  0.7940 -0.1775
  186DOPC   C2322875   6.691   1.217   3.254  0.0476  0.6271 -0.0099
  186DOPC   H3R22876   6.802   1.223   3.261  0.0092  0.0653  1.3989
  186DOPC   H3S22877   6.661   1.111   3.247  1.3136  0.3163 -1.1250
  186DOPC   C2422878   6.642   1.273   3.385 -0.2244  0.6414 -0.1774
  186DOPC   H4R22879   6.679   1.377   3.398  3.4579 -0.1212 -3.0109
  186DOPC   H4S22880   6.685   1.207   3.464  0.2012 -0.5318 -1.3628
  186DOPC   C2522881   6.492   1.268   3.400  0.4615 -0.2858 -0.5152
  186DOPC   H5R22882   6.466   1.160   3.404  2.4923 -0.7917  1.6052
  186DOPC   H5S22883   6.444   1.321   3.315 -0.0705  1.0151  0.5482
  186DOPC   C2622884   6.425   1.331   3.523 -0.6525 -0.5298 -0.1076
  186DOPC   H6R22885   6.317   1.306   3.531 -0.8254 -0.0984 -0.8880
  186DOPC   H6S22886   6.446   1.440   3.512  1.0188 -0.9769 -2.1568
  186DOPC   C2722887   6.484   1.306   3.664 -0.5989 -0.9171  0.3115
  186DOPC   H7R22888   6.453   1.392   3.727  2.8683  0.9529 -0.3155
  186DOPC   H7S22889   6.594   1.321   3.667 -0.8346  0.8610  0.9547
  186DOPC   C2822890   6.448   1.167   3.711  0.6459 -0.2225  0.2224
  186DOPC   H8R22891   6.460   1.091   3.630  1.5898 -1.0735  1.1383
  186DOPC   H8S22892   6.342   1.149   3.738  0.2305 -2.8243 -2.5782
  186DOPC   C2922893   6.540   1.120   3.820 -0.1141  0.3125 -0.4420
  186DOPC   H9R22894   6.644   1.097   3.792 -0.1209  0.4846 -0.6056
  186DOPC  C21022895   6.517   1.096   3.945  0.0476 -0.0582  0.5058
  186DOPC  H10R22896   6.602   1.076   4.012  0.3351  1.2033  0.5474
  186DOPC  C21122897   6.384   1.087   4.009  0.2385 -0.5002  0.1273
  186DOPC  H11R22898   6.354   0.981   4.012 -0.9494 -0.2698 -1.7846
  186DOPC  H11S22899   6.301   1.126   3.947 -0.5169 -1.7419  0.3292
  186DOPC  C21222900   6.380   1.143   4.156  0.0773  0.3110  0.4780
  186DOPC  H12R22901   6.445   1.090   4.228  0.7111 -0.7183 -0.8039
  186DOPC  H12S22902   6.282   1.141   4.209 -0.3773 -2.1027 -0.3339
  186DOPC  C21322903   6.425   1.290   4.168  0.4482  0.2238  0.6537
  186DOPC  H13R22904   6.373   1.345   4.086 -2.4031 -0.4920  1.8673
  186DOPC  H13S22905   6.535   1.297   4.150  0.7450 -1.6835  1.4828
  186DOPC  C21422906   6.384   1.358   4.304  0.4950 -0.2386 -0.0918
  186DOPC  H14R22907   6.275   1.378   4.310  0.3662 -1.1638  1.0479
  186DOPC  H14S22908   6.437   1.456   4.298  1.8074 -1.0131 -1.9721
  186DOPC  C21522909   6.424   1.276   4.429 -0.4900  0.4971  0.4453
  186DOPC  H15R22910   6.535   1.276   4.431 -0.4175  0.6406 -1.5321
  186DOPC  H15S22911   6.395   1.169   4.434  0.8614  0.1788  2.5039
  186DOPC  C21622912   6.379   1.354   4.557  0.2879 -0.2773  0.4433
  186DOPC  H16R22913   6.376   1.280   4.640  2.2886  0.9318  1.6924
  186DOPC  H16S22914   6.276   1.391   4.542  0.1985 -1.0076 -0.9195
  186DOPC  C21722915   6.470   1.468   4.592  0.0122 -0.3280  0.1498
  186DOPC  H17R22916   6.486   1.531   4.501 -0.8463  0.6790  0.6709
  186DOPC  H17S22917   6.571   1.433   4.623  0.3980  2.5073  2.5656
  186DOPC  C21822918   6.417   1.556   4.708 -0.2852  0.2230  0.1267
  186DOPC  H18R22919   6.466   1.654   4.692 -0.9498  0.4762 -0.3985
  186DOPC  H18S22920   6.443   1.504   4.803 -1.2383 -0.7427 -0.1172
  186DOPC  H18T22921   6.308   1.575   4.702 -0.0442  1.8262  0.4015
  186DOPC   C3322922   6.678   1.695   3.613  0.5353  0.5867  0.0654
  186DOPC   H3X22923   6.571   1.677   3.590  0.7409 -1.8142  0.7119
  186DOPC   H3Y22924   6.682   1.804   3.636  0.0940  0.5590  0.2805
  186DOPC   C3422925   6.716   1.612   3.742  0.4370 -0.2515 -0.0838
  186DOPC   H4X22926   6.827   1.618   3.751  0.3503  2.4270  0.0446
  186DOPC   H4Y22927   6.690   1.504   3.732  1.1455 -0.4051 -0.3223
  186DOPC   C3522928   6.645   1.661   3.878 -0.2454  0.3379  0.4416
  186DOPC   H5X22929   6.535   1.651   3.873 -0.4662  2.6011 -0.3738
  186DOPC   H5Y22930   6.675   1.767   3.891  0.9380  0.1056 -0.2184
  186DOPC   C3622931   6.695   1.569   3.984  0.2028 -0.0938 -0.4434
  186DOPC   H6X22932   6.621   1.486   3.973 -0.8640  0.9948 -2.0624
  186DOPC   H6Y22933   6.800   1.534   3.974  0.8645  1.6749 -0.0069
  186DOPC   C3722934   6.671   1.631   4.126 -0.4828  0.2144 -0.3695
  186DOPC   H7X22935   6.708   1.735   4.138 -1.8802  0.6560  0.3359
  186DOPC   H7Y22936   6.561   1.635   4.142 -0.1828  0.5377  1.8834
  186DOPC   C3822937   6.737   1.536   4.226  0.3465  0.5920 -0.2585
  186DOPC   H8X22938   6.843   1.535   4.191 -0.0693  2.6661 -1.7338
  186DOPC   H8Y22939   6.696   1.433   4.228 -0.0435  0.7298  1.8745
  186DOPC   C3922940   6.719   1.594   4.362  0.1388  0.2253  0.0462
  186DOPC   H9X22941   6.646   1.676   4.361 -0.3117 -0.1642  0.7687
  186DOPC  C31022942   6.797   1.585   4.467  0.2330  0.0313 -0.2024
  186DOPC  H10X22943   6.766   1.636   4.559 -1.0485 -1.5073  0.2795
  186DOPC  C31122944   6.927   1.502   4.473  0.0419 -0.2828  0.3175
  186DOPC  H11X22945   6.985   1.533   4.383  0.0105 -0.9982  0.0469
  186DOPC  H11Y22946   6.913   1.392   4.466 -0.8548 -0.0651 -2.7401
  186DOPC  C31222947   7.012   1.549   4.589  0.3903 -0.1205 -0.0365
  186DOPC  H12X22948   7.033   1.658   4.582  0.9507 -0.2745 -0.7863
  186DOPC  H12Y22949   7.115   1.510   4.582  0.8865  0.9975  0.7635
  186DOPC  C31322950   6.947   1.537   4.733 -0.1395  0.5521  0.3792
  186DOPC  H13X22951   6.839   1.562   4.726  0.1991  1.9003 -0.5265
  186DOPC  H13Y22952   6.957   1.428   4.751 -1.7465  0.1349 -0.9418
  186DOPC  C31422953   7.015   1.623   4.833 -0.0455 -0.0042  0.2861
  186DOPC  H14X22954   7.119   1.585   4.849 -0.0471  0.4568  1.4608
  186DOPC  H14Y22955   7.031   1.721   4.783 -1.8270  0.7466  1.1285
  186DOPC  C31522956   6.947   1.617   4.970  0.0050  0.3687  0.3950
  186DOPC  H15X22957   6.989   1.533   5.029 -0.6696  0.5797  1.1983
  186DOPC  H15Y22958   6.838   1.600   4.956 -0.0416  0.6562  0.4063
  186DOPC  C31622959   6.971   1.741   5.065 -0.2350  0.6405  0.5503
  186DOPC  H16X22960   6.944   1.840   5.022 -1.4290 -0.5038 -1.5084
  186DOPC  H16Y22961   6.901   1.730   5.150 -0.5603 -1.8995  0.0228
  186DOPC  C31722962   7.119   1.747   5.109  0.1309  0.3579  0.2571
  186DOPC  H17X22963   7.142   1.650   5.157  0.0816  1.0455  1.7189
  186DOPC  H17Y22964   7.190   1.775   5.028  0.0151 -2.3306 -0.8633
  186DOPC  C31822965   7.141   1.847   5.218  0.6984 -0.7468 -0.2543
  186DOPC  H18X22966   7.073   1.818   5.301  2.0021 -0.8402  0.8120
  186DOPC  H18Y22967   7.244   1.839   5.258  0.7022 -1.8662 -0.4525
  186DOPC  H18Z22968   7.123   1.953   5.190  0.9750 -0.8028 -0.6551
  187DOPC     N22969   4.440   0.500   2.479  0.4436 -0.0244  0.1189
  187DOPC   C1222970   4.373   0.381   2.551 -0.0223 -0.2843  0.1942
  187DOPC  H12A22971   4.440   0.305   2.514  0.5817  0.6005 -0.5683
  187DOPC  H12B22972   4.274   0.365   2.512 -0.6251 -0.2253  1.6331
  187DOPC   C1322973   4.385   0.505   2.337 -0.3184  0.7167 -0.5674
  187DOPC  H13A22974   4.412   0.604   2.304  0.8256  1.1462  1.4329
  187DOPC  H13B22975   4.430   0.427   2.277 -0.7915 -0.7596  0.9151
  187DOPC  H13C22976   4.279   0.489   2.335 -0.4050  1.3559 -2.1248
  187DOPC   C1422977   4.588   0.483   2.487 -0.7518  0.2447 -0.1153
  187DOPC  H14A22978   4.625   0.455   2.585 -2.4223 -0.4821  0.3426
  187DOPC  H14B22979   4.610   0.396   2.426  0.8558 -2.1542  3.5314
  187DOPC  H14C22980   4.643   0.571   2.456  1.5764 -1.1929 -0.3507
  187DOPC   C1522981   4.412   0.623   2.547  0.4191  0.3120 -0.1001
  187DOPC  H15A22982   4.453   0.613   2.646 -0.5887 -1.0014  0.2189
  187DOPC  H15B22983   4.307   0.637   2.570  0.9468  0.1926  2.6421
  187DOPC  H15C22984   4.444   0.706   2.485  1.3821 -1.6796 -2.4713
  187DOPC   C1122985   4.376   0.370   2.705 -0.4645 -0.8571 -0.1783
  187DOPC  H11A22986   4.311   0.445   2.754 -2.3523 -2.1639 -0.5824
  187DOPC  H11B22987   4.324   0.278   2.741 -1.5692 -0.6184 -1.1279
  187DOPC     P22988   4.557   0.362   2.901  0.2577  0.1078  0.4493
  187DOPC   O1322989   4.703   0.375   2.901  0.1298 -0.2193  0.1704
  187DOPC   O1422990   4.498   0.231   2.946 -0.8430  0.4623  0.4793
  187DOPC   O1222991   4.514   0.382   2.751  0.1638 -0.2762  0.0460
  187DOPC   O1122992   4.495   0.492   2.970  0.1485  0.2047  0.0419
  187DOPC    C122993   4.426   0.466   3.093 -0.1110 -0.8259  0.0538
  187DOPC    HA22994   4.335   0.404   3.080 -0.1417 -0.8008  0.1516
  187DOPC    HB22995   4.384   0.564   3.123  2.0699 -0.1574  1.0960
  187DOPC    C222996   4.523   0.416   3.207  0.8499 -0.5437  0.7978
  187DOPC    HS22997   4.565   0.317   3.180 -2.2632 -1.1047 -2.7436
  187DOPC   O2122998   4.453   0.397   3.331  0.3300 -0.3136  0.4550
  187DOPC   C2122999   4.365   0.305   3.329 -0.0033  0.1545 -0.5859
  187DOPC   O2223000   4.338   0.228   3.239  0.0122  0.4646 -0.6792
  187DOPC   C2223001   4.281   0.312   3.461 -0.8960 -0.5047  0.6593
  187DOPC   H2R23002   4.327   0.254   3.543 -0.3483 -2.0380 -0.6687
  187DOPC   H2S23003   4.179   0.283   3.428  0.1658 -1.4637 -2.1350
  187DOPC    C323004   4.637   0.523   3.226 -0.1098  0.1391  0.8859
  187DOPC    HX23005   4.600   0.627   3.217 -0.4330 -0.0150  0.4021
  187DOPC    HY23006   4.702   0.508   3.137 -0.4724  0.6814  0.5254
  187DOPC   O3123007   4.727   0.490   3.341 -0.8231 -0.0826  0.4174
  187DOPC   C3123008   4.693   0.557   3.449  0.5376  0.4808 -0.4063
  187DOPC   O3223009   4.612   0.645   3.450  0.3903 -0.0134 -0.0118
  187DOPC   C3223010   4.754   0.494   3.576  0.3440 -0.4006  0.1009
  187DOPC   H2X23011   4.749   0.385   3.559  0.3626 -0.1654 -1.5120
  187DOPC   H2Y23012   4.852   0.547   3.588 -0.1034  0.3549  0.5434
  187DOPC   C2323013   4.284   0.467   3.504  0.3680  0.4517  0.0890
  187DOPC   H3R23014   4.246   0.536   3.425 -0.5976  1.7138  1.5844
  187DOPC   H3S23015   4.388   0.501   3.523  0.1605  1.1712 -0.0097
  187DOPC   C2423016   4.201   0.494   3.631 -1.1122  0.8060  0.0744
  187DOPC   H4R23017   4.249   0.433   3.711  2.1716  1.0461 -1.5377
  187DOPC   H4S23018   4.096   0.460   3.622 -0.4974 -1.5428  0.9352
  187DOPC   C2523019   4.211   0.634   3.698  0.1619 -0.6415 -0.8226
  187DOPC   H5R23020   4.164   0.713   3.635  0.7514 -0.3467 -0.9046
  187DOPC   H5S23021   4.320   0.655   3.693  0.3372 -1.5844 -1.2848
  187DOPC   C2623022   4.168   0.646   3.846  0.7046  0.3513 -0.1123
  187DOPC   H6R23023   4.209   0.563   3.907  0.5259  1.5272  1.6978
  187DOPC   H6S23024   4.058   0.643   3.856  0.6393 -0.3803 -0.9052
  187DOPC   C2723025   4.223   0.769   3.920  0.6110  0.8133  0.6593
  187DOPC   H7R23026   4.173   0.860   3.880 -0.3831 -0.4973 -1.2408
  187DOPC   H7S23027   4.334   0.771   3.908  0.8438 -2.4662  1.4585
  187DOPC   C2823028   4.170   0.761   4.066  0.6948  0.2343  0.6704
  187DOPC   H8R23029   4.203   0.663   4.107  1.7028  0.1540 -0.3065
  187DOPC   H8S23030   4.059   0.771   4.066  0.7475  1.6334  3.2678
  187DOPC   C2923031   4.213   0.880   4.142 -0.4455 -0.7016  0.5620
  187DOPC   H9R23032   4.173   0.973   4.100 -0.4116 -1.2071 -0.6269
  187DOPC  C21023033   4.293   0.891   4.249 -0.2563 -0.0734  0.2971
  187DOPC  H10R23034   4.323   0.993   4.277 -0.0172 -0.7828  2.8769
  187DOPC  C21123035   4.359   0.771   4.315  0.1760 -1.2857  0.0630
  187DOPC  H11R23036   4.441   0.824   4.369 -1.0102  0.6234  0.1020
  187DOPC  H11S23037   4.395   0.690   4.249  3.3361  0.4777 -0.5740
  187DOPC  C21223038   4.294   0.690   4.428  0.1933  0.6277  0.7268
  187DOPC  H12R23039   4.204   0.629   4.405 -0.4234  1.3325  1.2188
  187DOPC  H12S23040   4.256   0.763   4.502  1.9787 -0.4609  2.8473
  187DOPC  C21323041   4.388   0.596   4.501  0.3248 -0.4756 -0.1256
  187DOPC  H13R23042   4.471   0.658   4.542 -1.7793  1.7106  1.0836
  187DOPC  H13S23043   4.418   0.517   4.429 -1.6882 -0.5018 -0.9869
  187DOPC  C21423044   4.314   0.520   4.607 -0.1891  0.2216 -1.2386
  187DOPC  H14R23045   4.307   0.411   4.590 -4.1572  0.4248 -1.9105
  187DOPC  H14S23046   4.209   0.557   4.608  0.4366  2.3447  1.9886
  187DOPC  C21523047   4.378   0.530   4.747  0.1431 -0.4850 -0.3861
  187DOPC  H15R23048   4.485   0.502   4.737  0.1252 -0.3529 -0.9951
  187DOPC  H15S23049   4.334   0.457   4.819  1.2768 -1.4485 -0.6396
  187DOPC  C21623050   4.361   0.667   4.808 -0.2618  0.3675 -0.0914
  187DOPC  H16R23051   4.258   0.670   4.848 -0.2932 -0.9988 -0.0309
  187DOPC  H16S23052   4.376   0.751   4.737  1.8008 -0.4537 -0.7199
  187DOPC  C21723053   4.467   0.698   4.917  0.1185  0.0448  0.5043
  187DOPC  H17R23054   4.460   0.803   4.951  2.1587  0.7716 -1.1011
  187DOPC  H17S23055   4.567   0.687   4.871 -0.1426  1.2074 -0.3645
  187DOPC  C21823056   4.466   0.604   5.041  0.3141 -0.2937 -0.1780
  187DOPC  H18R23057   4.363   0.584   5.077  0.2561 -0.0210 -0.1930
  187DOPC  H18S23058   4.526   0.656   5.118 -0.0996  0.9520 -0.6714
  187DOPC  H18T23059   4.516   0.509   5.013 -1.3835 -0.5926 -2.5782
  187DOPC   C3323060   4.668   0.536   3.699  0.8751  0.6277  0.0680
  187DOPC   H3X23061   4.559   0.531   3.678  0.7603 -1.0152  0.8983
  187DOPC   H3Y23062   4.697   0.638   3.732  1.1992  0.8374 -0.8383
  187DOPC   C3423063   4.677   0.436   3.816  0.2964  0.4246  0.0671
  187DOPC   H4X23064   4.779   0.443   3.858  0.8171  0.7901 -1.2297
  187DOPC   H4Y23065   4.667   0.328   3.790 -0.4233  0.0442  1.7080
  187DOPC   C3523066   4.574   0.468   3.930 -0.6804 -0.0146 -0.2373
  187DOPC   H5X23067   4.570   0.383   4.002 -0.1828  0.1203 -0.0498
  187DOPC   H5Y23068   4.467   0.470   3.901 -0.8962  0.1885  0.5482
  187DOPC   C3623069   4.612   0.585   4.017 -0.0251  0.0209 -0.0670
  187DOPC   H6X23070   4.604   0.678   3.956 -0.6386  0.5789  0.8534
  187DOPC   H6Y23071   4.536   0.611   4.093  0.4899  0.8767  0.1748
  187DOPC   C3723072   4.747   0.577   4.088 -0.5866 -0.1720  0.3515
  187DOPC   H7X23073   4.753   0.481   4.143  1.2707 -0.1034  0.3272
  187DOPC   H7Y23074   4.827   0.565   4.012 -0.6862 -2.2883  0.5080
  187DOPC   C3823075   4.776   0.692   4.184  0.1414 -0.7181  0.1443
  187DOPC   H8X23076   4.685   0.709   4.245  0.5891  0.5754  0.4915
  187DOPC   H8Y23077   4.791   0.791   4.135  0.6816 -0.4222  0.8826
  187DOPC   C3923078   4.896   0.666   4.278  0.0003 -0.4992  0.1730
  187DOPC   H9X23079   4.973   0.608   4.224  2.0479  1.5465  0.7481
  187DOPC  C31023080   4.916   0.705   4.403 -0.1387 -0.1062 -0.1748
  187DOPC  H10X23081   5.004   0.665   4.456  1.5416  0.2362 -2.5469
  187DOPC  C31123082   4.823   0.796   4.489 -0.3937 -0.0175 -0.2176
  187DOPC  H11X23083   4.734   0.737   4.520  0.0640 -1.4037 -1.4051
  187DOPC  H11Y23084   4.792   0.882   4.426  0.6576 -0.2526 -1.1071
  187DOPC  C31223085   4.895   0.869   4.604  0.1761 -0.1056  0.2831
  187DOPC  H12X23086   4.975   0.918   4.544  0.8636 -2.7776 -1.1048
  187DOPC  H12Y23087   4.921   0.794   4.682 -0.1530 -1.3457 -0.7633
  187DOPC  C31323088   4.811   0.984   4.663 -0.1363  0.3213 -0.1991
  187DOPC  H13X23089   4.778   1.047   4.578  0.6387  0.0721 -0.6910
  187DOPC  H13Y23090   4.727   0.946   4.725  0.2640 -0.2484  0.0056
  187DOPC  C31423091   4.897   1.075   4.758 -0.3767 -0.4262  0.5843
  187DOPC  H14X23092   4.958   1.006   4.821 -1.2724 -1.5784  0.2087
  187DOPC  H14Y23093   4.978   1.120   4.696 -0.4418  0.3942  1.0748
  187DOPC  C31523094   4.814   1.169   4.854 -0.1191 -0.1765  0.2641
  187DOPC  H15X23095   4.774   1.114   4.942 -1.1141 -0.6063 -0.4318
  187DOPC  H15Y23096   4.729   1.194   4.786 -0.4834  0.1613  0.8395
  187DOPC  C31623097   4.902   1.289   4.900 -0.3933  0.9563 -0.1600
  187DOPC  H16X23098   4.924   1.344   4.806 -1.1390 -0.7279 -1.3842
  187DOPC  H16Y23099   4.843   1.352   4.971  0.2765  0.5939  0.7272
  187DOPC  C31723100   5.034   1.239   4.966 -0.6896  0.3112 -0.3263
  187DOPC  H17X23101   5.012   1.169   5.049  0.1844 -1.1277 -1.2694
  187DOPC  H17Y23102   5.104   1.193   4.893 -0.5549  0.8183 -0.5177
  187DOPC  C31823103   5.110   1.355   5.028 -0.0978  0.4134 -0.9733
  187DOPC  H18X23104   5.183   1.404   4.959  1.8290  0.1848  0.8113
  187DOPC  H18Y23105   5.046   1.434   5.074  1.4479  0.4251  1.2634
  187DOPC  H18Z23106   5.182   1.318   5.103 -1.1623 -0.5714 -0.4113
  188DOPC     N23107   0.609   0.749   2.756 -0.9096 -0.4900 -0.1867
  188DOPC   C1223108   0.501   0.843   2.729  1.3938 -0.3667  0.2692
  188DOPC  H12A23109   0.475   0.832   2.625  0.4005  1.5035  0.2659
  188DOPC  H12B23110   0.543   0.943   2.726 -0.6128  0.5009 -1.0348
  188DOPC   C1323111   0.640   0.750   2.900  0.1512 -0.2614 -0.4461
  188DOPC  H13A23112   0.653   0.851   2.936 -1.4555 -1.1362  3.0140
  188DOPC  H13B23113   0.561   0.704   2.958  0.4985  2.5241  2.5686
  188DOPC  H13C23114   0.733   0.699   2.921 -0.2698 -0.3738  1.2777
  188DOPC   C1423115   0.731   0.791   2.689  0.2130  0.1714  0.4696
  188DOPC  H14A23116   0.809   0.727   2.727 -0.2329 -1.1982 -0.8311
  188DOPC  H14B23117   0.730   0.778   2.582  0.2925  2.1377  0.1839
  188DOPC  H14C23118   0.761   0.892   2.714 -1.9892  0.2192  3.4476
  188DOPC   C1523119   0.564   0.619   2.711 -0.1429  0.0425 -0.6582
  188DOPC  H15A23120   0.493   0.580   2.782 -0.9499  1.2941 -0.7620
  188DOPC  H15B23121   0.649   0.554   2.694 -1.0692 -1.3640 -0.0717
  188DOPC  H15C23122   0.505   0.625   2.621  0.0348  0.2713 -0.7600
  188DOPC   C1123123   0.374   0.834   2.816  0.0449  0.3846  0.1687
  188DOPC  H11A23124   0.395   0.854   2.923  1.1775  1.7410 -0.2854
  188DOPC  H11B23125   0.305   0.913   2.780 -0.7383 -0.4860 -0.3105
  188DOPC     P23126   0.249   0.634   2.914  0.1300 -0.4285 -0.3231
  188DOPC   O1323127   0.156   0.527   2.859 -0.7540 -0.2674 -0.1751
  188DOPC   O1423128   0.193   0.735   3.002  0.2469 -0.0684 -0.5017
  188DOPC   O1223129   0.314   0.703   2.791 -0.7693  0.2453 -0.0987
  188DOPC   O1123130   0.376   0.573   2.985 -0.0867  0.1539 -0.2681
  188DOPC    C123131   0.382   0.492   3.100 -0.4527  0.0650  0.3953
  188DOPC    HA23132   0.426   0.392   3.078  0.1036 -0.3367  2.9482
  188DOPC    HB23133   0.284   0.478   3.150 -0.8187  2.0745  0.3240
  188DOPC    C223134   0.452   0.564   3.218  0.0305 -0.3627  0.6890
  188DOPC    HS23135   0.551   0.596   3.180  0.0490  1.6589  2.2470
  188DOPC   O2123136   0.464   0.470   3.325 -0.3332 -0.9703  0.8210
  188DOPC   C2123137   0.569   0.494   3.392  0.0853  0.1998 -0.6884
  188DOPC   O2223138   0.661   0.570   3.367 -0.1867  0.4735 -0.1739
  188DOPC   C2223139   0.564   0.396   3.519 -0.1580 -0.1159  0.2549
  188DOPC   H2R23140   0.576   0.293   3.480 -0.2771 -0.6468  1.5714
  188DOPC   H2S23141   0.456   0.409   3.544 -0.1676 -0.4444  0.3900
  188DOPC    C323142   0.365   0.684   3.267 -0.4106  0.0902  0.1941
  188DOPC    HX23143   0.264   0.663   3.309 -0.8844  2.9481  0.6687
  188DOPC    HY23144   0.348   0.753   3.182 -1.0217  0.0326  0.2666
  188DOPC   O3123145   0.440   0.755   3.377  0.4491  0.0046  0.4109
  188DOPC   C3123146   0.519   0.858   3.334 -0.0258  0.1927 -0.6554
  188DOPC   O3223147   0.508   0.916   3.227 -0.3033  0.1321  0.8207
  188DOPC   C3223148   0.592   0.905   3.457 -0.1447  0.2330 -0.4748
  188DOPC   H2X23149   0.542   0.999   3.489 -0.8692  0.4201 -2.0330
  188DOPC   H2Y23150   0.590   0.827   3.536 -0.4526 -1.2646 -1.9168
  188DOPC   C2323151   0.672   0.426   3.628 -0.1481 -0.3829 -0.0577
  188DOPC   H3R23152   0.771   0.414   3.581  0.2203 -0.0936  0.6311
  188DOPC   H3S23153   0.666   0.347   3.706  0.2613 -1.4278 -1.0635
  188DOPC   C2423154   0.660   0.562   3.702 -0.1703  0.2920  0.7261
  188DOPC   H4R23155   0.657   0.635   3.618 -0.1042 -3.2256 -2.5916
  188DOPC   H4S23156   0.745   0.578   3.772  1.5868 -0.4787 -1.1365
  188DOPC   C2523157   0.530   0.576   3.787 -0.0726  0.1834 -0.0742
  188DOPC   H5R23158   0.447   0.564   3.713 -0.7144  2.6569  0.1741
  188DOPC   H5S23159   0.519   0.677   3.831 -1.7661 -0.0172  0.0471
  188DOPC   C2623160   0.500   0.473   3.902 -0.1785 -0.7247  0.3451
  188DOPC   H6R23161   0.491   0.372   3.857  2.3976 -0.8107 -0.1485
  188DOPC   H6S23162   0.403   0.502   3.946 -1.3035  1.2134 -3.0499
  188DOPC   C2723163   0.614   0.470   4.001  0.2939  0.6275 -0.3238
  188DOPC   H7R23164   0.649   0.571   4.029 -2.0210  1.1587  0.9902
  188DOPC   H7S23165   0.696   0.425   3.942 -0.1311  0.6621 -0.9569
  188DOPC   C2823166   0.596   0.391   4.129 -0.5682  0.0987 -0.3036
  188DOPC   H8R23167   0.693   0.345   4.156 -1.0574  0.1137  1.6063
  188DOPC   H8S23168   0.522   0.310   4.110 -0.2372 -0.2634 -0.0587
  188DOPC   C2923169   0.535   0.475   4.238  0.0085 -0.3879 -0.8895
  188DOPC   H9R23170   0.438   0.520   4.213  1.0607  1.6206 -1.5260
  188DOPC  C21023171   0.582   0.494   4.363  0.2712 -0.6418  0.1427
  188DOPC  H10R23172   0.530   0.564   4.430 -0.4851 -3.3574  2.6080
  188DOPC  C21123173   0.710   0.438   4.427  0.0020  0.0695 -0.5066
  188DOPC  H11R23174   0.779   0.525   4.435 -0.8801  0.8579 -1.2032
  188DOPC  H11S23175   0.756   0.358   4.366  0.9768 -0.6299  1.0934
  188DOPC  C21223176   0.689   0.370   4.563 -0.4756  0.5778 -0.0635
  188DOPC  H12R23177   0.680   0.448   4.642  0.2521  0.2366  0.3683
  188DOPC  H12S23178   0.766   0.297   4.595 -1.7898 -1.1670 -0.7052
  188DOPC  C21323179   0.556   0.296   4.575 -0.1365  0.2653  0.3233
  188DOPC  H13R23180   0.549   0.215   4.500 -0.7627 -2.6854  3.3181
  188DOPC  H13S23181   0.464   0.358   4.563 -0.3961 -0.2370 -0.3122
  188DOPC  C21423182   0.535   0.222   4.703  0.2540  0.3543  0.1076
  188DOPC  H14R23183   0.552   0.291   4.789 -0.9007 -0.7594  1.2769
  188DOPC  H14S23184   0.614   0.147   4.726 -1.2430 -0.8651  1.4956
  188DOPC  C21523185   0.403   0.144   4.716  0.7562  0.1104  0.3373
  188DOPC  H15R23186   0.399   0.091   4.618  1.5553  2.7188 -1.2374
  188DOPC  H15S23187   0.315   0.209   4.734 -0.2743 -1.8044  2.7021
  188DOPC  C21623188   0.403   0.036   4.826  0.0998 -0.2797  0.0782
  188DOPC  H16R23189   0.429   0.088   4.921  0.6635  0.4591 -0.4680
  188DOPC  H16S23190   0.479  -0.044   4.820  0.2579 -0.3015  1.7347
  188DOPC  C21723191   0.259  -0.018   4.828  0.2144  0.0497 -0.0561
  188DOPC  H17R23192   0.219  -0.033   4.726 -0.0933  2.0420 -0.2842
  188DOPC  H17S23193   0.184   0.055   4.865  0.6842  0.7849 -0.5357
  188DOPC  C21823194   0.254  -0.148   4.911  0.1250 -1.0397 -0.2380
  188DOPC  H18R23195   0.309  -0.230   4.860  1.2560  0.8470 -2.2071
  188DOPC  H18S23196   0.151  -0.179   4.938 -0.1189 -0.1012 -0.0498
  188DOPC  H18T23197   0.304  -0.137   5.010  0.1751  0.3503 -0.3986
  188DOPC   C3323198   0.734   0.930   3.426  0.4702 -0.2422  0.5117
  188DOPC   H3X23199   0.731   1.006   3.346  0.2287 -0.2250  0.5355
  188DOPC   H3Y23200   0.784   0.841   3.382 -1.4234 -1.6473  1.0637
  188DOPC   C3423201   0.814   0.989   3.543 -0.7933 -0.3825  0.3731
  188DOPC   H4X23202   0.787   1.095   3.562 -0.8110 -0.4563  0.7641
  188DOPC   H4Y23203   0.924   0.980   3.530 -0.4251  0.9076  2.2029
  188DOPC   C3523204   0.800   0.909   3.674  0.1540  0.8213  0.5256
  188DOPC   H5X23205   0.830   0.805   3.648  1.8246  1.8323 -2.0115
  188DOPC   H5Y23206   0.691   0.911   3.696 -0.6602 -0.9649 -2.7103
  188DOPC   C3623207   0.885   0.964   3.782 -1.1095  0.2407  0.4115
  188DOPC   H6X23208   0.990   0.935   3.759 -1.5105  0.2437 -1.6608
  188DOPC   H6Y23209   0.884   1.075   3.772 -0.5058  0.0921 -2.3185
  188DOPC   C3723210   0.847   0.921   3.923 -0.3233  0.2866  0.4737
  188DOPC   H7X23211   0.824   0.812   3.924 -1.2544  0.4362  2.7279
  188DOPC   H7Y23212   0.935   0.938   3.988  0.4928 -1.0092 -0.2618
  188DOPC   C3823213   0.742   1.010   3.988 -0.2291  0.3759 -0.4090
  188DOPC   H8X23214   0.647   0.994   3.931 -0.8871  1.3239  0.3894
  188DOPC   H8Y23215   0.770   1.117   3.988  0.6962  0.1702  1.6935
  188DOPC   C3923216   0.725   0.977   4.136 -0.2710 -0.0068  0.7726
  188DOPC   H9X23217   0.724   0.869   4.153  2.5505  0.1982  3.1801
  188DOPC  C31023218   0.722   1.058   4.242 -0.1585  0.7280 -0.3091
  188DOPC  H10X23219   0.706   1.010   4.340  1.0232  1.8721  0.4737
  188DOPC  C31123220   0.717   1.206   4.251 -0.6114 -0.6208  0.2127
  188DOPC  H11X23221   0.666   1.256   4.165 -1.1934  1.4122  1.6706
  188DOPC  H11Y23222   0.821   1.245   4.260 -1.1660  0.7899  0.6273
  188DOPC  C31223223   0.633   1.259   4.369  0.2806  0.4602 -0.1658
  188DOPC  H12X23224   0.661   1.197   4.457  1.4817  1.5124  0.2238
  188DOPC  H12Y23225   0.523   1.251   4.357  0.3251 -0.0593 -0.2581
  188DOPC  C31323226   0.653   1.413   4.396 -0.0244  0.7319  0.1802
  188DOPC  H13X23227   0.759   1.438   4.418  0.5930 -1.5559  0.0055
  188DOPC  H13Y23228   0.630   1.465   4.301  0.5058 -0.2440 -0.4941
  188DOPC  C31423229   0.575   1.471   4.509  0.1547  0.2477  0.6254
  188DOPC  H14X23230   0.527   1.571   4.500 -0.7865 -0.3499 -1.9753
  188DOPC  H14Y23231   0.490   1.406   4.539  0.2344  0.5545  1.5402
  188DOPC  C31523232   0.657   1.471   4.639 -0.7101 -0.3004 -0.2191
  188DOPC  H15X23233   0.733   1.391   4.630  0.7241  0.9908 -0.0069
  188DOPC  H15Y23234   0.599   1.452   4.732 -1.4155  1.0243 -0.3603
  188DOPC  C31623235   0.730   1.603   4.664  0.1051 -0.0200  0.5170
  188DOPC  H16X23236   0.797   1.629   4.579 -2.4433 -1.8585 -2.2517
  188DOPC  H16Y23237   0.654   1.682   4.655  0.1242 -0.1705 -1.2094
  188DOPC  C31723238   0.807   1.627   4.791  0.2109 -0.1251 -0.2541
  188DOPC  H17X23239   0.734   1.638   4.875  0.6395  0.4532  0.0505
  188DOPC  H17Y23240   0.881   1.547   4.810  1.0584  0.9252  1.0347
  188DOPC  C31823241   0.883   1.752   4.776 -0.2765  0.3539  0.0878
  188DOPC  H18X23242   0.813   1.838   4.776 -1.2979 -0.4359  2.2271
  188DOPC  H18Y23243   0.956   1.761   4.859  0.0063 -2.9319  0.3129
  188DOPC  H18Z23244   0.949   1.753   4.686 -0.4500  0.2582 -0.0400
  189DOPC     N23245   3.905   7.506   3.064  0.3311 -0.6193  0.8831
  189DOPC   C1223246   3.889   7.431   3.193  0.3196  0.5947  0.2423
  189DOPC  H12A23247   3.961   7.350   3.194  0.2615  0.4040 -2.6670
  189DOPC  H12B23248   3.794   7.379   3.190  0.7585 -0.1925 -0.7292
  189DOPC   C1323249   3.924   7.414   2.951 -0.5741 -0.3872 -0.1860
  189DOPC  H13A23250   3.867   7.323   2.966  0.2430 -0.9750 -0.5612
  189DOPC  H13B23251   3.913   7.463   2.856 -0.3853  0.5581  0.2721
  189DOPC  H13C23252   4.026   7.381   2.958 -1.2787 -2.3597  2.4588
  189DOPC   C1423253   4.014   7.606   3.064 -0.0808 -0.1339 -0.4656
  189DOPC  H14A23254   4.101   7.549   3.095 -0.3643 -0.6074 -0.5380
  189DOPC  H14B23255   4.037   7.639   2.965 -0.8429  3.3206  0.3923
  189DOPC  H14C23256   4.006   7.687   3.135 -0.2183 -1.4000  1.0205
  189DOPC   C1523257   3.779   7.589   3.034 -0.1460 -0.1362  0.2707
  189DOPC  H15A23258   3.696   7.531   2.995 -0.2910 -0.5102  1.1063
  189DOPC  H15B23259   3.800   7.677   2.975  0.2742 -0.0073  0.6053
  189DOPC  H15C23260   3.741   7.632   3.125  0.1285  0.3999  0.1330
  189DOPC   C1123261   3.885   7.502   3.334  0.1032  0.1533  0.2960
  189DOPC  H11A23262   3.877   7.426   3.414 -1.1290  0.8380  0.8541
  189DOPC  H11B23263   3.983   7.550   3.356  0.8755 -1.7943  1.3589
  189DOPC     P23264   3.631   7.538   3.386  0.1058 -0.4535 -0.3872
  189DOPC   O1323265   3.580   7.440   3.290 -0.0344  0.1875  0.3925
  189DOPC   O1423266   3.536   7.650   3.423  0.1761  0.1177  0.6229
  189DOPC   O1223267   3.774   7.589   3.350 -0.2127  0.4065 -0.3453
  189DOPC   O1123268   3.668   7.453   3.518 -0.4560 -0.9246  1.1461
  189DOPC    C123269   3.712   7.533   3.629  0.4743  0.0404  0.2221
  189DOPC    HA23270   3.736   7.639   3.609 -2.2178  0.5574 -0.5658
  189DOPC    HB23271   3.810   7.490   3.660  0.8765  0.2010 -0.8040
  189DOPC    C223272   3.613   7.524   3.752 -0.5447 -0.5253 -0.1037
  189DOPC    HS23273   3.672   7.559   3.840 -0.6471 -0.4873 -0.0502
  189DOPC   O2123274   3.554   7.398   3.782 -0.5846 -0.3352 -0.3594
  189DOPC   C2123275   3.642   7.304   3.808  0.5572 -0.1065  0.0961
  189DOPC   O2223276   3.747   7.314   3.864  0.3285  0.1823 -0.3529
  189DOPC   C2223277   3.589   7.175   3.747 -0.5010  0.7588  0.0336
  189DOPC   H2R23278   3.661   7.096   3.774 -1.2979 -0.8746 -2.3146
  189DOPC   H2S23279   3.583   7.181   3.636 -0.0691  0.2394 -0.0210
  189DOPC    C323280   3.487   7.618   3.735 -0.1737  0.4883  0.0063
  189DOPC    HX23281   3.432   7.556   3.661  1.5102  0.5564 -1.3827
  189DOPC    HY23282   3.508   7.718   3.692 -0.0047  0.4260 -0.0575
  189DOPC   O3123283   3.408   7.627   3.856  0.0402 -0.6413 -0.5438
  189DOPC   C3123284   3.308   7.711   3.850  0.0552  0.3682 -0.3464
  189DOPC   O3223285   3.262   7.749   3.747 -1.0250  0.1030  0.5870
  189DOPC   C3223286   3.256   7.748   3.990 -0.0128 -0.0551 -0.0020
  189DOPC   H2X23287   3.225   7.855   3.981  0.7356  0.1038 -0.8440
  189DOPC   H2Y23288   3.164   7.687   4.003 -0.4799  0.5057 -0.5777
  189DOPC   C2323289   3.451   7.133   3.812 -0.4807 -0.5355 -0.1674
  189DOPC   H3R23290   3.437   7.028   3.780  0.2529 -0.9441  0.8123
  189DOPC   H3S23291   3.370   7.196   3.769 -1.4449 -0.8637  1.1217
  189DOPC   C2423292   3.430   7.155   3.965  0.5211  0.7163  0.7541
  189DOPC   H4R23293   3.416   7.263   3.989  1.1043  0.9602  0.0678
  189DOPC   H4S23294   3.528   7.131   4.013  1.4763  2.1699 -0.3434
  189DOPC   C2523295   3.315   7.073   4.020 -0.3585 -0.2908  1.0744
  189DOPC   H5R23296   3.320   6.970   3.979  2.0322 -0.0814  0.6433
  189DOPC   H5S23297   3.224   7.122   3.981 -0.1493  0.2117  1.2057
  189DOPC   C2623298   3.303   7.074   4.174 -0.3553  0.1852 -0.2512
  189DOPC   H6R23299   3.299   7.177   4.214 -3.0622  0.0687 -0.0248
  189DOPC   H6S23300   3.398   7.028   4.209  0.1700  1.7537  0.4316
  189DOPC   C2723301   3.180   6.998   4.218  0.2340  0.0538  0.0780
  189DOPC   H7R23302   3.162   6.908   4.156 -1.3351 -0.1044  0.7092
  189DOPC   H7S23303   3.087   7.056   4.200 -0.9112 -1.4872  0.7294
  189DOPC   C2823304   3.174   6.970   4.369 -0.1648 -0.2950 -0.3509
  189DOPC   H8R23305   3.196   7.065   4.421  1.1717  0.0113 -1.3969
  189DOPC   H8S23306   3.258   6.903   4.396  0.0942 -0.1472 -0.7676
  189DOPC   C2923307   3.039   6.917   4.407 -0.4242 -0.5719 -0.2429
  189DOPC   H9R23308   2.949   6.948   4.351  0.0037 -1.6848 -1.5819
  189DOPC  C21023309   3.010   6.849   4.520  0.5722 -0.1105 -0.3058
  189DOPC  H10R23310   2.908   6.813   4.538  0.4116  0.5313  0.0692
  189DOPC  C21123311   3.112   6.801   4.616 -0.0046 -0.0242  0.4412
  189DOPC  H11R23312   3.206   6.851   4.582 -1.1019  1.0487 -1.1384
  189DOPC  H11S23313   3.102   6.691   4.629  0.1895  0.0986  1.8090
  189DOPC  C21223314   3.090   6.851   4.759 -0.1116 -0.5342  0.3848
  189DOPC  H12R23315   2.988   6.810   4.776  0.3651 -1.4352  1.1268
  189DOPC  H12S23316   3.089   6.962   4.765  1.8349 -0.3718 -1.2980
  189DOPC  C21323317   3.172   6.784   4.872  0.2185 -0.4164 -0.9090
  189DOPC  H13R23318   3.276   6.811   4.842  1.6932 -2.5416  1.8066
  189DOPC  H13S23319   3.158   6.674   4.872 -0.9566 -0.3040  0.4104
  189DOPC  C21423320   3.155   6.842   5.010  0.2327  0.2264 -0.9904
  189DOPC  H14R23321   3.057   6.805   5.048 -0.1076  1.8171 -0.2197
  189DOPC  H14S23322   3.157   6.952   5.002  0.1879  0.2360 -0.8658
  189DOPC  C21523323   3.269   6.798   5.108  0.1363  0.1613  0.3304
  189DOPC  H15R23324   3.363   6.828   5.056  0.3854 -0.0062  0.6825
  189DOPC  H15S23325   3.280   6.688   5.113  1.2458  0.1850 -0.9901
  189DOPC  C21623326   3.251   6.868   5.243 -0.9702 -0.2791  0.3696
  189DOPC  H16R23327   3.158   6.840   5.296  1.7481 -3.3708  4.0282
  189DOPC  H16S23328   3.263   6.972   5.205 -2.2445 -0.4206 -0.4993
  189DOPC  C21723329   3.368   6.843   5.334  0.0988  0.5929 -0.3312
  189DOPC  H17R23330   3.464   6.837   5.278  1.4178  1.5239  1.7053
  189DOPC  H17S23331   3.336   6.743   5.368 -1.8652  0.4829 -2.2628
  189DOPC  C21823332   3.377   6.949   5.446 -0.5207  0.7049 -0.5939
  189DOPC  H18R23333   3.455   6.922   5.520 -0.1712  1.5672 -0.6348
  189DOPC  H18S23334   3.284   6.947   5.507 -0.1732 -3.1316  0.0627
  189DOPC  H18T23335   3.393   7.050   5.403 -2.9067  1.3941  0.0011
  189DOPC   C3323336   3.367   7.723   4.099 -0.1090 -0.0272 -0.7474
  189DOPC   H3X23337   3.462   7.780   4.085  0.5677 -0.6701  0.9545
  189DOPC   H3Y23338   3.397   7.616   4.092  0.7095  0.1136  0.3845
  189DOPC   C3423339   3.322   7.764   4.241 -0.2876 -0.2279  0.6743
  189DOPC   H4X23340   3.236   7.701   4.272 -0.0048 -1.3240 -0.6740
  189DOPC   H4Y23341   3.278   7.866   4.236  1.1659  0.5155  1.8647
  189DOPC   C3523342   3.434   7.762   4.339 -0.3023 -0.8865  0.1823
  189DOPC   H5X23343   3.502   7.841   4.302 -1.6755 -0.5435 -1.7679
  189DOPC   H5Y23344   3.480   7.662   4.326 -2.0548 -1.5791 -1.1377
  189DOPC   C3623345   3.392   7.789   4.489  0.3872  0.8294 -0.6714
  189DOPC   H6X23346   3.328   7.877   4.511 -1.0522 -0.3288 -0.0334
  189DOPC   H6Y23347   3.339   7.700   4.529  1.0939  1.0507  0.8472
  189DOPC   C3723348   3.519   7.798   4.571 -0.3579 -0.3161  0.3197
  189DOPC   H7X23349   3.579   7.706   4.558  1.3873  0.5664  1.6767
  189DOPC   H7Y23350   3.571   7.889   4.533  0.5097 -1.7382 -2.1631
  189DOPC   C3823351   3.498   7.821   4.725  0.4011  0.1172  0.2551
  189DOPC   H8X23352   3.431   7.738   4.756 -0.7748  0.3227 -1.6233
  189DOPC   H8Y23353   3.449   7.920   4.735 -1.3032 -0.7118  0.4006
  189DOPC   C3923354   3.632   7.835   4.794  0.2076  0.7620  0.1277
  189DOPC   H9X23355   3.717   7.800   4.734 -1.2920  0.3970 -1.9163
  189DOPC  C31023356   3.666   7.872   4.916 -0.0350  0.4968  0.2383
  189DOPC  H10X23357   3.775   7.865   4.932 -0.1020  0.4167  0.6696
  189DOPC  C31123358   3.583   7.922   5.024  1.0392 -0.0936  0.1037
  189DOPC  H11X23359   3.577   7.852   5.111  0.2824 -1.3247 -0.9175
  189DOPC  H11Y23360   3.477   7.929   4.994  0.7356 -0.0911  1.1389
  189DOPC  C31223361   3.629   8.055   5.086  0.1687 -0.2825 -0.2568
  189DOPC  H12X23362   3.663   8.128   5.009  0.9299 -0.5042 -0.1374
  189DOPC  H12Y23363   3.718   8.020   5.143 -0.7893 -0.3514  1.2527
  189DOPC  C31323364   3.527   8.123   5.179 -0.5148  0.2089 -0.3098
  189DOPC  H13X23365   3.581   8.217   5.204  1.0694 -0.0828 -2.3780
  189DOPC  H13Y23366   3.442   8.156   5.114  1.1482 -1.2265 -3.4569
  189DOPC  C31423367   3.476   8.043   5.299  0.8373 -0.8952  0.4499
  189DOPC  H14X23368   3.430   7.944   5.276  0.1146 -1.3366  3.3696
  189DOPC  H14Y23369   3.556   8.010   5.369  0.5719  1.1465  1.7815
  189DOPC  C31523370   3.366   8.116   5.381 -0.2922 -0.5053  0.0733
  189DOPC  H15X23371   3.299   8.166   5.308  1.8912  2.6828  0.0665
  189DOPC  H15Y23372   3.420   8.191   5.442 -1.3770  0.6488 -0.3535
  189DOPC  C31623373   3.295   8.035   5.489  1.0701  0.0850  0.1203
  189DOPC  H16X23374   3.200   7.988   5.456  1.3588 -3.0980  3.2344
  189DOPC  H16Y23375   3.361   7.950   5.515  0.0362 -1.0126 -0.7365
  189DOPC  C31723376   3.255   8.121   5.615 -0.1493  0.5292 -0.4099
  189DOPC  H17X23377   3.213   8.041   5.679  1.6784  1.3788  2.0061
  189DOPC  H17Y23378   3.345   8.157   5.670  0.1178 -1.1607  0.3439
  189DOPC  C31823379   3.155   8.237   5.583 -0.6598 -0.1656 -0.1528
  189DOPC  H18X23380   3.120   8.277   5.681  1.1467 -0.0189  0.4620
  189DOPC  H18Y23381   3.193   8.318   5.518 -2.0027  0.6025 -0.0163
  189DOPC  H18Z23382   3.069   8.193   5.528  0.7854 -1.9027 -1.1462
  190DOPC     N23383   1.963   0.141   3.358  0.4007  0.1905 -0.5775
  190DOPC   C1223384   2.004   0.008   3.282 -0.0351 -1.4390  0.1177
  190DOPC  H12A23385   2.096  -0.021   3.331  2.3830  3.1364 -1.1316
  190DOPC  H12B23386   2.047   0.039   3.188  0.5476 -0.5665  0.6587
  190DOPC   C1323387   1.933   0.102   3.497 -0.1658 -0.0463 -0.1040
  190DOPC  H13A23388   2.015   0.050   3.544 -1.2092  0.5324  2.5140
  190DOPC  H13B23389   1.900   0.182   3.561  0.8110  1.0399 -0.9132
  190DOPC  H13C23390   1.855   0.027   3.487  0.4957 -0.4502 -3.7515
  190DOPC   C1423391   1.845   0.207   3.294 -0.6671  0.0646 -0.1980
  190DOPC  H14A23392   1.769   0.134   3.269 -0.2425 -1.1432  1.7868
  190DOPC  H14B23393   1.803   0.287   3.353 -0.4411  0.6788 -0.8504
  190DOPC  H14C23394   1.870   0.266   3.207  0.7768  1.1161  0.8835
  190DOPC   C1523395   2.076   0.247   3.358  0.4969  0.4832 -0.5274
  190DOPC  H15A23396   2.168   0.218   3.406  0.2239  1.3473  0.5483
  190DOPC  H15B23397   2.043   0.338   3.406 -0.3400 -0.3328  0.4726
  190DOPC  H15C23398   2.103   0.277   3.257 -0.1311 -0.6543 -1.0493
  190DOPC   C1123399   1.899  -0.105   3.265 -0.4432 -0.7105 -0.6548
  190DOPC  H11A23400   1.954  -0.189   3.216 -1.5167 -2.6115  1.2097
  190DOPC  H11B23401   1.865  -0.149   3.361  1.7828 -0.5204  0.2865
  190DOPC     P23402   1.664  -0.143   3.145 -0.2211 -0.2806  0.2213
  190DOPC   O1323403   1.717  -0.272   3.106 -0.1658  0.6913 -0.3457
  190DOPC   O1423404   1.597  -0.062   3.040  0.2800  0.1808  0.3083
  190DOPC   O1223405   1.790  -0.059   3.182 -0.3209  0.1874 -0.4004
  190DOPC   O1123406   1.574  -0.147   3.276  0.0803  0.0052 -0.1015
  190DOPC    C123407   1.484  -0.255   3.298  0.7184 -0.7010 -0.4385
  190DOPC    HA23408   1.493  -0.293   3.402  1.5760 -3.0827 -1.3078
  190DOPC    HB23409   1.510  -0.342   3.235  1.1849 -1.9431  1.3967
  190DOPC    C223410   1.337  -0.200   3.290  0.2445 -0.8406 -0.3529
  190DOPC    HS23411   1.318  -0.180   3.182 -2.0856 -3.4062 -0.5367
  190DOPC   O2123412   1.320  -0.095   3.385 -0.5181 -0.1846  0.2509
  190DOPC   C2123413   1.214  -0.020   3.365  0.7339  0.1539  0.5922
  190DOPC   O2223414   1.135  -0.035   3.273 -0.0196 -0.6030  0.6815
  190DOPC   C2223415   1.198   0.085   3.481  0.3126 -0.0381 -0.2990
  190DOPC   H2R23416   1.099   0.136   3.472  1.0576  1.6902  0.8133
  190DOPC   H2S23417   1.275   0.159   3.452  0.8104 -0.2580  0.4452
  190DOPC    C323418   1.235  -0.314   3.317  0.0506 -0.0325 -0.6445
  190DOPC    HX23419   1.276  -0.394   3.251  0.6501 -0.4212  0.1734
  190DOPC    HY23420   1.134  -0.283   3.284 -0.6762  0.6782  2.0093
  190DOPC   O3123421   1.247  -0.353   3.458 -0.2967  0.5628 -0.2778
  190DOPC   C3123422   1.160  -0.446   3.502  0.6175 -0.3416  0.7306
  190DOPC   O3223423   1.064  -0.486   3.436  0.0003 -0.2739  0.0446
  190DOPC   C3223424   1.203  -0.508   3.630 -0.8238  0.6304  0.6107
  190DOPC   H2X23425   1.108  -0.516   3.687 -2.6329 -0.6504 -2.3291
  190DOPC   H2Y23426   1.243  -0.609   3.605 -1.7447  0.5386 -0.5860
  190DOPC   C2323427   1.244   0.036   3.623 -0.3031 -0.0040  0.1612
  190DOPC   H3R23428   1.348  -0.002   3.630  0.8978  2.3991 -2.4836
  190DOPC   H3S23429   1.185  -0.057   3.639 -1.8444  1.2188  2.0626
  190DOPC   C2423430   1.212   0.130   3.729  0.4318  0.8394  0.6589
  190DOPC   H4R23431   1.106   0.161   3.718 -0.0155 -1.1737 -1.5073
  190DOPC   H4S23432   1.260   0.229   3.716 -0.7175  1.3600  0.2456
  190DOPC   C2523433   1.241   0.090   3.873 -0.8886 -0.4654  0.3838
  190DOPC   H5R23434   1.351   0.073   3.878 -0.5018  1.4860 -0.6280
  190DOPC   H5S23435   1.198  -0.006   3.910  1.5704 -1.8716 -0.1644
  190DOPC   C2623436   1.220   0.200   3.979 -0.3422 -0.1540 -0.0969
  190DOPC   H6R23437   1.116   0.229   4.003 -0.0760  0.2492  0.5791
  190DOPC   H6S23438   1.279   0.289   3.950 -0.4301  0.0552  0.3596
  190DOPC   C2723439   1.268   0.156   4.125  1.2211  0.4630  0.3684
  190DOPC   H7R23440   1.369   0.113   4.111  1.2408  0.6880 -0.1866
  190DOPC   H7S23441   1.195   0.076   4.149  0.6969  1.4784  2.3452
  190DOPC   C2823442   1.256   0.269   4.232 -0.0282  0.7765  0.3528
  190DOPC   H8R23443   1.151   0.303   4.238 -0.0843  0.9739 -1.2588
  190DOPC   H8S23444   1.307   0.363   4.202  0.6597 -0.1121 -1.3619
  190DOPC   C2923445   1.321   0.241   4.367  0.0947 -0.1849  0.1321
  190DOPC   H9R23446   1.419   0.287   4.386  0.1678 -0.9976  2.0158
  190DOPC  C21023447   1.264   0.168   4.469 -0.6460 -0.5274 -0.4653
  190DOPC  H10R23448   1.330   0.146   4.554  0.3306  0.7945 -0.8411
  190DOPC  C21123449   1.126   0.116   4.481  0.5006  0.6467 -0.6580
  190DOPC  H11R23450   1.119   0.005   4.483 -1.4525  0.7383  0.0699
  190DOPC  H11S23451   1.060   0.154   4.400  0.0041 -1.1437 -1.1400
  190DOPC  C21223452   1.058   0.158   4.615  0.1698 -0.1731  0.5731
  190DOPC  H12R23453   0.953   0.121   4.613 -0.3552  1.2157 -1.5542
  190DOPC  H12S23454   1.048   0.268   4.605  1.4043 -0.1365 -0.6484
  190DOPC  C21323455   1.126   0.121   4.752 -0.0383 -0.0720 -0.1737
  190DOPC  H13R23456   1.229   0.159   4.767 -0.1163  0.6263 -1.3325
  190DOPC  H13S23457   1.147   0.012   4.763 -2.4357 -0.5808 -0.0173
  190DOPC  C21423458   1.042   0.171   4.869  0.2781 -0.6249  0.5388
  190DOPC  H14R23459   1.033   0.282   4.863  1.1365 -0.5784 -0.1670
  190DOPC  H14S23460   1.096   0.147   4.963  2.5940  0.2694 -0.4626
  190DOPC  C21523461   0.898   0.116   4.888  0.2474  0.0824  0.2349
  190DOPC  H15R23462   0.840   0.131   4.795  1.2916 -0.3735 -0.5096
  190DOPC  H15S23463   0.851   0.184   4.963 -0.5135  0.5399 -0.6400
  190DOPC  C21623464   0.891  -0.025   4.947  0.3155 -0.3164  0.4235
  190DOPC  H16R23465   0.966  -0.030   5.028  0.7424 -1.6056 -0.0242
  190DOPC  H16S23466   0.912  -0.101   4.869  2.6482  1.1982 -0.5244
  190DOPC  C21723467   0.757  -0.047   5.014  0.1720  0.3318  0.0551
  190DOPC  H17R23468   0.670   0.011   4.977 -0.4011 -1.8809 -2.3720
  190DOPC  H17S23469   0.777  -0.001   5.113  0.7815 -0.8765  0.5233
  190DOPC  C21823470   0.716  -0.191   5.032  0.1974 -0.3397  0.4339
  190DOPC  H18R23471   0.705  -0.240   4.933  0.0692  2.1263 -0.8389
  190DOPC  H18S23472   0.617  -0.190   5.083  0.7606 -0.2949  1.5570
  190DOPC  H18T23473   0.788  -0.238   5.102 -0.0190  2.1063  2.4756
  190DOPC   C3323474   1.315  -0.439   3.712 -0.4638  0.4662 -0.9130
  190DOPC   H3X23475   1.285  -0.336   3.742 -2.4896 -0.8862  2.3051
  190DOPC   H3Y23476   1.408  -0.426   3.653 -0.3895  2.6504 -0.3972
  190DOPC   C3423477   1.352  -0.523   3.836 -0.1354 -0.0503 -0.1455
  190DOPC   H4X23478   1.382  -0.624   3.801  0.1177 -0.0801  0.1483
  190DOPC   H4Y23479   1.259  -0.540   3.894  0.2562  2.0488  1.2246
  190DOPC   C3523480   1.473  -0.472   3.919  0.0929 -0.2357  0.0564
  190DOPC   H5X23481   1.557  -0.445   3.851  0.1108 -0.3703  0.0258
  190DOPC   H5Y23482   1.507  -0.551   3.989  0.4841 -0.0367  0.0964
  190DOPC   C3623483   1.442  -0.350   4.011 -0.3612  0.0410 -0.0298
  190DOPC   H6X23484   1.523  -0.342   4.086 -1.8697 -0.9602  1.8057
  190DOPC   H6Y23485   1.439  -0.268   3.936 -0.4836 -0.3786 -0.4975
  190DOPC   C3723486   1.303  -0.347   4.086  0.3598 -0.1803 -0.0414
  190DOPC   H7X23487   1.229  -0.322   4.007  1.2299 -1.8053 -1.4510
  190DOPC   H7Y23488   1.277  -0.445   4.132 -0.3346 -0.6999 -1.4600
  190DOPC   C3823489   1.307  -0.240   4.189  0.1699  0.0447 -0.1301
  190DOPC   H8X23490   1.356  -0.143   4.166 -1.1967  1.1680  1.4264
  190DOPC   H8Y23491   1.380  -0.268   4.268  0.2879 -0.5857 -0.4574
  190DOPC   C3923492   1.165  -0.212   4.241 -0.1075  0.1040  0.4608
  190DOPC   H9X23493   1.095  -0.153   4.181  0.4322 -1.2413 -1.5805
  190DOPC  C31023494   1.111  -0.262   4.354 -0.3579  0.3826 -0.4346
  190DOPC  H10X23495   1.005  -0.240   4.374 -0.5484 -0.5694 -0.3563
  190DOPC  C31123496   1.176  -0.350   4.462 -0.9731  0.2529  0.1782
  190DOPC  H11X23497   1.287  -0.360   4.460 -0.9066  1.0165 -0.6843
  190DOPC  H11Y23498   1.133  -0.452   4.455 -0.6730  0.1358  0.0287
  190DOPC  C31223499   1.127  -0.290   4.596  0.4905 -0.6894 -0.8901
  190DOPC  H12X23500   1.017  -0.304   4.597 -0.0978  2.9813 -0.4662
  190DOPC  H12Y23501   1.141  -0.181   4.605 -0.5685 -0.6981  2.2920
  190DOPC  C31323502   1.190  -0.353   4.720 -0.4271  0.7036  0.7775
  190DOPC  H13X23503   1.195  -0.464   4.714 -0.6336  0.7079  0.5176
  190DOPC  H13Y23504   1.292  -0.309   4.727 -0.4614  1.5036 -2.5414
  190DOPC  C31423505   1.126  -0.321   4.855 -0.2416 -0.1754  0.5199
  190DOPC  H14X23506   1.110  -0.211   4.857 -2.3312 -0.4379  0.4460
  190DOPC  H14Y23507   1.028  -0.375   4.857 -0.8772  0.8526 -0.9991
  190DOPC  C31523508   1.214  -0.352   4.975 -0.1599 -0.0316 -0.1831
  190DOPC  H15X23509   1.309  -0.300   4.951 -0.3531 -0.6868 -2.6722
  190DOPC  H15Y23510   1.230  -0.462   4.980 -2.2270 -0.2916  2.6406
  190DOPC  C31623511   1.146  -0.311   5.102  0.1971  0.0035  0.8425
  190DOPC  H16X23512   1.142  -0.200   5.097  0.7927 -0.0254 -0.7853
  190DOPC  H16Y23513   1.039  -0.341   5.105  0.4408 -0.8685  1.4255
  190DOPC  C31723514   1.216  -0.358   5.233  0.3860 -0.1621  0.5467
  190DOPC  H17X23515   1.171  -0.458   5.250 -3.1226  1.2656  0.6043
  190DOPC  H17Y23516   1.325  -0.372   5.222  0.3612 -0.8224  1.0538
  190DOPC  C31823517   1.181  -0.275   5.355  0.7065 -0.1460 -0.5164
  190DOPC  H18X23518   1.228  -0.322   5.444 -0.6293  0.0822  0.3256
  190DOPC  H18Y23519   1.224  -0.174   5.336  0.4724  0.1141  0.2964
  190DOPC  H18Z23520   1.072  -0.261   5.369  0.9717 -0.1086  1.9316
  191DOPC     N23521   4.011   6.098   3.253 -0.4275 -0.2615 -0.3006
  191DOPC   C1223522   3.907   6.076   3.370 -0.3259 -0.1427  0.1267
  191DOPC  H12A23523   3.959   6.007   3.435 -0.6938 -1.2608 -0.7403
  191DOPC  H12B23524   3.814   6.034   3.335  0.0847 -0.8633 -0.1088
  191DOPC   C1323525   4.050   5.961   3.205  0.0197 -0.4164  1.1639
  191DOPC  H13A23526   3.965   5.895   3.195 -1.2008  0.7834  3.0855
  191DOPC  H13B23527   4.105   5.970   3.112 -1.1918  1.0046  0.5456
  191DOPC  H13C23528   4.111   5.920   3.283  0.5072 -0.6754  0.6557
  191DOPC   C1423529   4.129   6.167   3.306  0.6260 -0.1890  0.5260
  191DOPC  H14A23530   4.174   6.110   3.386  1.2044 -1.1041 -0.4255
  191DOPC  H14B23531   4.211   6.168   3.236  0.7847 -2.6218  0.5896
  191DOPC  H14C23532   4.111   6.265   3.349 -0.3571 -0.5202  0.9175
  191DOPC   C1523533   3.956   6.174   3.138 -0.1081  1.1819 -0.3563
  191DOPC  H15A23534   3.951   6.279   3.162 -0.5358  1.4575 -1.5527
  191DOPC  H15B23535   3.860   6.132   3.113 -1.1334  1.7585  2.3330
  191DOPC  H15C23536   4.017   6.157   3.050 -0.5824 -3.3710 -0.0594
  191DOPC   C1123537   3.870   6.192   3.460 -0.3138  1.0695  0.1061
  191DOPC  H11A23538   3.809   6.152   3.544 -0.5272 -0.9292 -0.9326
  191DOPC  H11B23539   3.966   6.226   3.503  0.8785 -0.5213 -1.1365
  191DOPC     P23540   3.657   6.256   3.322 -0.1970  0.1690 -0.3658
  191DOPC   O1323541   3.646   6.118   3.278  0.4622  0.5055  0.1915
  191DOPC   O1423542   3.614   6.364   3.227  0.0610  0.3458 -0.2677
  191DOPC   O1223543   3.800   6.289   3.377 -0.0732  0.6791 -0.4767
  191DOPC   O1123544   3.572   6.270   3.457  0.1646 -0.2402 -0.1244
  191DOPC    C123545   3.546   6.403   3.509 -0.6125  0.1011  0.4125
  191DOPC    HA23546   3.445   6.438   3.481 -0.5974 -0.1286  0.0589
  191DOPC    HB23547   3.625   6.475   3.479  2.2663 -1.9426  2.4170
  191DOPC    C223548   3.542   6.394   3.664 -0.0499 -0.3054  0.1532
  191DOPC    HS23549   3.513   6.499   3.686  0.0218 -0.4344  0.8903
  191DOPC   O2123550   3.671   6.358   3.715 -0.1634 -0.0212  0.0340
  191DOPC   C2123551   3.770   6.452   3.703  0.0151  0.1608  0.5484
  191DOPC   O2223552   3.750   6.568   3.664 -0.2992  0.0869 -0.1941
  191DOPC   C2223553   3.904   6.405   3.753 -0.2031 -0.1881  0.3028
  191DOPC   H2R23554   3.961   6.488   3.799  3.0846 -1.0094 -1.9101
  191DOPC   H2S23555   3.963   6.383   3.661  0.4680  0.6965  0.5106
  191DOPC    C323556   3.429   6.300   3.718 -0.5059  0.7411 -0.0623
  191DOPC    HX23557   3.466   6.196   3.702 -1.5418  0.7439 -3.1070
  191DOPC    HY23558   3.329   6.316   3.671 -1.7077 -0.1979  2.0145
  191DOPC   O3123559   3.420   6.313   3.863  0.2277 -0.4256 -0.3975
  191DOPC   C3123560   3.343   6.416   3.903  0.2563 -0.3636  0.0682
  191DOPC   O3223561   3.286   6.486   3.812 -0.7031 -0.6761 -0.5006
  191DOPC   C3223562   3.337   6.437   4.057 -0.3667 -0.2408 -0.1318
  191DOPC   H2X23563   3.236   6.396   4.080 -0.6599  0.4288 -0.2232
  191DOPC   H2Y23564   3.413   6.374   4.107 -0.3839 -1.1694 -1.2066
  191DOPC   C2323565   3.895   6.278   3.839 -0.6217  0.5151 -0.3053
  191DOPC   H3R23566   3.995   6.233   3.855 -0.0762  0.9389 -2.2567
  191DOPC   H3S23567   3.840   6.203   3.778  1.0076 -0.5112 -0.5900
  191DOPC   C2423568   3.823   6.316   3.971 -0.1124  1.1942  0.0240
  191DOPC   H4R23569   3.812   6.218   4.023  0.2465 -0.1037 -2.2077
  191DOPC   H4S23570   3.721   6.351   3.945 -1.0113 -1.1799  0.0437
  191DOPC   C2523571   3.909   6.403   4.069  0.6476 -0.4636  0.3201
  191DOPC   H5R23572   3.927   6.504   4.025 -2.1768 -0.2090 -0.5077
  191DOPC   H5S23573   4.005   6.354   4.095  1.4757  0.3745 -1.0236
  191DOPC   C2623574   3.837   6.434   4.199  0.4686 -0.5636  0.4427
  191DOPC   H6R23575   3.740   6.484   4.179  0.4494 -1.4767 -2.0488
  191DOPC   H6S23576   3.903   6.501   4.258 -2.0562  1.3876  1.2428
  191DOPC   C2723577   3.815   6.308   4.286  0.1823  0.1081 -0.3099
  191DOPC   H7R23578   3.902   6.242   4.269  0.1610 -0.2850  1.0194
  191DOPC   H7S23579   3.731   6.247   4.245 -0.0595  0.4418 -0.3183
  191DOPC   C2823580   3.789   6.325   4.440  0.1588  0.4751  0.2432
  191DOPC   H8R23581   3.701   6.392   4.454  0.3733  0.6953  0.5757
  191DOPC   H8S23582   3.872   6.380   4.489  0.2070 -0.4071  1.1952
  191DOPC   C2923583   3.752   6.196   4.511 -0.3329 -0.2530 -0.2933
  191DOPC   H9R23584   3.664   6.149   4.464 -2.6880  3.9733 -0.6219
  191DOPC  C21023585   3.819   6.133   4.613 -0.3335 -0.6947  0.5249
  191DOPC  H10R23586   3.789   6.031   4.640  0.6635 -1.1500 -0.0131
  191DOPC  C21123587   3.937   6.181   4.686  0.2096  0.1689  1.0775
  191DOPC  H11R23588   4.021   6.206   4.618 -1.3624  0.4081 -0.8576
  191DOPC  H11S23589   3.974   6.093   4.744  0.3942 -1.5026 -1.3957
  191DOPC  C21223590   3.924   6.306   4.776 -0.2041 -0.9050 -0.7147
  191DOPC  H12R23591   3.887   6.393   4.719 -3.9566 -1.9649 -0.1570
  191DOPC  H12S23592   4.029   6.325   4.807 -0.3947  0.7402 -1.0132
  191DOPC  C21323593   3.825   6.282   4.896  0.1909 -0.1846 -0.3810
  191DOPC  H13R23594   3.872   6.202   4.956  0.9213  1.8079  1.8762
  191DOPC  H13S23595   3.734   6.249   4.843 -0.0398 -0.7378  0.3513
  191DOPC  C21423596   3.793   6.404   4.983  0.3514 -0.6262  0.3940
  191DOPC  H14R23597   3.722   6.465   4.925 -0.8795 -1.1013  1.3508
  191DOPC  H14S23598   3.876   6.468   5.019  0.5811  0.4556 -1.9214
  191DOPC  C21523599   3.735   6.361   5.116 -0.6719  1.0402  0.0095
  191DOPC  H15R23600   3.801   6.305   5.186 -2.2256  1.1019  1.5939
  191DOPC  H15S23601   3.658   6.289   5.083  1.5921 -0.8404 -1.5551
  191DOPC  C21623602   3.676   6.480   5.190 -0.0845 -0.2095 -0.4063
  191DOPC  H16R23603   3.631   6.554   5.120 -0.9974 -0.1122  0.2676
  191DOPC  H16S23604   3.753   6.529   5.253  0.2917  1.5289 -2.1122
  191DOPC  C21723605   3.572   6.435   5.298  0.1511  0.0817  0.5015
  191DOPC  H17R23606   3.504   6.368   5.242 -1.7140  1.8852  0.4789
  191DOPC  H17S23607   3.507   6.513   5.342  1.5873 -0.1442  3.2087
  191DOPC  C21823608   3.634   6.353   5.409 -0.1596 -0.5175  0.6927
  191DOPC  H18R23609   3.704   6.420   5.464  1.3641  0.3490 -2.0696
  191DOPC  H18S23610   3.696   6.267   5.375  0.3494  0.7697 -1.8722
  191DOPC  H18T23611   3.549   6.329   5.476 -0.2045  0.0382  0.8358
  191DOPC   C3323612   3.341   6.580   4.112  0.5376 -0.2898 -0.0386
  191DOPC   H3X23613   3.295   6.574   4.213  1.1013 -0.8871  0.1918
  191DOPC   H3Y23614   3.280   6.650   4.051  0.2790  0.0479  0.6078
  191DOPC   C3423615   3.475   6.642   4.143 -0.3538 -0.2540  0.5975
  191DOPC   H4X23616   3.549   6.564   4.171  0.5323 -0.6347 -2.4338
  191DOPC   H4Y23617   3.458   6.713   4.227 -2.0100  1.5556 -1.1605
  191DOPC   C3523618   3.529   6.729   4.025  0.3363  0.5202 -0.1412
  191DOPC   H5X23619   3.444   6.784   3.979  0.1995  0.2539 -0.2084
  191DOPC   H5Y23620   3.562   6.661   3.944  0.9070  0.9532 -0.2783
  191DOPC   C3623621   3.639   6.826   4.068  0.1786  0.0263 -0.7386
  191DOPC   H6X23622   3.601   6.915   4.123  0.4269 -1.1604  1.4599
  191DOPC   H6Y23623   3.697   6.780   4.150 -0.2064  1.1131  0.1677
  191DOPC   C3723624   3.740   6.869   3.957 -0.1661  0.6056 -0.4771
  191DOPC   H7X23625   3.779   6.771   3.922  0.6245  1.2184 -1.3391
  191DOPC   H7Y23626   3.678   6.912   3.875 -0.2846 -1.5026 -1.5698
  191DOPC   C3823627   3.865   6.940   4.013  0.1538  0.0791  0.0721
  191DOPC   H8X23628   3.948   6.938   3.938 -0.4893  0.0701 -0.6510
  191DOPC   H8Y23629   3.895   6.880   4.102  0.1557 -0.1661 -0.0924
  191DOPC   C3923630   3.844   7.083   4.051 -0.1547  0.3192 -0.5420
  191DOPC   H9X23631   3.738   7.112   4.054 -0.5411 -1.0963  0.2819
  191DOPC  C31023632   3.936   7.183   4.060  1.0588  0.2951  0.0029
  191DOPC  H10X23633   3.892   7.282   4.078  0.7381  0.1548  0.0016
  191DOPC  C31123634   4.084   7.172   4.051  0.1933  0.5352  0.3142
  191DOPC  H11X23635   4.123   7.215   3.956  1.4571 -2.2169 -0.5057
  191DOPC  H11Y23636   4.132   7.074   4.071 -1.2038  0.1671  2.1275
  191DOPC  C31223637   4.131   7.276   4.167  0.3005  0.1255 -0.0907
  191DOPC  H12X23638   4.082   7.375   4.173 -1.4564 -0.7521  0.9348
  191DOPC  H12Y23639   4.235   7.303   4.141  1.2697 -1.3824  1.9328
  191DOPC  C31323640   4.131   7.213   4.303 -0.4534  0.5277 -0.2307
  191DOPC  H13X23641   4.034   7.200   4.355  0.1178  0.4341  0.8476
  191DOPC  H13Y23642   4.175   7.112   4.294 -1.2329  0.1349  0.2655
  191DOPC  C31423643   4.229   7.288   4.405  0.5112 -0.8251  0.1969
  191DOPC  H14X23644   4.336   7.295   4.376  0.7312  1.1306  1.2686
  191DOPC  H14Y23645   4.198   7.395   4.412  1.0923 -0.5925 -0.6557
  191DOPC  C31523646   4.229   7.231   4.545 -0.6342  0.2587  0.4785
  191DOPC  H15X23647   4.301   7.148   4.557 -2.0052 -0.7244  2.7121
  191DOPC  H15Y23648   4.126   7.201   4.574 -0.7811 -0.3010 -0.5821
  191DOPC  C31623649   4.277   7.326   4.650 -0.3978 -0.0943 -0.4992
  191DOPC  H16X23650   4.379   7.356   4.619 -0.7914  4.3284  1.7552
  191DOPC  H16Y23651   4.222   7.422   4.645 -1.0125 -0.4700 -1.3257
  191DOPC  C31723652   4.301   7.275   4.791  0.2937 -0.1577 -0.3516
  191DOPC  H17X23653   4.361   7.182   4.787 -1.5006 -1.3996 -0.0765
  191DOPC  H17Y23654   4.348   7.360   4.844 -2.5249  1.0087  0.4857
  191DOPC  C31823655   4.168   7.243   4.860  0.7129 -0.7625 -0.4506
  191DOPC  H18X23656   4.115   7.150   4.830 -0.6288 -0.3912  0.6860
  191DOPC  H18Y23657   4.192   7.228   4.967  0.1751 -1.3396 -0.4039
  191DOPC  H18Z23658   4.085   7.315   4.848  1.2706 -0.2409 -1.2846
  192DOPC     N23659   7.521   3.473   2.629 -0.1728 -0.2592  0.5473
  192DOPC   C1223660   7.473   3.463   2.774  0.1321 -0.4638 -0.6909
  192DOPC  H12A23661   7.558   3.419   2.824  0.0660 -0.1718 -0.3224
  192DOPC  H12B23662   7.394   3.391   2.784 -1.5438  1.3718 -0.0188
  192DOPC   C1323663   7.406   3.529   2.546 -0.9489  0.7580  0.5164
  192DOPC  H13A23664   7.330   3.455   2.526 -0.9884  0.9721 -0.1557
  192DOPC  H13B23665   7.357   3.612   2.596 -2.2359  0.1785  0.2400
  192DOPC  H13C23666   7.436   3.561   2.447 -1.0738  1.8975  0.8346
  192DOPC   C1423667   7.556   3.343   2.569  0.6618  0.3211  0.6817
  192DOPC  H14A23668   7.474   3.272   2.569  1.3606 -0.5186  2.0611
  192DOPC  H14B23669   7.597   3.354   2.470  0.8544  1.6449  0.8889
  192DOPC  H14C23670   7.628   3.292   2.630  0.3998 -1.6690 -0.5940
  192DOPC   C1523671   7.641   3.558   2.621  0.8694  0.1252 -0.4911
  192DOPC  H15A23672   7.683   3.565   2.521  0.9254 -1.4229 -0.6088
  192DOPC  H15B23673   7.725   3.521   2.676 -0.6124 -1.1752  1.0116
  192DOPC  H15C23674   7.630   3.657   2.661  0.9518 -0.2497  0.4959
  192DOPC   C1123675   7.434   3.588   2.853 -0.1432  0.3928  0.3225
  192DOPC  H11A23676   7.354   3.648   2.804 -0.7518  0.8999  1.8634
  192DOPC  H11B23677   7.387   3.559   2.950 -1.6930  0.7405 -0.2848
  192DOPC     P23678   7.653   3.654   2.980 -0.3459  0.0460  0.1644
  192DOPC   O1323679   7.753   3.764   2.976  0.2233 -0.0873  0.0759
  192DOPC   O1423680   7.701   3.515   2.963  0.9031  0.6629 -0.0029
  192DOPC   O1223681   7.546   3.675   2.869 -0.4189 -0.0790  0.3132
  192DOPC   O1123682   7.582   3.658   3.118  0.1689  0.2411  0.3821
  192DOPC    C123683   7.492   3.754   3.167  0.8187  0.2079  0.4430
  192DOPC    HA23684   7.406   3.710   3.222  0.4914 -0.1361 -0.3266
  192DOPC    HB23685   7.442   3.798   3.078  0.5440 -1.0622 -0.0553
  192DOPC    C223686   7.554   3.866   3.246  0.2691  0.0343 -0.3300
  192DOPC    HS23687   7.639   3.915   3.194  1.7059 -1.9693  0.0232
  192DOPC   O2123688   7.612   3.810   3.368 -0.0773 -0.0314  0.2770
  192DOPC   C2123689   7.689   3.896   3.435 -0.5248 -0.3966 -0.5485
  192DOPC   O2223690   7.723   4.012   3.396 -0.4942 -0.4209 -0.7945
  192DOPC   C2223691   7.736   3.837   3.575 -0.0301  0.3830 -0.2994
  192DOPC   H2R23692   7.831   3.891   3.595  0.2280 -0.2687  0.2944
  192DOPC   H2S23693   7.763   3.730   3.561 -0.6022  0.1652  0.2045
  192DOPC    C323694   7.444   3.967   3.288 -0.0147 -0.4780  0.2068
  192DOPC    HX23695   7.405   4.016   3.197  0.6631 -0.4969 -0.0986
  192DOPC    HY23696   7.481   4.044   3.359  1.1377  0.9668 -1.8500
  192DOPC   O3123697   7.339   3.895   3.355 -0.8063 -0.8189  0.1127
  192DOPC   C3123698   7.223   3.959   3.349 -0.1808  0.2196  0.1120
  192DOPC   O3223699   7.198   4.063   3.289  0.4944 -0.4388 -0.0999
  192DOPC   C3223700   7.124   3.897   3.450 -0.1391 -0.1763 -0.7421
  192DOPC   H2X23701   7.112   3.790   3.425  0.9362 -0.4812 -0.0105
  192DOPC   H2Y23702   7.173   3.889   3.549 -0.0034  0.7532 -0.7268
  192DOPC   C2323703   7.641   3.875   3.696  0.4537  0.3820 -0.0183
  192DOPC   H3R23704   7.611   3.982   3.691  1.7973  0.7949  0.5177
  192DOPC   H3S23705   7.690   3.857   3.794 -1.4536 -1.0656  0.7402
  192DOPC   C2423706   7.515   3.786   3.708  0.4952 -0.1830  0.0437
  192DOPC   H4R23707   7.555   3.692   3.751  1.0322 -1.0840 -2.2710
  192DOPC   H4S23708   7.461   3.757   3.615 -0.5969  1.1922  0.2147
  192DOPC   C2523709   7.408   3.851   3.807  0.0015 -0.5916 -0.7634
  192DOPC   H5R23710   7.341   3.771   3.844 -0.1532  0.9256  2.6588
  192DOPC   H5S23711   7.356   3.931   3.751 -0.5450 -1.4190 -1.4549
  192DOPC   C2623712   7.460   3.933   3.930 -0.1463 -0.5257 -0.6467
  192DOPC   H6R23713   7.369   3.980   3.972  0.2346 -1.1802  0.9566
  192DOPC   H6S23714   7.528   4.015   3.897 -0.0956 -1.2314 -2.4018
  192DOPC   C2723715   7.535   3.855   4.035 -0.2133  0.3354 -0.2922
  192DOPC   H7R23716   7.634   3.828   3.993  0.2843  0.5789  0.6871
  192DOPC   H7S23717   7.482   3.762   4.063 -1.1646  0.9595  0.0274
  192DOPC   C2823718   7.556   3.938   4.162  0.3266  0.2977  0.6227
  192DOPC   H8R23719   7.607   3.876   4.239  2.0632 -1.6106 -1.8746
  192DOPC   H8S23720   7.452   3.962   4.192  0.9467  1.8930  1.5958
  192DOPC   C2923721   7.640   4.068   4.140 -0.5244  0.5525 -0.1747
  192DOPC   H9R23722   7.617   4.115   4.043 -2.8143 -0.4490 -0.1854
  192DOPC  C21023723   7.732   4.129   4.223  0.0028  0.0302  0.4028
  192DOPC  H10R23724   7.772   4.225   4.188  1.6709 -0.8167 -0.1002
  192DOPC  C21123725   7.786   4.081   4.355  0.4487  0.0167  0.2324
  192DOPC  H11R23726   7.868   4.144   4.395 -0.5407  0.7134  1.2330
  192DOPC  H11S23727   7.840   3.984   4.345  3.2175  1.5517 -0.7912
  192DOPC  C21223728   7.684   4.055   4.468 -0.1474 -0.7628  0.8876
  192DOPC  H12R23729   7.613   3.972   4.447  0.8332 -1.5447  0.5339
  192DOPC  H12S23730   7.636   4.154   4.479  1.8329  0.4305 -0.6059
  192DOPC  C21323731   7.759   4.007   4.600 -0.2736  0.1699 -0.3712
  192DOPC  H13R23732   7.687   3.989   4.682 -0.0596 -0.0425 -0.2271
  192DOPC  H13S23733   7.816   4.094   4.639  3.0729 -2.5609  1.3560
  192DOPC  C21423734   7.868   3.899   4.591 -0.1813  0.2153 -0.2097
  192DOPC  H14R23735   7.935   3.925   4.506 -1.0658  0.8607 -0.7304
  192DOPC  H14S23736   7.815   3.804   4.568  0.5898 -0.5128  0.9341
  192DOPC  C21523737   7.929   3.884   4.732 -0.5008 -0.7487 -0.6119
  192DOPC  H15R23738   7.847   3.873   4.805  0.0602 -1.3823 -0.0676
  192DOPC  H15S23739   7.977   3.981   4.760 -0.0972 -1.4148  1.1111
  192DOPC  C21623740   8.030   3.776   4.759 -0.2451 -0.4695 -0.2879
  192DOPC  H16R23741   8.125   3.783   4.701  1.2694 -2.0916  1.8424
  192DOPC  H16S23742   7.998   3.684   4.705  0.3630  0.2481 -1.9521
  192DOPC  C21723743   8.047   3.738   4.912  0.1884  0.0218 -0.2073
  192DOPC  H17R23744   8.087   3.634   4.921 -0.6995 -0.3929 -0.8461
  192DOPC  H17S23745   7.948   3.734   4.961 -0.4433  2.4132 -1.1834
  192DOPC  C21823746   8.143   3.835   4.977 -0.4697 -1.0516  0.2789
  192DOPC  H18R23747   8.093   3.935   4.975  3.5769  1.1934  0.3205
  192DOPC  H18S23748   8.232   3.840   4.910 -1.2122 -0.3637 -0.6935
  192DOPC  H18T23749   8.172   3.824   5.084  0.0721  2.8346  0.7094
  192DOPC   C3323750   6.990   3.966   3.461  0.0489  0.2986 -1.6253
  192DOPC   H3X23751   6.933   3.956   3.366 -2.0894 -0.5000 -0.3140
  192DOPC   H3Y23752   6.980   4.075   3.482  0.8956 -0.0244  0.7011
  192DOPC   C3423753   6.896   3.897   3.562 -0.0945  0.2732 -0.2074
  192DOPC   H4X23754   6.875   3.793   3.529  1.1840  0.4559 -1.6900
  192DOPC   H4Y23755   6.799   3.952   3.562 -0.9256 -0.9700  2.9211
  192DOPC   C3523756   6.930   3.893   3.715  0.4519 -0.5020 -0.1027
  192DOPC   H5X23757   6.836   3.881   3.773  0.9045 -0.3933  0.6636
  192DOPC   H5Y23758   6.985   3.985   3.744  0.7224 -0.4714 -0.7068
  192DOPC   C3623759   7.008   3.769   3.758 -0.5619  0.7043  0.3996
  192DOPC   H6X23760   6.973   3.683   3.697 -0.6034  0.4406  0.7878
  192DOPC   H6Y23761   7.116   3.782   3.733 -1.1708  0.0923 -2.9459
  192DOPC   C3723762   6.988   3.725   3.905 -0.3503 -0.0326 -0.3246
  192DOPC   H7X23763   6.879   3.738   3.920 -0.0995  4.1975 -1.1359
  192DOPC   H7Y23764   7.011   3.617   3.920 -0.5206 -0.1910 -1.1167
  192DOPC   C3823765   7.078   3.797   3.999 -0.4295  0.3818 -0.1806
  192DOPC   H8X23766   7.069   3.905   3.976 -1.5272  0.9805  2.6612
  192DOPC   H8Y23767   7.187   3.781   3.982 -0.2760  0.2337  0.8704
  192DOPC   C3923768   7.041   3.773   4.144 -0.0642 -0.1942 -0.7600
  192DOPC   H9X23769   6.979   3.686   4.168 -0.2662  0.5711  1.7305
  192DOPC  C31023770   7.063   3.863   4.240 -0.6075  0.6820  0.1899
  192DOPC  H10X23771   7.031   3.850   4.344  2.1948  1.1360  1.1987
  192DOPC  C31123772   7.137   3.988   4.218 -0.0382  0.0948 -0.1038
  192DOPC  H11X23773   7.073   4.060   4.164  0.5942  2.0088  1.6035
  192DOPC  H11Y23774   7.229   3.979   4.156  0.2726 -0.4973  0.4251
  192DOPC  C31223775   7.175   4.058   4.352  0.6576  0.5115  0.5705
  192DOPC  H12X23776   7.084   4.088   4.409 -0.3300  1.3398 -1.3639
  192DOPC  H12Y23777   7.216   4.160   4.337  1.6223 -0.1167 -1.3540
  192DOPC  C31323778   7.259   3.961   4.437 -0.2517 -0.3631  0.1247
  192DOPC  H13X23779   7.211   3.863   4.456 -0.8380 -0.1141 -0.0370
  192DOPC  H13Y23780   7.359   3.942   4.393  0.1473  1.9486 -0.0923
  192DOPC  C31423781   7.284   4.029   4.576 -0.1051 -0.6740 -0.5095
  192DOPC  H14X23782   7.304   4.136   4.554 -2.2808 -0.0601  0.2048
  192DOPC  H14Y23783   7.183   4.028   4.622  0.2366  0.6770  0.3083
  192DOPC  C31523784   7.382   3.955   4.676  0.4398 -0.4084  0.5383
  192DOPC  H15X23785   7.481   3.945   4.626  1.6582 -1.2326  2.9755
  192DOPC  H15Y23786   7.343   3.856   4.707 -2.2496 -0.1660 -1.6308
  192DOPC  C31623787   7.400   4.037   4.802 -0.2445 -0.1426  0.3874
  192DOPC  H16X23788   7.488   3.994   4.854  1.7479  1.9073 -1.1131
  192DOPC  H16Y23789   7.436   4.139   4.775  3.9808 -1.2086  1.2907
  192DOPC  C31723790   7.273   4.036   4.890 -0.3678 -0.2837 -0.0581
  192DOPC  H17X23791   7.285   4.121   4.962  0.4825  0.6029 -1.2023
  192DOPC  H17Y23792   7.185   4.055   4.825 -0.8707  3.1475  1.3761
  192DOPC  C31823793   7.250   3.903   4.955  0.2389 -0.3628 -0.2635
  192DOPC  H18X23794   7.339   3.875   5.015 -0.4589 -1.8076  0.1444
  192DOPC  H18Y23795   7.164   3.919   5.023 -0.1648  1.3141 -1.1188
  192DOPC  H18Z23796   7.231   3.827   4.876 -1.0729  0.6954 -1.0076
  193DOPC     N23797   4.400   1.034   3.077 -0.5858  0.0592  0.2276
  193DOPC   C1223798   4.491   0.927   3.142  0.8594 -0.1213 -0.8120
  193DOPC  H12A23799   4.535   0.859   3.071  1.5350 -0.5286 -0.0163
  193DOPC  H12B23800   4.422   0.869   3.201 -0.2835  1.4181 -0.5546
  193DOPC   C1323801   4.335   1.106   3.190  1.0946  0.3846  0.2222
  193DOPC  H13A23802   4.271   1.038   3.245  1.0602  0.2572  0.0245
  193DOPC  H13B23803   4.416   1.149   3.247  2.1733  1.8808 -2.2678
  193DOPC  H13C23804   4.270   1.185   3.154 -0.4262  0.7578  3.3643
  193DOPC   C1423805   4.300   0.978   2.986  0.2465  0.0335 -0.0046
  193DOPC  H14A23806   4.354   0.920   2.913  2.7418  1.9593  0.1962
  193DOPC  H14B23807   4.220   0.921   3.032 -0.7402 -1.8406 -3.6719
  193DOPC  H14C23808   4.251   1.057   2.931 -0.4446  0.2638  0.9121
  193DOPC   C1523809   4.483   1.130   3.005  0.1813  0.5433  0.0998
  193DOPC  H15A23810   4.564   1.155   3.072  0.7968  2.6086 -1.2807
  193DOPC  H15B23811   4.429   1.222   2.984 -0.9248  0.0393  0.7083
  193DOPC  H15C23812   4.526   1.088   2.914  1.6926  0.5492  0.7738
  193DOPC   C1123813   4.602   0.974   3.239 -0.1693 -0.0642 -0.0544
  193DOPC  H11A23814   4.575   1.071   3.285 -1.5448 -0.3884 -0.1405
  193DOPC  H11B23815   4.633   0.894   3.310  0.3657 -0.8392 -1.1151
  193DOPC     P23816   4.824   0.890   3.126  0.2373  0.4492  0.1516
  193DOPC   O1323817   4.924   0.939   3.033 -0.0832 -0.2606 -0.1014
  193DOPC   O1423818   4.746   0.766   3.082 -0.2184 -0.0860 -0.6993
  193DOPC   O1223819   4.723   0.998   3.156  0.1449 -0.2851  0.1922
  193DOPC   O1123820   4.899   0.865   3.263  0.2674 -0.5072  0.4376
  193DOPC    C123821   4.968   0.972   3.331  0.1746 -0.2986 -0.0708
  193DOPC    HA23822   4.920   1.071   3.320 -0.4707 -0.8630 -3.0312
  193DOPC    HB23823   5.063   0.995   3.279  0.8589  0.7994  1.5592
  193DOPC    C223824   5.000   0.954   3.481  0.6254 -0.2831 -0.0023
  193DOPC    HS23825   5.011   1.051   3.534 -1.0741 -0.0964  0.0369
  193DOPC   O2123826   5.126   0.873   3.497 -0.0479 -0.6027  0.3255
  193DOPC   C2123827   5.239   0.937   3.467  0.3256 -0.6265 -0.3235
  193DOPC   O2223828   5.247   1.057   3.430  0.4143 -0.9566  0.1695
  193DOPC   C2223829   5.358   0.851   3.490 -0.3040 -0.8035 -0.0225
  193DOPC   H2R23830   5.362   0.789   3.397  1.2019 -0.5798 -0.1289
  193DOPC   H2S23831   5.355   0.782   3.577  3.2788 -0.3217  0.6101
  193DOPC    C323832   4.885   0.883   3.553  0.2087 -0.2184  0.1715
  193DOPC    HX23833   4.879   0.774   3.533 -0.7207 -0.1918  0.2555
  193DOPC    HY23834   4.789   0.931   3.523  1.2702  0.5737 -2.2434
  193DOPC   O3123835   4.903   0.902   3.697  0.4957  0.2215  0.4590
  193DOPC   C3123836   4.964   0.806   3.754 -0.7797  0.4031 -0.3815
  193DOPC   O3223837   4.996   0.699   3.710 -0.2798  0.2075  0.0486
  193DOPC   C3223838   4.977   0.845   3.903  0.2682  1.3720 -0.3297
  193DOPC   H2X23839   4.878   0.886   3.934  0.4691  0.5837  1.5162
  193DOPC   H2Y23840   4.996   0.758   3.970  1.3822  2.4660  0.8075
  193DOPC   C2323841   5.487   0.933   3.498  0.2859 -0.1746 -0.0029
  193DOPC   H3R23842   5.505   0.999   3.410 -2.5430  1.2707  0.3879
  193DOPC   H3S23843   5.573   0.864   3.482  0.8693  0.8200 -1.3642
  193DOPC   C2423844   5.500   1.001   3.635 -0.8711  0.4647 -0.1244
  193DOPC   H4R23845   5.406   1.060   3.641 -0.1516  1.5142  1.1245
  193DOPC   H4S23846   5.579   1.079   3.636  0.2304 -0.5931 -0.6207
  193DOPC   C2523847   5.518   0.905   3.752 -0.0365  0.6417 -0.3660
  193DOPC   H5R23848   5.599   0.834   3.725 -0.4113  0.4463 -0.9894
  193DOPC   H5S23849   5.423   0.849   3.766  0.1417 -0.0977 -1.9045
  193DOPC   C2623850   5.556   0.981   3.882 -0.5452 -0.7746  0.0645
  193DOPC   H6R23851   5.556   0.902   3.960 -2.6489  0.3092  1.2312
  193DOPC   H6S23852   5.483   1.057   3.917  0.6186  0.4851 -0.1421
  193DOPC   C2723853   5.696   1.036   3.879  0.3506 -0.5282  0.0443
  193DOPC   H7R23854   5.683   1.146   3.870  1.4629 -0.3530  0.4011
  193DOPC   H7S23855   5.758   0.996   3.796 -0.0857  0.0519 -0.5664
  193DOPC   C2823856   5.776   1.000   4.019 -0.2185 -0.0031  0.0211
  193DOPC   H8R23857   5.885   1.020   4.011 -0.2210 -0.1083 -0.2894
  193DOPC   H8S23858   5.777   0.889   4.021 -1.2929 -0.0240 -0.0343
  193DOPC   C2923859   5.718   1.050   4.146 -0.3305  0.3412 -0.5430
  193DOPC   H9R23860   5.609   1.033   4.149 -0.3546  0.6124  0.6708
  193DOPC  C21023861   5.794   1.107   4.242  0.2775  0.4259 -0.3285
  193DOPC  H10R23862   5.753   1.128   4.341 -1.7848 -2.4584 -0.4457
  193DOPC  C21123863   5.946   1.139   4.242  0.5193 -0.4603  0.2778
  193DOPC  H11R23864   5.959   1.240   4.285  1.8809 -0.2444 -0.6035
  193DOPC  H11S23865   5.982   1.136   4.137  0.0966 -1.1151  0.1448
  193DOPC  C21223866   6.026   1.031   4.322 -0.2510  0.2372 -0.9776
  193DOPC  H12R23867   6.132   1.049   4.293 -0.1839  0.2646 -0.7192
  193DOPC  H12S23868   6.004   0.930   4.281  3.2138 -0.7034 -0.8459
  193DOPC  C21323869   6.015   1.034   4.476 -0.1941 -0.2081  0.5017
  193DOPC  H13R23870   5.917   0.990   4.501 -0.6763  1.0324  0.8363
  193DOPC  H13S23871   6.008   1.133   4.524 -2.2378 -0.4166  0.6941
  193DOPC  C21423872   6.112   0.932   4.546  0.7151 -0.8811 -0.6477
  193DOPC  H14R23873   6.114   0.831   4.499 -0.3704 -0.9883 -0.4947
  193DOPC  H14S23874   6.073   0.915   4.649 -1.3487 -0.0937 -1.2489
  193DOPC  C21523875   6.263   0.971   4.549  0.4594  0.2531  0.5898
  193DOPC  H15R23876   6.254   1.070   4.597  0.3167  0.4389  0.1828
  193DOPC  H15S23877   6.298   0.970   4.443  1.0752 -1.0613  0.7900
  193DOPC  C21623878   6.362   0.880   4.618  1.2255 -0.5504  0.1185
  193DOPC  H16R23879   6.460   0.931   4.603 -0.0215  1.3824 -1.8922
  193DOPC  H16S23880   6.377   0.782   4.569 -0.9780 -1.2857  0.8051
  193DOPC  C21723881   6.334   0.856   4.768 -0.0178 -0.0182 -0.0781
  193DOPC  H17R23882   6.228   0.825   4.781 -0.2406  1.0235  0.6657
  193DOPC  H17S23883   6.346   0.951   4.823 -1.7948  0.5035 -0.5403
  193DOPC  C21823884   6.438   0.770   4.839 -0.1674  0.2267 -0.1614
  193DOPC  H18R23885   6.515   0.831   4.892 -1.9957  1.1319  1.5940
  193DOPC  H18S23886   6.494   0.708   4.766  2.2045  0.1226  1.6189
  193DOPC  H18T23887   6.394   0.701   4.914  4.1296 -1.3966  1.2349
  193DOPC   C3323888   5.085   0.955   3.938  1.1705  0.3093 -0.4797
  193DOPC   H3X23889   5.071   1.044   3.873  0.9323  0.0263 -0.8153
  193DOPC   H3Y23890   5.186   0.913   3.917  0.1196 -1.7561 -1.6524
  193DOPC   C3423891   5.083   1.005   4.088 -0.1381 -0.1783  0.4630
  193DOPC   H4X23892   5.086   0.913   4.150  0.1097 -0.9406 -0.6628
  193DOPC   H4Y23893   4.995   1.070   4.107 -0.0168 -0.1044  0.7831
  193DOPC   C3523894   5.216   1.082   4.109  0.1794  0.3108  0.0108
  193DOPC   H5X23895   5.227   1.147   4.020 -0.0461  0.5989  0.1940
  193DOPC   H5Y23896   5.307   1.018   4.097  1.0885  1.1791  1.8197
  193DOPC   C3623897   5.224   1.161   4.240  0.2479 -0.2804  0.4031
  193DOPC   H6X23898   5.316   1.224   4.234  0.8557 -1.2712 -1.2847
  193DOPC   H6Y23899   5.137   1.227   4.259  0.8601  0.6716  0.0090
  193DOPC   C3723900   5.233   1.077   4.367  0.4411 -0.2389  0.3180
  193DOPC   H7X23901   5.151   1.003   4.368 -0.5659  0.6851 -2.4836
  193DOPC   H7Y23902   5.316   1.004   4.355 -0.0763 -0.7880  0.0168
  193DOPC   C3823903   5.235   1.155   4.497  1.0585  0.0125 -0.5437
  193DOPC   H8X23904   5.147   1.222   4.508  0.2581 -0.9290 -1.1354
  193DOPC   H8Y23905   5.327   1.217   4.483  1.2394  0.4188  1.9896
  193DOPC   C3923906   5.247   1.065   4.616  1.1939  0.6772 -0.0960
  193DOPC   H9X23907   5.163   0.993   4.613  1.3170  0.1051  3.9405
  193DOPC  C31023908   5.318   1.050   4.723  0.1962 -0.6808  0.4394
  193DOPC  H10X23909   5.297   0.966   4.792  0.0092 -1.2379 -0.2865
  193DOPC  C31123910   5.435   1.133   4.768  0.2722 -0.5363 -0.0472
  193DOPC  H11X23911   5.426   1.168   4.873  0.3261 -0.1645 -0.1650
  193DOPC  H11Y23912   5.446   1.218   4.698 -0.6185 -0.9812 -0.7516
  193DOPC  C31223913   5.561   1.055   4.758  0.3752 -0.0398  0.0798
  193DOPC  H12X23914   5.569   1.019   4.653  1.0984 -0.3230  0.2207
  193DOPC  H12Y23915   5.563   0.962   4.818  1.2485 -0.3024 -0.3264
  193DOPC  C31323916   5.687   1.136   4.781 -0.8892  0.0935  0.3137
  193DOPC  H13X23917   5.680   1.178   4.884  0.2918 -0.4749  0.6339
  193DOPC  H13Y23918   5.774   1.069   4.792 -3.2709 -3.1659  0.7255
  193DOPC  C31423919   5.714   1.251   4.684 -0.4997  0.0903  0.0166
  193DOPC  H14X23920   5.724   1.209   4.581 -1.8856  0.5269 -0.3232
  193DOPC  H14Y23921   5.635   1.329   4.691  1.5124  2.1476  1.1934
  193DOPC  C31523922   5.842   1.323   4.717  0.3115 -0.1354  1.0024
  193DOPC  H15X23923   5.930   1.255   4.725 -1.0965 -1.9198  2.2337
  193DOPC  H15Y23924   5.825   1.376   4.814  1.6542 -1.4491  2.0019
  193DOPC  C31623925   5.863   1.427   4.602 -0.1092  0.3680 -0.8848
  193DOPC  H16X23926   5.875   1.386   4.499  4.3537  2.7017 -1.5651
  193DOPC  H16Y23927   5.775   1.495   4.595 -1.0131 -0.6668  0.0702
  193DOPC  C31723928   5.999   1.511   4.615  0.5323 -0.0719  0.1477
  193DOPC  H17X23929   6.017   1.566   4.709  0.0447 -0.3414  0.4069
  193DOPC  H17Y23930   6.084   1.440   4.607  1.1719  0.4564  1.8433
  193DOPC  C31823931   6.004   1.613   4.500  0.5640 -0.3712 -0.2969
  193DOPC  H18X23932   6.019   1.553   4.408  1.3835  2.0984 -1.8637
  193DOPC  H18Y23933   5.909   1.669   4.490  1.3821  1.6969  2.1813
  193DOPC  H18Z23934   6.086   1.687   4.514 -0.5911  1.1520 -1.3409
  194DOPC     N23935   1.106   0.025   2.695 -0.5817  0.4180 -0.4865
  194DOPC   C1223936   1.005  -0.042   2.785  0.1306 -0.5027  0.7109
  194DOPC  H12A23937   1.044  -0.120   2.847  1.0658 -1.2891 -0.8046
  194DOPC  H12B23938   0.936  -0.094   2.721  1.0793 -1.1792  0.2071
  194DOPC   C1323939   1.208   0.094   2.779  0.0303  0.2177 -0.6767
  194DOPC  H13A23940   1.287   0.131   2.714 -0.1953  0.9703 -0.5280
  194DOPC  H13B23941   1.171   0.174   2.842  4.9940  1.8226  0.6621
  194DOPC  H13C23942   1.245   0.020   2.848 -0.3484 -0.9372 -1.6858
  194DOPC   C1423943   1.036   0.114   2.600  0.6939 -0.5340  0.7857
  194DOPC  H14A23944   0.971   0.070   2.526 -0.2882  2.6475 -0.4050
  194DOPC  H14B23945   0.975   0.186   2.653 -0.9075  2.0447 -3.9641
  194DOPC  H14C23946   1.103   0.179   2.546  0.7930 -0.8265  0.5528
  194DOPC   C1523947   1.193  -0.070   2.608 -0.0755  0.7708  1.0715
  194DOPC  H15A23948   1.226  -0.014   2.522  0.3829 -1.6136 -0.4048
  194DOPC  H15B23949   1.137  -0.156   2.574 -0.8285  1.1699  1.2846
  194DOPC  H15C23950   1.277  -0.116   2.659  1.6464  0.7614 -1.5924
  194DOPC   C1123951   0.924   0.044   2.881  0.1847  0.0202  0.9247
  194DOPC  H11A23952   0.860  -0.018   2.947 -1.0669 -0.3669 -0.5907
  194DOPC  H11B23953   0.989   0.089   2.959  0.5430 -0.5030  0.9366
  194DOPC     P23954   0.706   0.122   2.760  0.7018  0.4670 -0.4905
  194DOPC   O1323955   0.705  -0.002   2.684 -0.5153 -0.1462  0.3649
  194DOPC   O1423956   0.651   0.245   2.702  0.2199 -0.1683 -0.4181
  194DOPC   O1223957   0.853   0.141   2.816  0.3798 -0.3465  0.2780
  194DOPC   O1123958   0.617   0.104   2.889  0.0054 -0.1298 -0.0000
  194DOPC    C123959   0.608   0.191   2.996  0.1192 -0.1567  0.5840
  194DOPC    HA23960   0.558   0.286   2.965  2.7246  1.4477  1.0217
  194DOPC    HB23961   0.712   0.214   3.026  0.2192 -0.6759  0.6357
  194DOPC    C223962   0.527   0.118   3.110  0.9435 -0.5338  0.2046
  194DOPC    HS23963   0.506   0.187   3.195 -1.5810  2.4840 -2.5616
  194DOPC   O2123964   0.600   0.002   3.149  0.1867  0.5348 -1.0126
  194DOPC   C2123965   0.698   0.022   3.236 -0.1712 -0.2356  0.4773
  194DOPC   O2223966   0.740   0.131   3.264  0.1781 -0.4883 -0.4754
  194DOPC   C2223967   0.764  -0.108   3.261  0.1766  0.5866  0.0933
  194DOPC   H2R23968   0.822  -0.125   3.168 -3.0978 -0.1639 -1.9429
  194DOPC   H2S23969   0.689  -0.189   3.276  3.6566 -3.6043 -2.6089
  194DOPC    C323970   0.390   0.067   3.063  0.3378  0.9950 -0.3582
  194DOPC    HX23971   0.401   0.006   2.971  2.5895 -0.3372  0.7115
  194DOPC    HY23972   0.323   0.151   3.033 -0.1915  0.5124 -0.5502
  194DOPC   O3123973   0.330  -0.023   3.160 -0.2170 -0.2467 -0.1694
  194DOPC   C3123974   0.283   0.039   3.269 -0.0140 -0.3935  0.4415
  194DOPC   O3223975   0.275   0.160   3.282  0.5529 -0.4722 -0.7158
  194DOPC   C3223976   0.252  -0.061   3.377 -0.4042 -0.0234 -0.7021
  194DOPC   H2X23977   0.164  -0.122   3.346  0.7012 -2.1319  0.0614
  194DOPC   H2Y23978   0.341  -0.128   3.386  0.4783  1.3198  1.2315
  194DOPC   C2323979   0.844  -0.082   3.396  0.1245  0.4746  0.1090
  194DOPC   H3R23980   0.929  -0.013   3.378  0.0196  0.2610 -1.3244
  194DOPC   H3S23981   0.890  -0.180   3.423  0.4614  0.8299  0.8554
  194DOPC   C2423982   0.765  -0.034   3.522  0.1070 -0.5289  0.0017
  194DOPC   H4R23983   0.687  -0.112   3.534  0.7320 -1.8598 -3.3009
  194DOPC   H4S23984   0.710   0.057   3.489  1.6323  0.5165  0.2073
  194DOPC   C2523985   0.854  -0.003   3.647  0.3606  0.5684  0.9247
  194DOPC   H5R23986   0.927   0.078   3.631  0.1331  0.5752 -0.1495
  194DOPC   H5S23987   0.902  -0.101   3.667  0.3558  0.7261  1.7535
  194DOPC   C2623988   0.774   0.013   3.774 -0.1161 -0.2032 -0.1428
  194DOPC   H6R23989   0.713  -0.079   3.780  0.8412 -0.9417 -1.2955
  194DOPC   H6S23990   0.707   0.102   3.771  0.2209  0.0342 -1.1519
  194DOPC   C2723991   0.861   0.015   3.895 -0.1924  0.0164 -0.3656
  194DOPC   H7R23992   0.951   0.075   3.869  1.3579 -1.2578  1.7710
  194DOPC   H7S23993   0.900  -0.087   3.914 -0.7049 -0.0828  0.1753
  194DOPC   C2823994   0.785   0.078   4.014 -0.3734 -0.4778  0.0479
  194DOPC   H8R23995   0.684   0.031   4.009 -0.1087 -1.0098 -0.5887
  194DOPC   H8S23996   0.772   0.186   3.995  1.1964 -0.4827 -1.3397
  194DOPC   C2923997   0.852   0.059   4.152 -0.8596 -0.1829  0.7179
  194DOPC   H9R23998   0.948   0.110   4.165 -0.4894 -0.5794 -0.3823
  194DOPC  C21023999   0.805  -0.005   4.256  0.1155  0.8210  0.1327
  194DOPC  H10R24000   0.869  -0.008   4.346  2.5213 -3.4372 -1.3931
  194DOPC  C21124001   0.683  -0.091   4.261 -0.2157 -0.4273 -0.2035
  194DOPC  H11R24002   0.720  -0.196   4.254 -0.6587 -0.5906 -0.1400
  194DOPC  H11S24003   0.615  -0.084   4.172 -1.4901 -1.1315  0.6772
  194DOPC  C21224004   0.606  -0.081   4.395  0.9209  1.1010 -0.3006
  194DOPC  H12R24005   0.512  -0.138   4.386  1.6715  0.0812 -2.2618
  194DOPC  H12S24006   0.566   0.022   4.411 -1.8140  0.0714 -0.1876
  194DOPC  C21324007   0.685  -0.138   4.513  0.1488 -0.2902 -0.1207
  194DOPC  H13R24008   0.637  -0.105   4.608 -0.1856  1.5316 -0.8707
  194DOPC  H13S24009   0.788  -0.097   4.518  0.8509 -2.0646  0.9218
  194DOPC  C21424010   0.701  -0.298   4.523 -0.0265 -0.2196  1.0833
  194DOPC  H14R24011   0.765  -0.318   4.612  0.9074 -0.1748  0.4311
  194DOPC  H14S24012   0.763  -0.319   4.433  0.0720 -0.7807  1.2789
  194DOPC  C21524013   0.579  -0.386   4.523 -0.1058 -0.2484 -0.2830
  194DOPC  H15R24014   0.488  -0.343   4.476  0.1888  2.4619  1.3828
  194DOPC  H15S24015   0.547  -0.403   4.628  0.2132 -0.0824 -0.1592
  194DOPC  C21624016   0.614  -0.522   4.459 -0.2370  0.4592 -0.4748
  194DOPC  H16R24017   0.701  -0.571   4.508 -1.6870 -0.1100  1.6451
  194DOPC  H16S24018   0.638  -0.502   4.352  1.1663 -1.1228 -0.5006
  194DOPC  C21724019   0.504  -0.626   4.466  0.5204 -0.3320  0.0744
  194DOPC  H17R24020   0.528  -0.710   4.397 -0.6011 -2.0804  1.7207
  194DOPC  H17S24021   0.410  -0.577   4.433 -0.3427 -2.2605 -0.4424
  194DOPC  C21824022   0.471  -0.665   4.607  0.1590  0.9511  0.0860
  194DOPC  H18R24023   0.419  -0.584   4.662 -1.3104  0.8331 -1.0675
  194DOPC  H18S24024   0.562  -0.686   4.666 -1.1541 -0.3307  1.7308
  194DOPC  H18T24025   0.409  -0.756   4.619  0.8659  0.5262  0.5596
  194DOPC   C3324026   0.228   0.009   3.512 -0.4218  0.1685  0.3288
  194DOPC   H3X24027   0.210  -0.078   3.580 -0.8950  0.5860  0.7493
  194DOPC   H3Y24028   0.139   0.074   3.509 -0.7111 -0.2232  0.3052
  194DOPC   C3424029   0.345   0.090   3.572 -0.4139 -0.3673 -0.1550
  194DOPC   H4X24030   0.361   0.185   3.517 -0.2995 -0.1822  0.2012
  194DOPC   H4Y24031   0.445   0.044   3.556  0.5491  1.7047 -0.3628
  194DOPC   C3524032   0.320   0.136   3.713 -0.7956 -0.4117 -0.0863
  194DOPC   H5X24033   0.224   0.191   3.714  0.1787  1.3481 -0.2962
  194DOPC   H5Y24034   0.399   0.211   3.738 -1.1262  0.5430 -1.7956
  194DOPC   C3624035   0.318   0.029   3.824  1.0058 -0.0288  0.0163
  194DOPC   H6X24036   0.224  -0.029   3.815 -0.1733  1.5257  1.4955
  194DOPC   H6Y24037   0.409  -0.034   3.830  0.7664 -0.3882 -0.1217
  194DOPC   C3724038   0.325   0.098   3.957 -0.0611 -0.0580  0.7932
  194DOPC   H7X24039   0.415   0.163   3.961 -0.1837  0.1469  0.2928
  194DOPC   H7Y24040   0.236   0.165   3.966  0.5329  0.6885  1.2040
  194DOPC   C3824041   0.345   0.011   4.079 -0.1742 -0.6327  0.0319
  194DOPC   H8X24042   0.439  -0.045   4.061  1.0395  0.5695  2.1339
  194DOPC   H8Y24043   0.277  -0.075   4.090  0.3662 -1.3942 -2.1741
  194DOPC   C3924044   0.347   0.084   4.209 -1.0089  0.3546  0.2739
  194DOPC   H9X24045   0.432   0.151   4.230 -1.1148  0.2024  1.2035
  194DOPC  C31024046   0.252   0.076   4.309  0.0760 -0.2174  1.3162
  194DOPC  H10X24047   0.267   0.133   4.402 -1.0736 -0.5188  1.7026
  194DOPC  C31124048   0.126  -0.002   4.299  0.5532  0.4402  0.1620
  194DOPC  H11X24049   0.134  -0.088   4.369 -0.9927  0.8968  0.9474
  194DOPC  H11Y24050   0.107  -0.034   4.194 -1.1104 -0.6051  0.7385
  194DOPC  C31224051   0.001   0.072   4.351  0.6814 -0.5618 -0.3389
  194DOPC  H12X24052  -0.094   0.017   4.334 -0.0070  0.1222  1.0968
  194DOPC  H12Y24053  -0.000   0.169   4.296 -2.9534 -0.0755  0.3653
  194DOPC  C31324054   0.004   0.113   4.499 -0.2531 -0.3003  0.4105
  194DOPC  H13X24055   0.010   0.023   4.564  1.7582 -1.1264 -0.8113
  194DOPC  H13Y24056   0.097   0.168   4.524 -0.9378  1.4409 -0.6622
  194DOPC  C31424057  -0.107   0.209   4.549 -0.3901 -0.4621 -0.5532
  194DOPC  H14X24058  -0.080   0.304   4.500  1.5011  0.2091  1.6088
  194DOPC  H14Y24059  -0.207   0.179   4.511 -1.1136  1.8995 -0.6806
  194DOPC  C31524060  -0.120   0.230   4.705 -0.0590  0.7819  0.4125
  194DOPC  H15X24061  -0.155   0.334   4.715  1.4939  1.2877  0.9934
  194DOPC  H15Y24062  -0.027   0.218   4.766 -0.0903 -0.5305  0.2395
  194DOPC  C31624063  -0.222   0.134   4.787 -0.0878 -0.1389  0.4137
  194DOPC  H16X24064  -0.227   0.178   4.889  0.3188 -1.5862  1.0841
  194DOPC  H16Y24065  -0.320   0.150   4.736 -1.2930  1.1772  2.9405
  194DOPC  C31724066  -0.181  -0.009   4.799 -0.3051  0.7503  1.2840
  194DOPC  H17X24067  -0.071  -0.015   4.791 -0.2906  2.7596 -0.9832
  194DOPC  H17Y24068  -0.207  -0.052   4.899  0.7919 -0.9160  0.8871
  194DOPC  C31824069  -0.233  -0.103   4.686 -0.2078 -0.3906 -0.0003
  194DOPC  H18X24070  -0.207  -0.208   4.713  2.0577 -0.1259 -0.8819
  194DOPC  H18Y24071  -0.342  -0.088   4.676  0.0145  0.8184 -0.8541
  194DOPC  H18Z24072  -0.191  -0.076   4.587 -0.3650  1.5451  0.4194
  195DOPC     N24073   3.532   6.721   3.221  0.6664  0.1556 -0.0207
  195DOPC   C1224074   3.540   6.870   3.188  0.0281 -0.1726  1.2172
  195DOPC  H12A24075   3.574   6.926   3.274  0.5235  1.4697  0.0100
  195DOPC  H12B24076   3.440   6.904   3.167  0.3002 -0.5533 -0.9625
  195DOPC   C1324077   3.434   6.705   3.331  0.7558  0.1554 -0.1609
  195DOPC  H13A24078   3.340   6.726   3.282  1.7754  2.0479 -1.3877
  195DOPC  H13B24079   3.431   6.606   3.376 -0.7019 -0.3289 -1.2505
  195DOPC  H13C24080   3.441   6.779   3.409 -0.2722 -1.4461  1.5415
  195DOPC   C1424081   3.667   6.673   3.255  0.0698 -0.4350 -0.5966
  195DOPC  H14A24082   3.738   6.712   3.184  1.3529 -0.6641  0.5221
  195DOPC  H14B24083   3.692   6.719   3.349  1.1619  1.7768 -1.8797
  195DOPC  H14C24084   3.675   6.565   3.251  1.1270 -0.3921 -0.0286
  195DOPC   C1524085   3.482   6.650   3.106  0.8894  0.0713  0.3198
  195DOPC  H15A24086   3.456   6.547   3.122 -0.3432  0.3762  0.3817
  195DOPC  H15B24087   3.559   6.651   3.029  0.4172 -0.5234 -0.1699
  195DOPC  H15C24088   3.394   6.695   3.063  0.8565 -1.8661 -1.8505
  195DOPC   C1124089   3.621   6.914   3.058 -0.3608  0.7758 -0.1098
  195DOPC  H11A24090   3.590   6.845   2.976  1.9154  0.7863 -1.0596
  195DOPC  H11B24091   3.584   7.013   3.024  0.8654  1.3522  0.1956
  195DOPC     P24092   3.865   7.021   3.079 -0.2197 -0.1632 -0.2946
  195DOPC   O1324093   3.807   7.145   3.135 -0.0153  0.1008  0.0214
  195DOPC   O1424094   3.934   7.033   2.946  0.6189 -0.1881  0.0684
  195DOPC   O1224095   3.765   6.905   3.079 -0.2197  0.2598 -0.1843
  195DOPC   O1124096   3.980   6.993   3.185 -0.6477  0.0117 -0.0343
  195DOPC    C124097   3.982   6.863   3.247 -0.0608 -0.3730  0.0840
  195DOPC    HA24098   4.011   6.775   3.185 -0.2158 -0.6926  0.4593
  195DOPC    HB24099   3.876   6.845   3.276 -0.5315  2.5061  0.4570
  195DOPC    C224100   4.073   6.861   3.365 -0.1798  0.4594  0.0012
  195DOPC    HS24101   4.059   6.771   3.430 -1.6860  1.3516  0.9969
  195DOPC   O2124102   4.058   6.970   3.456  0.3430  0.2329 -0.4675
  195DOPC   C2124103   3.935   6.981   3.508 -0.4209  0.3487  0.2492
  195DOPC   O2224104   3.854   6.890   3.506 -0.8053 -0.7525 -0.1633
  195DOPC   C2224105   3.927   7.111   3.579  0.7864 -0.1526 -0.5582
  195DOPC   H2R24106   3.853   7.092   3.659 -1.7282  0.1799 -2.6569
  195DOPC   H2S24107   3.881   7.193   3.519  0.3084  0.9480  1.2459
  195DOPC    C324108   4.217   6.839   3.316 -0.8365  0.1103 -0.1475
  195DOPC    HX24109   4.247   6.917   3.244  2.9684 -1.7638 -0.8485
  195DOPC    HY24110   4.210   6.742   3.262  1.2532 -0.5915  0.7554
  195DOPC   O3124111   4.306   6.817   3.426  0.1802 -0.3171 -0.7490
  195DOPC   C3124112   4.389   6.925   3.457  0.3214  0.7604 -0.2956
  195DOPC   O3224113   4.429   7.007   3.380 -0.1892  0.1957  0.0107
  195DOPC   C3224114   4.418   6.921   3.610 -0.4755  0.1046  0.2708
  195DOPC   H2X24115   4.324   6.961   3.655 -1.3982  0.2488 -1.6749
  195DOPC   H2Y24116   4.424   6.812   3.630  0.4247  0.2170  0.6569
  195DOPC   C2324117   4.063   7.163   3.626 -0.7759  0.3878 -0.5006
  195DOPC   H3R24118   4.115   7.196   3.534 -1.6450  0.1964 -1.0754
  195DOPC   H3S24119   4.121   7.094   3.691 -3.1841 -1.2138  0.1108
  195DOPC   C2424120   4.047   7.297   3.697  0.4724 -0.2613 -0.0519
  195DOPC   H4R24121   3.985   7.297   3.789 -1.3974  1.0430 -1.2479
  195DOPC   H4S24122   3.988   7.360   3.627  0.2482 -1.3610 -0.8791
  195DOPC   C2524123   4.184   7.371   3.726  0.1886 -0.9091 -0.5957
  195DOPC   H5R24124   4.237   7.402   3.633  0.8515  2.8438  0.8586
  195DOPC   H5S24125   4.254   7.308   3.784  2.6675  2.4186  0.2918
  195DOPC   C2624126   4.169   7.512   3.789  0.3796  0.1897 -0.1905
  195DOPC   H6R24127   4.135   7.489   3.892 -1.1114  1.5881 -0.3326
  195DOPC   H6S24128   4.077   7.559   3.748 -1.2198 -0.7228  2.1752
  195DOPC   C2724129   4.293   7.606   3.795 -0.0694  0.3010  0.1864
  195DOPC   H7R24130   4.259   7.698   3.847 -3.5566 -1.5032  1.4462
  195DOPC   H7S24131   4.305   7.632   3.687  0.8258 -0.6632  0.0353
  195DOPC   C2824132   4.425   7.548   3.851  0.8142  0.3289 -0.2504
  195DOPC   H8R24133   4.508   7.622   3.846  1.4680 -0.2579  1.3735
  195DOPC   H8S24134   4.444   7.456   3.792 -0.3677 -1.5806  2.1715
  195DOPC   C2924135   4.422   7.526   4.005 -0.4159 -0.3577 -0.1505
  195DOPC   H9R24136   4.341   7.579   4.057 -1.1020 -0.5280 -1.0136
  195DOPC  C21024137   4.509   7.454   4.078  0.3393  0.3207 -0.2702
  195DOPC  H10R24138   4.494   7.459   4.186  0.0048 -0.7976 -0.2477
  195DOPC  C21124139   4.613   7.361   4.025  0.2532 -0.5344 -0.4351
  195DOPC  H11R24140   4.682   7.360   4.112  0.6479  2.7952 -0.5803
  195DOPC  H11S24141   4.664   7.389   3.931  0.5044  0.1767 -0.0858
  195DOPC  C21224142   4.555   7.219   4.008 -0.1528  0.0070 -0.4119
  195DOPC  H12R24143   4.636   7.153   3.968 -0.5013 -1.0575  0.5871
  195DOPC  H12S24144   4.470   7.212   3.937 -0.1757 -0.1082 -0.3723
  195DOPC  C21324145   4.508   7.158   4.142  0.0128 -0.2058 -0.2877
  195DOPC  H13R24146   4.471   7.057   4.113 -0.1251 -0.1782 -0.2119
  195DOPC  H13S24147   4.429   7.217   4.194 -0.3873 -0.6425 -0.3897
  195DOPC  C21424148   4.621   7.127   4.243 -0.1049  1.1694  0.3386
  195DOPC  H14R24149   4.649   7.224   4.288 -1.4810  2.5219 -1.5021
  195DOPC  H14S24150   4.712   7.088   4.193  0.2108 -0.6191  2.1667
  195DOPC  C21524151   4.563   7.030   4.350  0.0657 -0.6913 -0.1728
  195DOPC  H15R24152   4.524   6.937   4.303  0.3304 -0.6846 -0.4130
  195DOPC  H15S24153   4.476   7.076   4.400  0.4875  0.4620 -0.4736
  195DOPC  C21624154   4.661   6.981   4.460 -0.0689  0.6164  0.0441
  195DOPC  H16R24155   4.738   6.916   4.414 -0.8768  0.6415 -1.3851
  195DOPC  H16S24156   4.600   6.930   4.538 -0.5510  0.9161 -0.1287
  195DOPC  C21724157   4.724   7.096   4.539 -0.5726 -0.6604 -0.9148
  195DOPC  H17R24158   4.638   7.142   4.592 -0.6537 -0.0804 -1.5363
  195DOPC  H17S24159   4.768   7.172   4.470 -1.7961  0.2594 -0.7083
  195DOPC  C21824160   4.819   7.039   4.641 -0.4179 -0.5286 -0.2911
  195DOPC  H18R24161   4.769   6.983   4.723  0.6559  0.2482  0.9294
  195DOPC  H18S24162   4.863   7.126   4.693  1.8243 -1.1322 -1.0417
  195DOPC  H18T24163   4.895   6.966   4.604 -1.2122 -0.8984 -1.2499
  195DOPC   C3324164   4.543   6.992   3.661 -0.1115  0.1452 -0.1798
  195DOPC   H3X24165   4.516   7.094   3.696 -3.2762 -0.6132 -0.0917
  195DOPC   H3Y24166   4.613   7.000   3.575 -1.3944  2.2784 -1.1214
  195DOPC   C3424167   4.625   6.921   3.774  0.4509  0.2083  0.5342
  195DOPC   H4X24168   4.571   6.919   3.871  2.2698  1.3184  1.6235
  195DOPC   H4Y24169   4.719   6.976   3.793 -0.6960  1.7192  2.2121
  195DOPC   C3524170   4.669   6.773   3.748 -0.4635 -0.4832 -0.2070
  195DOPC   H5X24171   4.710   6.773   3.645 -0.6667  0.7952 -0.2993
  195DOPC   H5Y24172   4.582   6.703   3.743  0.2919 -1.6009  1.5400
  195DOPC   C3624173   4.775   6.714   3.852  0.3806 -0.1759  0.6607
  195DOPC   H6X24174   4.798   6.611   3.817 -1.2259 -0.4474  0.3488
  195DOPC   H6Y24175   4.869   6.771   3.836  0.4951 -0.6250 -0.3409
  195DOPC   C3724176   4.717   6.722   3.993 -0.3543 -0.2543  0.1357
  195DOPC   H7X24177   4.710   6.830   4.016 -2.9223 -0.7952  2.4481
  195DOPC   H7Y24178   4.611   6.689   3.995 -0.9158  1.4380 -0.0099
  195DOPC   C3824179   4.794   6.635   4.096 -0.6564  0.3754  0.0757
  195DOPC   H8X24180   4.802   6.526   4.073 -2.4208  0.5252 -1.5730
  195DOPC   H8Y24181   4.734   6.639   4.189 -0.4164  1.7948  0.1836
  195DOPC   C3924182   4.944   6.673   4.110 -0.2591  0.0331 -0.1381
  195DOPC   H9X24183   5.003   6.706   4.023  2.8689 -0.2485  1.7113
  195DOPC  C31024184   5.006   6.653   4.230  0.8195 -0.4583  0.5432
  195DOPC  H10X24185   5.112   6.682   4.235  0.7226  0.2444 -0.8370
  195DOPC  C31124186   4.943   6.611   4.360  0.7098 -0.0011 -0.9380
  195DOPC  H11X24187   4.932   6.501   4.357  1.1123 -0.0323 -1.4971
  195DOPC  H11Y24188   4.844   6.660   4.371  1.5764  1.5505  0.4615
  195DOPC  C31224189   5.012   6.641   4.497 -0.3586  0.7428  0.2575
  195DOPC  H12X24190   5.028   6.751   4.496  0.6883  0.6492  2.0941
  195DOPC  H12Y24191   5.118   6.608   4.487 -0.0699  0.3466  3.6816
  195DOPC  C31324192   4.943   6.590   4.617 -0.6947  0.6651 -0.6528
  195DOPC  H13X24193   4.842   6.633   4.638  0.7052  3.4320  0.9493
  195DOPC  H13Y24194   4.926   6.480   4.612  1.3573  0.2790  0.0416
  195DOPC  C31424195   5.036   6.619   4.747 -0.0984  0.3752 -0.0515
  195DOPC  H14X24196   5.097   6.710   4.731  1.1396  0.5825  4.4959
  195DOPC  H14Y24197   4.970   6.623   4.837  2.7836  0.7743  2.2089
  195DOPC  C31524198   5.138   6.512   4.775 -0.5401  1.0562 -0.2503
  195DOPC  H15X24199   5.193   6.490   4.681 -2.8491  1.5276 -1.7936
  195DOPC  H15Y24200   5.085   6.418   4.798 -0.3668  0.5432 -1.7954
  195DOPC  C31624201   5.239   6.552   4.883 -0.0644 -0.0300  0.4576
  195DOPC  H16X24202   5.314   6.472   4.899  0.3307 -0.3640 -2.3937
  195DOPC  H16Y24203   5.297   6.645   4.864  1.0052 -0.2808  2.3223
  195DOPC  C31724204   5.163   6.580   5.017 -0.1876 -0.1099  0.2135
  195DOPC  H17X24205   5.101   6.672   5.005 -1.6716 -1.0257  0.6685
  195DOPC  H17Y24206   5.089   6.499   5.033 -1.6252  0.8839 -1.1310
  195DOPC  C31824207   5.260   6.589   5.129 -0.0641  0.2422 -0.1503
  195DOPC  H18X24208   5.333   6.509   5.154  0.3186  1.0806  1.6350
  195DOPC  H18Y24209   5.329   6.669   5.093 -1.9857  1.3754 -1.5083
  195DOPC  H18Z24210   5.215   6.623   5.225 -2.0368  0.5116 -1.1317
  196DOPC     N24211   6.087   7.436   2.688 -0.0321 -0.6059  0.1097
  196DOPC   C1224212   6.092   7.399   2.833 -0.3223  0.3212  0.2908
  196DOPC  H12A24213   6.024   7.318   2.858 -0.6098  0.6909  0.7137
  196DOPC  H12B24214   6.049   7.478   2.893 -1.2877  0.1359 -0.1348
  196DOPC   C1324215   5.970   7.521   2.657 -0.2127 -0.9458  0.3134
  196DOPC  H13A24216   5.960   7.608   2.720  0.6819 -1.5712  1.3610
  196DOPC  H13B24217   5.964   7.548   2.552 -0.7978  1.4582  0.8933
  196DOPC  H13C24218   5.884   7.460   2.679  0.4625 -1.9933  0.1443
  196DOPC   C1424219   6.094   7.317   2.606 -0.1439 -0.7370 -0.0861
  196DOPC  H14A24220   6.124   7.339   2.504  1.5052 -0.0372  0.5071
  196DOPC  H14B24221   6.179   7.264   2.645  0.8797  0.5148 -0.5350
  196DOPC  H14C24222   6.004   7.257   2.600 -1.5844  1.4591 -2.6362
  196DOPC   C1524223   6.219   7.508   2.657  0.7835 -0.5147  0.4546
  196DOPC  H15A24224   6.223   7.546   2.556 -1.6933 -2.1819 -0.3759
  196DOPC  H15B24225   6.297   7.433   2.659  0.5209 -0.8183 -0.4698
  196DOPC  H15C24226   6.237   7.583   2.732  1.8220 -0.9937  0.6982
  196DOPC   C1124227   6.229   7.364   2.905 -0.1651  0.9192  0.0006
  196DOPC  H11A24228   6.287   7.458   2.920 -1.2565  1.8498 -1.3816
  196DOPC  H11B24229   6.204   7.331   3.009  0.2556 -1.2660 -0.5518
  196DOPC     P24230   6.450   7.253   2.790 -0.2277 -0.0687  0.0820
  196DOPC   O1324231   6.459   7.334   2.670 -0.2573 -0.1752 -0.1762
  196DOPC   O1424232   6.497   7.112   2.788 -0.0651 -0.6832 -0.3632
  196DOPC   O1224233   6.307   7.258   2.840 -0.1937  0.7551  0.8069
  196DOPC   O1124234   6.534   7.332   2.899 -0.0793  0.5431  0.4575
  196DOPC    C124235   6.617   7.250   2.989 -0.0256 -0.0806 -0.8873
  196DOPC    HA24236   6.707   7.312   3.009 -0.5819  0.3223  0.4720
  196DOPC    HB24237   6.676   7.164   2.950  0.4929 -0.8740  1.4917
  196DOPC    C224238   6.544   7.223   3.121 -0.1065  0.3819 -0.2380
  196DOPC    HS24239   6.447   7.184   3.084  1.1592  0.0202 -3.5058
  196DOPC   O2124240   6.540   7.348   3.186 -0.0954  0.4896  0.4290
  196DOPC   C2124241   6.427   7.380   3.239 -0.3802 -0.4665 -0.0421
  196DOPC   O2224242   6.316   7.324   3.225  0.1149  0.7624  0.4004
  196DOPC   C2224243   6.453   7.480   3.339 -0.3319 -1.1056 -0.8453
  196DOPC   H2R24244   6.434   7.586   3.313  2.8200  0.3273  2.0318
  196DOPC   H2S24245   6.561   7.484   3.364 -0.5151  0.9582 -0.2185
  196DOPC    C324246   6.625   7.118   3.205 -0.2655  0.6573  0.2241
  196DOPC    HX24247   6.726   7.162   3.219 -0.7270  1.1634  2.2232
  196DOPC    HY24248   6.644   7.027   3.144 -1.3675 -0.3907  1.3774
  196DOPC   O3124249   6.568   7.090   3.328 -0.4443 -0.0433 -0.4948
  196DOPC   C3124250   6.466   7.012   3.338 -1.1570  1.0714 -0.0268
  196DOPC   O3224251   6.421   6.938   3.254  0.9215 -0.3583  0.1492
  196DOPC   C3224252   6.420   7.012   3.491 -0.7148  0.0570  0.0523
  196DOPC   H2X24253   6.449   6.914   3.535 -1.8542 -1.9809 -3.3021
  196DOPC   H2Y24254   6.473   7.102   3.528  0.0716 -0.4917  0.2922
  196DOPC   C2324255   6.367   7.447   3.466 -0.9510 -0.0721  0.0037
  196DOPC   H3R24256   6.370   7.338   3.487 -0.4851 -0.1302 -0.3522
  196DOPC   H3S24257   6.262   7.482   3.449 -0.1626  1.8839 -1.1550
  196DOPC   C2424258   6.422   7.517   3.597  0.8685 -0.2163 -0.3181
  196DOPC   H4R24259   6.413   7.627   3.586  0.8290 -0.3355 -1.5131
  196DOPC   H4S24260   6.532   7.505   3.603  1.0931  0.8699 -1.9132
  196DOPC   C2524261   6.356   7.475   3.729  0.0420  0.3372  0.5356
  196DOPC   H5R24262   6.398   7.375   3.752 -1.1656 -0.3403 -0.0913
  196DOPC   H5S24263   6.249   7.454   3.707  0.6644  0.4678 -3.3149
  196DOPC   C2624264   6.378   7.569   3.848  0.6424 -0.5134  0.3742
  196DOPC   H6R24265   6.311   7.530   3.928 -0.9636 -0.4268 -0.8821
  196DOPC   H6S24266   6.356   7.670   3.807 -0.3301 -1.4177 -1.4609
  196DOPC   C2724267   6.523   7.578   3.896  0.3314 -0.1385 -0.5549
  196DOPC   H7R24268   6.530   7.650   3.980  0.8923 -0.7945 -0.0276
  196DOPC   H7S24269   6.584   7.621   3.813 -2.2693  1.4417 -1.7902
  196DOPC   C2824270   6.584   7.442   3.946 -0.6376 -0.1943  0.1963
  196DOPC   H8R24271   6.523   7.359   3.906 -0.1413 -0.7008  0.4842
  196DOPC   H8S24272   6.559   7.445   4.054  2.3926  0.8038  0.9616
  196DOPC   C2924273   6.731   7.437   3.922  0.2326  0.4237  0.2477
  196DOPC   H9R24274   6.752   7.430   3.814 -2.0896  0.5862 -0.2828
  196DOPC  C21024275   6.832   7.442   4.011  0.1176  0.3823  0.3009
  196DOPC  H10R24276   6.935   7.425   3.975  0.6976  1.6266  1.2852
  196DOPC  C21124277   6.817   7.444   4.157  0.9207 -0.1836 -1.0706
  196DOPC  H11R24278   6.838   7.351   4.214 -1.2274  0.7186  1.3940
  196DOPC  H11S24279   6.712   7.463   4.186  1.8167 -0.0641  2.5836
  196DOPC  C21224280   6.891   7.572   4.214 -1.0408  0.7447 -0.5894
  196DOPC  H12R24281   6.871   7.585   4.322 -0.5094  0.4543 -0.4537
  196DOPC  H12S24282   6.846   7.652   4.151  0.6071 -0.0109 -2.8883
  196DOPC  C21324283   7.044   7.557   4.204 -0.4319  0.3980  0.1046
  196DOPC  H13R24284   7.075   7.531   4.101 -1.1457 -1.3147  0.2819
  196DOPC  H13S24285   7.073   7.471   4.269 -0.3161  1.4950  1.5594
  196DOPC  C21424286   7.131   7.679   4.236 -0.2007 -0.2007 -0.1192
  196DOPC  H14R24287   7.101   7.732   4.329 -1.1770  0.0008 -0.5370
  196DOPC  H14S24288   7.118   7.750   4.151  2.4957 -2.5022 -2.6592
  196DOPC  C21524289   7.284   7.640   4.225  0.3548 -0.1157  0.0280
  196DOPC  H15R24290   7.302   7.546   4.280 -1.7783 -0.4512  0.2339
  196DOPC  H15S24291   7.341   7.724   4.271 -0.7484 -0.1603  1.5349
  196DOPC  C21624292   7.342   7.651   4.078  1.0799 -0.2675 -0.1499
  196DOPC  H16R24293   7.319   7.749   4.033 -0.5762 -0.2570  0.6415
  196DOPC  H16S24294   7.292   7.570   4.021 -0.9547  0.9660 -0.1818
  196DOPC  C21724295   7.495   7.634   4.076  0.9052  0.2892 -0.6572
  196DOPC  H17R24296   7.524   7.542   4.131  0.4863  0.4490 -0.1599
  196DOPC  H17S24297   7.537   7.719   4.135  2.2619 -0.4196 -0.5676
  196DOPC  C21824298   7.554   7.634   3.937 -0.4519  0.1408 -0.1573
  196DOPC  H18R24299   7.487   7.583   3.864 -0.1580 -0.8067  0.2258
  196DOPC  H18S24300   7.654   7.587   3.929  0.5092  1.5053  2.4796
  196DOPC  H18T24301   7.560   7.740   3.907  0.1444  0.0077 -0.5140
  196DOPC   C3324302   6.268   7.012   3.484 -0.8026 -0.3222 -0.1189
  196DOPC   H3X24303   6.237   6.911   3.448  2.0725 -0.6429 -1.9819
  196DOPC   H3Y24304   6.243   7.089   3.409  1.7338 -0.1118 -0.8312
  196DOPC   C3424305   6.204   7.050   3.623 -0.3221  0.5887 -0.8652
  196DOPC   H4X24306   6.095   7.071   3.618 -1.0144 -2.0008  1.2503
  196DOPC   H4Y24307   6.259   7.143   3.651 -2.4643  1.4889  0.6216
  196DOPC   C3524308   6.229   6.955   3.729  0.4121 -0.3318  0.2974
  196DOPC   H5X24309   6.332   6.919   3.712 -0.2377 -2.3546  0.3354
  196DOPC   H5Y24310   6.179   6.857   3.711  3.0091 -1.5330 -0.8514
  196DOPC   C3624311   6.187   7.003   3.870  0.1535 -0.0386  0.3505
  196DOPC   H6X24312   6.088   7.051   3.859  0.5186  0.2340 -2.7007
  196DOPC   H6Y24313   6.181   6.911   3.933 -0.1951 -1.5037 -1.7339
  196DOPC   C3724314   6.277   7.108   3.929  0.0601  0.2566  0.2039
  196DOPC   H7X24315   6.382   7.072   3.925 -0.3800 -1.0271 -1.8941
  196DOPC   H7Y24316   6.271   7.193   3.857  0.6371 -0.3503 -0.5780
  196DOPC   C3824317   6.247   7.147   4.074 -0.3095 -0.1710  0.1265
  196DOPC   H8X24318   6.143   7.186   4.082 -0.8429 -1.5641  0.3206
  196DOPC   H8Y24319   6.308   7.236   4.100  0.5584 -0.7410  0.1001
  196DOPC   C3924320   6.272   7.040   4.171  0.1726  0.5874 -1.0012
  196DOPC   H9X24321   6.210   6.950   4.160  1.2929 -0.6228  1.7290
  196DOPC  C31024322   6.342   7.040   4.285  0.6905 -0.0379  0.2473
  196DOPC  H10X24323   6.327   6.956   4.354 -3.3328 -1.1896 -1.7629
  196DOPC  C31124324   6.438   7.152   4.326  0.4612  0.4156 -0.1474
  196DOPC  H11X24325   6.416   7.243   4.266  2.1314  0.3432 -0.9263
  196DOPC  H11Y24326   6.541   7.122   4.296  1.1633  2.8356 -0.3390
  196DOPC  C31224327   6.441   7.182   4.475 -0.6930  0.5095 -0.0255
  196DOPC  H12X24328   6.500   7.275   4.491 -1.9645  1.6908 -1.8091
  196DOPC  H12Y24329   6.520   7.113   4.514 -1.4278 -0.3413 -0.0139
  196DOPC  C31324330   6.311   7.180   4.554  0.1658  0.4229  0.4505
  196DOPC  H13X24331   6.244   7.263   4.523 -0.6353  1.1258  3.7082
  196DOPC  H13Y24332   6.250   7.088   4.539 -0.3466  0.4799  2.0211
  196DOPC  C31424333   6.333   7.188   4.705 -0.6560 -0.3896 -0.1833
  196DOPC  H14X24334   6.259   7.124   4.758  1.7300 -2.2521  1.0860
  196DOPC  H14Y24335   6.423   7.127   4.728 -0.1932  0.2879 -0.1685
  196DOPC  C31524336   6.326   7.334   4.763  0.0163 -0.1602  0.3254
  196DOPC  H15X24337   6.222   7.371   4.755 -1.1769 -3.2036  0.4318
  196DOPC  H15Y24338   6.399   7.397   4.708  2.0128 -1.2325  1.5884
  196DOPC  C31624339   6.355   7.347   4.914  0.1166  0.7202 -1.1165
  196DOPC  H16X24340   6.293   7.281   4.978 -1.3286  2.3611 -0.7336
  196DOPC  H16Y24341   6.456   7.300   4.915 -2.0144 -4.5446  0.8218
  196DOPC  C31724342   6.364   7.501   4.953 -0.0499  0.8325  0.0099
  196DOPC  H17X24343   6.432   7.518   5.040  0.9100 -0.1276 -0.5320
  196DOPC  H17Y24344   6.398   7.561   4.866  0.4122 -0.6864 -0.8715
  196DOPC  C31824345   6.223   7.555   4.985 -0.1791 -0.1605 -0.4432
  196DOPC  H18X24346   6.202   7.519   5.088  0.7922 -0.6350 -0.3939
  196DOPC  H18Y24347   6.220   7.666   4.996 -0.4893 -0.2741  0.8295
  196DOPC  H18Z24348   6.156   7.505   4.913  0.9058 -0.1796 -1.4742
  197DOPC     N24349   0.082   6.055   3.081 -0.3465 -0.1357  0.5214
  197DOPC   C1224350   0.055   6.162   3.178  1.2989 -0.4296 -0.3239
  197DOPC  H12A24351   0.051   6.130   3.281  0.4781  1.5973  0.3331
  197DOPC  H12B24352  -0.044   6.201   3.161  0.6367 -2.4511 -1.4248
  197DOPC   C1324353   0.070   6.107   2.936 -0.4597  0.1548 -1.1697
  197DOPC  H13A24354   0.059   6.024   2.868 -2.0396  0.5807 -1.4744
  197DOPC  H13B24355  -0.023   6.161   2.930 -1.0130 -0.0934  2.6914
  197DOPC  H13C24356   0.158   6.165   2.911  0.3816 -0.8492 -0.6254
  197DOPC   C1424357  -0.014   5.937   3.100 -0.0551 -0.3168  0.6962
  197DOPC  H14A24358  -0.002   5.864   3.022  0.9498  0.1233  0.4299
  197DOPC  H14B24359   0.011   5.879   3.188  2.0777 -2.4906 -1.2170
  197DOPC  H14C24360  -0.115   5.975   3.104  0.0465  0.0261  0.0999
  197DOPC   C1524361   0.222   6.004   3.103 -0.6476  0.2969  0.0505
  197DOPC  H15A24362   0.217   5.950   3.197  0.4795 -1.0217 -0.6171
  197DOPC  H15B24363   0.294   6.083   3.110 -1.0998  1.0635 -2.7257
  197DOPC  H15C24364   0.262   5.940   3.026 -0.1961  2.1546 -1.3219
  197DOPC   C1124365   0.145   6.287   3.175  0.1454 -0.8427 -0.0388
  197DOPC  H11A24366   0.113   6.335   3.270 -0.3376 -0.3791 -0.4303
  197DOPC  H11B24367   0.251   6.261   3.195  0.1133 -1.7661 -0.9219
  197DOPC     P24368   0.021   6.487   3.057 -0.1964  0.3205  0.2563
  197DOPC   O1324369  -0.109   6.414   3.041  0.3095 -0.7079  0.3995
  197DOPC   O1424370   0.065   6.590   2.961 -0.6006 -0.1249 -0.4989
  197DOPC   O1224371   0.135   6.376   3.060  0.2840 -0.2235 -0.4390
  197DOPC   O1124372   0.026   6.550   3.206  0.3442  0.2167  0.1596
  197DOPC    C124373   0.143   6.623   3.244 -0.0135  0.4857 -0.4224
  197DOPC    HA24374   0.137   6.724   3.199 -0.8136 -0.1401 -1.7844
  197DOPC    HB24375   0.236   6.572   3.212  0.6382  0.7793  0.8949
  197DOPC    C224376   0.163   6.635   3.400  0.2211  0.9335  0.1624
  197DOPC    HS24377   0.190   6.530   3.427 -0.0684  0.8289  0.0493
  197DOPC   O2124378   0.034   6.672   3.460  0.1937 -0.4255  0.1118
  197DOPC   C2124379   0.015   6.629   3.584  0.5045 -0.8831  0.0079
  197DOPC   O2224380   0.091   6.561   3.646  0.2439 -0.3456  0.1196
  197DOPC   C2224381  -0.108   6.691   3.636 -0.2714 -0.7408 -0.1448
  197DOPC   H2R24382  -0.170   6.615   3.688 -0.1573 -0.5760  0.2309
  197DOPC   H2S24383  -0.175   6.730   3.556 -0.3704 -0.9691 -0.1743
  197DOPC    C324384   0.285   6.709   3.452 -0.9860 -0.6361  0.7263
  197DOPC    HX24385   0.369   6.689   3.383 -2.0815  1.9689 -1.5511
  197DOPC    HY24386   0.302   6.663   3.552  0.4714 -0.6365  0.4883
  197DOPC   O3124387   0.258   6.850   3.470  0.2246  0.5072 -0.2061
  197DOPC   C3124388   0.309   6.935   3.384  0.2925 -0.1498 -0.1807
  197DOPC   O3224389   0.371   6.905   3.284  0.4962 -0.3576  0.5961
  197DOPC   C3224390   0.269   7.074   3.410  0.1071  0.1364 -0.0096
  197DOPC   H2X24391   0.177   7.091   3.348  0.2723  2.3088  0.2530
  197DOPC   H2Y24392   0.251   7.081   3.519 -0.2052 -0.2263 -0.0354
  197DOPC   C2324393  -0.089   6.807   3.738  0.2364 -0.1320  0.1699
  197DOPC   H3R24394  -0.190   6.853   3.741 -0.7172 -1.8813 -2.0622
  197DOPC   H3S24395  -0.020   6.880   3.691  0.9868 -0.5818  0.5618
  197DOPC   C2424396  -0.029   6.758   3.863 -0.2949  0.0253  0.0340
  197DOPC   H4R24397   0.078   6.729   3.859 -0.0797  0.8490 -0.4480
  197DOPC   H4S24398  -0.075   6.660   3.888  0.8706 -1.1856 -2.2235
  197DOPC   C2524399  -0.033   6.847   3.990  0.1233  0.0012 -0.5632
  197DOPC   H5R24400  -0.140   6.875   4.009  0.2623  0.5859 -0.6158
  197DOPC   H5S24401   0.013   6.942   3.955  0.6065 -0.8015 -2.2034
  197DOPC   C2624402   0.019   6.794   4.126  0.1849 -0.7508 -0.0823
  197DOPC   H6R24403   0.125   6.781   4.096 -0.3030  0.0143 -2.3160
  197DOPC   H6S24404  -0.039   6.702   4.149 -1.5905  0.7199  1.7347
  197DOPC   C2724405   0.024   6.892   4.241 -0.0889 -0.5318  0.4562
  197DOPC   H7R24406  -0.077   6.912   4.282 -0.8419 -1.6890 -0.7441
  197DOPC   H7S24407   0.073   6.984   4.204 -1.1089 -0.0194  0.3265
  197DOPC   C2824408   0.104   6.843   4.358  0.3416 -0.1931 -0.0337
  197DOPC   H8R24409   0.038   6.769   4.407 -2.7921  1.6857 -1.0957
  197DOPC   H8S24410   0.117   6.922   4.435  0.5474 -1.9350  1.8043
  197DOPC   C2924411   0.245   6.795   4.330 -0.4309  0.3262 -0.0248
  197DOPC   H9R24412   0.318   6.874   4.309 -0.3062  0.3058  0.3196
  197DOPC  C21024413   0.297   6.668   4.325 -0.4884 -0.0957  0.4810
  197DOPC  H10R24414   0.405   6.653   4.310 -0.7556 -1.1477 -0.5346
  197DOPC  C21124415   0.212   6.547   4.342 -0.6490  1.0111  0.2675
  197DOPC  H11R24416   0.186   6.507   4.242  1.0369 -0.2365  0.2837
  197DOPC  H11S24417   0.122   6.570   4.403 -0.1452 -1.8880  2.3633
  197DOPC  C21224418   0.272   6.417   4.416  0.0448 -0.0674  0.3733
  197DOPC  H12R24419   0.305   6.446   4.518  1.2530  0.5108 -0.1619
  197DOPC  H12S24420   0.362   6.369   4.372 -1.0046 -2.8035  1.0113
  197DOPC  C21324421   0.174   6.303   4.446  0.0684 -0.1941 -0.2437
  197DOPC  H13R24422   0.138   6.247   4.358 -2.5114  0.5726  0.2294
  197DOPC  H13S24423   0.090   6.352   4.501  0.6367  1.0153 -0.4263
  197DOPC  C21424424   0.241   6.198   4.539  0.4421  0.2302  0.1226
  197DOPC  H14R24425   0.346   6.187   4.504  0.4397  0.5509  0.0098
  197DOPC  H14S24426   0.189   6.101   4.526 -0.3383  1.0521 -4.6184
  197DOPC  C21524427   0.227   6.240   4.686 -0.2182 -0.6360  0.4642
  197DOPC  H15R24428   0.290   6.329   4.709  0.4432 -0.0580 -2.9087
  197DOPC  H15S24429   0.273   6.161   4.748 -0.6408 -0.8022  0.5676
  197DOPC  C21624430   0.082   6.265   4.728  0.3890  0.5455 -0.2761
  197DOPC  H16R24431   0.010   6.184   4.701  1.1158  0.0196 -0.6531
  197DOPC  H16S24432   0.034   6.354   4.682  0.1329  0.3628 -0.3693
  197DOPC  C21724433   0.090   6.278   4.884  0.7240 -0.2343  0.7238
  197DOPC  H17R24434   0.159   6.362   4.906 -0.4327  0.2295  2.9178
  197DOPC  H17S24435   0.127   6.187   4.937  1.1580 -0.9601 -0.7879
  197DOPC  C21824436  -0.051   6.299   4.928  0.6867 -0.0741  0.1791
  197DOPC  H18R24437  -0.051   6.345   5.030  2.1328  1.3280 -0.4103
  197DOPC  H18S24438  -0.103   6.202   4.939  2.4922 -1.1389 -0.2821
  197DOPC  H18T24439  -0.109   6.361   4.857  1.0081 -0.3730 -0.3423
  197DOPC   C3324440   0.373   7.185   3.373 -0.7267  0.4133  0.1320
  197DOPC   H3X24441   0.303   7.271   3.377 -0.1605  0.8501  3.3917
  197DOPC   H3Y24442   0.421   7.171   3.274  1.5861 -0.4736  1.3101
  197DOPC   C3424443   0.485   7.218   3.478 -0.3514  0.1931 -0.3221
  197DOPC   H4X24444   0.441   7.200   3.578 -0.8069  1.2868 -0.3111
  197DOPC   H4Y24445   0.492   7.329   3.469 -0.1063  0.7852  4.4002
  197DOPC   C3524446   0.613   7.156   3.451 -0.2583 -0.2841  0.3378
  197DOPC   H5X24447   0.650   7.203   3.358  0.5291  0.6566  1.1036
  197DOPC   H5Y24448   0.601   7.047   3.433 -0.4194  0.1399 -2.5377
  197DOPC   C3624449   0.726   7.182   3.557  0.3367  0.4414 -0.1585
  197DOPC   H6X24450   0.818   7.127   3.527  0.5833  0.6607  0.1980
  197DOPC   H6Y24451   0.759   7.288   3.548  1.5424  0.0576 -0.4308
  197DOPC   C3724452   0.679   7.144   3.699  0.4761 -0.3564 -0.2636
  197DOPC   H7X24453   0.620   7.227   3.742  2.3211  0.2501  1.2342
  197DOPC   H7Y24454   0.605   7.061   3.705 -1.2461  1.2179  1.5609
  197DOPC   C3824455   0.795   7.105   3.789 -0.1032 -0.2461 -0.1721
  197DOPC   H8X24456   0.852   7.023   3.740 -0.6085 -1.5330  1.3178
  197DOPC   H8Y24457   0.755   7.056   3.880  0.9293 -1.9671 -0.6041
  197DOPC   C3924458   0.887   7.217   3.823  0.9402 -0.1930 -0.5497
  197DOPC   H9X24459   0.888   7.285   3.736  0.6587 -1.5402 -1.6447
  197DOPC  C31024460   0.965   7.238   3.932 -0.5878  0.3728  0.7667
  197DOPC  H10X24461   1.029   7.327   3.938 -0.0231 -0.0407  1.0077
  197DOPC  C31124462   0.978   7.142   4.039 -0.3667  0.4257  0.0896
  197DOPC  H11X24463   1.079   7.143   4.085 -1.0241  0.5428  1.5695
  197DOPC  H11Y24464   0.959   7.037   4.010 -1.3661  0.5386  0.3113
  197DOPC  C31224465   0.886   7.173   4.151  0.4119  0.0063 -0.0455
  197DOPC  H12X24466   0.779   7.174   4.123  0.2053 -0.5946  0.6744
  197DOPC  H12Y24467   0.898   7.274   4.194 -2.1243  0.3215  0.0760
  197DOPC  C31324468   0.906   7.068   4.264 -0.0126  0.1632  0.2108
  197DOPC  H13X24469   1.013   7.062   4.292  0.0448  2.4928  0.6775
  197DOPC  H13Y24470   0.853   7.090   4.359 -0.5000  2.0852 -0.4692
  197DOPC  C31424471   0.845   6.926   4.239  0.4016  0.2161  0.2204
  197DOPC  H14X24472   0.735   6.930   4.223  0.8478 -0.6510 -4.1688
  197DOPC  H14Y24473   0.887   6.878   4.149 -2.0249 -0.2629 -0.7518
  197DOPC  C31524474   0.874   6.829   4.360  0.1739  0.2145  0.2610
  197DOPC  H15X24475   0.846   6.887   4.451 -0.2751  0.5622 -0.0894
  197DOPC  H15Y24476   0.982   6.811   4.372  0.0859 -0.8753 -0.4559
  197DOPC  C31624477   0.796   6.698   4.379  0.0815 -0.0764  0.0801
  197DOPC  H16X24478   0.846   6.633   4.454  0.9047  1.2151  0.6646
  197DOPC  H16Y24479   0.697   6.725   4.420  0.0070  1.0170 -0.7688
  197DOPC  C31724480   0.793   6.609   4.246  0.2221 -0.2165 -0.3104
  197DOPC  H17X24481   0.726   6.669   4.181 -1.0505 -3.0753 -1.8505
  197DOPC  H17Y24482   0.898   6.612   4.210  0.5020  0.3318  0.5314
  197DOPC  C31824483   0.740   6.470   4.250 -0.1473  0.2016 -0.2585
  197DOPC  H18X24484   0.739   6.426   4.148  2.0801 -1.1257  0.2117
  197DOPC  H18Y24485   0.788   6.407   4.328 -1.0516  1.8391  1.7132
  197DOPC  H18Z24486   0.637   6.468   4.290 -0.6927  0.3564 -1.6161
  198DOPC     N24487   4.818   5.307   2.895 -0.2617  0.4380 -0.0305
  198DOPC   C1224488   4.913   5.303   3.017 -0.1481 -0.8514 -0.4840
  198DOPC  H12A24489   4.845   5.339   3.094 -3.7667  0.3915 -3.9214
  198DOPC  H12B24490   4.992   5.375   3.002  0.4392 -0.9930  1.5233
  198DOPC   C1324491   4.888   5.279   2.769 -0.0900  0.0213 -0.1851
  198DOPC  H13A24492   4.815   5.265   2.690  0.3829 -0.3864 -0.5523
  198DOPC  H13B24493   4.963   5.351   2.740 -0.4979  0.1484 -0.9806
  198DOPC  H13C24494   4.940   5.185   2.779 -0.5969 -0.0453  2.5683
  198DOPC   C1424495   4.744   5.436   2.887 -0.3891 -0.7122  0.5289
  198DOPC  H14A24496   4.807   5.523   2.876 -0.1486 -1.1469 -2.2515
  198DOPC  H14B24497   4.676   5.440   2.804 -0.7543 -2.3627  0.7098
  198DOPC  H14C24498   4.680   5.459   2.971 -1.7687  0.5011 -0.7856
  198DOPC   C1524499   4.723   5.191   2.907  0.0727 -0.6826 -0.1984
  198DOPC  H15A24500   4.765   5.091   2.910 -0.2617 -0.8712  3.4526
  198DOPC  H15B24501   4.640   5.202   2.839 -0.1529 -0.9589  0.0273
  198DOPC  H15C24502   4.679   5.195   3.006  1.8061 -2.9477  0.7496
  198DOPC   C1124503   4.973   5.170   3.068  0.7346 -0.2626 -0.2001
  198DOPC  H11A24504   5.034   5.204   3.155 -0.2367  0.1790  0.3267
  198DOPC  H11B24505   4.892   5.102   3.103  0.2003 -0.4369 -1.7324
  198DOPC     P24506   5.111   4.969   2.981  0.1388 -0.4935 -0.4364
  198DOPC   O1324507   5.152   4.920   2.852  0.0294 -0.4691 -0.0691
  198DOPC   O1424508   5.019   4.882   3.065  0.0341 -0.0111 -0.2239
  198DOPC   O1224509   5.052   5.111   2.966  0.2698  0.0269  0.5599
  198DOPC   O1124510   5.231   5.003   3.071 -0.2316 -0.1817 -0.0021
  198DOPC    C124511   5.310   4.901   3.137  0.0631 -0.5419  0.2954
  198DOPC    HA24512   5.416   4.932   3.133  0.0929 -0.7420 -0.5852
  198DOPC    HB24513   5.318   4.801   3.091 -0.3214 -0.0116 -0.9593
  198DOPC    C224514   5.279   4.882   3.286  0.2576 -0.0136 -0.0697
  198DOPC    HS24515   5.184   4.825   3.291  0.3254 -0.0392  2.2532
  198DOPC   O2124516   5.284   5.004   3.362  0.5294 -0.3819  0.3793
  198DOPC   C2124517   5.192   5.026   3.446 -0.1773 -0.0627  0.4405
  198DOPC   O2224518   5.100   4.953   3.481  0.3592 -0.0135  0.0151
  198DOPC   C2224519   5.236   5.154   3.523 -0.0898  0.1068  0.2761
  198DOPC   H2R24520   5.258   5.236   3.452 -0.0746 -0.0885  0.0554
  198DOPC   H2S24521   5.337   5.138   3.567 -0.2313  2.1481  1.4699
  198DOPC    C324522   5.387   4.789   3.351 -0.1369  0.7085 -1.4640
  198DOPC    HX24523   5.484   4.842   3.363  0.7057 -0.9473 -0.6856
  198DOPC    HY24524   5.396   4.701   3.283  0.2818  0.6254 -1.3066
  198DOPC   O3124525   5.351   4.752   3.493  0.2633  0.1782  0.0627
  198DOPC   C3124526   5.295   4.629   3.501 -0.8420  0.3299  0.1788
  198DOPC   O3224527   5.273   4.553   3.410 -0.0250 -0.7001 -0.1476
  198DOPC   C3224528   5.241   4.618   3.642  0.6066  0.3057  0.3897
  198DOPC   H2X24529   5.325   4.638   3.712 -0.1225 -2.1876  2.1323
  198DOPC   H2Y24530   5.162   4.696   3.644 -0.7544 -0.9957 -0.6925
  198DOPC   C2324531   5.133   5.206   3.631 -0.0576 -0.0952 -0.5188
  198DOPC   H3R24532   5.027   5.187   3.607 -0.0690 -1.4836  0.5466
  198DOPC   H3S24533   5.151   5.316   3.626 -0.2286 -0.1201 -2.8132
  198DOPC   C2424534   5.154   5.153   3.776  0.2269  0.4618  0.2476
  198DOPC   H4R24535   5.058   5.182   3.823 -0.9923  0.7037 -2.2693
  198DOPC   H4S24536   5.237   5.202   3.832 -0.5307 -2.0415  3.9308
  198DOPC   C2524537   5.181   5.003   3.799 -0.4644 -0.4770  0.2798
  198DOPC   H5R24538   5.281   4.974   3.759  0.0461 -0.4188  1.4647
  198DOPC   H5S24539   5.109   4.931   3.755 -0.4554 -1.0882  1.2392
  198DOPC   C2624540   5.193   4.982   3.950 -0.3279  1.1315  0.8679
  198DOPC   H6R24541   5.089   4.994   3.987 -0.1621 -0.6071  2.0434
  198DOPC   H6S24542   5.266   5.051   3.998 -1.0674  1.9179  0.8911
  198DOPC   C2724543   5.225   4.839   3.981  0.3477  0.5395 -0.1091
  198DOPC   H7R24544   5.305   4.797   3.917  0.4117 -1.4169  1.1640
  198DOPC   H7S24545   5.148   4.762   3.957  0.1203  0.5296  0.6248
  198DOPC   C2824546   5.249   4.819   4.133  0.7587 -0.1943 -0.2065
  198DOPC   H8R24547   5.219   4.715   4.159 -0.0169  0.2829  0.8862
  198DOPC   H8S24548   5.180   4.885   4.190  2.6057  1.1411  0.6155
  198DOPC   C2924549   5.389   4.849   4.186  0.1143  0.3676 -0.1825
  198DOPC   H9R24550   5.459   4.771   4.151  0.2493 -0.8487  2.5607
  198DOPC  C21024551   5.426   4.949   4.270  0.5483  0.1385 -0.3793
  198DOPC  H10R24552   5.531   4.961   4.302 -0.0290  2.6105  0.8999
  198DOPC  C21124553   5.338   5.055   4.328  0.6360 -0.0394 -0.1638
  198DOPC  H11R24554   5.232   5.051   4.295  0.8213 -3.0217 -0.6224
  198DOPC  H11S24555   5.392   5.141   4.283 -1.0967  0.0258 -2.2718
  198DOPC  C21224556   5.321   5.061   4.484 -0.1675 -0.3891 -0.3908
  198DOPC  H12R24557   5.269   4.970   4.520 -2.4085  1.0145  0.0958
  198DOPC  H12S24558   5.251   5.143   4.511  0.5392 -0.0976  0.5970
  198DOPC  C21324559   5.453   5.087   4.564  0.4634 -0.5683 -0.1479
  198DOPC  H13R24560   5.472   5.197   4.557  2.0005 -0.8098 -0.0658
  198DOPC  H13S24561   5.542   5.033   4.525  1.0778  0.0215  0.4092
  198DOPC  C21424562   5.425   5.048   4.716  0.9565 -0.1231  0.0327
  198DOPC  H14R24563   5.388   4.944   4.728  1.4978  0.0336  4.4141
  198DOPC  H14S24564   5.334   5.102   4.749  1.5740  0.9449  0.0407
  198DOPC  C21524565   5.540   5.057   4.814 -0.1489  0.1203 -0.0589
  198DOPC  H15R24566   5.620   4.998   4.765  0.7288  0.2452  1.1757
  198DOPC  H15S24567   5.509   5.011   4.911 -1.3433  1.7780  0.3965
  198DOPC  C21624568   5.591   5.198   4.843 -0.1741 -0.2273  0.4148
  198DOPC  H16R24569   5.506   5.258   4.883  0.9126  0.3818  1.8842
  198DOPC  H16S24570   5.616   5.250   4.748  1.1713  1.6529  1.7143
  198DOPC  C21724571   5.714   5.189   4.938  0.2802  0.1126 -0.1341
  198DOPC  H17R24572   5.790   5.124   4.889  1.1543  1.4222 -0.5863
  198DOPC  H17S24573   5.673   5.140   5.029 -1.2068  0.1682 -0.7475
  198DOPC  C21824574   5.779   5.322   4.976 -0.3405  0.6715 -0.3146
  198DOPC  H18R24575   5.708   5.387   5.031 -1.8761  0.1089 -1.5523
  198DOPC  H18S24576   5.813   5.371   4.882  1.7240  0.0534  0.0601
  198DOPC  H18T24577   5.867   5.308   5.042 -1.8257  1.1390  1.8913
  198DOPC   C3324578   5.204   4.475   3.692  0.3911 -0.3684  0.2794
  198DOPC   H3X24579   5.201   4.490   3.802 -0.6497  1.1023  0.0815
  198DOPC   H3Y24580   5.280   4.399   3.665 -1.3906 -0.9724 -3.7842
  198DOPC   C3424581   5.070   4.431   3.641 -0.1570  0.6759 -0.3090
  198DOPC   H4X24582   5.070   4.420   3.531  1.9832 -2.4150 -0.1225
  198DOPC   H4Y24583   5.001   4.515   3.665 -2.4104 -1.2226  0.2309
  198DOPC   C3524584   5.016   4.305   3.709 -0.4645  0.4041  0.4087
  198DOPC   H5X24585   5.040   4.317   3.817 -2.5653  0.6775  0.8919
  198DOPC   H5Y24586   5.065   4.210   3.681 -0.4875  0.6785 -0.5895
  198DOPC   C3624587   4.864   4.296   3.690 -0.1953  0.5202  0.2218
  198DOPC   H6X24588   4.841   4.344   3.592  0.5088  2.9749  1.1772
  198DOPC   H6Y24589   4.830   4.191   3.684  3.1811 -0.7358  0.8289
  198DOPC   C3724590   4.795   4.364   3.806  0.5637 -0.2551 -0.5574
  198DOPC   H7X24591   4.827   4.345   3.911 -2.0467  1.9273  0.7574
  198DOPC   H7Y24592   4.813   4.472   3.785 -0.1939 -0.0881 -0.3825
  198DOPC   C3824593   4.646   4.345   3.816  0.9637 -0.5592  0.2283
  198DOPC   H8X24594   4.601   4.372   3.718 -0.8854  1.1017  1.4597
  198DOPC   H8Y24595   4.608   4.430   3.877 -2.9545 -0.2870 -2.1979
  198DOPC   C3924596   4.610   4.212   3.874  0.4919 -0.2407  0.1258
  198DOPC   H9X24597   4.689   4.139   3.894  0.8144  0.4123  1.3276
  198DOPC  C31024598   4.502   4.191   3.955 -0.0752  0.0523 -0.0242
  198DOPC  H10X24599   4.494   4.090   3.998  0.6602 -0.0985 -0.2139
  198DOPC  C31124600   4.393   4.279   3.995  0.0494 -0.0704 -0.2607
  198DOPC  H11X24601   4.378   4.354   3.915  1.3719  1.8164  1.1945
  198DOPC  H11Y24602   4.423   4.338   4.084  1.8795 -2.3277  0.7407
  198DOPC  C31224603   4.260   4.213   4.045 -0.3144 -0.2035 -0.5741
  198DOPC  H12X24604   4.280   4.137   4.124 -1.3084  1.3092  1.2300
  198DOPC  H12Y24605   4.214   4.161   3.958  2.1400  0.2653 -2.2482
  198DOPC  C31324606   4.166   4.318   4.109  0.2285  0.2487  0.3196
  198DOPC  H13X24607   4.213   4.350   4.204 -1.6729  1.2664  0.9485
  198DOPC  H13Y24608   4.150   4.403   4.039  1.2570 -1.2648 -1.9019
  198DOPC  C31424609   4.034   4.250   4.157  0.0766 -0.3483  0.0154
  198DOPC  H14X24610   3.976   4.232   4.064 -1.5848  2.1851  0.4716
  198DOPC  H14Y24611   4.057   4.157   4.214  2.9154  0.1744 -0.1126
  198DOPC  C31524612   3.951   4.334   4.256  0.1749 -0.1805  0.2996
  198DOPC  H15X24613   3.842   4.312   4.254 -0.1029  1.0764  0.5781
  198DOPC  H15Y24614   3.965   4.441   4.227 -1.4705 -0.7909 -3.2365
  198DOPC  C31624615   3.996   4.314   4.396 -0.6779  0.2431 -0.5879
  198DOPC  H16X24616   4.107   4.312   4.395 -0.6588 -2.2523 -0.8865
  198DOPC  H16Y24617   3.960   4.393   4.466  1.8935 -0.6838  1.9820
  198DOPC  C31724618   3.949   4.185   4.464  0.4218  0.3440 -0.1023
  198DOPC  H17X24619   3.840   4.175   4.445  0.3681  2.7288 -1.6064
  198DOPC  H17Y24620   3.992   4.097   4.411  1.6028  0.7135  0.2143
  198DOPC  C31824621   3.994   4.173   4.607 -0.1896 -0.4249  0.2424
  198DOPC  H18X24622   4.105   4.166   4.607 -0.2500 -3.4036  2.6131
  198DOPC  H18Y24623   3.954   4.265   4.654  1.2885  0.4536 -0.1429
  198DOPC  H18Z24624   3.956   4.080   4.654 -1.2425  0.1614  0.5949
  199DOPC     N24625   4.529   7.445   2.812  0.2046 -0.7298  0.5157
  199DOPC   C1224626   4.664   7.411   2.882  0.1990  0.1083 -0.9232
  199DOPC  H12A24627   4.724   7.493   2.919  1.1346 -0.8896 -0.1911
  199DOPC  H12B24628   4.734   7.365   2.814  2.1457  1.5908 -0.0107
  199DOPC   C1324629   4.433   7.504   2.904 -0.2135 -0.5839 -0.5077
  199DOPC  H13A24630   4.342   7.535   2.855  1.8865  3.3692 -2.2975
  199DOPC  H13B24631   4.417   7.446   2.995  1.5125 -1.2730 -0.5929
  199DOPC  H13C24632   4.471   7.598   2.940 -1.3358  0.0445 -0.9348
  199DOPC   C1424633   4.464   7.325   2.753  0.3971 -0.0125  0.6294
  199DOPC  H14A24634   4.462   7.242   2.822 -0.9741  1.4860  2.4921
  199DOPC  H14B24635   4.365   7.342   2.715 -0.6012 -1.1214  2.5763
  199DOPC  H14C24636   4.521   7.287   2.669  0.2799  1.3180 -0.0764
  199DOPC   C1524637   4.562   7.540   2.705  0.3446  0.1210  0.1757
  199DOPC  H15A24638   4.471   7.570   2.656  0.6301 -2.4810 -2.2192
  199DOPC  H15B24639   4.628   7.493   2.633  1.9008 -1.4129  2.4812
  199DOPC  H15C24640   4.614   7.624   2.748 -0.1687  0.0834  0.8897
  199DOPC   C1124641   4.658   7.311   3.004 -0.3346  0.8268  0.6332
  199DOPC  H11A24642   4.762   7.311   3.044  0.4101 -1.6786 -1.1220
  199DOPC  H11B24643   4.591   7.347   3.085 -4.0769 -0.6770 -1.5311
  199DOPC     P24644   4.712   7.078   2.908 -0.2419 -0.2916  0.6642
  199DOPC   O1324645   4.808   7.144   2.823 -0.0928 -0.5468  0.2919
  199DOPC   O1424646   4.639   6.966   2.845  0.2238 -0.1231  0.4247
  199DOPC   O1224647   4.618   7.183   2.966  0.5787 -0.6813 -0.0886
  199DOPC   O1124648   4.785   7.024   3.037  0.1084  0.3458  0.3172
  199DOPC    C124649   4.727   6.988   3.167 -0.3081 -0.4148  0.1417
  199DOPC    HA24650   4.679   6.889   3.158  0.4008 -0.7033 -0.5364
  199DOPC    HB24651   4.648   7.062   3.195  0.0603  0.6964 -1.5694
  199DOPC    C224652   4.836   6.968   3.278  0.0629 -0.2913 -0.6747
  199DOPC    HS24653   4.783   6.950   3.374  0.9720 -0.2306 -0.1499
  199DOPC   O2124654   4.927   7.073   3.303  0.0549 -0.1878 -0.5662
  199DOPC   C2124655   4.872   7.182   3.355  0.3427 -0.3410 -1.3124
  199DOPC   O2224656   4.757   7.190   3.405 -0.2978  0.5132  0.0853
  199DOPC   C2224657   4.973   7.292   3.378 -0.1674  1.0180 -0.2810
  199DOPC   H2R24658   4.926   7.383   3.421  0.2891  1.9524 -1.6943
  199DOPC   H2S24659   5.007   7.321   3.276 -0.5407 -0.8263 -0.9562
  199DOPC    C324660   4.910   6.832   3.268 -0.8105 -0.0973 -0.4499
  199DOPC    HX24661   4.990   6.831   3.191 -1.1040  0.1081 -0.7625
  199DOPC    HY24662   4.833   6.763   3.229 -1.3251  1.3906 -2.2002
  199DOPC   O3124663   4.954   6.790   3.399  0.4983  0.5503 -0.0629
  199DOPC   C3124664   4.989   6.661   3.408 -0.4768 -0.3769  0.2137
  199DOPC   O3224665   5.019   6.598   3.307 -0.1338 -0.3502  0.3180
  199DOPC   C3224666   4.988   6.618   3.555 -0.1460 -0.1578 -0.2899
  199DOPC   H2X24667   5.031   6.704   3.611  0.8690  0.1759 -1.5181
  199DOPC   H2Y24668   4.882   6.611   3.587  0.0678  0.0277  0.4659
  199DOPC   C2324669   5.104   7.257   3.465 -0.2207  0.7847  0.7285
  199DOPC   H3R24670   5.175   7.342   3.456  1.1561 -0.3183  0.8288
  199DOPC   H3S24671   5.144   7.162   3.425 -1.9641  0.6709 -0.8795
  199DOPC   C2424672   5.057   7.228   3.612  0.2860  0.0997  0.7109
  199DOPC   H4R24673   5.143   7.230   3.682 -0.9198  2.1011  2.2538
  199DOPC   H4S24674   5.008   7.128   3.614  0.5251 -0.0181  0.6570
  199DOPC   C2524675   4.962   7.333   3.678 -0.1690  0.0564  0.4453
  199DOPC   H5R24676   4.873   7.356   3.616  0.1223 -0.2771 -0.1024
  199DOPC   H5S24677   5.012   7.432   3.690 -1.0583  0.4557  0.9950
  199DOPC   C2624678   4.906   7.276   3.814 -0.0148 -0.2987  1.0277
  199DOPC   H6R24679   4.820   7.209   3.794 -1.9774  1.7295  2.2918
  199DOPC   H6S24680   4.861   7.357   3.874  1.1090  0.7123  0.5620
  199DOPC   C2724681   5.007   7.206   3.906  0.6358 -0.4242  0.7497
  199DOPC   H7R24682   5.097   7.271   3.914 -0.4772  1.5458 -1.4615
  199DOPC   H7S24683   5.035   7.107   3.865  1.3309 -0.5434  1.4921
  199DOPC   C2824684   4.947   7.171   4.047 -0.8033 -0.8443  0.6784
  199DOPC   H8R24685   5.018   7.099   4.092  0.6518  1.1813  1.8331
  199DOPC   H8S24686   4.848   7.125   4.030 -0.8554 -0.2444 -0.7763
  199DOPC   C2924687   4.939   7.298   4.123  0.4081  0.0366  0.4242
  199DOPC   H9R24688   4.898   7.385   4.070 -0.5890 -1.1316 -0.8147
  199DOPC  C21024689   4.973   7.315   4.250  0.2278 -0.4727  0.7789
  199DOPC  H10R24690   4.946   7.412   4.294 -0.6531  0.2352 -1.2075
  199DOPC  C21124691   5.052   7.218   4.336 -0.1874  0.8208 -0.1489
  199DOPC  H11R24692   5.155   7.209   4.297 -0.3041 -0.5624 -0.1773
  199DOPC  H11S24693   5.003   7.119   4.340 -1.4377  1.3742 -1.0744
  199DOPC  C21224694   5.059   7.288   4.475 -0.6014 -0.1116  0.3160
  199DOPC  H12R24695   4.959   7.285   4.524 -0.4193 -0.1059  0.6945
  199DOPC  H12S24696   5.083   7.396   4.471  0.3164 -0.1716  2.4749
  199DOPC  C21324697   5.157   7.216   4.568  0.2579  0.0767 -0.0751
  199DOPC  H13R24698   5.257   7.236   4.525  1.2841  0.4081  2.3269
  199DOPC  H13S24699   5.128   7.109   4.563 -0.2627  0.2123 -0.0542
  199DOPC  C21424700   5.155   7.286   4.708  0.6268  0.0793 -0.2593
  199DOPC  H14R24701   5.057   7.256   4.751  0.6577  0.7358  0.2805
  199DOPC  H14S24702   5.156   7.394   4.683  1.9160 -0.0037 -0.6672
  199DOPC  C21524703   5.259   7.236   4.798 -0.0683 -0.2862 -0.3182
  199DOPC  H15R24704   5.275   7.127   4.809 -0.6987 -0.2816  0.8192
  199DOPC  H15S24705   5.236   7.272   4.901  1.3096 -0.1671 -0.0216
  199DOPC  C21624706   5.394   7.305   4.767  0.0639 -0.2252 -0.4406
  199DOPC  H16R24707   5.384   7.412   4.793 -0.1935  0.0303 -1.5414
  199DOPC  H16S24708   5.426   7.310   4.661  0.7740 -0.7514 -0.2595
  199DOPC  C21724709   5.503   7.237   4.847 -0.8820  0.3408 -0.3211
  199DOPC  H17R24710   5.496   7.128   4.829  1.0417 -0.0198  0.8101
  199DOPC  H17S24711   5.480   7.255   4.954  0.4901  0.7933 -0.0869
  199DOPC  C21824712   5.643   7.282   4.799 -0.1389  0.0159 -0.4812
  199DOPC  H18R24713   5.653   7.387   4.833  1.1105 -1.0614  2.9376
  199DOPC  H18S24714   5.652   7.271   4.689 -0.5397  0.2690 -0.5414
  199DOPC  H18T24715   5.724   7.225   4.848 -2.2853 -2.1814  0.7324
  199DOPC   C3324716   5.055   6.486   3.584 -0.5488  0.4881  0.5771
  199DOPC   H3X24717   5.159   6.504   3.552 -1.6312  3.9620 -1.4638
  199DOPC   H3Y24718   5.016   6.406   3.517  1.7182 -0.4231  0.2797
  199DOPC   C3424719   5.042   6.444   3.733 -0.0902  0.6197  0.5857
  199DOPC   H4X24720   4.935   6.440   3.762 -0.5384  0.1354 -0.9806
  199DOPC   H4Y24721   5.090   6.526   3.789  0.0399  0.5886  0.5213
  199DOPC   C3524722   5.101   6.303   3.752  0.4597  0.1659  0.4573
  199DOPC   H5X24723   5.208   6.299   3.723  0.0740 -0.1541 -0.9962
  199DOPC   H5Y24724   5.051   6.234   3.681 -0.1083  1.4100 -0.3801
  199DOPC   C3624725   5.098   6.265   3.898 -0.3791  0.2862  0.3558
  199DOPC   H6X24726   5.158   6.338   3.957  0.7059  0.3030 -0.7304
  199DOPC   H6Y24727   4.997   6.271   3.945  0.2358  0.7429  1.6871
  199DOPC   C3724728   5.154   6.122   3.915  0.4699 -0.5284  0.0205
  199DOPC   H7X24729   5.118   6.045   3.844  0.5534 -1.5025  1.0164
  199DOPC   H7Y24730   5.261   6.140   3.888  0.5796 -1.0815  0.0776
  199DOPC   C3824731   5.140   6.080   4.062 -0.2610  0.4944  0.7502
  199DOPC   H8X24732   5.172   6.166   4.125 -0.9017  1.3147 -0.0181
  199DOPC   H8Y24733   5.201   5.990   4.085  1.6520  1.2050 -1.1729
  199DOPC   C3924734   4.990   6.057   4.082  0.3202 -0.2118  0.0280
  199DOPC   H9X24735   4.957   5.986   4.004 -0.9140 -0.5705  0.8483
  199DOPC  C31024736   4.895   6.121   4.148  0.6192 -0.1668 -0.5804
  199DOPC  H10X24737   4.791   6.089   4.133  0.7666 -0.1465 -1.7490
  199DOPC  C31124738   4.917   6.229   4.252 -0.2755 -0.1442  0.7430
  199DOPC  H11X24739   4.857   6.319   4.228 -1.7611 -1.0592  0.8931
  199DOPC  H11Y24740   5.018   6.275   4.249 -0.7236  0.9527  1.6580
  199DOPC  C31224741   4.887   6.202   4.398 -0.0343  0.4597  0.6450
  199DOPC  H12X24742   4.777   6.198   4.414 -0.2437  1.1605 -0.4622
  199DOPC  H12Y24743   4.930   6.282   4.462  0.2606 -0.2769  1.3801
  199DOPC  C31324744   4.944   6.073   4.460 -0.1289  0.3290  0.1961
  199DOPC  H13X24745   4.896   5.984   4.413 -2.1332  1.2723  0.3342
  199DOPC  H13Y24746   5.053   6.073   4.443 -0.1549 -1.1485 -0.1126
  199DOPC  C31424747   4.907   6.057   4.605 -0.1031 -0.6730 -0.9939
  199DOPC  H14X24748   4.798   6.061   4.626  0.5124  0.1393  3.0016
  199DOPC  H14Y24749   4.935   5.957   4.644 -0.0635 -0.1726  0.3311
  199DOPC  C31524750   4.947   6.169   4.705 -0.2187 -0.0008 -0.3425
  199DOPC  H15X24751   4.896   6.264   4.679 -1.1882 -0.2479  0.5789
  199DOPC  H15Y24752   5.055   6.187   4.685 -0.4387  0.7594 -0.8590
  199DOPC  C31624753   4.936   6.142   4.854 -0.0230  0.3393  0.0271
  199DOPC  H16X24754   4.831   6.107   4.866 -0.2366  0.5646 -1.0240
  199DOPC  H16Y24755   5.002   6.057   4.880  0.2552  0.8236  0.9243
  199DOPC  C31724756   4.951   6.264   4.943  0.3333 -0.7658  0.8229
  199DOPC  H17X24757   5.061   6.259   4.954  0.6336 -0.5853 -1.5471
  199DOPC  H17Y24758   4.911   6.356   4.894 -0.2995 -0.7540  1.3415
  199DOPC  C31824759   4.894   6.264   5.083 -0.4149  0.0670  0.2062
  199DOPC  H18X24760   4.919   6.352   5.146  0.7410 -0.1035  0.0016
  199DOPC  H18Y24761   4.786   6.240   5.072 -0.3317  0.1798 -1.0283
  199DOPC  H18Z24762   4.940   6.176   5.133  2.1060  1.9464  1.4189
  200DOPC     N24763   6.944   0.231   2.776 -0.4687  0.3635 -0.6461
  200DOPC   C1224764   7.070   0.144   2.793  0.2155 -0.2208 -0.3163
  200DOPC  H12A24765   7.099   0.107   2.695  1.9148 -0.3741  0.2136
  200DOPC  H12B24766   7.039   0.067   2.862  0.6472 -1.9735 -1.9886
  200DOPC   C1324767   6.986   0.343   2.691 -0.0262 -0.2335 -0.0159
  200DOPC  H13A24768   7.068   0.398   2.734  1.5592 -1.8572 -0.7950
  200DOPC  H13B24769   7.008   0.300   2.594 -0.4672 -0.6600  0.0693
  200DOPC  H13C24770   6.903   0.408   2.667 -3.1367 -4.5814 -2.5618
  200DOPC   C1424771   6.893   0.282   2.901 -0.4623  0.3937 -0.5853
  200DOPC  H14A24772   6.958   0.335   2.969 -2.8644  3.3350 -0.3772
  200DOPC  H14B24773   6.816   0.356   2.883 -1.2993 -0.6868 -1.6930
  200DOPC  H14C24774   6.843   0.209   2.963  3.7710 -1.3495  1.1312
  200DOPC   C1524775   6.826   0.164   2.711  0.2577  0.4779  0.7904
  200DOPC  H15A24776   6.743   0.232   2.729  1.4448  2.1584  0.2074
  200DOPC  H15B24777   6.805   0.069   2.757 -2.1758  0.9222  0.7358
  200DOPC  H15C24778   6.856   0.137   2.611 -0.1618  0.3299  0.7049
  200DOPC   C1124779   7.198   0.216   2.845  0.0491  0.1447  0.0483
  200DOPC  H11A24780   7.185   0.251   2.949  1.9954 -1.2367  0.7983
  200DOPC  H11B24781   7.286   0.148   2.846  1.4106  1.6159 -3.2228
  200DOPC     P24782   7.377   0.418   2.798  0.1639  0.0556  0.1868
  200DOPC   O1324783   7.310   0.546   2.821  0.4406  0.1671 -0.1987
  200DOPC   O1424784   7.478   0.408   2.692 -0.2637  0.3370  0.1292
  200DOPC   O1224785   7.259   0.325   2.758  1.2343  0.0858 -0.1486
  200DOPC   O1124786   7.438   0.362   2.937 -0.4184  0.0544  0.7374
  200DOPC    C124787   7.574   0.321   2.935  0.1529  0.2737  0.5691
  200DOPC    HA24788   7.643   0.393   2.886  0.6836 -1.0721 -0.7214
  200DOPC    HB24789   7.572   0.216   2.899 -2.3014 -0.3235  2.2076
  200DOPC    C224790   7.624   0.311   3.083 -0.4709  0.6966 -0.0713
  200DOPC    HS24791   7.725   0.266   3.081 -0.6094  0.1506  2.2270
  200DOPC   O2124792   7.530   0.233   3.157  0.1209 -0.4285  0.2785
  200DOPC   C2124793   7.548   0.101   3.140  0.3859 -0.2117 -0.6978
  200DOPC   O2224794   7.634   0.049   3.068  0.1999  0.2535 -0.0728
  200DOPC   C2224795   7.461   0.033   3.245  0.1244  0.0673 -0.0161
  200DOPC   H2R24796   7.355   0.027   3.212  0.1416  2.0134 -0.5278
  200DOPC   H2S24797   7.466   0.093   3.338  0.8678 -1.2891  0.8639
  200DOPC    C324798   7.641   0.454   3.148 -0.1084 -0.5341 -0.2761
  200DOPC    HX24799   7.549   0.512   3.166  0.5422  0.3608  0.2664
  200DOPC    HY24800   7.696   0.510   3.069  1.3482  0.6990  1.5016
  200DOPC   O3124801   7.739   0.455   3.253 -0.4212  0.2484 -0.4217
  200DOPC   C3124802   7.692   0.424   3.377 -0.1690 -0.2646 -0.4263
  200DOPC   O3224803   7.576   0.420   3.416  0.2004 -0.2408  0.0793
  200DOPC   C3224804   7.814   0.411   3.464  0.7533 -0.1044  0.9718
  200DOPC   H2X24805   7.805   0.315   3.519 -2.2833 -2.0348 -2.4706
  200DOPC   H2Y24806   7.907   0.418   3.403 -1.0840 -0.0585 -1.9781
  200DOPC   C2324807   7.524  -0.104   3.281 -0.3011 -0.4368 -0.1660
  200DOPC   H3R24808   7.626  -0.086   3.322 -0.0418 -1.5536 -0.2972
  200DOPC   H3S24809   7.535  -0.167   3.191 -1.3456  0.4455 -0.9519
  200DOPC   C2424810   7.414  -0.162   3.370  0.3371 -0.3513  0.9577
  200DOPC   H4R24811   7.314  -0.160   3.322  0.4445  1.3481  0.7446
  200DOPC   H4S24812   7.410  -0.091   3.455  0.3598  0.3630  0.3760
  200DOPC   C2524813   7.447  -0.302   3.419 -0.2185  0.2133 -0.2408
  200DOPC   H5R24814   7.487  -0.360   3.333 -0.7027  1.5062 -1.3691
  200DOPC   H5S24815   7.359  -0.360   3.453  0.4974 -1.9264 -1.7906
  200DOPC   C2624816   7.546  -0.291   3.540 -0.1681  0.1136 -0.9092
  200DOPC   H6R24817   7.503  -0.245   3.632 -1.7364  0.0429 -1.5782
  200DOPC   H6S24818   7.627  -0.222   3.509  1.6257  0.0959  3.1107
  200DOPC   C2724819   7.608  -0.430   3.583 -0.9433 -0.0079  0.2879
  200DOPC   H7R24820   7.657  -0.474   3.493 -0.7919 -2.1809  1.3818
  200DOPC   H7S24821   7.519  -0.489   3.614  0.0967 -0.1857  3.1949
  200DOPC   C2824822   7.701  -0.440   3.707 -0.4205 -0.0181  0.9320
  200DOPC   H8R24823   7.729  -0.547   3.701  0.1162  0.2174 -1.9756
  200DOPC   H8S24824   7.641  -0.425   3.800  0.4883  2.8395  1.1334
  200DOPC   C2924825   7.817  -0.347   3.694  0.2930 -0.6142 -0.9237
  200DOPC   H9R24826   7.858  -0.336   3.593  2.5068 -0.8282 -0.1128
  200DOPC  C21024827   7.895  -0.304   3.792 -0.0976 -0.4302  0.5301
  200DOPC  H10R24828   7.984  -0.245   3.767 -0.8869  0.7513  0.4018
  200DOPC  C21124829   7.871  -0.326   3.943 -0.1907 -0.5384 -0.4959
  200DOPC  H11R24830   7.774  -0.374   3.970  0.4620 -0.5977  1.9041
  200DOPC  H11S24831   7.863  -0.219   3.973 -2.4669 -0.5390 -0.9212
  200DOPC  C21224832   7.986  -0.407   4.007  0.3128 -0.1151  0.0019
  200DOPC  H12R24833   7.982  -0.396   4.117  1.6905 -1.8438  0.2834
  200DOPC  H12S24834   8.085  -0.367   3.977  0.3460 -0.3270 -0.1798
  200DOPC  C21324835   7.990  -0.556   3.959  0.5668 -0.7337  0.1000
  200DOPC  H13R24836   8.006  -0.556   3.849  0.9640  0.1008  0.1471
  200DOPC  H13S24837   7.892  -0.602   3.983  0.8088 -1.3338 -0.0443
  200DOPC  C21424838   8.081  -0.651   4.038  0.0310  0.0699  0.4135
  200DOPC  H14R24839   8.045  -0.672   4.141 -0.2100 -1.7612 -0.0016
  200DOPC  H14S24840   8.175  -0.594   4.050 -1.1926  3.0053 -2.5185
  200DOPC  C21524841   8.097  -0.792   3.972 -0.0443 -0.5963  0.6183
  200DOPC  H15R24842   8.128  -0.767   3.868 -0.0181 -1.7027  0.3532
  200DOPC  H15S24843   8.008  -0.859   3.971 -0.3573 -0.2066  1.4453
  200DOPC  C21624844   8.217  -0.870   4.025  0.5190 -0.5984 -0.4218
  200DOPC  H16R24845   8.196  -0.907   4.128 -0.0481 -0.3756 -0.4562
  200DOPC  H16S24846   8.306  -0.803   4.023  0.5356 -0.5664  0.7810
  200DOPC  C21724847   8.254  -0.987   3.926 -0.2388  0.2320  0.0318
  200DOPC  H17R24848   8.172  -1.060   3.909 -0.8338  0.9364 -0.1770
  200DOPC  H17S24849   8.337  -1.045   3.971 -0.0180 -0.1930 -0.8988
  200DOPC  C21824850   8.320  -0.943   3.797  0.3218 -0.3380  0.1334
  200DOPC  H18R24851   8.409  -0.880   3.818  0.0555 -0.2391  1.0078
  200DOPC  H18S24852   8.253  -0.879   3.734  1.7225  1.2430  0.1817
  200DOPC  H18T24853   8.353  -1.032   3.740 -2.1312 -1.8701  0.9457
  200DOPC   C3324854   7.826   0.536   3.556  0.1242  0.6643  0.1188
  200DOPC   H3X24855   7.781   0.624   3.505 -0.3356  0.3899  0.0503
  200DOPC   H3Y24856   7.934   0.562   3.559  0.3204 -0.0143 -0.7027
  200DOPC   C3424857   7.765   0.508   3.694 -0.5209  0.4545 -0.3296
  200DOPC   H4X24858   7.789   0.403   3.720  3.1749  0.7891 -1.7721
  200DOPC   H4Y24859   7.656   0.517   3.713  0.0986  0.9661  3.8455
  200DOPC   C3524860   7.828   0.589   3.812  0.0433  0.2635  0.0340
  200DOPC   H5X24861   7.825   0.695   3.780  0.2580 -0.1306 -1.3497
  200DOPC   H5Y24862   7.935   0.561   3.822  0.3944  1.2204 -0.9597
  200DOPC   C3624863   7.749   0.563   3.940  0.4861  0.1497  0.5172
  200DOPC   H6X24864   7.645   0.597   3.917  0.3217 -0.6631  0.0056
  200DOPC   H6Y24865   7.750   0.455   3.969  0.7667  0.6460  2.4850
  200DOPC   C3724866   7.800   0.642   4.064 -0.1376  0.3089 -0.0825
  200DOPC   H7X24867   7.904   0.610   4.089 -0.5476 -1.3665 -0.4258
  200DOPC   H7Y24868   7.793   0.749   4.035 -0.4709  0.2601 -0.1754
  200DOPC   C3824869   7.716   0.619   4.190 -0.3800  0.2511 -0.0946
  200DOPC   H8X24870   7.611   0.638   4.159 -1.2270 -3.8470 -0.2331
  200DOPC   H8Y24871   7.759   0.702   4.251  0.7536  0.5358 -1.2331
  200DOPC   C3924872   7.744   0.478   4.237  0.3518 -0.1144 -0.2536
  200DOPC   H9X24873   7.702   0.400   4.172 -2.3034 -0.8571  2.1200
  200DOPC  C31024874   7.821   0.440   4.341 -0.0722 -0.2751 -0.9440
  200DOPC  H10X24875   7.828   0.332   4.357  2.0496  0.0542  0.7559
  200DOPC  C31124876   7.882   0.524   4.447 -0.0464  0.6021  0.6197
  200DOPC  H11X24877   7.898   0.621   4.395  3.1110 -1.5604 -3.0368
  200DOPC  H11Y24878   7.979   0.474   4.472 -0.3464 -0.2108  0.1956
  200DOPC  C31224879   7.809   0.543   4.582  0.0514  0.5457 -0.4695
  200DOPC  H12X24880   7.891   0.551   4.657 -0.1828  0.5048 -0.2072
  200DOPC  H12Y24881   7.754   0.449   4.602 -0.5596  0.9957 -0.0062
  200DOPC  C31324882   7.717   0.668   4.583  0.2224 -0.2554 -0.2269
  200DOPC  H13X24883   7.786   0.755   4.581  0.2575 -0.2826 -0.1587
  200DOPC  H13Y24884   7.649   0.680   4.495  0.2314 -1.9922 -0.5022
  200DOPC  C31424885   7.630   0.681   4.712 -0.3860 -0.0986 -0.6189
  200DOPC  H14X24886   7.545   0.611   4.698 -0.2699 -0.4153  0.2489
  200DOPC  H14Y24887   7.701   0.659   4.793 -0.5285  0.4905 -0.3257
  200DOPC  C31524888   7.583   0.823   4.742 -0.4921 -0.2015 -0.3293
  200DOPC  H15X24889   7.505   0.855   4.669  0.4524 -1.5308 -2.0103
  200DOPC  H15Y24890   7.675   0.884   4.735 -0.3931 -0.2342  0.5557
  200DOPC  C31624891   7.513   0.829   4.877 -0.2697  0.2658  0.0385
  200DOPC  H16X24892   7.482   0.934   4.893 -0.7397 -0.2189  2.7981
  200DOPC  H16Y24893   7.420   0.769   4.874  1.5145 -2.7644  1.0119
  200DOPC  C31724894   7.586   0.775   4.996 -0.3118  0.4077 -0.4076
  200DOPC  H17X24895   7.597   0.666   4.982  0.8902  0.3506  0.7484
  200DOPC  H17Y24896   7.687   0.823   4.998 -0.3151  0.3989  0.0710
  200DOPC  C31824897   7.518   0.803   5.127 -0.3036  0.0218 -0.1979
  200DOPC  H18X24898   7.543   0.902   5.172 -1.3599 -0.2061  0.9416
  200DOPC  H18Y24899   7.409   0.783   5.121 -0.6401  1.9578 -1.9059
  200DOPC  H18Z24900   7.560   0.723   5.191  0.3906  0.0789 -0.5745
  201SOD    SOD24901   3.402   1.762   8.124 -0.0961  0.5246  0.6826
  202SOD    SOD24902   1.997   2.574   2.413  0.2273  0.3341 -0.2965
  203SOD    SOD24903   0.413   7.119   8.957  0.0474 -0.5562  0.4206
  204SOD    SOD24904   5.033   2.712   0.742  0.4443  0.0492  0.2832
  205SOD    SOD24905   4.852   7.209   9.320 -0.1008  0.5811 -0.3272
  206SOD    SOD24906   0.803   6.935   1.816  0.4658  0.2400 -0.1624
  207SOD    SOD24907   6.808   2.235   2.483  0.0419 -0.0030  0.0407
  208SOD    SOD24908   2.261   7.124   7.394  0.5039  0.7039  0.0523
  209SOD    SOD24909   0.698   7.307   2.878  0.0442  0.4413 -0.1049
  210SOD    SOD24910   0.116   2.500   6.977  0.1320 -0.0083  0.2506
  211SOD    SOD24911   6.479   4.780   6.742  0.3424  0.1887  0.1708
  212SOD    SOD24912   2.500   2.994   8.044  0.3798 -0.0636 -0.1986
  213SOD    SOD24913   1.294   1.870   0.983  0.1132  0.4035 -0.1462
  214SOD    SOD24914   1.780   2.721   6.968 -0.0707  0.3204  0.4279
  215SOD    SOD24915   7.144   5.579   7.474 -0.0236  0.3058 -0.0762
  216SOD    SOD24916   4.895   7.205   8.758 -0.3205  0.2936  0.0103
  217SOD    SOD24917   1.282   0.675   1.726  0.3066 -0.1427  0.0828
  218SOD    SOD24918   0.327   2.758   8.754 -0.1950 -0.1969  0.0747
  219SOD    SOD24919   3.996   6.643   8.945  0.3114  0.2545 -0.2621
  220SOD    SOD24920   5.048   1.100   2.162 -0.2313 -0.4407  0.2628
  221SOD    SOD24921   5.358   4.072   3.402  0.2457 -0.2843  0.3323
  222SOD    SOD24922   0.149   1.768   7.548 -0.1690 -0.0724 -0.0877
  223SOD    SOD24923   0.868   5.790   1.671  0.3542 -0.5642 -0.1639
  224SOD    SOD24924   2.014   2.901   1.858  0.0771  0.3369 -0.6719
  225SOD    SOD24925   2.956   5.019   1.457 -0.2109 -0.2936 -0.3078
  226SOD    SOD24926   3.428   2.279   8.807 -0.0680  0.5625 -0.6941
  227CLA    CLA24927   7.543   0.813   1.798  0.0473  0.1871  0.2330
  228CLA    CLA24928   0.952   1.541   2.044 -0.2891  0.4316  0.0251
  229CLA    CLA24929   3.751   2.618   2.578 -0.3392 -0.5268  0.0666
  230CLA    CLA24930   0.541   2.223   8.196  0.2867  0.0794 -0.1038
  231CLA    CLA24931   4.930   0.977   8.878 -0.2956  0.5242 -0.1522
  232CLA    CLA24932   3.316   3.122   8.086  0.3064 -0.0617  0.1583
  233CLA    CLA24933   5.883   1.900   8.633  0.0137  0.3055  0.2374
  234CLA    CLA24934   0.399   4.756   8.875  0.3245  0.3787 -0.1849
  235CLA    CLA24935   0.398   7.030   1.723  0.6263  0.4316 -0.0737
  236CLA    CLA24936   4.643   7.660   8.765  0.0752  0.0242  0.3196
  237CLA    CLA24937   7.138   1.768   7.584 -0.1566  0.2428 -0.0243
  238CLA    CLA24938   1.230   5.990   1.519 -0.1647  0.1038  0.5173
  239CLA    CLA24939   2.216   2.511   1.942 -0.1674  0.3567 -0.1784
  240CLA    CLA24940   1.952   3.052   8.937 -0.0189  0.5828  0.1217
  241CLA    CLA24941   4.739   3.565   1.039 -0.0956  0.2457  0.4619
  242CLA    CLA24942   6.516   5.678   6.979  0.1313  0.6381 -0.7290
  243CLA    CLA24943   3.371   3.636   2.453 -0.0004 -0.3775  0.0146
  244CLA    CLA24944   4.421   2.298   2.306  0.0189  0.0041 -0.2954
  245CLA    CLA24945   1.576   2.008   2.874 -0.4572  0.1440  0.2570
  246CLA    CLA24946   2.161   4.577   7.919 -0.2549 -0.0643 -0.6865
  247CLA    CLA24947   0.225   7.288   2.332 -0.5682  0.2867 -0.0047
  248CLA    CLA24948   0.470   4.226   2.607  0.4591  0.2077  0.0537
  249CLA    CLA24949   1.637   0.584   2.689 -0.2716 -0.2381 -0.5075
  250CLA    CLA24950   6.837   1.485   8.140 -0.0572  0.1393  0.2752
  251CLA    CLA24951   7.024   1.531   8.680  0.2612  0.5125 -0.3192
  252CLA    CLA24952   1.419   7.216   1.544  0.0289  0.0550 -0.1097
  253TIP3   OH224953   4.956   5.617   7.722 -0.0293  0.3155 -0.6179
  253TIP3    H124954   5.030   5.557   7.731 -0.3283 -0.1380 -1.1118
  253TIP3    H224955   4.879   5.563   7.738 -0.2471  0.8588  0.2364
  254TIP3   OH224956   1.066   5.412   7.123  0.4357  0.1539 -0.3345
  254TIP3    H124957   1.127   5.485   7.128  1.1679 -0.2882 -2.3263
  254TIP3    H224958   1.043   5.404   7.031 -1.1895 -0.8897  0.0974
  255TIP3   OH224959   1.520   3.050   9.589  0.3818  0.5580 -0.2006
  255TIP3    H124960   1.440   3.067   9.538  0.6901  0.9516 -0.5573
  255TIP3    H224961   1.576   3.126   9.571  0.5231  0.6665  0.6707
  256TIP3   OH224962   5.257   5.547   7.973 -0.3356  0.0239  0.0982
  256TIP3    H124963   5.185   5.572   8.030 -0.3473 -1.0165  0.5666
  256TIP3    H224964   5.217   5.540   7.886 -0.6019  0.3422  0.1930
  257TIP3   OH224965   7.325   0.755   8.221  0.1744 -0.3108 -0.1562
  257TIP3    H124966   7.397   0.767   8.283  0.3019 -0.7425 -0.2171
  257TIP3    H224967   7.332   0.831   8.163  0.0074  0.1363  0.3944
  258TIP3   OH224968   2.066   6.003   7.750 -0.1675  0.1100  0.4702
  258TIP3    H124969   1.992   5.971   7.699 -0.1045 -0.5934  0.8057
  258TIP3    H224970   2.058   5.957   7.834  0.5599  0.1473  0.5640
  259TIP3   OH224971   5.753   2.125   8.889  0.5188  0.1895  0.2379
  259TIP3    H124972   5.819   2.067   8.850  0.4070  0.5592 -0.5112
  259TIP3    H224973   5.670   2.095   8.852  0.1003 -0.9342  1.9387
  260TIP3   OH224974   3.668   4.352  10.081  0.3099  0.2789  0.2995
  260TIP3    H124975   3.758   4.359  10.048  0.5800 -1.2123  0.6397
  260TIP3    H224976   3.619   4.312  10.009 -0.3075  1.9059 -0.2179
  261TIP3   OH224977   2.982   3.296   8.239  0.1082 -0.1371  0.4587
  261TIP3    H124978   2.969   3.318   8.331  1.0287  1.9290  0.1517
  261TIP3    H224979   2.924   3.356   8.192  1.2041  0.3217 -0.3620
  262TIP3   OH224980   6.454   1.862   9.629 -0.4023 -0.3370 -0.2772
  262TIP3    H124981   6.477   1.847   9.720 -0.6386  1.0034  0.0308
  262TIP3    H224982   6.383   1.801   9.611 -0.7045 -0.2570  0.5975
  263TIP3   OH224983   4.386   5.839   8.833 -0.3250 -0.4485  0.0362
  263TIP3    H124984   4.308   5.789   8.809  0.2663 -0.0729 -3.1118
  263TIP3    H224985   4.353   5.925   8.859 -1.0229 -0.3662 -1.0570
  264TIP3   OH224986   4.184   6.126   9.184 -0.6547 -0.0490  0.1436
  264TIP3    H124987   4.133   6.141   9.264 -0.7223 -0.4417  0.1787
  264TIP3    H224988   4.207   6.213   9.153 -2.0139  0.1741 -0.2954
  265TIP3   OH224989   1.068   3.193   8.954 -0.3318  0.1609  0.4770
  265TIP3    H124990   1.112   3.109   8.941 -1.7074 -0.6014  0.6251
  265TIP3    H224991   0.978   3.171   8.976 -0.8834  1.6925 -0.0841
  266TIP3   OH224992   2.799   1.790   7.326 -0.1282  0.2957  0.3308
  266TIP3    H124993   2.883   1.808   7.284 -0.3954 -1.1497 -0.9233
  266TIP3    H224994   2.818   1.790   7.419  1.8920 -2.5823  0.0597
  267TIP3   OH224995   3.077   1.794   7.560  0.0084 -0.0573  0.2396
  267TIP3    H124996   3.138   1.726   7.529  0.3228  0.2407  0.1976
  267TIP3    H224997   2.992   1.751   7.562  0.1153 -0.2940 -0.3200
  268TIP3   OH224998   3.328   5.993   9.405 -0.1025 -0.4265 -0.0799
  268TIP3    H124999   3.395   5.986   9.473 -0.9227  0.5259  0.8812
  268TIP3    H225000   3.368   6.048   9.337  0.3819 -0.5653  0.0933
  269TIP3   OH225001   4.849   4.935   6.974  0.0867 -0.7822 -0.4402
  269TIP3    H125002   4.930   4.929   6.924  0.2270 -1.9368 -0.0995
  269TIP3    H225003   4.783   4.895   6.917 -0.7073  1.8400 -1.5504
  270TIP3   OH225004   7.479   0.045   8.426  0.2171  0.4621 -0.0389
  270TIP3    H125005   7.438  -0.005   8.355 -0.3997  0.5553  0.2455
  270TIP3    H225006   7.406   0.069   8.483  0.8738 -0.8472  1.4050
  271TIP3   OH225007   6.415   4.230   7.421  0.0835 -0.1834 -0.3963
  271TIP3    H125008   6.454   4.311   7.387  0.1136 -0.7675 -1.8210
  271TIP3    H225009   6.346   4.208   7.358 -1.3580 -0.1530  1.1114
  272TIP3   OH225010   5.719   2.961   8.450  0.7636 -0.1447 -0.4279
  272TIP3    H125011   5.790   2.939   8.389  0.1780  1.8226 -1.9192
  272TIP3    H225012   5.756   3.031   8.505  0.1054  0.6831 -1.0156
  273TIP3   OH225013   3.723   6.104   7.742  0.1393 -0.2461  0.1806
  273TIP3    H125014   3.690   6.178   7.792  1.8070 -0.0054  0.9930
  273TIP3    H225015   3.671   6.104   7.661 -1.0977  0.6913  0.9553
  274TIP3   OH225016   1.512   6.923   9.364  0.5886  0.3493  0.0073
  274TIP3    H125017   1.526   7.014   9.388  0.0647  0.3526  0.3215
  274TIP3    H225018   1.600   6.887   9.352  0.8406  0.5813  1.0803
  275TIP3   OH225019   0.058   5.862   8.652 -0.8037 -0.0064  0.0612
  275TIP3    H125020   0.082   5.937   8.707 -0.4075  0.8789 -1.2479
  275TIP3    H225021   0.041   5.901   8.566  2.5247 -1.6839 -1.5695
  276TIP3   OH225022   1.751   6.597   7.839  0.8489 -0.2709  0.1750
  276TIP3    H125023   1.808   6.617   7.765  0.1000  0.1527 -0.3044
  276TIP3    H225024   1.779   6.657   7.908 -0.5235  1.6262 -0.8274
  277TIP3   OH225025   2.588   5.624   7.722 -0.3566  0.3542 -0.0726
  277TIP3    H125026   2.524   5.606   7.791 -0.6426  0.5353 -0.2853
  277TIP3    H225027   2.659   5.670   7.766 -0.6438  0.6778  0.0658
  278TIP3   OH225028   6.711   3.594   8.413 -0.2444 -0.5863 -0.5259
  278TIP3    H125029   6.754   3.570   8.331  0.4088 -0.1664 -0.3196
  278TIP3    H225030   6.668   3.514   8.443  1.1167 -1.2599 -0.3120
  279TIP3   OH225031   3.086   7.467   7.591 -0.4171 -0.3425  0.6583
  279TIP3    H125032   2.991   7.466   7.587 -0.4142 -1.0838  0.6470
  279TIP3    H225033   3.112   7.377   7.573  0.3643  0.2141 -1.3685
  280TIP3   OH225034   2.178   6.356   9.525 -0.0526  0.5597 -0.1254
  280TIP3    H125035   2.225   6.335   9.605 -0.2515 -0.2063 -0.2028
  280TIP3    H225036   2.201   6.286   9.464  0.0363  1.0910 -0.7153
  281TIP3   OH225037   4.289   0.800   9.396 -0.1883  0.0461  0.1187
  281TIP3    H125038   4.255   0.742   9.328  0.3720  0.8483 -0.8780
  281TIP3    H225039   4.224   0.796   9.466 -1.8871  0.8007 -1.3244
  282TIP3   OH225040   0.029   7.323   9.285  0.1508  0.7493 -0.0339
  282TIP3    H125041   0.083   7.248   9.309 -2.8025 -1.7613 -0.7488
  282TIP3    H225042  -0.016   7.348   9.365 -1.0514 -0.1642 -0.4096
  283TIP3   OH225043   3.750   3.843   9.852  0.0113  0.3749  0.6912
  283TIP3    H125044   3.819   3.808   9.909 -1.3012  1.0555  2.8332
  283TIP3    H225045   3.759   3.794   9.770  3.0215  0.4813  0.8584
  284TIP3   OH225046   4.747   5.321   3.413  0.4354 -0.2377 -0.2012
  284TIP3    H125047   4.691   5.362   3.479  1.8987 -1.4656  1.9351
  284TIP3    H225048   4.814   5.387   3.394  0.8010 -0.3617  0.6145
  285TIP3   OH225049   5.821   4.729   1.265 -0.5225  0.0163 -0.0626
  285TIP3    H125050   5.727   4.748   1.264 -0.6448 -0.5551 -1.1979
  285TIP3    H225051   5.863   4.814   1.272 -1.1188  0.3681 -0.6542
  286TIP3   OH225052   2.633   5.182   0.920 -0.5096  0.8405  0.4382
  286TIP3    H125053   2.621   5.198   1.013  0.8681  2.8781  0.3403
  286TIP3    H225054   2.728   5.171   0.909 -0.6858  0.2053 -0.6763
  287TIP3   OH225055   5.954   5.720   1.405 -0.0839 -0.4591  0.0581
  287TIP3    H125056   6.023   5.676   1.356  0.1292  0.6654 -0.6786
  287TIP3    H225057   5.998   5.758   1.481  0.1242  0.2461 -0.4050
  288TIP3   OH225058   2.335   5.250   1.386  0.0645 -0.3973  0.7153
  288TIP3    H125059   2.391   5.327   1.386  1.7164 -1.4952 -1.2330
  288TIP3    H225060   2.247   5.284   1.374  0.9657  1.1422 -2.4588
  289TIP3   OH225061   5.326   5.565   2.159  0.3500  0.4043  0.4004
  289TIP3    H125062   5.406   5.606   2.193 -0.0896  2.7156 -1.1827
  289TIP3    H225063   5.260   5.582   2.226  1.0933 -1.5451  1.7360
  290TIP3   OH225064   1.554   6.206   2.799  0.0362 -0.2763  0.1013
  290TIP3    H125065   1.470   6.167   2.775 -0.7014  1.9471 -1.2624
  290TIP3    H225066   1.532   6.296   2.825  1.8212 -0.1680  1.3506
  291TIP3   OH225067   4.479   2.634   2.301 -0.2182 -0.0444  0.4377
  291TIP3    H125068   4.559   2.674   2.336  0.0769 -0.6712  0.5116
  291TIP3    H225069   4.485   2.542   2.329 -0.8431 -0.1518  0.2302
  292TIP3   OH225070   3.235   6.771   1.613  0.2917  0.0771  0.0020
  292TIP3    H125071   3.323   6.798   1.642  0.7136 -0.2442 -0.9517
  292TIP3    H225072   3.223   6.815   1.529 -0.7286  0.6168  0.4098
  293TIP3   OH225073   2.163   0.556   1.413 -0.0560 -0.1063 -0.5150
  293TIP3    H125074   2.201   0.472   1.384  0.2431  0.0577 -0.6018
  293TIP3    H225075   2.222   0.622   1.376 -0.4185  0.1501 -0.6358
  294TIP3   OH225076   3.446   1.933   2.880 -0.1527  0.3746  0.5639
  294TIP3    H125077   3.483   1.941   2.968 -1.2735 -0.7125  1.1642
  294TIP3    H225078   3.456   1.840   2.859  0.9120  0.7738 -0.8529
  295TIP3   OH225079   1.941   7.088   1.450 -0.3720  0.3745  0.0058
  295TIP3    H125080   1.923   7.016   1.510  0.8338  1.2173  1.4706
  295TIP3    H225081   1.858   7.134   1.442 -0.5895  0.1600  0.9359
  296TIP3   OH225082   3.159   5.785   1.672 -0.3284 -0.3981  0.2841
  296TIP3    H125083   3.083   5.803   1.728 -0.0654 -0.1349  0.5617
  296TIP3    H225084   3.178   5.869   1.630 -0.2597 -0.4903  0.1322
  297TIP3   OH225085   5.137   5.674   1.099 -0.1262 -0.0683 -0.3309
  297TIP3    H125086   5.110   5.645   1.187 -0.2621  2.6026  0.6061
  297TIP3    H225087   5.225   5.708   1.112 -0.1091  0.2475 -1.2554
  298TIP3   OH225088   1.392   2.300   1.743  0.0855 -0.4594 -0.9927
  298TIP3    H125089   1.323   2.365   1.730  1.6463  1.4021 -0.5702
  298TIP3    H225090   1.385   2.275   1.836 -0.0583 -0.3138 -0.9643
  299TIP3   OH225091   4.119   0.566   0.873  1.2626 -0.7206 -0.5843
  299TIP3    H125092   4.050   0.625   0.843  1.6795  1.5025  2.3457
  299TIP3    H225093   4.196   0.623   0.881  2.2144 -2.1190  0.5177
  300TIP3   OH225094   3.732   0.681   1.081 -0.1363  0.6546 -0.3464
  300TIP3    H125095   3.674   0.647   1.150  2.0155  1.3386  1.9493
  300TIP3    H225096   3.751   0.606   1.026 -2.8423  0.3293 -0.9769
  301TIP3   OH225097   2.440   5.251   2.400 -0.8000 -0.1738 -0.1052
  301TIP3    H125098   2.367   5.267   2.340  0.2271 -0.4325 -1.4643
  301TIP3    H225099   2.452   5.156   2.397  1.0146  0.0460 -1.6801
  302TIP3   OH225100   5.159   3.697   2.139  0.4133  0.2175 -0.1698
  302TIP3    H125101   5.143   3.757   2.212  1.0484  0.5833 -0.3212
  302TIP3    H225102   5.180   3.614   2.181 -0.7709  0.0088  0.0388
  303TIP3   OH225103   6.127   0.587   2.329  0.2297 -0.2323 -0.2420
  303TIP3    H125104   6.060   0.632   2.380  1.3593  0.8109  0.3632
  303TIP3    H225105   6.139   0.503   2.373 -0.3114 -0.2212 -0.0687
  304TIP3   OH225106   2.234   3.933   1.942 -0.4057  0.3434  0.2202
  304TIP3    H125107   2.246   3.838   1.943 -1.0000  0.2320  2.6004
  304TIP3    H225108   2.322   3.969   1.929  0.0292 -0.5335  0.6850
  305TIP3   OH225109   7.021   6.137   1.924 -0.1503  1.1743  0.6475
  305TIP3    H125110   7.092   6.140   1.860  0.1214 -0.4174  0.8250
  305TIP3    H225111   7.065   6.126   2.008 -0.5720 -1.1794  0.6366
  306TIP3   OH225112   3.308   0.264   0.917  0.1463  0.2584  0.3951
  306TIP3    H125113   3.393   0.224   0.901 -0.0594  0.4990 -1.6618
  306TIP3    H225114   3.249   0.219   0.856 -0.7315  1.5407  0.2644
  307TIP3   OH225115   7.500   6.490   3.358  0.8233  0.4140  0.2888
  307TIP3    H125116   7.554   6.441   3.420  2.2715 -0.1708 -1.3440
  307TIP3    H225117   7.563   6.539   3.305 -0.3685  1.0122 -0.6280
  308TIP3   OH225118   2.782   2.998   1.304 -0.2445  0.5642 -0.4390
  308TIP3    H125119   2.806   3.019   1.394 -0.3288  0.3998 -0.3772
  308TIP3    H225120   2.816   3.071   1.252 -0.8546  1.0239 -0.1916
  309TIP3   OH225121   4.434   3.617   1.938  0.4550  0.0040  0.0431
  309TIP3    H125122   4.413   3.707   1.913 -0.6208 -0.0376  0.7242
  309TIP3    H225123   4.502   3.625   2.004 -1.2261  0.4886  1.8033
  310TIP3   OH225124   3.432   1.963   0.703  0.4354  0.0774 -0.4244
  310TIP3    H125125   3.498   1.901   0.673 -0.0267 -1.6648  1.8596
  310TIP3    H225126   3.409   2.013   0.625  2.0989 -1.4412 -1.9924
  311TIP3   OH225127   2.365   2.516   3.696 -0.4249  0.2849  0.2607
  311TIP3    H125128   2.340   2.608   3.708  2.7526  1.2354  0.4290
  311TIP3    H225129   2.423   2.516   3.620 -0.4586 -1.6284  0.1827
  312TIP3   OH225130   2.559   2.346   2.233  0.4950 -0.2338  0.0387
  312TIP3    H125131   2.588   2.306   2.151  0.8584  2.4142 -1.2370
  312TIP3    H225132   2.471   2.311   2.247 -0.1981  0.3312 -2.3314
  313TIP3   OH225133   7.512   2.840   1.302 -0.1738 -0.5635 -0.2309
  313TIP3    H125134   7.500   2.760   1.251  0.0176 -0.2268 -0.8043
  313TIP3    H225135   7.446   2.901   1.268  0.5465 -0.0334 -0.7045
  314TIP3   OH225136   4.400   2.656   1.493 -0.1763  0.4462 -0.1385
  314TIP3    H125137   4.490   2.683   1.480 -0.2851  0.8344 -0.0808
  314TIP3    H225138   4.362   2.658   1.405  0.5606 -2.2747 -0.6388
  315TIP3   OH225139   0.593   3.122   0.734  1.2446  0.2812 -0.3417
  315TIP3    H125140   0.641   3.127   0.817 -1.1620 -0.2580  1.1866
  315TIP3    H225141   0.578   3.213   0.710  0.0528  0.5001  1.0610
  316TIP3   OH225142   6.360   3.142   2.619  0.2672 -0.5326  0.3229
  316TIP3    H125143   6.381   3.206   2.687  1.8147 -1.2010  0.5049
  316TIP3    H225144   6.402   3.176   2.540 -1.2301  0.0587 -0.2773
  317TIP3   OH225145   1.641   5.712   0.829 -0.0662  0.5805  0.1551
  317TIP3    H125146   1.557   5.672   0.849 -0.7789  2.1572  0.4199
  317TIP3    H225147   1.641   5.795   0.877  0.4084  1.9617 -2.0660
  318TIP3   OH225148   1.005   2.132   1.146  0.2837 -0.3206 -0.1130
  318TIP3    H125149   1.023   2.223   1.169 -0.5386  0.1742 -1.3126
  318TIP3    H225150   1.011   2.130   1.051 -0.6427 -1.3064 -0.1648
  319TIP3   OH225151   1.655   6.299   2.197 -0.0086 -0.3381 -0.1063
  319TIP3    H125152   1.590   6.231   2.181 -2.2683  1.8672 -1.1696
  319TIP3    H225153   1.641   6.324   2.289 -0.3781 -0.1834 -0.2007
  320TIP3   OH225154   5.857   2.615   2.728  0.5904  0.5363 -0.1741
  320TIP3    H125155   5.820   2.528   2.712  0.6459  0.3306  0.7592
  320TIP3    H225156   5.949   2.598   2.751  0.2958  0.7119  1.2435
  321TIP3   OH225157   3.970   2.718   1.625 -0.1830 -0.2544  0.4448
  321TIP3    H125158   4.000   2.801   1.660 -0.5035 -0.8585  2.2657
  321TIP3    H225159   3.918   2.679   1.695 -0.4654 -1.7662 -0.5379
  322TIP3   OH225160   4.182   5.807   1.403 -0.8361  0.6910  0.0386
  322TIP3    H125161   4.207   5.732   1.457  0.7714  0.1015 -1.4251
  322TIP3    H225162   4.210   5.884   1.453 -0.1206  0.1924  0.4168
  323TIP3   OH225163   0.758   0.093   9.168 -0.1374 -0.1396 -0.5949
  323TIP3    H125164   0.686   0.124   9.223  0.0582 -0.9308  0.1104
  323TIP3    H225165   0.833   0.089   9.226  0.2681 -0.2052 -1.1174
  324TIP3   OH225166   4.735   3.932   9.528  0.0060  0.0150  0.0488
  324TIP3    H125167   4.742   3.983   9.447 -1.9389 -0.0051 -0.1818
  324TIP3    H225168   4.711   3.844   9.498 -0.6041 -0.0247  0.6431
  325TIP3   OH225169   3.107   4.815   7.133  0.0151  0.1145 -0.2327
  325TIP3    H125170   3.046   4.838   7.062  0.1556  1.0978 -0.0458
  325TIP3    H225171   3.171   4.758   7.091 -0.4626 -0.1221 -0.6654
  326TIP3   OH225172   4.994   5.920   7.941  0.1631 -0.1602  0.0944
  326TIP3    H125173   5.008   5.910   7.847 -0.2279  0.3889 -0.0235
  326TIP3    H225174   4.902   5.944   7.949 -0.0893 -1.2410  0.6942
  327TIP3   OH225175   4.191   5.085   9.667  0.0829 -0.0130 -0.2220
  327TIP3    H125176   4.221   5.164   9.712 -1.4801  1.3111 -1.3764
  327TIP3    H225177   4.200   5.105   9.574 -3.7602  0.3624 -0.6737
  328TIP3   OH225178   5.806   6.722   9.649 -0.5512 -0.1275 -0.0149
  328TIP3    H125179   5.775   6.699   9.561 -2.4445  0.1521  0.5486
  328TIP3    H225180   5.897   6.693   9.650 -0.3642  0.1982 -2.1911
  329TIP3   OH225181   3.723   5.753   9.316  0.0065  0.0849  0.4241
  329TIP3    H125182   3.711   5.839   9.276 -0.8401  0.4413  1.3819
  329TIP3    H225183   3.769   5.702   9.250 -1.7233  0.4960 -1.1774
  330TIP3   OH225184   4.920   6.335   8.409 -0.3589 -0.4371 -0.0752
  330TIP3    H125185   4.864   6.279   8.464 -1.6344  2.1937  1.4872
  330TIP3    H225186   4.964   6.393   8.471  0.5751  0.6141 -1.6636
  331TIP3   OH225187   0.722   7.257   8.543 -0.4223 -0.0259 -0.6211
  331TIP3    H125188   0.761   7.333   8.499  0.6074 -0.2355 -0.0978
  331TIP3    H225189   0.628   7.266   8.527 -0.2300  0.8466 -1.3649
  332TIP3   OH225190   2.618   1.355   8.292 -0.1375  0.1460 -0.2615
  332TIP3    H125191   2.640   1.435   8.340  2.0887 -0.5287 -0.0638
  332TIP3    H225192   2.701   1.323   8.259 -1.3506 -0.5095 -2.9271
  333TIP3   OH225193   4.080   1.287   7.123  0.2899 -0.9238  1.0878
  333TIP3    H125194   4.174   1.271   7.110 -0.0164 -1.2914 -0.9897
  333TIP3    H225195   4.067   1.376   7.092 -0.1557 -1.1466  0.6115
  334TIP3   OH225196   3.846   2.525   9.125 -0.1927 -0.1810 -0.1530
  334TIP3    H125197   3.801   2.588   9.070  0.9320  0.2702 -0.5734
  334TIP3    H225198   3.785   2.509   9.198  0.2037  2.7458  0.9448
  335TIP3   OH225199   7.275   7.387   7.501  0.2376 -0.1164  0.0291
  335TIP3    H125200   7.267   7.405   7.408 -1.4212 -1.8462 -0.2281
  335TIP3    H225201   7.331   7.457   7.535  1.6455  0.0231 -2.4028
  336TIP3   OH225202   2.241   7.259   8.874  0.0179 -0.0235  0.1343
  336TIP3    H125203   2.302   7.205   8.924 -0.4115 -0.1564  0.5200
  336TIP3    H225204   2.296   7.312   8.817  0.4895 -0.1525  0.4710
  337TIP3   OH225205   0.623   5.799   6.895  0.6687  0.2878  0.6986
  337TIP3    H125206   0.635   5.757   6.980  1.2292  1.0111  0.9905
  337TIP3    H225207   0.566   5.873   6.913 -0.8590 -0.6856  0.0690
  338TIP3   OH225208   5.803   4.642   7.483 -0.2244 -0.1602  0.4326
  338TIP3    H125209   5.726   4.689   7.516 -0.1463 -0.6794  1.3742
  338TIP3    H225210   5.805   4.560   7.533  1.8823  0.5469  1.6279
  339TIP3   OH225211   1.270   0.364   8.407  0.1324  0.6341 -0.7598
  339TIP3    H125212   1.193   0.338   8.357  2.0892 -1.6408 -2.8517
  339TIP3    H225213   1.247   0.343   8.498 -1.5938 -0.3502 -1.3724
  340TIP3   OH225214   7.241   3.526   7.701 -0.3994  0.0365 -0.0956
  340TIP3    H125215   7.146   3.528   7.685 -0.3405  0.6425 -0.3818
  340TIP3    H225216   7.273   3.607   7.664  0.1740  0.0574  0.4361
  341TIP3   OH225217   5.555   1.887   7.445  0.1379 -0.1207  0.0900
  341TIP3    H125218   5.550   1.842   7.361 -0.0807  0.6281 -0.2992
  341TIP3    H225219   5.533   1.978   7.426  1.9646  0.4702  0.6255
  342TIP3   OH225220   1.923   1.416   8.182 -0.3485  0.5364 -0.3131
  342TIP3    H125221   1.978   1.342   8.159 -1.2786 -0.3392  0.1895
  342TIP3    H225222   1.900   1.401   8.274  0.9254  2.4124  0.3732
  343TIP3   OH225223   6.691   1.700   9.232 -0.2575  0.0568 -0.1544
  343TIP3    H125224   6.646   1.651   9.301 -1.2620  1.2642  0.0975
  343TIP3    H225225   6.680   1.646   9.153 -1.4057 -0.1115  0.0950
  344TIP3   OH225226   4.061   0.446   7.907 -0.0514  0.1132 -0.1064
  344TIP3    H125227   4.102   0.366   7.941 -1.3632  0.1015  1.5863
  344TIP3    H225228   4.009   0.416   7.833 -0.0873 -0.5207  0.1614
  345TIP3   OH225229   5.293   0.088   7.701  0.3656  0.4335 -0.1632
  345TIP3    H125230   5.287   0.047   7.614 -0.8075 -3.5986  1.5646
  345TIP3    H225231   5.206   0.074   7.739  1.4832 -0.0270  2.4156
  346TIP3   OH225232   4.716   0.178   8.241  0.8982  0.3079 -0.2560
  346TIP3    H125233   4.811   0.188   8.235  0.7765  0.9330 -1.6652
  346TIP3    H225234   4.692   0.226   8.320  1.8689 -0.9646  0.8613
  347TIP3   OH225235   4.379   5.700   7.814  0.0571 -0.2588 -0.0964
  347TIP3    H125236   4.297   5.690   7.864  0.4233 -0.2441  0.5127
  347TIP3    H225237   4.402   5.792   7.824  0.5880 -0.4407  0.4408
  348TIP3   OH225238   0.777   2.832   7.812  0.2098  0.3088 -0.2202
  348TIP3    H125239   0.847   2.887   7.847  1.2213 -0.6665 -0.6506
  348TIP3    H225240   0.708   2.894   7.788  1.6965  1.5163 -1.6118
  349TIP3   OH225241   4.904   4.740   8.244 -0.0549 -0.3933 -0.2952
  349TIP3    H125242   4.916   4.645   8.246 -1.2242 -0.5710 -1.0647
  349TIP3    H225243   4.930   4.769   8.332 -0.5199 -1.5236  0.2354
  350TIP3   OH225244   6.922   1.247   8.598 -0.5304  0.4868  0.3007
  350TIP3    H125245   6.953   1.210   8.681  0.8652  0.2394 -0.3122
  350TIP3    H225246   6.922   1.342   8.612 -1.1554  0.4132  0.8590
  351TIP3   OH225247   4.213   4.949   7.842 -0.3120 -0.2526  0.0508
  351TIP3    H125248   4.286   4.923   7.785  1.5479  1.2219  1.6177
  351TIP3    H225249   4.139   4.959   7.782  1.0293 -0.7465 -1.7903
  352TIP3   OH225250   1.499   2.784   7.664 -0.0000  0.4551  0.1985
  352TIP3    H125251   1.542   2.856   7.618  2.7206  0.2322  2.1509
  352TIP3    H225252   1.502   2.809   7.756  0.6733 -1.9127  0.9031
  353TIP3   OH225253   1.667   1.325   9.544  0.0102 -0.5163  0.0952
  353TIP3    H125254   1.571   1.323   9.550 -0.2029  3.6296  1.1202
  353TIP3    H225255   1.686   1.399   9.486  2.5959 -0.8795  0.3816
  354TIP3   OH225256   3.899   3.799   7.878 -0.0986  0.5939 -0.7130
  354TIP3    H125257   3.963   3.788   7.949 -0.1375  0.1003 -0.7498
  354TIP3    H225258   3.952   3.802   7.798 -0.1211  0.0153 -0.7592
  355TIP3   OH225259   0.862   1.809   9.012 -0.1940  0.1237 -0.2555
  355TIP3    H125260   0.910   1.823   8.930 -1.4343 -1.7966 -1.3700
  355TIP3    H225261   0.881   1.719   9.037  1.4750  1.1208  2.5430
  356TIP3   OH225262   4.051   5.376   8.851  0.6048  0.2889 -0.1605
  356TIP3    H125263   3.962   5.410   8.848  0.6869  0.8103  1.9251
  356TIP3    H225264   4.040   5.281   8.855 -0.0468  0.4091  2.9024
  357TIP3   OH225265   6.128   0.062   9.428 -0.3730 -0.6917 -0.1626
  357TIP3    H125266   6.220   0.038   9.418  0.0359  1.2422 -1.7758
  357TIP3    H225267   6.083  -0.021   9.441  1.1262 -2.1965 -3.3136
  358TIP3   OH225268   5.982   4.577   9.614  0.1753 -0.0343 -0.3169
  358TIP3    H125269   5.900   4.530   9.631  1.6887 -2.3066  1.5200
  358TIP3    H225270   5.957   4.652   9.561 -2.4331 -3.3945 -4.5884
  359TIP3   OH225271   6.955   5.507   7.955 -0.1026 -0.0600  0.5130
  359TIP3    H125272   6.937   5.586   8.007 -1.3835  0.5249 -0.7351
  359TIP3    H225273   6.898   5.440   7.992  0.1898 -0.1097  0.8839
  360TIP3   OH225274   2.039   6.456   9.271 -0.4286  0.2803  0.3326
  360TIP3    H125275   2.084   6.386   9.225 -0.5760 -0.3122  1.0772
  360TIP3    H225276   2.067   6.447   9.362 -3.2445 -1.1463  1.1630
  361TIP3   OH225277   4.420   3.746   8.658  0.0365  0.3458  0.2419
  361TIP3    H125278   4.328   3.724   8.641  0.6740 -1.9528 -0.6785
  361TIP3    H225279   4.436   3.719   8.748  0.1964 -0.8032 -0.1181
  362TIP3   OH225280   7.151   0.772   8.453  0.9032  0.3920  0.1034
  362TIP3    H125281   7.125   0.843   8.513 -1.2796  1.1790 -1.6374
  362TIP3    H225282   7.157   0.815   8.368 -0.4236 -1.4763 -0.9985
  363TIP3   OH225283   6.099   2.543   9.111 -0.1531  0.2607 -0.8702
  363TIP3    H125284   6.020   2.493   9.091 -0.5739  1.0758 -1.3165
  363TIP3    H225285   6.171   2.484   9.090 -0.6426 -0.2306 -1.1828
  364TIP3   OH225286   0.561   0.179   8.238  0.4951  0.4115  0.2141
  364TIP3    H125287   0.527   0.198   8.151 -0.0419 -2.0447 -0.1720
  364TIP3    H225288   0.486   0.187   8.296  0.2381 -0.6094  0.0319
  365TIP3   OH225289   0.390   0.929   8.250  0.4267 -0.2375  0.8523
  365TIP3    H125290   0.311   0.948   8.300 -0.7628  0.5670 -1.2156
  365TIP3    H225291   0.435   0.862   8.301 -1.8086 -1.0440  1.8917
  366TIP3   OH225292   1.444   3.798   7.564  0.2506 -0.1852  0.1546
  366TIP3    H125293   1.522   3.768   7.518 -0.4089  0.9407 -1.8212
  366TIP3    H225294   1.397   3.718   7.588  1.9476 -0.8803  1.3684
  367TIP3   OH225295   4.407   0.659   8.423  0.5358 -0.4533 -0.2680
  367TIP3    H125296   4.467   0.663   8.498  0.4146 -0.7941 -0.1517
  367TIP3    H225297   4.426   0.739   8.373 -0.2877  0.4400  0.8054
  368TIP3   OH225298   6.742   6.629   9.261  0.1534  0.1487  0.1464
  368TIP3    H125299   6.748   6.535   9.279  0.0523  0.1950  0.4294
  368TIP3    H225300   6.793   6.641   9.181  0.9322 -0.0028  0.6098
  369TIP3   OH225301   1.454   5.778   7.874 -0.4926  0.0733  0.0535
  369TIP3    H125302   1.368   5.813   7.849  0.7857  2.4505 -1.2679
  369TIP3    H225303   1.485   5.732   7.795 -0.1537  0.0077  0.2236
  370TIP3   OH225304   3.291   1.244   9.512  0.1065 -0.5918 -0.7122
  370TIP3    H125305   3.254   1.332   9.503  1.8513  0.2392 -0.1389
  370TIP3    H225306   3.254   1.210   9.594  0.7328  0.2931 -0.0493
  371TIP3   OH225307   7.375   6.442   7.751  0.0999 -0.3307  0.2301
  371TIP3    H125308   7.310   6.456   7.820 -0.5495 -0.3180 -0.3703
  371TIP3    H225309   7.342   6.367   7.702 -0.5804  0.9344 -1.3487
  372TIP3   OH225310   0.074   6.150   8.726 -0.4039  0.0228  0.0757
  372TIP3    H125311   0.150   6.193   8.688  0.1649 -0.9909  0.0319
  372TIP3    H225312   0.091   6.148   8.820  0.5651 -1.9108 -0.0978
  373TIP3   OH225313   2.386   2.820   7.975 -0.5991  0.3103 -0.0946
  373TIP3    H125314   2.302   2.806   7.930 -1.6967 -1.3104  2.2644
  373TIP3    H225315   2.439   2.744   7.951 -0.1945  0.7438 -0.6304
  374TIP3   OH225316   4.660   7.453   8.198 -0.1378  0.4997 -0.1872
  374TIP3    H125317   4.691   7.456   8.288 -0.5717 -0.5384  0.0026
  374TIP3    H225318   4.591   7.519   8.194 -1.2760 -0.6019  0.6929
  375TIP3   OH225319   4.241   5.140   9.402  0.4518  0.6005  0.3773
  375TIP3    H125320   4.273   5.089   9.327  1.6113 -0.9470  1.8487
  375TIP3    H225321   4.168   5.192   9.366  0.3554 -0.7744 -1.6019
  376TIP3   OH225322   7.087   4.182   7.734 -0.3695  0.3414  0.1910
  376TIP3    H125323   7.123   4.095   7.721  1.5200  0.5297  2.9934
  376TIP3    H225324   6.995   4.168   7.753 -0.3321 -0.9254 -0.4719
  377TIP3   OH225325   4.667   3.006   9.722  0.1840 -0.2804  0.5121
  377TIP3    H125326   4.673   2.916   9.689 -1.9080 -0.0380 -0.6899
  377TIP3    H225327   4.574   3.027   9.717  0.8490  2.8361 -1.6593
  378TIP3   OH225328   2.326   1.405   7.957  0.2496 -0.4130  0.3014
  378TIP3    H125329   2.329   1.338   8.025  1.4691 -1.1169 -0.3980
  378TIP3    H225330   2.412   1.448   7.963  0.1105 -0.0361 -0.3383
  379TIP3   OH225331   3.796   0.679   7.304  0.1714 -0.5055 -0.8265
  379TIP3    H125332   3.868   0.616   7.315 -1.0796 -1.7370  0.8844
  379TIP3    H225333   3.787   0.689   7.209  1.9073 -1.1132 -1.0959
  380TIP3   OH225334   3.814   1.665   9.441  0.5526 -0.7026  0.4134
  380TIP3    H125335   3.894   1.615   9.457  0.8257 -0.7415 -1.0211
  380TIP3    H225336   3.823   1.743   9.497  1.0219 -1.2787  1.1641
  381TIP3   OH225337   1.049   6.851   8.250 -0.6075  0.2670 -0.3217
  381TIP3    H125338   1.133   6.834   8.207  0.0735 -1.3536  1.5376
  381TIP3    H225339   0.986   6.795   8.204 -0.0797 -0.6976  0.0986
  382TIP3   OH225340   6.634   2.355   9.181  0.0823 -0.2647  0.2599
  382TIP3    H125341   6.665   2.441   9.209  1.5634 -0.7443  0.1901
  382TIP3    H225342   6.659   2.350   9.088 -5.2468  1.5470 -1.6861
  383TIP3   OH225343   4.625   6.900   8.819  0.3097  0.1088  0.0193
  383TIP3    H125344   4.582   6.827   8.863 -0.6890  1.6287  1.7174
  383TIP3    H225345   4.685   6.859   8.757 -0.8654 -2.1226  0.2644
  384TIP3   OH225346   1.967   4.951   8.857 -0.2004 -0.4444  0.0698
  384TIP3    H125347   2.054   4.989   8.848  0.3031 -1.5823 -0.1508
  384TIP3    H225348   1.937   4.978   8.944 -1.1411  2.8477 -1.1598
  385TIP3   OH225349   2.622   1.526   9.021  0.2676 -0.0581 -0.5897
  385TIP3    H125350   2.657   1.550   8.935  0.4743  2.1519  0.0563
  385TIP3    H225351   2.682   1.566   9.084 -1.8961  1.6043  0.5619
  386TIP3   OH225352   5.869   4.542   8.929 -0.2822 -0.0274  0.0654
  386TIP3    H125353   5.946   4.486   8.919 -0.4191 -0.1307 -0.4352
  386TIP3    H225354   5.845   4.566   8.840 -0.2186  0.8455  0.2738
  387TIP3   OH225355   5.799   6.223   7.572  0.2798  0.3081 -0.0753
  387TIP3    H125356   5.784   6.188   7.484  1.1355 -1.9192  0.5932
  387TIP3    H225357   5.889   6.199   7.593  0.0930  0.7960  1.4185
  388TIP3   OH225358   5.030   4.322   9.675 -0.4698 -0.1447 -0.0568
  388TIP3    H125359   4.970   4.377   9.726 -0.3113  0.2030 -0.2423
  388TIP3    H225360   5.116   4.344   9.709 -0.4130 -0.3557 -0.0632
  389TIP3   OH225361   5.588   4.398   8.946 -0.3266 -0.4426 -0.0466
  389TIP3    H125362   5.573   4.336   9.017  1.2253 -1.1341 -0.3060
  389TIP3    H225363   5.683   4.408   8.941 -0.4706  0.7700 -1.0322
  390TIP3   OH225364   1.265   4.403   8.897  0.2044 -0.1018  0.5665
  390TIP3    H125365   1.358   4.421   8.885  0.1725 -0.2951  0.0218
  390TIP3    H225366   1.263   4.331   8.960  0.4937 -1.3277 -0.7827
  391TIP3   OH225367   3.407   3.415   7.905  0.2770  0.6756 -0.1652
  391TIP3    H125368   3.346   3.428   7.978 -0.8024  1.5840 -1.1877
  391TIP3    H225369   3.421   3.320   7.902 -1.8684  0.3019 -0.4633
  392TIP3   OH225370   4.107   4.892   9.310  0.3202 -0.2353  0.1045
  392TIP3    H125371   4.190   4.871   9.351  1.3731  0.7892 -1.3797
  392TIP3    H225372   4.055   4.934   9.379  1.9083  1.1968  0.4873
  393TIP3   OH225373   5.275   4.156   9.445 -0.2551  0.0365 -0.0984
  393TIP3    H125374   5.219   4.228   9.417 -2.1357 -1.5476 -0.6535
  393TIP3    H225375   5.237   4.079   9.403  0.1846 -1.6572  2.3964
  394TIP3   OH225376   5.324   0.204   8.072 -0.6689  0.7336 -0.0952
  394TIP3    H125377   5.301   0.227   8.162  1.5906 -1.5097  1.1816
  394TIP3    H225378   5.246   0.159   8.038 -0.9511  0.0578  1.3770
  395TIP3   OH225379   0.380   4.771   8.399 -0.2944 -0.0292  0.1107
  395TIP3    H125380   0.420   4.727   8.474  0.3564 -0.7680 -0.6295
  395TIP3    H225381   0.357   4.858   8.430  2.6727  0.7570  0.3975
  396TIP3   OH225382   6.175   3.951   8.396  0.4051  0.5627  0.2538
  396TIP3    H125383   6.115   4.002   8.451  1.2942  3.0168 -0.8972
  396TIP3    H225384   6.249   3.933   8.454  0.9344  2.3402  0.1973
  397TIP3   OH225385   4.770   6.464   8.699  0.4360 -0.4164  0.0718
  397TIP3    H125386   4.736   6.448   8.786  1.7612  0.6938  0.8497
  397TIP3    H225387   4.774   6.378   8.657  2.0824 -1.3648  2.0053
  398TIP3   OH225388   4.509   0.035   8.116 -0.5699  0.0183 -0.3854
  398TIP3    H125389   4.566   0.088   8.172 -0.1572  0.0483 -0.8258
  398TIP3    H225390   4.424   0.079   8.121 -0.3388  0.4780 -0.4000
  399TIP3   OH225391   4.642   1.229   7.625  0.2721  0.1686  0.3064
  399TIP3    H125392   4.678   1.209   7.711 -0.0051  0.1132  0.4109
  399TIP3    H225393   4.707   1.195   7.563  1.2049  1.5536  0.4863
  400TIP3   OH225394   5.738   6.401   9.427 -0.4440  0.4659  0.0022
  400TIP3    H125395   5.760   6.482   9.382 -1.0403  0.5320 -0.1890
  400TIP3    H225396   5.642   6.399   9.426 -0.6469  1.8340  3.6559
  401TIP3   OH225397   7.499   5.039   9.046  0.1367  0.4859 -0.1759
  401TIP3    H125398   7.542   5.105   8.993  1.6990  0.7963  1.4007
  401TIP3    H225399   7.511   5.068   9.136 -2.1274 -0.1966  0.4316
  402TIP3   OH225400   6.526   4.745   9.515  0.0559  0.4571  0.4715
  402TIP3    H125401   6.616   4.742   9.484  0.1815  1.7051  0.6336
  402TIP3    H225402   6.527   4.810   9.585 -0.9520  0.4565  0.5016
  403TIP3   OH225403   6.913   7.438   7.779 -0.0299 -0.5853  0.4569
  403TIP3    H125404   6.986   7.499   7.773 -2.3290  2.3787 -0.1737
  403TIP3    H225405   6.910   7.413   7.871  1.4337 -0.3319  0.5938
  404TIP3   OH225406   5.539   3.420   9.249  0.0920 -0.7273  0.6813
  404TIP3    H125407   5.624   3.377   9.242  0.9922  0.8759  1.2188
  404TIP3    H225408   5.559   3.514   9.250 -1.5287 -0.3292  2.7565
  405TIP3   OH225409   6.029   4.237   8.592 -0.3234  0.0545 -0.1425
  405TIP3    H125410   6.050   4.157   8.640  0.5605  0.8386  0.8304
  405TIP3    H225411   6.093   4.240   8.520  0.6157  0.5950  0.6819
  406TIP3   OH225412   4.860   0.856   7.573  0.1707  0.1489  0.4702
  406TIP3    H125413   4.924   0.850   7.502 -1.8085 -0.0620 -1.4061
  406TIP3    H225414   4.840   0.765   7.594 -1.8831  0.1161 -1.3089
  407TIP3   OH225415   1.224   5.766   7.476 -0.0627 -0.2417 -0.5183
  407TIP3    H125416   1.170   5.781   7.398  0.1434 -0.3084 -0.6732
  407TIP3    H225417   1.170   5.709   7.531 -1.6359  2.4406  0.9016
  408TIP3   OH225418   5.019   2.481   8.486 -0.0732  0.2724 -0.1375
  408TIP3    H125419   4.944   2.504   8.431 -0.9119  1.3866  1.4028
  408TIP3    H225420   4.981   2.440   8.563  1.0209 -0.4234  0.0537
  409TIP3   OH225421   4.653   4.908   8.970 -0.0953  0.0535 -0.1373
  409TIP3    H125422   4.619   4.986   9.013 -0.9385 -0.1961 -0.3187
  409TIP3    H225423   4.713   4.941   8.903 -1.5284  0.6584 -1.1858
  410TIP3   OH225424   5.144   3.483   8.990 -0.5272 -0.0053  0.5571
  410TIP3    H125425   5.139   3.418   8.920  0.0649  0.2537  0.2711
  410TIP3    H225426   5.063   3.533   8.983 -0.4192  0.0925 -0.0176
  411TIP3   OH225427   4.308   0.901   7.347  0.2501  0.2813 -0.3936
  411TIP3    H125428   4.238   0.926   7.408 -0.6285 -3.7883  0.5227
  411TIP3    H225429   4.263   0.875   7.267  0.5407 -2.3987  0.2124
  412TIP3   OH225430   6.946   6.118   9.382  0.0774  0.5245 -0.2514
  412TIP3    H125431   6.981   6.063   9.312  0.7421  0.5426  0.0572
  412TIP3    H225432   6.858   6.142   9.352 -0.1148 -0.4666 -0.5244
  413TIP3   OH225433   0.101   0.724   7.695 -0.1148 -0.2929  0.8961
  413TIP3    H125434   0.135   0.641   7.659 -1.3389  0.6598 -2.9674
  413TIP3    H225435   0.017   0.700   7.734  0.3473 -1.1396  1.3994
  414TIP3   OH225436   4.712   4.736   9.545  0.3512 -0.6996 -0.0117
  414TIP3    H125437   4.647   4.708   9.610  0.9941 -2.5280 -0.1082
  414TIP3    H225438   4.682   4.823   9.517 -1.6642 -1.2046  0.4351
  415TIP3   OH225439   2.808   1.142   9.334  0.0907 -0.3188 -0.5993
  415TIP3    H125440   2.894   1.103   9.346  0.7100  1.3858  0.9042
  415TIP3    H225441   2.816   1.195   9.254  0.5131 -0.0199 -0.3656
  416TIP3   OH225442   7.036   3.181   8.988 -0.2551 -0.5983  0.1413
  416TIP3    H125443   7.001   3.110   9.042  0.4992 -1.3346 -0.3082
  416TIP3    H225444   7.121   3.200   9.027 -2.7908  4.5878  4.4094
  417TIP3   OH225445   2.830   4.754   6.677 -0.0100 -0.3939 -0.4599
  417TIP3    H125446   2.792   4.666   6.685 -0.1696 -0.6342 -3.0473
  417TIP3    H225447   2.925   4.740   6.686 -0.0958 -0.7004 -0.0182
  418TIP3   OH225448   3.344   1.234   9.215 -0.0788 -0.2462 -0.7125
  418TIP3    H125449   3.300   1.233   9.300  1.5236 -1.3896  0.1525
  418TIP3    H225450   3.300   1.303   9.166 -1.3357  0.1367  0.8818
  419TIP3   OH225451   3.940   5.169   6.739 -0.1183  0.0949 -0.0409
  419TIP3    H125452   3.936   5.258   6.772  1.0863  0.0233  0.3381
  419TIP3    H225453   4.027   5.138   6.764 -1.3171 -2.0043  1.9862
  420TIP3   OH225454   0.391   6.822   8.319 -0.0722 -0.0521  0.0052
  420TIP3    H125455   0.305   6.781   8.317 -0.3554  0.5310 -0.4828
  420TIP3    H225456   0.428   6.798   8.403  0.6094 -2.9368 -1.0239
  421TIP3   OH225457   6.723   5.281   8.466  0.0948  0.0704  0.5143
  421TIP3    H125458   6.700   5.296   8.557  0.4922  1.6516  0.3790
  421TIP3    H225459   6.818   5.293   8.463  0.2263 -0.9157  0.0497
  422TIP3   OH225460   4.148   3.385   8.085 -0.2229 -0.4462 -0.6775
  422TIP3    H125461   4.202   3.306   8.094 -0.8563 -0.8863 -0.6221
  422TIP3    H225462   4.058   3.352   8.090 -0.5210  0.0961 -2.0931
  423TIP3   OH225463   1.323   5.064   7.454  0.5987  0.0726 -0.3139
  423TIP3    H125464   1.322   5.112   7.371  0.5405  2.4493  0.9646
  423TIP3    H225465   1.402   5.010   7.449  0.9599  0.6770 -1.6632
  424TIP3   OH225466   4.318   1.194   8.266  0.2970  0.0854  0.0772
  424TIP3    H125467   4.384   1.192   8.197 -0.4556  0.2736 -0.6579
  424TIP3    H225468   4.312   1.104   8.297  2.1245  0.3403  1.3601
  425TIP3   OH225469   4.966   6.300   8.964 -0.3510  0.2673 -0.3190
  425TIP3    H125470   4.979   6.265   8.876 -0.8426 -0.1981 -0.2118
  425TIP3    H225471   5.055   6.311   8.999 -0.1672 -1.4111 -0.1507
  426TIP3   OH225472   5.379   6.850   8.999  0.3887 -0.4505  0.5758
  426TIP3    H125473   5.426   6.932   8.986  0.2699 -0.2950  1.1084
  426TIP3    H225474   5.326   6.865   9.077 -0.8114 -0.5021 -0.1985
  427TIP3   OH225475   6.531   1.763   7.765 -0.2766  0.1007  0.0475
  427TIP3    H125476   6.521   1.690   7.704  0.9556  0.0807 -0.1555
  427TIP3    H225477   6.625   1.768   7.781 -0.3667  1.4907  0.2585
  428TIP3   OH225478   1.491   2.315   8.042 -0.0075  0.3130  0.0881
  428TIP3    H125479   1.500   2.410   8.056  0.7755  0.1608  0.6679
  428TIP3    H225480   1.519   2.301   7.952  0.2422  0.5813  0.1233
  429TIP3   OH225481   1.484   0.620   8.836  0.5022 -0.3135  0.3387
  429TIP3    H125482   1.436   0.666   8.904  1.0561  0.8445 -0.0260
  429TIP3    H225483   1.432   0.542   8.818 -1.1433  0.7890  0.1115
  430TIP3   OH225484   3.628   1.953   9.331  0.5879 -0.2094 -0.0143
  430TIP3    H125485   3.611   2.035   9.376  1.0991  0.3517 -0.8193
  430TIP3    H225486   3.654   1.979   9.242  0.5259 -1.2446 -0.3518
  431TIP3   OH225487   7.099   5.796   7.421 -0.0752 -0.0536 -0.0156
  431TIP3    H125488   7.162   5.857   7.460  0.0249  1.1006 -1.8472
  431TIP3    H225489   7.024   5.851   7.398 -0.1761 -0.6878 -1.2963
  432TIP3   OH225490   2.686   2.566   7.315  0.1911  0.2932  0.1781
  432TIP3    H125491   2.762   2.509   7.322  0.4063  0.2811 -1.7588
  432TIP3    H225492   2.627   2.521   7.255  0.4632  2.1373 -1.6021
  433TIP3   OH225493   7.501   1.730   9.495  0.2197 -0.2441  0.2264
  433TIP3    H125494   7.501   1.816   9.537 -1.2350  0.1233 -0.4680
  433TIP3    H225495   7.474   1.747   9.405  1.5450 -1.2421 -0.3976
  434TIP3   OH225496   2.851   3.771   7.532  0.1534 -0.4288 -0.5493
  434TIP3    H125497   2.832   3.700   7.593 -1.1840  1.7606  1.7461
  434TIP3    H225498   2.767   3.786   7.487  0.1967  0.1918 -0.4337
  435TIP3   OH225499   4.119   5.889   7.265  0.3277  0.1387 -0.2868
  435TIP3    H125500   4.041   5.912   7.213 -1.2460 -0.3643  1.7365
  435TIP3    H225501   4.104   5.931   7.350  0.6701 -2.6306  1.2383
  436TIP3   OH225502   4.448   6.602   8.094  0.0500 -0.5393 -0.4155
  436TIP3    H125503   4.503   6.539   8.048 -0.2220  0.3001 -1.9533
  436TIP3    H225504   4.482   6.688   8.067 -1.2704 -0.0200 -0.4975
  437TIP3   OH225505   2.797   3.517   7.244 -0.6982 -0.3341  0.0219
  437TIP3    H125506   2.739   3.590   7.267  0.9105  0.8091  0.5598
  437TIP3    H225507   2.743   3.462   7.187 -1.7484  1.6143 -0.9779
  438TIP3   OH225508   5.624   5.367   7.798  0.1754 -0.4191 -0.1576
  438TIP3    H125509   5.660   5.409   7.877 -1.0733  0.0784  0.1869
  438TIP3    H225510   5.648   5.426   7.727  0.0701 -0.1087  0.0596
  439TIP3   OH225511   6.305   6.414   9.159  0.1390  1.1480 -0.1959
  439TIP3    H125512   6.332   6.505   9.155  1.2163  0.7851 -2.7520
  439TIP3    H225513   6.385   6.367   9.183  0.0377  0.7095 -0.7074
  440TIP3   OH225514   0.093   6.027   7.340  0.5922 -0.2505  0.3518
  440TIP3    H125515   0.150   6.046   7.266 -3.0184  2.1650 -2.1627
  440TIP3    H225516   0.096   6.106   7.394  0.0740 -0.3405  0.5214
  441TIP3   OH225517   6.950   0.416   6.799  0.3178  0.4274 -0.6439
  441TIP3    H125518   7.044   0.412   6.819  0.4114  1.7934 -0.6599
  441TIP3    H225519   6.911   0.348   6.853  1.3043 -0.0857 -0.5464
  442TIP3   OH225520   0.125   6.821   8.411  0.1657 -0.6723  0.1639
  442TIP3    H125521   0.103   6.808   8.503 -2.0698 -0.4958 -0.2879
  442TIP3    H225522   0.069   6.758   8.364  0.1606  0.2689 -1.1488
  443TIP3   OH225523   0.651   5.900   9.565  0.0060 -0.5276  0.3242
  443TIP3    H125524   0.724   5.853   9.525  0.2517  0.5518 -0.5394
  443TIP3    H225525   0.573   5.863   9.523  0.1692 -0.4074 -0.0810
  444TIP3   OH225526   0.878   3.341   9.553 -0.0415 -0.5020 -0.1689
  444TIP3    H125527   0.876   3.436   9.559 -1.9196 -0.5903  2.2589
  444TIP3    H225528   0.970   3.319   9.538  0.3924  1.6724 -0.9492
  445TIP3   OH225529   2.964   2.787   9.567  0.3919 -0.6330 -0.2055
  445TIP3    H125530   2.894   2.845   9.537  1.6319 -0.1178 -2.2786
  445TIP3    H225531   3.028   2.846   9.606  0.9757 -0.7650 -0.9544
  446TIP3   OH225532   1.564   0.511   8.578 -0.4382  0.0412 -0.0890
  446TIP3    H125533   1.513   0.547   8.650 -0.5604  0.4669 -0.3856
  446TIP3    H225534   1.516   0.538   8.499  0.5609  0.9536 -0.3994
  447TIP3   OH225535   1.194   1.703   7.747  0.0582  0.4207 -0.3092
  447TIP3    H125536   1.240   1.627   7.710  0.0888  0.0919  0.3675
  447TIP3    H225537   1.130   1.665   7.808 -1.0794  0.8821 -1.1899
  448TIP3   OH225538   0.980   4.124   8.495  0.4692  0.2604 -0.3239
  448TIP3    H125539   0.949   4.195   8.550 -0.1257  0.1729 -0.5417
  448TIP3    H225540   1.072   4.144   8.478  0.1737  1.2406 -0.8066
  449TIP3   OH225541   1.907   6.179   8.211  0.1412 -0.2043  0.2986
  449TIP3    H125542   1.892   6.269   8.241 -1.3464 -0.5601  0.6984
  449TIP3    H225543   1.891   6.125   8.288  1.7478 -0.7971  0.2491
  450TIP3   OH225544   1.074   2.075   9.188 -0.7334 -0.6342  0.3852
  450TIP3    H125545   1.051   2.076   9.095  2.3180  1.5251 -0.5054
  450TIP3    H225546   1.033   2.154   9.224 -2.0254 -1.5398  0.9563
  451TIP3   OH225547   5.908   3.666   8.623  0.7750 -0.2332  0.0848
  451TIP3    H125548   5.830   3.611   8.620 -0.1669  1.0283  0.4741
  451TIP3    H225549   5.915   3.692   8.714  1.2572  0.2172 -0.0775
  452TIP3   OH225550   0.307   5.362   8.788  0.6753  0.1461 -0.4818
  452TIP3    H125551   0.278   5.346   8.878 -0.4748 -0.4340 -0.9273
  452TIP3    H225552   0.231   5.403   8.746  1.5501  1.3490 -0.9341
  453TIP3   OH225553   6.321   1.011   8.364 -0.2188 -0.9439  0.0625
  453TIP3    H125554   6.415   1.018   8.347 -0.2862 -1.0100 -0.3438
  453TIP3    H225555   6.291   0.944   8.303 -0.8920  0.4744 -1.2303
  454TIP3   OH225556   6.497   2.234   9.389 -0.4716  0.1986  0.0798
  454TIP3    H125557   6.550   2.275   9.321 -0.6080  1.7049  0.8391
  454TIP3    H225558   6.533   2.146   9.398 -0.4781 -0.0672 -1.9385
  455TIP3   OH225559   0.716   0.577   9.659  0.2631 -0.4883  0.1770
  455TIP3    H125560   0.736   0.492   9.619  0.9155  0.4754 -1.6522
  455TIP3    H225561   0.714   0.559   9.753 -0.0989 -2.6149 -0.1942
  456TIP3   OH225562   2.368   1.934   7.449  0.3382 -0.0604 -0.3289
  456TIP3    H125563   2.439   1.968   7.504  0.4495 -0.8753  0.0408
  456TIP3    H225564   2.412   1.895   7.374  0.1388  2.6653 -2.0212
  457TIP3   OH225565   4.662   0.716   9.032 -0.0360  0.7288 -0.0082
  457TIP3    H125566   4.691   0.791   8.980 -1.2697  0.2332 -1.5133
  457TIP3    H225567   4.573   0.699   9.001 -0.3833 -0.3467  1.4659
  458TIP3   OH225568   1.126   3.760   8.657 -0.1451  0.3528 -0.1683
  458TIP3    H125569   1.128   3.708   8.737 -0.7789  1.9474  0.9531
  458TIP3    H225570   1.048   3.730   8.611  0.1616 -0.5006 -0.1459
  459TIP3   OH225571   1.481   0.150   8.868 -0.8541  0.4049  0.0228
  459TIP3    H125572   1.432   0.231   8.854  1.0645  1.6515  0.0591
  459TIP3    H225573   1.469   0.100   8.788 -0.8656  1.4348 -0.6360
  460TIP3   OH225574   5.838   6.558   7.925  0.2586  0.1528 -0.3265
  460TIP3    H125575   5.798   6.522   7.846  1.0851 -1.3545 -0.0975
  460TIP3    H225576   5.842   6.652   7.909  0.3952 -0.1103 -2.0639
  461TIP3   OH225577   5.337   6.081   6.968  0.2554 -0.1083 -0.1783
  461TIP3    H125578   5.422   6.043   6.944 -0.2108 -1.4908  0.2797
  461TIP3    H225579   5.274   6.012   6.951 -0.7314  0.7416 -0.0422
  462TIP3   OH225580   6.281   6.907   7.785  0.6445 -0.1216 -0.8383
  462TIP3    H125581   6.311   6.970   7.718 -1.9369 -1.0619 -3.0363
  462TIP3    H225582   6.228   6.844   7.737 -1.9641 -0.4990  2.1919
  463TIP3   OH225583   6.682   1.264   7.557 -0.1340 -0.4306  0.0425
  463TIP3    H125584   6.657   1.330   7.622  1.5732  0.4669 -0.1385
  463TIP3    H225585   6.707   1.187   7.609  3.1122  0.9101  0.7137
  464TIP3   OH225586   2.512   5.991   8.262 -0.0393  0.3371  0.2601
  464TIP3    H125587   2.525   6.080   8.293 -0.4161  0.7993 -0.8478
  464TIP3    H225588   2.555   5.989   8.176 -0.1250 -0.5179  0.2259
  465TIP3   OH225589   1.261   0.478   9.125 -0.3291  0.0132  0.4236
  465TIP3    H125590   1.326   0.544   9.148 -0.2047  1.3256 -3.0266
  465TIP3    H225591   1.199   0.524   9.067 -2.1364 -2.1269  0.4937
  466TIP3   OH225592   1.520   0.252   8.281 -0.1047  0.2909  0.4540
  466TIP3    H125593   1.442   0.275   8.331 -1.6256 -2.0876 -0.6077
  466TIP3    H225594   1.507   0.294   8.196  1.4267  2.5545  1.2665
  467TIP3   OH225595   2.621   6.777   9.170 -0.2506 -0.1247  0.5614
  467TIP3    H125596   2.639   6.694   9.214  1.2350  0.7427  1.6578
  467TIP3    H225597   2.678   6.777   9.094 -2.8305 -1.6309 -1.5586
  468TIP3   OH225598   5.683   1.002   8.367 -0.8605  0.2136 -0.2128
  468TIP3    H125599   5.745   0.988   8.295 -0.4928 -0.6871  0.2658
  468TIP3    H225600   5.723   1.070   8.420 -0.9018  0.5427 -0.5982
  469TIP3   OH225601   6.165   4.092   9.401  0.1472 -0.0352 -0.0949
  469TIP3    H125602   6.256   4.120   9.414 -0.0465  1.3146 -1.4614
  469TIP3    H225603   6.117   4.132   9.473  0.8193 -2.0540  1.5864
  470TIP3   OH225604   6.572   7.590   8.037 -0.7467 -0.7885 -0.4951
  470TIP3    H125605   6.611   7.636   7.962 -0.8565 -1.6469 -1.0989
  470TIP3    H225606   6.610   7.633   8.114 -0.1301 -0.3106 -1.0515
  471TIP3   OH225607   1.018   0.853   7.580  0.3942  0.6621 -0.2105
  471TIP3    H125608   1.094   0.858   7.637  0.6901 -0.3118 -0.4910
  471TIP3    H225609   0.943   0.858   7.639  0.6910  0.5152  0.1859
  472TIP3   OH225610   5.661   0.666   9.638  0.4849  0.4714 -0.1048
  472TIP3    H125611   5.690   0.589   9.687  2.8055  1.4886  0.2811
  472TIP3    H225612   5.726   0.676   9.568  0.4150  2.2129  0.0337
  473TIP3   OH225613   4.320   2.055   9.377 -0.6139 -0.0708  0.4474
  473TIP3    H125614   4.378   2.015   9.442 -0.9461 -0.5459  0.4588
  473TIP3    H225615   4.348   2.018   9.294  0.9708  1.8536  0.0485
  474TIP3   OH225616   1.599   2.965   9.293  0.6403 -0.2068 -0.3342
  474TIP3    H125617   1.608   2.943   9.386  0.3051  0.6110 -0.0980
  474TIP3    H225618   1.505   2.981   9.281  0.5894 -0.9054 -0.9591
  475TIP3   OH225619   2.493   2.486   8.669  0.3448 -0.0653  0.6687
  475TIP3    H125620   2.575   2.469   8.714  0.7155 -1.0555 -0.3487
  475TIP3    H225621   2.511   2.469   8.577 -0.5443  1.3887  0.1879
  476TIP3   OH225622   2.287   7.089   8.430 -0.0482 -0.2516 -0.0466
  476TIP3    H125623   2.375   7.111   8.459  0.9882 -0.9419 -2.4079
  476TIP3    H225624   2.266   7.155   8.364 -0.8255 -0.7703 -0.3403
  477TIP3   OH225625   2.602   7.071   9.032  0.0141  0.9337  0.2856
  477TIP3    H125626   2.551   7.126   9.091 -0.1325  1.9225 -0.7068
  477TIP3    H225627   2.538   7.009   8.996  0.1757  0.0974  1.3966
  478TIP3   OH225628   1.698   5.153   8.241 -1.0219  0.0382  0.2238
  478TIP3    H125629   1.623   5.100   8.269 -1.3935  0.2198 -0.3890
  478TIP3    H225630   1.771   5.122   8.294 -1.3816 -0.6313  0.3423
  479TIP3   OH225631   6.510   5.868   9.696  0.3121  0.0024 -0.1124
  479TIP3    H125632   6.591   5.830   9.662 -0.3177 -1.5047 -0.0106
  479TIP3    H225633   6.456   5.884   9.618 -0.5530 -2.0801  0.0020
  480TIP3   OH225634   4.337   3.352   9.343 -0.0188  0.0668 -0.1973
  480TIP3    H125635   4.336   3.442   9.312  0.7811  0.3997  0.6755
  480TIP3    H225636   4.315   3.299   9.267  1.3056  0.8788 -1.1913
  481TIP3   OH225637   2.154   7.625   9.039 -0.1177 -0.3731 -0.4798
  481TIP3    H125638   2.090   7.588   9.100 -0.5469  0.8531 -0.1759
  481TIP3    H225639   2.125   7.714   9.023  0.6452 -0.2945 -1.5775
  482TIP3   OH225640   6.907   4.757   8.307  0.1507  0.0194 -0.3604
  482TIP3    H125641   6.909   4.671   8.349 -1.3109 -0.2576 -0.8310
  482TIP3    H225642   6.945   4.742   8.220 -0.3403 -0.2017 -0.5367
  483TIP3   OH225643   0.887   5.290   8.094 -0.3370 -0.2000  0.1848
  483TIP3    H125644   0.839   5.252   8.167 -0.1501 -1.4973 -0.3430
  483TIP3    H225645   0.972   5.314   8.130  0.1171 -1.7397  0.1953
  484TIP3   OH225646   0.021   0.067   7.787 -0.1454 -0.6417  0.3657
  484TIP3    H125647   0.022  -0.016   7.835 -3.2208 -0.9990  0.0150
  484TIP3    H225648  -0.010   0.131   7.851  1.3245  0.1219  0.3695
  485TIP3   OH225649   2.849   1.842   6.966 -0.4297 -0.4337 -0.1381
  485TIP3    H125650   2.925   1.785   6.972 -0.6051 -0.8582 -1.4332
  485TIP3    H225651   2.860   1.906   7.036  1.7013  0.1915 -0.9594
  486TIP3   OH225652   1.858   4.345   9.189  0.5557  0.6180 -0.1494
  486TIP3    H125653   1.821   4.305   9.267 -1.4597  1.9736 -0.3444
  486TIP3    H225654   1.806   4.310   9.117  1.0625  0.9230 -0.6710
  487TIP3   OH225655   4.901   3.167   8.350 -0.4869 -0.4094  0.3284
  487TIP3    H125656   4.994   3.142   8.343  0.4505  3.0551 -1.7950
  487TIP3    H225657   4.892   3.243   8.293 -5.0635 -1.4870 -0.7778
  488TIP3   OH225658   6.056   4.866   8.185 -0.2872 -0.1614 -0.2485
  488TIP3    H125659   6.099   4.838   8.104 -3.2902 -1.0965 -1.6386
  488TIP3    H225660   6.050   4.787   8.239  0.5671  0.1876  0.3877
  489TIP3   OH225661   0.621   1.213   7.788 -0.3129  0.5088 -0.2465
  489TIP3    H125662   0.649   1.270   7.860 -2.5135 -1.2488  2.2056
  489TIP3    H225663   0.581   1.138   7.832  0.0274 -1.6726 -3.3399
  490TIP3   OH225664   2.319   6.684   8.867 -0.8723  0.2360 -0.3957
  490TIP3    H125665   2.239   6.736   8.859 -0.5844  0.7148 -0.1713
  490TIP3    H225666   2.301   6.605   8.815 -0.6929  1.2732 -2.0978
  491TIP3   OH225667   7.469   4.364   8.076  0.3824  0.4564  0.4313
  491TIP3    H125668   7.531   4.351   8.004  1.1457  3.1624  0.4821
  491TIP3    H225669   7.386   4.331   8.043  0.6012  2.0862 -1.9567
  492TIP3   OH225670   4.751   1.406   8.141 -0.3844 -0.2861 -0.4103
  492TIP3    H125671   4.829   1.351   8.145 -2.0091 -2.7952 -0.9828
  492TIP3    H225672   4.703   1.386   8.222 -1.1212  0.0847 -0.7420
  493TIP3   OH225673   4.134   7.162   8.589  0.1185 -0.3789 -0.1257
  493TIP3    H125674   4.154   7.104   8.515 -2.3305  2.3979 -3.2615
  493TIP3    H225675   4.185   7.241   8.572  0.8533 -0.2510  2.2506
  494TIP3   OH225676   3.615   2.544   9.265 -0.1134  0.0872 -0.7281
  494TIP3    H125677   3.521   2.559   9.280 -0.2007  0.6887 -1.7670
  494TIP3    H225678   3.656   2.629   9.283  0.1601 -0.0191 -0.8473
  495TIP3   OH225679   7.354   2.751   7.400  0.1642 -0.3551  1.0550
  495TIP3    H125680   7.272   2.800   7.408 -0.5573 -0.7171 -2.3604
  495TIP3    H225681   7.408   2.782   7.472 -1.6157  2.7051  1.2439
  496TIP3   OH225682   6.533   5.473   9.187  0.2518  0.2177 -0.0908
  496TIP3    H125683   6.556   5.406   9.122 -1.6123  0.6944 -1.3063
  496TIP3    H225684   6.475   5.427   9.248  0.9173  0.1215  0.4789
  497TIP3   OH225685   5.375   7.169   9.143  0.0690  0.2790 -0.2801
  497TIP3    H125686   5.418   7.137   9.223 -0.9240  1.5701  0.8268
  497TIP3    H225687   5.439   7.153   9.074  0.4754 -2.0656  0.5139
  498TIP3   OH225688   0.196   5.246   9.036 -0.0231  0.3528  0.9364
  498TIP3    H125689   0.255   5.172   9.047  1.4869  1.6409  1.9519
  498TIP3    H225690   0.120   5.210   8.989  1.0584 -1.5997  0.5926
  499TIP3   OH225691   2.234   4.588   6.780 -0.7694 -0.0930  0.0176
  499TIP3    H125692   2.237   4.529   6.705 -0.6750  1.0740 -0.9283
  499TIP3    H225693   2.158   4.560   6.830 -0.8151 -0.9108 -0.4954
  500TIP3   OH225694   3.407   5.447   7.826 -0.2169  0.0549  0.1675
  500TIP3    H125695   3.383   5.427   7.736 -3.2587  0.8887  0.6819
  500TIP3    H225696   3.481   5.388   7.845  0.1289 -0.5417 -2.6242
  501TIP3   OH225697   5.567   5.447   7.392  0.0040 -0.0250 -0.6928
  501TIP3    H125698   5.585   5.365   7.437 -1.9863 -0.5716 -0.8080
  501TIP3    H225699   5.573   5.514   7.461 -0.4725 -0.5479 -0.1285
  502TIP3   OH225700   1.573   0.806   7.566 -0.1787  0.4051  0.5309
  502TIP3    H125701   1.543   0.718   7.589 -2.5483  0.5854 -1.4601
  502TIP3    H225702   1.578   0.806   7.471  1.4414  1.9885  0.5452
  503TIP3   OH225703   2.934   0.523   8.263  0.3013 -0.6687 -0.7411
  503TIP3    H125704   2.900   0.467   8.192 -0.9170 -0.0428 -0.6748
  503TIP3    H225705   2.864   0.585   8.280  1.3059  0.3517 -0.2227
  504TIP3   OH225706   1.732   4.088   8.124 -0.2953  0.3142 -0.2058
  504TIP3    H125707   1.677   4.110   8.049 -1.2874  2.3853  1.0255
  504TIP3    H225708   1.702   4.002   8.151 -1.9314  0.7642 -0.4857
  505TIP3   OH225709   4.258   3.885   9.452 -0.0941 -0.7593  0.1308
  505TIP3    H125710   4.181   3.941   9.439  0.1168 -0.6541 -0.7486
  505TIP3    H225711   4.240   3.839   9.534 -0.4004  0.3864  0.7365
  506TIP3   OH225712   5.262   4.474   7.832 -0.3477 -0.1622 -0.1176
  506TIP3    H125713   5.193   4.438   7.777 -2.0601  1.2298  0.9940
  506TIP3    H225714   5.265   4.417   7.909  0.2983 -0.6553 -0.4966
  507TIP3   OH225715   1.305   7.290   9.229 -0.1196  0.7546  0.0155
  507TIP3    H125716   1.230   7.259   9.278  0.2821  0.9993  0.8038
  507TIP3    H225717   1.323   7.221   9.165 -1.7322  1.2279 -0.9927
  508TIP3   OH225718   4.223   3.300   9.596 -0.2849  0.5892 -0.4934
  508TIP3    H125719   4.279   3.259   9.662 -0.2669  0.3007 -0.6865
  508TIP3    H225720   4.280   3.312   9.520 -0.8646 -1.1754 -1.2652
  509TIP3   OH225721   2.057   5.941   8.030 -0.0219  0.3767 -0.1134
  509TIP3    H125722   2.136   5.996   8.029 -0.0563  0.4685 -1.8956
  509TIP3    H225723   1.985   6.004   8.035 -0.0264  0.2678  2.2345
  510TIP3   OH225724   5.079   5.032   9.200  0.0358 -0.1298 -0.4392
  510TIP3    H125725   4.986   5.035   9.225 -0.5757 -1.0112 -2.3669
  510TIP3    H225726   5.089   5.104   9.139  0.5126 -0.2942 -0.5571
  511TIP3   OH225727   6.537   0.047   9.890 -0.6100  0.0906 -0.1522
  511TIP3    H125728   6.494   0.002   9.963  1.0557  1.2444  1.6205
  511TIP3    H225729   6.604  -0.014   9.859 -1.8678 -0.7468 -1.3628
  512TIP3   OH225730   3.117   3.153   8.910  0.2035  0.2937 -0.0313
  512TIP3    H125731   3.193   3.099   8.929 -0.6801 -0.6774  0.9184
  512TIP3    H225732   3.117   3.163   8.815  1.5251  0.3552 -0.0353
  513TIP3   OH225733   0.476   2.748   8.326  0.2273  0.2453 -0.5439
  513TIP3    H125734   0.534   2.775   8.254 -1.3377 -0.2948 -2.0631
  513TIP3    H225735   0.398   2.713   8.282 -0.7551 -0.1505  1.4329
  514TIP3   OH225736   6.672   0.918   8.926 -0.5782  0.2176  0.3186
  514TIP3    H125737   6.579   0.931   8.905 -0.2821 -0.5071 -1.5893
  514TIP3    H225738   6.695   0.995   8.979 -2.1561  0.6206  0.4783
  515TIP3   OH225739   6.146   5.163   8.737  0.0195 -0.3811  0.4779
  515TIP3    H125740   6.127   5.084   8.788 -0.0660 -0.3954  0.4251
  515TIP3    H225741   6.070   5.219   8.750  0.3801 -0.0158  1.0644
  516TIP3   OH225742   0.317   3.811   9.239  0.3548 -0.2370  0.1209
  516TIP3    H125743   0.370   3.816   9.159  0.6099 -1.5825  0.1892
  516TIP3    H225744   0.361   3.870   9.300  1.2378 -0.6090 -0.1364
  517TIP3   OH225745   7.040   0.507   7.071 -0.1550  0.2336  0.8039
  517TIP3    H125746   6.966   0.527   7.129  0.0373  0.8951  0.8264
  517TIP3    H225747   7.003   0.510   6.983 -0.3358 -0.2742  0.8573
  518TIP3   OH225748   1.325   1.955   8.735  0.6346 -0.0073 -0.1966
  518TIP3    H125749   1.336   2.033   8.680 -2.0125 -0.8052 -2.0563
  518TIP3    H225750   1.366   1.885   8.684  0.3479 -0.3450  0.0441
  519TIP3   OH225751   5.549   2.502   9.205  0.2090 -0.1171 -0.2608
  519TIP3    H125752   5.571   2.418   9.244 -1.3696  0.0952  1.1998
  519TIP3    H225753   5.541   2.562   9.279 -2.9749  0.2876 -0.8067
  520TIP3   OH225754   1.592   6.034   7.761 -0.3340 -0.3001  0.5422
  520TIP3    H125755   1.614   5.981   7.685  0.1274  2.0775 -1.0785
  520TIP3    H225756   1.663   6.020   7.823  0.4419 -0.5712 -0.3990
  521TIP3   OH225757   4.031   1.184   7.638 -0.3136  0.1831 -0.1895
  521TIP3    H125758   4.000   1.227   7.558  0.6049  1.2652 -0.0030
  521TIP3    H225759   4.035   1.255   7.703  0.8931 -0.2512  0.2382
  522TIP3   OH225760   5.150   1.032   8.507 -0.2172 -0.0013 -0.2940
  522TIP3    H125761   5.088   0.961   8.525  0.4387 -0.5397 -0.1216
  522TIP3    H225762   5.200   1.003   8.431 -0.3491  0.5487 -0.5996
  523TIP3   OH225763   0.970   2.369   6.885 -0.0972  0.0456  0.0957
  523TIP3    H125764   0.978   2.275   6.899 -0.8305 -0.1723 -0.8367
  523TIP3    H225765   0.925   2.401   6.964 -1.0283 -0.5962 -0.1568
  524TIP3   OH225766   4.630   7.010   7.685 -0.2560  0.2410  0.2689
  524TIP3    H125767   4.551   7.040   7.642  0.5123 -0.0413 -1.4261
  524TIP3    H225768   4.668   7.089   7.725 -1.3373  0.3791  1.0584
  525TIP3   OH225769   6.299   4.513   8.486  0.3179  0.0770  0.0582
  525TIP3    H125770   6.211   4.486   8.463  0.2583  1.0478 -0.9388
  525TIP3    H225771   6.352   4.492   8.409  1.2099 -1.5265  1.0508
  526TIP3   OH225772   0.482   0.253   7.677 -0.3802 -0.6710  0.2835
  526TIP3    H125773   0.434   0.171   7.671  0.0043 -0.8278 -0.9744
  526TIP3    H225774   0.514   0.256   7.767 -2.0950 -0.9071  0.9501
  527TIP3   OH225775   1.871   0.666   7.405  0.0799 -0.1083 -0.5041
  527TIP3    H125776   1.905   0.747   7.443  1.4196 -0.9446  0.1552
  527TIP3    H225777   1.785   0.690   7.370  1.0267  1.9457 -1.6295
  528TIP3   OH225778   4.056   1.541   9.491 -0.1574  0.1977  0.3520
  528TIP3    H125779   4.117   1.593   9.438  0.3530  0.5927  1.2924
  528TIP3    H225780   4.094   1.453   9.493 -0.2192  0.1631  0.0031
  529TIP3   OH225781   7.313   5.938   7.498  0.1474  0.1331 -0.4709
  529TIP3    H125782   7.357   5.935   7.583  2.1302 -0.0631 -1.4413
  529TIP3    H225783   7.360   6.006   7.450  1.5751 -2.2357 -2.6612
  530TIP3   OH225784   2.049   5.196   8.343  0.4658 -0.2221 -0.1332
  530TIP3    H125785   2.030   5.183   8.250  1.7062 -0.0277 -0.4285
  530TIP3    H225786   2.104   5.274   8.346 -0.4758  0.4335  0.8881
  531TIP3   OH225787   7.079   4.591   8.698 -0.8936 -0.0600  0.2870
  531TIP3    H125788   7.014   4.538   8.744 -0.9018 -1.2227 -1.0146
  531TIP3    H225789   7.162   4.546   8.712 -0.9184 -0.5358 -0.9285
  532TIP3   OH225790   2.019   1.135   9.028  0.2967  0.7465 -0.4104
  532TIP3    H125791   2.037   1.047   8.995 -1.2546  1.6502 -4.1273
  532TIP3    H225792   2.101   1.182   9.013 -0.0229  0.8370 -2.0071
  533TIP3   OH225793   7.197   3.033   8.271  0.1877 -0.2181 -0.3333
  533TIP3    H125794   7.188   3.016   8.364  2.9555  0.2803  0.1037
  533TIP3    H225795   7.150   3.116   8.257 -0.4437 -0.4167  0.5549
  534TIP3   OH225796   7.613   3.547   7.577  0.5424 -0.3966  0.2216
  534TIP3    H125797   7.703   3.566   7.550  0.2291  1.6833  0.4851
  534TIP3    H225798   7.613   3.556   7.672  0.6576 -3.3791  0.6178
  535TIP3   OH225799   0.690   3.337   7.563  0.0271 -0.2973 -0.1077
  535TIP3    H125800   0.776   3.372   7.543 -0.2133  0.4041  0.0513
  535TIP3    H225801   0.635   3.415   7.578  0.0920 -0.7174  2.9105
  536TIP3   OH225802   0.073   4.218   9.053  0.1413  0.2556 -0.3247
  536TIP3    H125803   0.143   4.163   9.019  0.8608  0.6233  0.5316
  536TIP3    H225804   0.014   4.157   9.097 -2.3769 -0.7087 -4.4467
  537TIP3   OH225805   0.595   5.818   7.563 -0.7476  0.3443  0.0209
  537TIP3    H125806   0.684   5.797   7.533 -0.9629 -1.3235  0.4453
  537TIP3    H225807   0.556   5.733   7.583 -1.4796  1.1963  2.6081
  538TIP3   OH225808   6.814   3.753   7.406  0.6181  0.4273 -0.1914
  538TIP3    H125809   6.832   3.758   7.312  0.3309  0.5100 -0.2435
  538TIP3    H225810   6.719   3.754   7.413  0.6017  2.9116  0.2052
  539TIP3   OH225811   4.208   3.752   9.687 -0.6740  0.4644 -0.0592
  539TIP3    H125812   4.113   3.745   9.689 -0.5378 -2.7792  1.0626
  539TIP3    H225813   4.230   3.811   9.759 -1.7897  0.4917  0.2643
  540TIP3   OH225814   2.190   4.389   9.595 -0.2540 -0.5422 -0.2085
  540TIP3    H125815   2.254   4.400   9.665 -0.2391 -1.5204 -0.0531
  540TIP3    H225816   2.180   4.477   9.558  1.7743 -0.4914 -0.7602
  541TIP3   OH225817   6.960   6.549   8.533 -0.2629 -0.4849 -0.4664
  541TIP3    H125818   6.935   6.564   8.624  1.2200 -1.2266  0.0968
  541TIP3    H225819   6.947   6.455   8.519 -2.8319 -0.0008 -1.8171
  542TIP3   OH225820   7.249   1.289   7.201 -0.1934 -0.2218  0.6084
  542TIP3    H125821   7.220   1.198   7.199  2.1036 -1.0686  2.1414
  542TIP3    H225822   7.300   1.300   7.120 -0.6441 -0.2310  0.3229
  543TIP3   OH225823   4.726   2.544   7.340 -0.1149 -0.0569 -0.0368
  543TIP3    H125824   4.688   2.484   7.404 -0.5321 -0.6857 -0.8522
  543TIP3    H225825   4.736   2.627   7.388 -4.6776  0.9207 -0.3029
  544TIP3   OH225826   3.709   5.682   7.326 -0.2251 -0.5796  0.4472
  544TIP3    H125827   3.786   5.678   7.382  0.2888 -0.6196 -0.2527
  544TIP3    H225828   3.686   5.774   7.324  0.1654 -0.4868  0.1764
  545TIP3   OH225829   7.593   3.233   8.076 -0.4427 -0.3210  0.0153
  545TIP3    H125830   7.651   3.309   8.067 -2.4317  1.1565 -0.9751
  545TIP3    H225831   7.559   3.239   8.166 -1.8973  0.9989 -0.5863
  546TIP3   OH225832   3.378   4.087   9.305  0.5956 -0.1560 -0.2485
  546TIP3    H125833   3.408   4.036   9.230  0.7601  0.3391 -0.5284
  546TIP3    H225834   3.427   4.052   9.379 -0.1089 -1.1421 -0.2415
  547TIP3   OH225835   4.609   7.449   7.207 -0.2528  0.1389 -0.6028
  547TIP3    H125836   4.687   7.503   7.217 -0.0032 -0.1061 -1.1983
  547TIP3    H225837   4.630   7.368   7.253  1.2158 -1.3195 -3.5916
  548TIP3   OH225838   7.165   2.990   6.668 -0.3501 -0.1320 -0.4522
  548TIP3    H125839   7.187   2.934   6.593  0.9910 -0.2750  0.0144
  548TIP3    H225840   7.239   2.980   6.728 -0.6719  1.1765  0.2090
  549TIP3   OH225841   3.819   0.090   7.625  0.3840 -0.0580 -0.0313
  549TIP3    H125842   3.868   0.064   7.703  0.0364  1.5037  0.7421
  549TIP3    H225843   3.735   0.044   7.633  0.4996 -0.2138  0.3094
  550TIP3   OH225844   7.428   6.743   8.477 -0.8952  0.5727 -0.2452
  550TIP3    H125845   7.476   6.724   8.397  0.7471  1.8477  0.3845
  550TIP3    H225846   7.411   6.656   8.515 -0.4315  0.0242 -1.2390
  551TIP3   OH225847   1.848   2.498   6.916  0.7378 -0.5133  1.2702
  551TIP3    H125848   1.890   2.465   6.995  1.5205  1.4516  1.7433
  551TIP3    H225849   1.841   2.422   6.858  1.5185 -1.6698  2.6352
  552TIP3   OH225850   7.295   7.374   7.230 -0.0327  0.0071  0.1120
  552TIP3    H125851   7.301   7.457   7.182 -0.9354 -0.5114 -0.9484
  552TIP3    H225852   7.283   7.308   7.162  1.6035 -1.1414  0.8620
  553TIP3   OH225853   6.485   7.435   7.486 -0.3694  0.3364  0.6797
  553TIP3    H125854   6.543   7.501   7.525  1.0122  0.3220 -1.1954
  553TIP3    H225855   6.540   7.357   7.478 -0.8250  0.1094 -0.5023
  554TIP3   OH225856   6.599   2.220   7.784  0.7079 -0.2152 -0.1579
  554TIP3    H125857   6.589   2.151   7.718 -0.3652  0.3965 -0.6798
  554TIP3    H225858   6.565   2.298   7.740  1.5392  0.5555  0.5607
  555TIP3   OH225859   1.378   3.516   7.482  0.2964  0.3787  0.0118
  555TIP3    H125860   1.328   3.479   7.409  0.5924 -0.6135  0.2911
  555TIP3    H225861   1.397   3.441   7.538  1.9030  0.7436  0.0170
  556TIP3   OH225862   0.226   5.133   9.417  0.5588 -0.2114 -0.1663
  556TIP3    H125863   0.223   5.226   9.394  1.2280  0.4437  2.1382
  556TIP3    H225864   0.136   5.112   9.442  0.8191  0.4082  1.3405
  557TIP3   OH225865   2.981   4.140   8.477 -0.2394  0.1531 -0.5525
  557TIP3    H125866   2.932   4.096   8.408 -0.1773  1.0806 -1.2071
  557TIP3    H225867   2.997   4.228   8.442  0.4131  0.4012  0.3501
  558TIP3   OH225868   4.988   0.820   9.210 -0.7037  0.6136  0.4406
  558TIP3    H125869   4.969   0.876   9.134 -1.7763  0.6246  0.7084
  558TIP3    H225870   4.975   0.731   9.178  0.2399  0.5386  0.2323
  559TIP3   OH225871   4.744   7.254   7.398  0.6379 -0.4696  0.3291
  559TIP3    H125872   4.823   7.308   7.403  0.6143 -0.4805  0.8780
  559TIP3    H225873   4.735   7.217   7.486  0.1909 -0.7098  0.1831
  560TIP3   OH225874   2.271   4.346   8.336 -0.9095  0.6003  0.7918
  560TIP3    H125875   2.223   4.390   8.266  1.2981 -0.0903 -1.3136
  560TIP3    H225876   2.248   4.253   8.325  0.1884  0.3675  0.2771
  561TIP3   OH225877   2.551   6.882   8.584  0.0416 -0.5592  0.3433
  561TIP3    H125878   2.627   6.870   8.527 -0.4821 -2.3181 -0.0370
  561TIP3    H225879   2.477   6.850   8.533 -0.9476  0.9022  0.7992
  562TIP3   OH225880   2.196   5.796   8.717  0.7924 -0.1029  0.3038
  562TIP3    H125881   2.261   5.859   8.747  1.0331  0.6100 -1.6362
  562TIP3    H225882   2.216   5.781   8.625 -1.3142 -0.4309 -0.1601
  563TIP3   OH225883   6.829   0.925   7.443  0.0107 -0.2586 -0.1209
  563TIP3    H125884   6.742   0.913   7.406  0.2873 -0.4262 -0.7306
  563TIP3    H225885   6.887   0.929   7.367  0.6798 -1.2771  0.3132
  564TIP3   OH225886   1.038   6.693   9.354 -0.0498 -0.3643  0.0255
  564TIP3    H125887   1.021   6.649   9.271  1.3385  0.5519 -0.7871
  564TIP3    H225888   1.068   6.623   9.412  0.1606 -0.8157 -0.6153
  565TIP3   OH225889   4.345   4.170   9.118 -1.1249  0.1076 -0.8644
  565TIP3    H125890   4.412   4.177   9.050  0.8457  0.7635  1.0292
  565TIP3    H225891   4.286   4.243   9.100 -0.8493  0.0512 -2.0770
  566TIP3   OH225892   1.357   6.956   8.510  0.2189 -0.2279 -0.0103
  566TIP3    H125893   1.270   6.923   8.491  0.8572 -1.9234 -0.1504
  566TIP3    H225894   1.345   7.012   8.587 -1.3214  1.4409 -1.3607
  567TIP3   OH225895   5.187   3.434   7.328 -0.2289 -0.2577  0.7032
  567TIP3    H125896   5.156   3.507   7.274  2.5049 -0.0083 -0.6974
  567TIP3    H225897   5.162   3.355   7.280  1.5577 -0.0479 -0.6878
  568TIP3   OH225898   1.207   3.216   8.137  0.1114  0.4244  0.5913
  568TIP3    H125899   1.251   3.235   8.054 -0.3805  0.1021  0.2584
  568TIP3    H225900   1.146   3.289   8.149  0.5566  0.7454  0.9341
  569TIP3   OH225901   6.707   6.537   7.129 -0.0754 -0.2698  0.0940
  569TIP3    H125902   6.633   6.590   7.158  0.7438  0.3489  1.1475
  569TIP3    H225903   6.673   6.448   7.123 -0.5200 -0.2779  2.1651
  570TIP3   OH225904   6.132   6.201   8.739 -0.3304 -0.0153 -0.0308
  570TIP3    H125905   6.088   6.247   8.667 -0.7051  0.5963  0.5814
  570TIP3    H225906   6.112   6.253   8.817  1.6539  0.4068  0.2465
  571TIP3   OH225907   6.583   3.175   8.712 -0.2899 -0.2615 -0.2018
  571TIP3    H125908   6.508   3.183   8.770 -1.2136 -4.1677 -0.6369
  571TIP3    H225909   6.659   3.181   8.770 -0.9130  1.6155  0.5160
  572TIP3   OH225910   4.533   4.658   8.635 -0.0268  0.6062 -0.1404
  572TIP3    H125911   4.625   4.660   8.612 -0.5607  0.7468 -2.5035
  572TIP3    H225912   4.513   4.747   8.664  0.1646  1.1387 -1.5662
  573TIP3   OH225913   5.455   6.732   8.740 -0.2141  0.4116  0.5662
  573TIP3    H125914   5.416   6.715   8.826  1.2302 -2.0050  0.8098
  573TIP3    H225915   5.549   6.721   8.754 -0.0318 -1.2071 -1.5465
  574TIP3   OH225916   2.351   0.455   8.064 -0.0732 -0.6439 -0.3808
  574TIP3    H125917   2.341   0.441   7.970 -2.0083 -3.0277  0.0670
  574TIP3    H225918   2.430   0.405   8.087 -0.3185 -1.1370 -0.5776
  575TIP3   OH225919   4.661   6.968   6.886 -0.2742  0.0220 -0.2577
  575TIP3    H125920   4.713   6.923   6.953  0.1223  0.6516 -0.1316
  575TIP3    H225921   4.722   6.978   6.812 -0.5710 -0.2576 -0.5468
  576TIP3   OH225922   5.985   1.271   8.667  0.1048 -0.2794 -0.3992
  576TIP3    H125923   6.068   1.255   8.624 -0.1059 -2.0486 -0.1952
  576TIP3    H225924   5.922   1.278   8.595  0.4171  1.2014 -0.5605
  577TIP3   OH225925   0.762   6.169   7.826 -0.0254  0.2712 -0.0777
  577TIP3    H125926   0.817   6.245   7.844  2.8323 -1.1304 -2.1432
  577TIP3    H225927   0.787   6.104   7.892  0.0493 -0.0369 -0.4071
  578TIP3   OH225928   4.656   5.972   8.923 -0.0047  0.4484  0.1621
  578TIP3    H125929   4.681   5.973   8.830 -0.7066  2.3516 -0.0607
  578TIP3    H225930   4.561   5.966   8.923 -0.1015  1.6674  0.6922
  579TIP3   OH225931   5.318   5.635   7.175 -0.3812 -0.0711 -0.5324
  579TIP3    H125932   5.231   5.660   7.143 -0.3376 -0.4135 -0.9353
  579TIP3    H225933   5.375   5.707   7.149 -0.7270  0.6587  0.6734
  580TIP3   OH225934   3.885   1.880   9.581  0.0297 -0.1654  0.2962
  580TIP3    H125935   3.968   1.834   9.566 -0.0718 -0.0874 -0.5493
  580TIP3    H225936   3.879   1.942   9.509 -0.3773  0.4037  0.8142
  581TIP3   OH225937   0.366   1.539   8.405  0.0723  0.7565  0.4631
  581TIP3    H125938   0.348   1.454   8.445  2.8159 -1.8456 -3.1013
  581TIP3    H225939   0.419   1.586   8.469  0.4569 -1.2030  1.6571
  582TIP3   OH225940   6.166   2.389   8.784 -0.4968 -0.3434  0.1124
  582TIP3    H125941   6.128   2.459   8.730 -0.1596 -0.0091  0.3123
  582TIP3    H225942   6.103   2.316   8.775 -1.3133  0.2809  0.6294
  583TIP3   OH225943   2.077   1.656   8.093  0.4167 -0.6210  0.1816
  583TIP3    H125944   2.028   1.596   8.150  2.5529 -1.0635  1.7026
  583TIP3    H225945   2.121   1.599   8.030 -2.0815 -0.1203 -2.2053
  584TIP3   OH225946   2.287   1.764   7.084 -0.0699  0.5523 -0.0148
  584TIP3    H125947   2.265   1.773   6.991 -1.2519 -1.3202  0.0369
  584TIP3    H225948   2.378   1.795   7.090  0.4139 -0.3378 -2.0043
  585TIP3   OH225949   5.855   5.726   9.327  0.0434 -0.1921  0.5906
  585TIP3    H125950   5.814   5.763   9.249  1.2522 -0.7913 -0.3783
  585TIP3    H225951   5.852   5.796   9.391 -0.9053  0.3485 -0.0146
  586TIP3   OH225952   5.601   6.811   9.154 -0.5583 -0.1022  0.3569
  586TIP3    H125953   5.687   6.848   9.134 -1.1120  0.9983 -0.0481
  586TIP3    H225954   5.555   6.808   9.070 -1.6165  1.2077  0.8429
  587TIP3   OH225955   7.321   3.556   9.134 -0.8663 -0.2928 -0.2123
  587TIP3    H125956   7.333   3.529   9.225 -1.1266 -1.0869 -0.4122
  587TIP3    H225957   7.340   3.650   9.135 -0.7443 -0.3170  0.6368
  588TIP3   OH225958   0.494   0.085   7.940  0.2028  0.0497 -0.1077
  588TIP3    H125959   0.503  -0.008   7.962  2.7978  0.8972  3.3070
  588TIP3    H225960   0.407   0.109   7.970 -0.2095 -1.1015 -0.3384
  589TIP3   OH225961   2.825   4.448   8.146  0.2865  0.0367  0.1852
  589TIP3    H125962   2.856   4.473   8.058 -0.9848  0.5211 -0.1433
  589TIP3    H225963   2.787   4.528   8.181  1.5313  0.0767  1.5514
  590TIP3   OH225964   5.759   4.045   8.792 -0.4024 -0.2323 -0.1331
  590TIP3    H125965   5.801   3.959   8.783 -1.0438 -0.7295  1.3401
  590TIP3    H225966   5.724   4.063   8.705 -0.5139 -1.6094 -0.4016
  591TIP3   OH225967   3.851   4.498   8.164  0.0688 -0.0171 -0.4721
  591TIP3    H125968   3.769   4.547   8.164  0.4510  0.7816  2.0025
  591TIP3    H225969   3.824   4.406   8.161 -0.9286  0.2409  0.0985
  592TIP3   OH225970   4.845   6.973   8.219 -0.4399 -0.3736 -0.0276
  592TIP3    H125971   4.941   6.977   8.225 -0.5623  0.9282  2.8170
  592TIP3    H225972   4.824   7.017   8.137  1.3931 -1.4219 -1.1291
  593TIP3   OH225973   6.606   1.967   9.440 -0.5330  0.7784 -0.1668
  593TIP3    H125974   6.551   1.949   9.516  1.1122 -1.3015  0.6484
  593TIP3    H225975   6.564   1.921   9.368 -1.1862  1.3483 -0.1677
  594TIP3   OH225976   3.551   7.598   7.628  0.5301 -0.0962  0.0425
  594TIP3    H125977   3.495   7.646   7.689  0.0606  1.0666 -1.2288
  594TIP3    H225978   3.524   7.630   7.542  0.0196 -2.8657 -0.9191
  595TIP3   OH225979   0.508   2.159   7.892 -0.1240 -0.0650  0.1819
  595TIP3    H125980   0.597   2.168   7.858 -0.2442  3.0698  0.3835
  595TIP3    H225981   0.516   2.176   7.986 -0.8015 -1.0504  0.4386
  596TIP3   OH225982   3.376   2.986   7.043 -0.9841  0.0432  0.1272
  596TIP3    H125983   3.365   2.953   7.132 -0.4758 -0.1765  0.1150
  596TIP3    H225984   3.294   3.032   7.024 -0.5215  1.4471  1.2938
  597TIP3   OH225985   6.202   5.572   7.049 -0.2951  0.0154 -0.1978
  597TIP3    H125986   6.176   5.481   7.037 -3.4322  1.0785 -3.0810
  597TIP3    H225987   6.248   5.595   6.969 -0.6860  1.2728 -0.0890
  598TIP3   OH225988   2.728   3.810   6.795 -0.4673  0.0002 -0.6857
  598TIP3    H125989   2.796   3.876   6.781 -1.2052  0.8897 -0.1838
  598TIP3    H225990   2.771   3.741   6.845  0.5685 -0.3677 -2.0228
  599TIP3   OH225991   0.900   1.869   9.297  0.1914  0.2033  0.0163
  599TIP3    H125992   0.841   1.877   9.222 -0.2076  0.9207  0.3925
  599TIP3    H225993   0.935   1.957   9.309  0.9651 -0.1114  0.1040
  600TIP3   OH225994   7.461   5.856   6.750  0.0786 -0.1932 -0.2197
  600TIP3    H125995   7.386   5.847   6.690 -0.9882 -2.3930  1.3076
  600TIP3    H225996   7.536   5.826   6.699 -0.2362  0.9370 -1.4037
  601TIP3   OH225997   5.784   4.356   8.497  0.1459 -0.2959  0.0994
  601TIP3    H125998   5.869   4.372   8.537  0.6673 -0.0707 -1.0721
  601TIP3    H225999   5.769   4.262   8.507  0.8813 -0.4655 -0.3689
  602TIP3   OH226000   5.553   3.454   8.296 -0.0500  0.2077  0.5253
  602TIP3    H126001   5.561   3.361   8.271 -0.0488  0.5494 -0.8406
  602TIP3    H226002   5.639   3.491   8.277 -0.1380  0.5513  0.7922
  603TIP3   OH226003   5.085   6.381   9.307  0.0434  0.6554 -0.0278
  603TIP3    H126004   5.069   6.372   9.401  1.5496  0.3051  0.2260
  603TIP3    H226005   5.082   6.292   9.273  1.1710  0.5992 -0.0019
  604TIP3   OH226006   7.199   6.588   7.178 -0.5432 -0.0464  0.1192
  604TIP3    H126007   7.213   6.549   7.092 -1.5851 -0.6597  0.2131
  604TIP3    H226008   7.159   6.519   7.230 -1.9279  0.9642  0.4452
  605TIP3   OH226009   0.067   0.895   9.341 -0.3528 -0.0289  0.1812
  605TIP3    H126010   0.144   0.853   9.378  0.7870  1.4481 -0.4122
  605TIP3    H226011   0.076   0.883   9.246  0.0175  1.4927 -0.0115
  606TIP3   OH226012   0.848   2.854   8.800 -0.1855 -0.0690  0.1456
  606TIP3    H126013   0.814   2.801   8.728 -0.5204 -0.0436  0.2810
  606TIP3    H226014   0.896   2.925   8.758  0.1711 -0.4183 -0.0394
  607TIP3   OH226015   6.908   2.565   7.819 -0.5475 -0.2099 -0.6734
  607TIP3    H126016   6.888   2.580   7.911 -0.2518 -0.1065 -0.6273
  607TIP3    H226017   6.940   2.650   7.787  0.2678 -0.4981 -0.6343
  608TIP3   OH226018   3.090   0.859   7.099  0.0619 -0.5452  0.3287
  608TIP3    H126019   3.008   0.831   7.139 -0.3878 -0.5017 -0.5594
  608TIP3    H226020   3.110   0.943   7.141 -2.5272  1.5874 -2.3278
  609TIP3   OH226021   0.062   2.436   9.524  0.0483 -0.4588 -0.7420
  609TIP3    H126022  -0.001   2.435   9.452 -0.4940 -0.0495 -0.2787
  609TIP3    H226023   0.147   2.419   9.482 -0.1707  0.3794 -1.5579
  610TIP3   OH226024   4.943   0.852   8.611  0.6840 -0.0996  0.5201
  610TIP3    H126025   4.941   0.917   8.682  0.5855 -0.3356  0.7364
  610TIP3    H226026   5.004   0.785   8.642 -0.9290 -1.2654  1.3334
  611TIP3   OH226027   1.992   5.433   7.767 -0.4782 -0.6635 -0.2120
  611TIP3    H126028   2.027   5.516   7.732 -0.9779 -0.0863  0.6146
  611TIP3    H226029   1.963   5.385   7.689 -2.2127  0.8889 -0.6071
  612TIP3   OH226030   1.154   3.967   6.817 -0.5035  0.2907  0.2711
  612TIP3    H126031   1.218   3.904   6.849 -0.9787 -0.3447  0.0077
  612TIP3    H226032   1.147   3.948   6.723 -0.6517  0.7348  0.1902
  613TIP3   OH226033   6.884   4.988   6.934 -0.0656 -0.2549  0.1703
  613TIP3    H126034   6.969   4.945   6.947 -0.0192  0.0744  1.0709
  613TIP3    H226035   6.905   5.082   6.939 -0.4436 -0.1671  0.0974
  614TIP3   OH226036   3.330   7.558   9.076  0.1672  0.5604 -0.1951
  614TIP3    H126037   3.348   7.492   9.143  1.4083  0.9121 -0.1604
  614TIP3    H226038   3.247   7.530   9.036  1.0756 -1.5192 -0.7815
  615TIP3   OH226039   5.306   2.156   8.539 -0.9755  0.0174  0.1532
  615TIP3    H126040   5.251   2.220   8.494 -0.6203  0.0287 -0.2749
  615TIP3    H226041   5.278   2.159   8.630  2.1040  4.2161  1.3041
  616TIP3   OH226042   7.174   6.825   8.402 -0.3318 -0.4929  0.0999
  616TIP3    H126043   7.170   6.832   8.498  0.8892 -0.3054  0.1600
  616TIP3    H226044   7.243   6.761   8.386 -1.6858 -1.8107 -0.6579
  617TIP3   OH226045   6.532   1.401   7.251 -0.6707  0.3544 -0.1003
  617TIP3    H126046   6.505   1.432   7.165 -0.6151  1.1002  0.1433
  617TIP3    H226047   6.618   1.440   7.265  0.6155 -2.0271 -0.8927
  618TIP3   OH226048   3.219   3.080   7.787  0.1123  0.3283 -0.1438
  618TIP3    H126049   3.232   3.110   7.877 -0.1832  0.4312 -0.1365
  618TIP3    H226050   3.261   3.148   7.733  0.0328  0.4140 -0.0973
  619TIP3   OH226051   7.356   6.482   9.383 -0.4564  0.2008  0.2052
  619TIP3    H126052   7.372   6.459   9.291  1.4961 -1.8131  0.9609
  619TIP3    H226053   7.289   6.419   9.411  0.1687 -0.2903  0.5954
  620TIP3   OH226054   2.842   1.396   7.490  0.0001  0.1544 -0.1951
  620TIP3    H126055   2.891   1.360   7.416 -0.6056 -1.3270  0.0868
  620TIP3    H226056   2.873   1.347   7.566 -0.9507  0.1106  0.1861
  621TIP3   OH226057   6.363   2.403   7.904  0.2785  0.4214  0.0061
  621TIP3    H126058   6.407   2.447   7.831  2.0513 -0.1477  0.6722
  621TIP3    H226059   6.419   2.328   7.924 -1.6031 -1.0042  0.2150
  622TIP3   OH226060   7.239   6.911   7.504  0.2729  0.9969  0.1435
  622TIP3    H126061   7.249   6.869   7.418 -0.2801  2.9132 -0.9080
  622TIP3    H226062   7.192   6.846   7.556 -0.1602  0.1227 -1.2736
  623TIP3   OH226063   6.865   6.838   9.640 -0.3697 -0.2453  0.1557
  623TIP3    H126064   6.892   6.901   9.573 -1.0824 -0.2083 -0.1091
  623TIP3    H226065   6.938   6.777   9.646  0.2898  0.5468  0.3453
  624TIP3   OH226066   2.393   7.287   7.816  0.2767  0.5860 -0.2541
  624TIP3    H126067   2.366   7.203   7.852  0.2269  0.7368  0.0660
  624TIP3    H226068   2.396   7.346   7.891 -0.6089  1.1071 -0.6037
  625TIP3   OH226069   3.548   5.882   8.009  0.6719  0.5216  0.1512
  625TIP3    H126070   3.568   5.847   7.922  3.7490 -0.1141  0.9993
  625TIP3    H226071   3.556   5.977   7.998  0.6728  0.4701 -0.3338
  626TIP3   OH226072   7.601   2.403   8.179 -0.5507  0.1588  0.2437
  626TIP3    H126073   7.649   2.328   8.143  0.5795  0.2887  1.3950
  626TIP3    H226074   7.593   2.384   8.272 -2.3668  0.3847  0.1572
  627TIP3   OH226075   6.129   7.530   8.552 -0.0875  0.0391 -0.4418
  627TIP3    H126076   6.079   7.525   8.471 -0.1490  2.1080 -0.5744
  627TIP3    H226077   6.221   7.533   8.523 -0.0565 -0.1978 -0.3736
  628TIP3   OH226078   3.204   1.636   8.968 -0.2944  0.0323 -0.3519
  628TIP3    H126079   3.220   1.634   9.062 -1.5704 -0.8927 -0.1269
  628TIP3    H226080   3.168   1.723   8.951 -0.2451  0.1311  0.0505
  629TIP3   OH226081   4.271   3.213   9.124 -0.2599 -0.0504 -0.3508
  629TIP3    H126082   4.351   3.164   9.106  0.5430  1.6838 -1.8491
  629TIP3    H226083   4.252   3.259   9.042 -2.4397  0.1009  0.1740
  630TIP3   OH226084   5.350   7.174   7.073  0.0318 -0.2506 -0.2988
  630TIP3    H126085   5.288   7.103   7.090  0.2516 -0.5442 -0.7095
  630TIP3    H226086   5.431   7.130   7.048  0.1518  0.1496 -0.6206
  631TIP3   OH226087   1.114   6.435   8.859  0.2254  0.6171  0.2710
  631TIP3    H126088   1.168   6.491   8.804 -1.1503  1.7068 -0.0188
  631TIP3    H226089   1.176   6.372   8.898  1.6965  1.9018  0.0849
  632TIP3   OH226090   1.489   2.083   7.679 -0.1646 -0.0681  0.3921
  632TIP3    H126091   1.563   2.144   7.682  0.3656 -0.7240  1.0080
  632TIP3    H226092   1.523   2.002   7.717 -1.3609 -0.2014  1.2509
  633TIP3   OH226093   1.536   5.791   9.419  0.1622 -0.0725  0.3706
  633TIP3    H126094   1.481   5.867   9.438 -0.1931  0.0257 -0.8938
  633TIP3    H226095   1.504   5.723   9.477 -0.0321  0.5261  0.9762
  634TIP3   OH226096   1.139   1.348   8.181  0.0114 -0.1725  0.1491
  634TIP3    H126097   1.174   1.372   8.266  0.5795  0.6738 -0.3094
  634TIP3    H226098   1.198   1.280   8.149 -1.6516 -2.3894  1.4878
  635TIP3   OH226099   0.865   0.716   9.491 -0.4275 -0.2751  0.1770
  635TIP3    H126100   0.801   0.736   9.422 -0.9747  0.7491  0.9533
  635TIP3    H226101   0.817   0.661   9.553 -0.4863  0.2719  0.6242
  636TIP3   OH226102   2.549   5.538   8.018  0.2056  0.4151  0.0268
  636TIP3    H126103   2.496   5.575   8.088 -0.4217 -2.4725  1.2205
  636TIP3    H226104   2.639   5.544   8.049  0.1529  1.1507  0.0534
  637TIP3   OH226105   2.787   5.565   8.233  0.4181 -0.2829  0.1878
  637TIP3    H126106   2.860   5.560   8.296  0.3612  1.8182  0.5062
  637TIP3    H226107   2.709   5.553   8.287  0.2850  2.9287  0.8834
  638TIP3   OH226108   4.031   2.146   7.719 -0.5488 -0.4846 -0.5366
  638TIP3    H126109   4.077   2.227   7.695  0.8248 -0.7321  1.0703
  638TIP3    H226110   4.098   2.091   7.759 -2.0913 -1.1349  1.3053
  639TIP3   OH226111   7.330   6.422   8.124 -0.7179  0.2652 -0.4534
  639TIP3    H126112   7.278   6.430   8.205 -0.0734  1.9465 -0.1653
  639TIP3    H226113   7.277   6.466   8.058 -0.0441  1.2800 -0.3327
  640TIP3   OH226114   4.915   3.226   9.480  0.1656 -0.3255 -0.0847
  640TIP3    H126115   4.863   3.164   9.429  0.0842 -0.7179  0.4584
  640TIP3    H226116   4.952   3.286   9.416  0.1643 -0.8803 -0.6114
  641TIP3   OH226117   6.582   6.799   6.938  0.1494  0.0597 -0.4781
  641TIP3    H126118   6.536   6.813   6.855 -0.3393 -0.2018 -0.2542
  641TIP3    H226119   6.525   6.839   7.004  1.0468  1.2284 -0.3750
  642TIP3   OH226120   4.572   0.350   8.861  0.3040 -0.2163  0.1288
  642TIP3    H126121   4.627   0.419   8.825 -2.7598  1.5396 -1.6643
  642TIP3    H226122   4.548   0.297   8.785 -1.9232  0.2455  0.4385
  643TIP3   OH226123   4.996   7.471   7.655  0.1935  0.2733  0.0064
  643TIP3    H126124   5.058   7.416   7.704 -0.8483 -1.9747 -1.0488
  643TIP3    H226125   5.002   7.439   7.565 -0.0933  2.2988 -0.7900
  644TIP3   OH226126   0.608   0.836   7.505 -0.1148  0.0143  0.5140
  644TIP3    H126127   0.605   0.746   7.537  0.3882 -0.1384  0.1417
  644TIP3    H226128   0.666   0.882   7.565 -2.1089  0.6505  2.0391
  645TIP3   OH226129   4.356   6.581   9.444 -0.3741 -0.5167 -0.4902
  645TIP3    H126130   4.310   6.660   9.473  0.4777  0.0707 -0.7082
  645TIP3    H226131   4.298   6.509   9.470 -0.8876  0.1424  0.2455
  646TIP3   OH226132   0.382   4.052   7.462 -0.7211 -0.2293 -0.9803
  646TIP3    H126133   0.320   4.061   7.534  0.3812  1.8424 -0.2283
  646TIP3    H226134   0.424   4.138   7.454  1.9448 -1.4650 -1.5467
  647TIP3   OH226135   2.323   0.844   8.849 -0.3767  0.1405 -0.6970
  647TIP3    H126136   2.390   0.800   8.798  1.7661 -0.1076  2.1130
  647TIP3    H226137   2.356   0.933   8.863 -1.5551  0.6308 -0.8472
  648TIP3   OH226138   2.985   7.086   7.653  0.1402 -0.3601 -0.0916
  648TIP3    H126139   2.974   6.998   7.689 -0.1789 -0.1724  0.2829
  648TIP3    H226140   3.000   7.141   7.730 -1.9814  0.2764 -0.0711
  649TIP3   OH226141   5.328   7.389   8.737  0.6084  0.1258  0.6820
  649TIP3    H126142   5.410   7.357   8.700  0.7690  0.1025  1.0585
  649TIP3    H226143   5.353   7.436   8.816  0.1820 -0.6154  1.2667
  650TIP3   OH226144   2.999   3.412   9.504  0.6849  0.0538 -0.1624
  650TIP3    H126145   2.969   3.369   9.424 -0.2313  0.4679 -0.0461
  650TIP3    H226146   2.919   3.439   9.548  1.2103  0.4587  0.5516
  651TIP3   OH226147   0.571   2.902   7.156  0.3788 -0.0228  0.1525
  651TIP3    H126148   0.583   2.818   7.201  1.8020 -0.6963 -1.3694
  651TIP3    H226149   0.505   2.883   7.089  1.0202 -0.0743 -0.4783
  652TIP3   OH226150   1.216   1.866   8.293  0.4084  0.3123 -0.1343
  652TIP3    H126151   1.241   1.943   8.242 -0.0778  0.0418 -0.8017
  652TIP3    H226152   1.209   1.796   8.228  0.9232 -0.3181  0.4714
  653TIP3   OH226153   1.228   1.574   8.952  0.2871  0.1722 -0.3451
  653TIP3    H126154   1.308   1.554   8.904  1.0744  2.9954 -0.4200
  653TIP3    H226155   1.172   1.498   8.939  1.8625 -0.7043 -2.6776
  654TIP3   OH226156   7.139   3.365   8.753  0.0929  0.6384 -0.0474
  654TIP3    H126157   7.128   3.411   8.670  2.5418  0.4498 -0.5410
  654TIP3    H226158   7.072   3.296   8.751 -1.7305  2.3211 -0.5653
  655TIP3   OH226159   5.618   3.867   9.480  0.1030  0.0326 -0.0301
  655TIP3    H126160   5.681   3.929   9.444  1.6468 -0.3079  1.9143
  655TIP3    H226161   5.544   3.921   9.508  1.0794  0.9081  0.9039
  656TIP3   OH226162   3.319   4.539   6.710  0.1627 -0.2766  0.6930
  656TIP3    H126163   3.396   4.494   6.744 -0.3990 -1.4148  0.5276
  656TIP3    H226164   3.347   4.630   6.699  1.4887 -0.6729  0.5799
  657TIP3   OH226165   4.084   2.710   9.811  0.1603 -0.0423 -0.0080
  657TIP3    H126166   4.011   2.708   9.750  0.5601  2.3433 -0.6689
  657TIP3    H226167   4.072   2.790   9.861  1.7485 -0.1325  0.5942
  658TIP3   OH226168   4.634   3.770   8.217 -0.6988 -0.1802 -0.3338
  658TIP3    H126169   4.611   3.703   8.281  3.6919 -1.1858  0.4893
  658TIP3    H226170   4.619   3.853   8.264 -0.2977 -0.8046  0.9485
  659TIP3   OH226171   6.313   5.093   7.216  0.5324  0.4774 -0.1556
  659TIP3    H126172   6.331   5.037   7.141  0.8367  2.6951 -1.8260
  659TIP3    H226173   6.400   5.118   7.248  0.5207 -2.2776  2.5482
  660TIP3   OH226174   6.953   5.747   8.165  0.3962  0.0812  0.4942
  660TIP3    H126175   7.013   5.759   8.239  3.3110  2.1897 -1.9936
  660TIP3    H226176   6.882   5.809   8.182  0.4152 -0.2676  2.0072
  661TIP3   OH226177   2.710   6.828   8.820 -0.3325 -0.1501 -0.5615
  661TIP3    H126178   2.635   6.854   8.766 -0.1862 -1.3643 -1.3908
  661TIP3    H226179   2.743   6.910   8.857 -1.1628  0.5729 -1.3857
  662TIP3   OH226180   2.651   3.596   8.955  0.1635  0.5370  0.1151
  662TIP3    H126181   2.737   3.637   8.955 -0.0286  1.0242 -1.3493
  662TIP3    H226182   2.596   3.655   8.903 -0.9510  0.0336  0.6803
  663TIP3   OH226183   0.689   2.382   8.654 -0.3275  0.0125 -0.4114
  663TIP3    H126184   0.740   2.419   8.582 -2.2532 -0.0131 -1.8972
  663TIP3    H226185   0.673   2.291   8.629  1.8773 -1.1118  1.8030
  664TIP3   OH226186   0.213   4.478   8.322 -0.3529 -0.0658 -0.2745
  664TIP3    H126187   0.210   4.419   8.246 -0.6631 -0.9258  0.3951
  664TIP3    H226188   0.142   4.540   8.307 -0.8607 -0.6595 -0.3384
  665TIP3   OH226189   4.054   4.269   8.919  0.7020 -0.1892 -0.0519
  665TIP3    H126190   4.090   4.311   8.997  2.4466 -0.7102 -0.5326
  665TIP3    H226191   3.997   4.201   8.953 -0.9718  1.5009  0.7340
  666TIP3   OH226192   0.641   4.111   8.099  0.3404  0.0669  0.5551
  666TIP3    H126193   0.657   4.017   8.094  0.0722 -0.0420  1.4085
  666TIP3    H226194   0.674   4.136   8.186 -0.5922  0.5369  0.7916
  667TIP3   OH226195   4.532   6.315   8.010 -0.4347 -0.4918 -0.2269
  667TIP3    H126196   4.439   6.302   8.031 -0.2972 -3.9687 -1.1268
  667TIP3    H226197   4.532   6.341   7.918 -0.5087  0.9504  0.1543
  668TIP3   OH226198   4.607   5.369   7.862  0.1248  0.0347 -0.0799
  668TIP3    H126199   4.574   5.448   7.905 -1.6366 -0.1440 -0.9964
  668TIP3    H226200   4.631   5.397   7.774 -0.7574 -0.4818 -0.4962
  669TIP3   OH226201   4.639   6.131   9.248  0.0738  0.9067  1.0249
  669TIP3    H126202   4.693   6.091   9.180 -1.7139 -0.4274  0.3225
  669TIP3    H226203   4.592   6.058   9.287 -1.6392  2.0729  1.2251
  670TIP3   OH226204   5.890   5.092   8.245 -0.2191  0.4087 -0.0460
  670TIP3    H126205   5.947   5.147   8.297  0.2898 -0.2280  0.0817
  670TIP3    H226206   5.923   5.003   8.259 -1.3246  0.0113  0.1460
  671TIP3   OH226207   5.154   4.171   8.222 -0.0041 -0.5504  0.2821
  671TIP3    H126208   5.065   4.194   8.197 -0.2494 -1.4129  0.3528
  671TIP3    H226209   5.151   4.160   8.317  0.0467 -1.1380  0.2175
  672TIP3   OH226210   5.046   3.393   9.322 -0.9840  0.0341 -0.4859
  672TIP3    H126211   4.997   3.451   9.263  0.8737  1.0022 -1.1840
  672TIP3    H226212   5.128   3.375   9.275 -0.7052 -1.6146  0.5587
  673TIP3   OH226213   3.714   0.524   8.185 -0.0020 -0.3743  0.6049
  673TIP3    H126214   3.753   0.594   8.133  0.3683 -1.9924 -1.4605
  673TIP3    H226215   3.751   0.535   8.273  0.5120  1.6058  0.1741
  674TIP3   OH226216   4.315   5.442   7.516  0.1661 -0.1937  0.0369
  674TIP3    H126217   4.278   5.529   7.501 -1.1703 -0.8098 -0.3068
  674TIP3    H226218   4.342   5.412   7.429  0.0494 -0.3800  0.0651
  675TIP3   OH226219   1.785   0.200   8.929  0.5753  0.4298  0.0982
  675TIP3    H126220   1.728   0.161   8.862 -0.6821  1.5491  0.4878
  675TIP3    H226221   1.836   0.266   8.882  2.2487 -1.1284 -0.4286
  676TIP3   OH226222   3.589   4.495   8.949  0.1223  0.0866 -0.0683
  676TIP3    H126223   3.579   4.531   9.037 -1.9993 -0.6404  0.0429
  676TIP3    H226224   3.513   4.528   8.900  0.8495 -0.1490 -1.4184
  677TIP3   OH226225   0.418   0.930   8.855 -0.7678  0.7643 -0.6878
  677TIP3    H126226   0.409   1.013   8.901 -0.0225  0.8492 -0.6806
  677TIP3    H226227   0.348   0.875   8.891  1.0722  0.0789  2.2441
  678TIP3   OH226228   0.747   0.295   8.969 -0.1908 -0.2672 -0.0554
  678TIP3    H126229   0.673   0.312   9.028 -0.2561 -3.4895  0.9710
  678TIP3    H226230   0.779   0.209   8.996  2.5559  0.0651 -1.9565
  679TIP3   OH226231   7.371   4.601   9.402  0.6087  0.3164 -0.2992
  679TIP3    H126232   7.385   4.605   9.307  0.0103 -1.4913 -0.5016
  679TIP3    H226233   7.459   4.587   9.438  0.8090  0.7569 -0.6081
  680TIP3   OH226234   6.343   4.297   8.799 -1.0518 -0.4269  0.3783
  680TIP3    H126235   6.377   4.269   8.714 -1.3838 -0.5628  0.2876
  680TIP3    H226236   6.419   4.296   8.857 -0.0081  3.0089 -0.6849
  681TIP3   OH226237   5.036   0.101   8.325 -0.1770 -0.5114  0.2354
  681TIP3    H126238   5.118   0.146   8.306  0.3388 -1.1623  0.8569
  681TIP3    H226239   5.024   0.112   8.420  0.7783 -2.9460  0.7254
  682TIP3   OH226240   6.440   6.491   6.730 -0.1718 -0.5069  0.3851
  682TIP3    H126241   6.403   6.472   6.644 -0.1910 -0.5848  0.4104
  682TIP3    H226242   6.398   6.573   6.757  0.8179  0.2350 -0.2567
  683TIP3   OH226243   3.357   3.757   7.159 -0.1460 -0.0082  0.0067
  683TIP3    H126244   3.398   3.670   7.158  0.7745  0.4176 -0.8510
  683TIP3    H226245   3.356   3.784   7.067 -1.0609  0.6054  0.1829
  684TIP3   OH226246   2.502   0.290   8.639  1.0019 -0.4610 -0.2258
  684TIP3    H126247   2.427   0.315   8.585 -0.2867  0.2343  1.7828
  684TIP3    H226248   2.511   0.196   8.625  1.0578 -0.2448 -1.9850
  685TIP3   OH226249   6.350   5.122   8.961  0.4163 -0.0126  0.3579
  685TIP3    H126250   6.390   5.050   8.913 -1.2153  0.2367 -1.4834
  685TIP3    H226251   6.307   5.174   8.894 -0.9916  1.0037  1.9885
  686TIP3   OH226252   4.954   7.393   9.425 -0.1923  0.8091  0.4434
  686TIP3    H126253   5.039   7.409   9.383 -0.2138 -0.5931 -0.1682
  686TIP3    H226254   4.974   7.391   9.518  0.4016  0.7494  0.3193
  687TIP3   OH226255   4.042   0.972   7.467  0.0161  0.0020 -0.0318
  687TIP3    H126256   4.039   1.053   7.519 -2.4827 -0.1353  0.1387
  687TIP3    H226257   4.014   0.999   7.379  0.0948 -0.5203 -0.2184
  688TIP3   OH226258   3.319   5.342   8.883 -0.1796  0.3552  0.3416
  688TIP3    H126259   3.369   5.335   8.965 -0.9073  0.7494  0.8306
  688TIP3    H226260   3.375   5.302   8.817  0.9676  1.1444  0.8028
  689TIP3   OH226261   2.456   5.641   7.193  0.1701  0.2373  0.7464
  689TIP3    H126262   2.404   5.566   7.167 -2.9166  2.4051  0.1837
  689TIP3    H226263   2.498   5.614   7.275  1.6701 -3.0418 -0.9254
  690TIP3   OH226264   3.875   4.354   9.599  0.1957  0.0785 -0.2863
  690TIP3    H126265   3.908   4.428   9.651 -1.1985 -0.1810  1.0639
  690TIP3    H226266   3.924   4.357   9.518  0.1078  2.5663 -0.3135
  691TIP3   OH226267   3.603   5.267   7.271 -0.0750 -0.4696  0.1508
  691TIP3    H126268   3.634   5.292   7.358  0.8444  1.1849 -0.5956
  691TIP3    H226269   3.568   5.179   7.282  0.3647 -0.4466  2.1061
  692TIP3   OH226270   1.908   6.815   8.415 -0.2917 -0.9412 -0.2020
  692TIP3    H126271   1.848   6.876   8.456 -0.4321 -0.5768 -0.9393
  692TIP3    H226272   1.964   6.784   8.487 -0.6453 -0.4501  0.2870
  693TIP3   OH226273   0.038   6.325   7.354  0.5718 -0.4846 -0.2156
  693TIP3    H126274   0.083   6.343   7.272  1.7126 -0.1943  0.4420
  693TIP3    H226275   0.079   6.385   7.417 -1.2049  0.2615  0.2864
  694TIP3   OH226276   7.349   2.173   9.365  0.4779  0.1365  0.1862
  694TIP3    H126277   7.277   2.112   9.351  0.6856  0.1213 -0.8968
  694TIP3    H226278   7.414   2.123   9.415 -0.3082  0.2073  1.3389
  695TIP3   OH226279   1.084   5.936   9.435 -0.5059  0.5069  0.4306
  695TIP3    H126280   0.998   5.926   9.477 -0.7588 -0.4097 -0.2781
  695TIP3    H226281   1.107   6.027   9.451 -1.6633  0.8025  0.5400
  696TIP3   OH226282   3.209   1.758   6.992 -0.0347 -0.8005  0.2447
  696TIP3    H126283   3.284   1.813   6.971 -0.2727 -0.5161  0.1255
  696TIP3    H226284   3.245   1.669   6.999  0.5574 -0.4746  1.6136
  697TIP3   OH226285   6.823   3.510   8.770 -0.4451  0.0820  0.3364
  697TIP3    H126286   6.733   3.510   8.738 -1.3351 -1.4391  2.5848
  697TIP3    H226287   6.874   3.543   8.696 -2.6850 -0.0679 -1.4106
  698TIP3   OH226288   4.409   6.436   7.791  0.0175  0.3601  0.0865
  698TIP3    H126289   4.476   6.500   7.814  0.6470 -0.6657  1.1653
  698TIP3    H226290   4.326   6.484   7.803  0.5011  2.0761 -2.5812
  699TIP3   OH226291   6.854   1.442   9.474  0.3766  0.2846  0.3470
  699TIP3    H126292   6.880   1.350   9.474  1.1170  0.4741  1.7235
  699TIP3    H226293   6.759   1.439   9.486  0.4791 -0.2985  1.1158
  700TIP3   OH226294   0.090   4.781   8.853 -0.4234  0.5153 -0.5270
  700TIP3    H126295   0.183   4.758   8.848 -0.9026 -1.4194 -1.4749
  700TIP3    H226296   0.080   4.855   8.794  0.2011 -0.4979 -1.9406
  701TIP3   OH226297   3.563   4.032   8.084  0.1883 -0.3554 -0.0727
  701TIP3    H126298   3.570   4.016   8.179  1.2850  0.8941  0.0973
  701TIP3    H226299   3.648   4.004   8.050 -0.0298 -0.3539 -0.6157
  702TIP3   OH226300   1.564   1.306   9.187 -0.4417  0.3788  0.1678
  702TIP3    H126301   1.541   1.274   9.100 -1.3008 -0.2404  0.6076
  702TIP3    H226302   1.659   1.302   9.190 -0.3500  1.1739 -1.0215
  703TIP3   OH226303   2.471   1.134   9.309 -0.4205  0.0521  1.1346
  703TIP3    H126304   2.536   1.085   9.258 -0.2895  0.7260  0.6348
  703TIP3    H226305   2.507   1.135   9.398 -1.0024 -1.7483  1.4240
  704TIP3   OH226306   6.283   1.058   7.192  0.3041  0.1746  0.3834
  704TIP3    H126307   6.326   0.974   7.209  0.4344  0.6417  2.8028
  704TIP3    H226308   6.334   1.122   7.241 -0.8528  1.3737  0.0971
  705TIP3   OH226309   5.815   6.002   8.597  0.1804  0.7764  0.0599
  705TIP3    H126310   5.800   6.089   8.560 -1.2056  0.7119  0.3929
  705TIP3    H226311   5.899   5.974   8.561  0.1941  1.8598 -0.7971
  706TIP3   OH226312   5.868   4.595   9.204  0.5440  0.6873  0.6566
  706TIP3    H126313   5.846   4.560   9.118 -1.7209  0.2177  1.3610
  706TIP3    H226314   5.963   4.589   9.209  0.7955  1.2152 -1.9847
  707TIP3   OH226315   5.708   0.101   8.251 -0.0249 -0.1154  0.4897
  707TIP3    H126316   5.619   0.104   8.215 -0.7479  0.4337  2.2090
  707TIP3    H226317   5.725   0.190   8.281 -0.0920 -0.8310  2.8432
  708TIP3   OH226318   7.385   4.640   8.138  0.0861  0.6907 -0.2740
  708TIP3    H126319   7.454   4.694   8.100 -0.5051  0.4975 -1.6869
  708TIP3    H226320   7.410   4.550   8.116 -0.6711  0.6269 -0.9280
  709TIP3   OH226321   6.138   5.311   7.008  0.3458  0.0136  0.2297
  709TIP3    H126322   6.061   5.254   7.002  0.4923 -0.2210  0.5442
  709TIP3    H226323   6.193   5.286   6.935  0.2408  0.0048  0.1540
  710TIP3   OH226324   1.577   1.807   8.935 -0.1651 -0.5221  0.2727
  710TIP3    H126325   1.605   1.893   8.966 -0.3702 -0.8914  1.5451
  710TIP3    H226326   1.483   1.804   8.954  0.1250 -1.6138  1.7782
  711TIP3   OH226327   3.647   0.036   7.989  0.2366 -0.3751  0.0643
  711TIP3    H126328   3.581   0.053   7.921  0.4004 -2.1278 -0.5950
  711TIP3    H226329   3.690   0.120   8.002 -1.6620  0.6746  0.0337
  712TIP3   OH226330   4.873   3.428   8.735 -0.2716  0.3694  0.2582
  712TIP3    H126331   4.881   3.357   8.799 -0.4470  0.8497  0.8298
  712TIP3    H226332   4.816   3.393   8.667 -1.2173  0.3051  1.0554
  713TIP3   OH226333   4.791   4.655   8.596 -0.1152 -0.8299  0.2109
  713TIP3    H126334   4.879   4.670   8.563  0.0175  2.0272  1.5747
  713TIP3    H226335   4.799   4.661   8.691 -1.9812  1.4785  0.3249
  714TIP3   OH226336   7.158   4.130   9.087 -0.6665  0.0106 -0.1390
  714TIP3    H126337   7.088   4.065   9.091 -1.5709  1.0283  1.4972
  714TIP3    H226338   7.181   4.146   9.179  0.8043  0.6729 -0.5931
  715TIP3   OH226339   2.939   2.377   8.465  0.0078  0.2152  0.1723
  715TIP3    H126340   2.995   2.398   8.541 -0.7171  1.4339  0.3881
  715TIP3    H226341   2.852   2.363   8.502 -0.6072  1.9529 -0.5248
  716TIP3   OH226342   0.640   1.831   7.888  0.2525  0.2706 -0.5804
  716TIP3    H126343   0.719   1.780   7.908 -0.6636 -1.5690 -1.3930
  716TIP3    H226344   0.619   1.876   7.970  1.6959  0.1832 -0.1295
  717TIP3   OH226345   0.558   1.590   7.314  0.0533  0.6855 -0.3418
  717TIP3    H126346   0.579   1.544   7.395 -1.1872 -0.8414 -0.8059
  717TIP3    H226347   0.640   1.592   7.265  0.8054  1.6026  0.9226
  718TIP3   OH226348   5.695   5.120   8.866 -0.0272  0.0856  0.0982
  718TIP3    H126349   5.625   5.156   8.921 -0.9077  1.8801 -2.0673
  718TIP3    H226350   5.776   5.152   8.906 -0.6565  1.6793  0.1664
  719TIP3   OH226351   6.049   7.413   9.220 -0.3454  0.4301 -0.6660
  719TIP3    H126352   6.144   7.407   9.209 -0.2342  1.2862 -0.2644
  719TIP3    H226353   6.037   7.451   9.307 -1.1169 -2.0440  0.3951
  720TIP3   OH226354   5.464   1.343   9.056  0.0754 -0.1330  0.0041
  720TIP3    H126355   5.384   1.369   9.011 -1.4134 -1.8936  1.4628
  720TIP3    H226356   5.509   1.425   9.075 -1.1219  0.8694 -1.2920
  721TIP3   OH226357   2.529   2.910   8.623 -0.7048  0.1139 -0.3597
  721TIP3    H126358   2.548   2.830   8.575  0.5250 -0.5039  1.0831
  721TIP3    H226359   2.443   2.895   8.663 -1.4492  0.3905 -1.7881
  722TIP3   OH226360   1.396   1.058   7.471  0.0988  0.0649 -0.0167
  722TIP3    H126361   1.430   0.969   7.477  0.3813  0.0569 -1.3529
  722TIP3    H226362   1.467   1.114   7.502 -0.4988 -0.2162  1.9503
  723TIP3   OH226363   1.961   5.501   8.032  0.3564 -0.4064  0.0430
  723TIP3    H126364   1.907   5.430   8.067 -0.2642 -0.1971 -0.4716
  723TIP3    H226365   1.961   5.487   7.937  1.2952 -0.4640  0.0501
  724TIP3   OH226366   2.844   4.026   8.248 -0.0730  0.0571 -0.0583
  724TIP3    H126367   2.869   3.934   8.254  0.4233  0.1253 -0.9434
  724TIP3    H226368   2.892   4.059   8.172 -1.2463  0.7190 -0.5347
  725TIP3   OH226369   5.524   2.114   8.383  0.1070 -0.4684 -0.1863
  725TIP3    H126370   5.545   2.179   8.316  0.2672 -2.2853 -2.0036
  725TIP3    H226371   5.435   2.134   8.410 -0.2803 -0.1911 -1.5919
  726TIP3   OH226372   0.164   4.231   7.396 -0.3819  0.2592  0.3637
  726TIP3    H126373   0.232   4.191   7.342  0.9196  2.1188  0.5554
  726TIP3    H226374   0.168   4.183   7.479  1.1341  0.7084  0.5788
  727TIP3   OH226375   2.610   2.296   9.531  0.2931  0.3147  0.1781
  727TIP3    H126376   2.636   2.385   9.508 -0.6385  0.9121  1.3011
  727TIP3    H226377   2.517   2.291   9.509  0.0794 -0.0154  1.0978
  728TIP3   OH226378   4.545   1.581   8.872 -0.1324  0.3519  0.3552
  728TIP3    H126379   4.530   1.557   8.781  0.8113 -0.9932  0.5133
  728TIP3    H226380   4.640   1.582   8.881 -0.2172  0.2361  1.3789
  729TIP3   OH226381   7.513   0.803   7.593 -0.2283  0.1123 -0.3917
  729TIP3    H126382   7.502   0.808   7.688 -0.6863 -0.4303 -0.4083
  729TIP3    H226383   7.502   0.710   7.573  0.7910  0.0773 -0.8704
  730TIP3   OH226384   0.905   1.610   8.343 -0.1297 -0.3875  0.0090
  730TIP3    H126385   0.948   1.683   8.386  0.2691 -0.5193 -0.1557
  730TIP3    H226386   0.880   1.644   8.257  1.0410 -0.7463 -0.4988
  731TIP3   OH226387   1.405   6.908   7.246 -0.2343 -0.4493  0.7024
  731TIP3    H126388   1.357   6.989   7.262 -0.1495 -0.0879 -0.6861
  731TIP3    H226389   1.357   6.866   7.175  0.9650 -0.5200 -0.0964
  732TIP3   OH226390   5.349   2.823   7.905  0.0640 -0.4874  0.7287
  732TIP3    H126391   5.393   2.882   7.844 -1.0185 -0.2561  0.1446
  732TIP3    H226392   5.416   2.799   7.968  0.9094  0.1819  0.1049
  733TIP3   OH226393   6.719   0.156   7.596 -0.5620  0.1288 -0.7435
  733TIP3    H126394   6.756   0.120   7.515 -0.9489  0.2539 -0.9781
  733TIP3    H226395   6.642   0.205   7.568 -1.2578 -0.6251 -0.2057
  734TIP3   OH226396   5.597   1.840   8.612 -0.1679 -0.6207 -0.5678
  734TIP3    H126397   5.688   1.864   8.629 -0.3217 -0.3899 -0.0347
  734TIP3    H226398   5.601   1.748   8.586  0.2894 -0.4031 -1.2952
  735TIP3   OH226399   0.020   0.646   7.158 -0.4146  0.3878 -0.4719
  735TIP3    H126400  -0.014   0.651   7.068 -1.0532 -0.9561 -0.3361
  735TIP3    H226401   0.092   0.708   7.160  0.3402 -0.3564 -2.2548
  736TIP3   OH226402   6.750   6.262   8.100 -0.3159  0.1405 -0.0113
  736TIP3    H126403   6.809   6.330   8.134 -0.7441  0.6935 -0.3531
  736TIP3    H226404   6.716   6.299   8.018 -0.4844 -0.5289 -0.2457
  737TIP3   OH226405   4.609   5.397   8.761 -0.3921  0.3707 -0.5665
  737TIP3    H126406   4.572   5.461   8.700 -0.0385 -1.1581 -2.4755
  737TIP3    H226407   4.649   5.331   8.705  1.8506 -0.0514  1.3683
  738TIP3   OH226408   4.108   1.900   8.937  0.8540  0.2542  0.4750
  738TIP3    H126409   4.125   1.814   8.897 -2.6820 -0.6571  0.6159
  738TIP3    H226410   4.126   1.963   8.867  0.4018 -0.8622 -0.6719
  739TIP3   OH226411   1.267   1.973   7.106 -0.1415  0.1228  0.3907
  739TIP3    H126412   1.212   2.016   7.172 -0.3023 -1.0431  1.0469
  739TIP3    H226413   1.235   2.007   7.022 -0.9960  0.4399  0.8303
  740TIP3   OH226414   3.672   5.446   9.406 -0.3056  0.2404 -0.1762
  740TIP3    H126415   3.622   5.507   9.352  1.1909  1.7504  0.0240
  740TIP3    H226416   3.759   5.444   9.366 -0.3529 -2.0096 -0.3146
  741TIP3   OH226417   4.680   3.762   9.801 -0.1911 -1.3924 -1.1071
  741TIP3    H126418   4.685   3.856   9.789  0.8940 -1.0763  1.1791
  741TIP3    H226419   4.717   3.724   9.721  0.0593  0.1369 -1.7354
  742TIP3   OH226420   3.523   6.362   7.758  0.1207 -0.2814 -0.2447
  742TIP3    H126421   3.548   6.435   7.814  1.1414 -1.3181  0.7296
  742TIP3    H226422   3.592   6.357   7.692  1.1292 -1.4566  0.8134
  743TIP3   OH226423   7.334   0.292   8.701  0.0350  0.0070 -0.3369
  743TIP3    H126424   7.411   0.340   8.670 -0.3089  0.2793 -0.7913
  743TIP3    H226425   7.260   0.340   8.664 -0.3676 -0.0751  0.3411
  744TIP3   OH226426   2.115   6.759   7.617 -0.0113  0.1275  0.1145
  744TIP3    H126427   2.145   6.748   7.526 -1.7248 -0.8601 -0.3605
  744TIP3    H226428   2.150   6.683   7.663  0.5182  0.4194  0.2040
  745TIP3   OH226429   4.793   5.813   8.269 -0.0218  0.1227  0.8774
  745TIP3    H126430   4.888   5.801   8.278 -0.1023  0.0170  1.6491
  745TIP3    H226431   4.774   5.785   8.180  0.8367  1.1933  0.3298
  746TIP3   OH226432   6.847   1.087   8.181  0.2213  0.3226 -0.4924
  746TIP3    H126433   6.924   1.142   8.193  0.6687  0.0071 -1.7729
  746TIP3    H226434   6.788   1.139   8.127 -1.8846  1.8385  2.9427
  747TIP3   OH226435   7.568   0.752   7.868  0.3135  0.2520 -0.0128
  747TIP3    H126436   7.580   0.661   7.897 -0.4628  0.2406  0.2836
  747TIP3    H226437   7.603   0.804   7.940  2.8258  0.2024 -1.0968
  748TIP3   OH226438   4.470   7.172   7.499 -0.5221  0.8281 -0.1494
  748TIP3    H126439   4.495   7.258   7.531  1.7426  0.2552 -0.2224
  748TIP3    H226440   4.508   7.167   7.412 -0.2719 -0.3792  0.0116
  749TIP3   OH226441   0.282   6.678   7.308  0.0971 -0.5626 -0.0633
  749TIP3    H126442   0.311   6.766   7.282  0.5586 -0.6009  0.3363
  749TIP3    H226443   0.361   6.633   7.337 -0.4737 -0.3695  1.8825
  750TIP3   OH226444   3.359   7.354   7.487 -1.1196 -0.2190  0.3616
  750TIP3    H126445   3.432   7.329   7.430 -1.3368 -2.3563  0.9150
  750TIP3    H226446   3.313   7.423   7.440 -1.2047 -1.7909 -2.0157
  751TIP3   OH226447   4.913   7.579   9.172 -0.3166  0.2036 -0.0156
  751TIP3    H126448   4.868   7.660   9.146  0.1181  0.5268  0.2379
  751TIP3    H226449   4.980   7.567   9.105 -0.9699 -0.4593 -0.5814
  752TIP3   OH226450   2.518   2.820   9.169  0.6611 -0.5741  0.1079
  752TIP3    H126451   2.553   2.909   9.173  0.8981 -0.6442 -0.2937
  752TIP3    H226452   2.467   2.811   9.249  0.5352 -0.0335  0.0961
  753TIP3   OH226453   7.519   1.959   9.188  0.0522  0.2525  0.5767
  753TIP3    H126454   7.501   2.000   9.104 -1.6241 -0.3518  0.6051
  753TIP3    H226455   7.446   1.899   9.202 -0.7023  1.6310  3.2852
  754TIP3   OH226456   3.080   1.229   8.784 -0.0858  0.3687 -0.0126
  754TIP3    H126457   2.984   1.223   8.791 -0.0022  0.3735  1.4097
  754TIP3    H226458   3.096   1.321   8.762 -0.3625  0.6265  0.8524
  755TIP3   OH226459   3.885   1.021   9.130  0.5459  0.1380  0.2939
  755TIP3    H126460   3.816   1.081   9.104 -0.3356 -0.9353  0.0968
  755TIP3    H226461   3.955   1.077   9.164 -0.2010  1.2636 -0.0119
  756TIP3   OH226462   7.017   0.616   8.747  0.1984  0.1705 -0.2854
  756TIP3    H126463   7.012   0.560   8.825  3.1723 -2.1711 -1.5437
  756TIP3    H226464   7.038   0.703   8.781 -4.6675  0.8403  1.7548
  757TIP3   OH226465   1.069   1.677   7.028 -0.2669 -0.3744  0.0467
  757TIP3    H126466   1.115   1.747   6.983  0.6642  0.6262  2.3797
  757TIP3    H226467   1.017   1.721   7.095 -1.5244 -1.7777  0.0441
  758TIP3   OH226468   1.474   3.625   9.443  0.6397  0.3805 -0.5713
  758TIP3    H126469   1.568   3.627   9.458  0.5460  0.2197  0.0663
  758TIP3    H226470   1.441   3.556   9.500  0.2871 -0.4537 -1.7375
  759TIP3   OH226471   6.317   7.364   9.239 -0.0087  0.0525 -0.5653
  759TIP3    H126472   6.343   7.274   9.255 -0.1468  0.2838  1.1085
  759TIP3    H226473   6.398   7.414   9.243 -0.0534  0.1229 -0.5298
  760TIP3   OH226474   4.843   5.097   8.393 -0.0209  0.1511  0.5205
  760TIP3    H126475   4.926   5.145   8.395 -0.1043  0.3587 -0.4253
  760TIP3    H226476   4.793   5.138   8.322 -0.8252 -0.1533  0.8940
  761TIP3   OH226477   1.844   3.855   9.475 -0.0799  0.3599  0.0209
  761TIP3    H126478   1.780   3.926   9.466  1.2064  1.5833  0.2478
  761TIP3    H226479   1.905   3.886   9.542  0.7975 -0.7489 -0.2467
  762TIP3   OH226480   3.705   3.259   8.854  0.6833  0.4305  0.0906
  762TIP3    H126481   3.640   3.253   8.785 -0.6128  1.0587  1.2076
  762TIP3    H226482   3.745   3.345   8.843 -0.1358  0.8979  0.6016
  763TIP3   OH226483   6.745   7.365   8.786 -0.6207  0.3302  0.8459
  763TIP3    H126484   6.651   7.359   8.770 -0.5715  1.3000  0.1260
  763TIP3    H226485   6.763   7.292   8.846 -1.6820 -0.3452  0.3865
  764TIP3   OH226486   6.493   0.330   7.549 -0.1382  0.3817 -0.2043
  764TIP3    H126487   6.436   0.269   7.502  1.3669 -0.7189 -0.6746
  764TIP3    H226488   6.433   0.395   7.586 -1.6373 -0.4396 -1.0917
  765TIP3   OH226489   0.088   7.469   6.885 -0.4227  0.0169 -0.1509
  765TIP3    H126490   0.019   7.505   6.941  0.0415  2.1467 -0.8727
  765TIP3    H226491   0.086   7.375   6.903  0.2044  0.5986  4.0213
  766TIP3   OH226492   1.028   0.040   8.778  0.1656  0.2782 -0.3286
  766TIP3    H126493   1.039  -0.032   8.840 -0.2591 -0.6150 -1.2712
  766TIP3    H226494   0.940   0.028   8.742  0.0898  1.2696 -0.5032
  767TIP3   OH226495   6.688   1.251   7.996  0.3221 -0.2216  0.7962
  767TIP3    H126496   6.725   1.315   8.057  0.5067  0.0669  0.3848
  767TIP3    H226497   6.630   1.302   7.940  1.2622 -0.2217 -0.2104
  768TIP3   OH226498   0.754   0.359   7.778  0.3937 -0.5298 -0.3891
  768TIP3    H126499   0.740   0.369   7.684 -1.3230 -2.6369 -0.4507
  768TIP3    H226500   0.719   0.438   7.817  2.0691  0.8483 -1.5301
  769TIP3   OH226501   4.175   5.452   9.118 -0.0203 -0.2905  0.0767
  769TIP3    H126502   4.170   5.456   9.022  1.9330 -3.4877 -0.2904
  769TIP3    H226503   4.129   5.372   9.141  0.9897 -0.4434  1.6538
  770TIP3   OH226504   0.650   3.466   8.516  0.0773 -0.5372 -0.4005
  770TIP3    H126505   0.661   3.491   8.425 -1.4698 -0.7811 -0.6831
  770TIP3    H226506   0.581   3.523   8.549  0.2340 -0.8217  0.4640
  771TIP3   OH226507   2.491   0.133   7.528 -0.0519  0.5619 -0.3410
  771TIP3    H126508   2.465   0.042   7.532 -0.6192  0.7216 -0.3896
  771TIP3    H226509   2.566   0.139   7.587 -0.6312  0.2718  0.4332
  772TIP3   OH226510   2.644   4.424   7.547 -0.2461 -0.2456  0.1305
  772TIP3    H126511   2.691   4.391   7.470  0.3096  0.3133  0.2247
  772TIP3    H226512   2.640   4.519   7.534  1.3181  0.0681  1.5773
  773TIP3   OH226513   4.574   1.679   8.127  0.2833 -0.0983  0.1867
  773TIP3    H126514   4.594   1.757   8.076  0.7863  0.8132  1.7114
  773TIP3    H226515   4.500   1.639   8.082  0.5988  0.7474 -1.1445
  774TIP3   OH226516   4.830   4.934   7.720 -0.1844 -0.6556 -0.2379
  774TIP3    H126517   4.826   4.968   7.809 -3.5452 -0.6259 -0.2533
  774TIP3    H226518   4.889   4.860   7.724  1.3461  0.5909  1.5087
  775TIP3   OH226519   1.380   7.098   8.862 -0.8096  0.0572  0.6892
  775TIP3    H126520   1.382   7.193   8.848 -1.0032 -0.1672 -1.1442
  775TIP3    H226521   1.455   7.081   8.919 -0.0403  1.1939  0.0689
  776TIP3   OH226522   0.416   6.798   7.876  0.2173 -0.0456 -0.2107
  776TIP3    H126523   0.455   6.881   7.905  1.4857 -1.0755  1.2023
  776TIP3    H226524   0.341   6.785   7.933 -0.7358  0.7034 -1.2573
  777TIP3   OH226525   0.303   5.010   7.511 -0.0971 -0.3496  0.3453
  777TIP3    H126526   0.322   4.995   7.603 -0.4183  1.0797  0.6582
  777TIP3    H226527   0.223   4.960   7.495 -1.7757  1.7433  1.6543
  778TIP3   OH226528   0.944   2.014   7.107  0.0681  0.2608  0.4477
  778TIP3    H126529   0.959   2.090   7.163  0.4386 -0.0381  0.7666
  778TIP3    H226530   0.956   2.046   7.018  0.9014  0.4314  0.6089
  779TIP3   OH226531   6.637   5.032   8.391  0.2589 -0.2714 -0.3869
  779TIP3    H126532   6.675   5.119   8.400 -1.6860  0.6003 -0.1115
  779TIP3    H226533   6.654   4.989   8.474 -0.0045  0.3610 -0.0047
  780TIP3   OH226534   2.440   6.442   7.528  0.2725  0.2120  0.0820
  780TIP3    H126535   2.495   6.464   7.454 -0.2797  1.2832 -0.0378
  780TIP3    H226536   2.459   6.350   7.547  2.5440  0.7098  0.4471
  781TIP3   OH226537   6.892   3.403   8.283  0.2598  0.4904 -0.6072
  781TIP3    H126538   6.830   3.331   8.288  0.4321  0.3324 -0.7154
  781TIP3    H226539   6.872   3.446   8.199  0.9813 -0.1975 -1.1469
  782TIP3   OH226540   5.745   5.757   8.741 -0.0141  0.4880  0.2300
  782TIP3    H126541   5.784   5.822   8.682  1.1108 -0.2037  0.1786
  782TIP3    H226542   5.817   5.730   8.797 -0.3365 -1.0376 -0.0514
  783TIP3   OH226543   0.024   6.413   8.807 -0.2875 -0.1698  0.2530
  783TIP3    H126544   0.012   6.405   8.901  1.0934  0.4805  0.5057
  783TIP3    H226545   0.045   6.324   8.778  1.9438  0.0366  1.0164
  784TIP3   OH226546   0.694   1.384   9.758 -0.2693 -0.1436 -0.2438
  784TIP3    H126547   0.738   1.468   9.770 -1.3212  0.3423  0.3283
  784TIP3    H226548   0.765   1.322   9.740  0.4785  0.9760 -1.3809
  785TIP3   OH226549   3.187   0.398   7.874  0.2562  0.2333  0.7576
  785TIP3    H126550   3.218   0.384   7.785  0.5255  1.4987  0.6400
  785TIP3    H226551   3.174   0.493   7.881 -2.0771 -0.0667  1.3003
  786TIP3   OH226552   6.936   5.881   8.512 -0.2999 -0.2720 -0.2294
  786TIP3    H126553   6.940   5.973   8.489  1.7327  0.7721  3.5149
  786TIP3    H226554   7.007   5.840   8.463 -1.8883 -0.2206 -2.7576
  787TIP3   OH226555   0.569   0.370   9.174  0.1897  0.8674  0.0830
  787TIP3    H126556   0.565   0.279   9.204 -0.0304  0.4295 -1.1954
  787TIP3    H226557   0.537   0.422   9.248  1.3685  0.0163  1.2351
  788TIP3   OH226558   5.493   6.266   7.284  0.4666  0.4883 -0.2973
  788TIP3    H126559   5.467   6.187   7.237  2.4532 -0.1854 -0.3749
  788TIP3    H226560   5.462   6.253   7.373  1.3484 -0.7288 -0.1417
  789TIP3   OH226561   1.112   4.353   7.717  0.2175 -0.1844 -0.1015
  789TIP3    H126562   1.028   4.346   7.762  0.9265 -3.2782  1.0024
  789TIP3    H226563   1.090   4.345   7.624 -0.7567 -0.3221  0.1298
  790TIP3   OH226564   4.868   4.670   7.600  0.5216  0.2724 -0.2187
  790TIP3    H126565   4.773   4.672   7.596  0.4220 -0.9405  0.9951
  790TIP3    H226566   4.896   4.699   7.513 -0.9438  0.2189 -0.7401
  791TIP3   OH226567   2.496   1.522   8.554  0.9004 -0.6152 -0.3204
  791TIP3    H126568   2.548   1.601   8.563 -0.5517  0.2925  0.7420
  791TIP3    H226569   2.427   1.546   8.492  0.4873 -1.0626 -0.0390
  792TIP3   OH226570   7.643   3.519   9.042 -0.2096 -0.0550  0.1692
  792TIP3    H126571   7.738   3.515   9.053  0.0521 -0.0346 -1.6678
  792TIP3    H226572   7.620   3.435   9.002 -1.5903 -1.7248  4.0450
  793TIP3   OH226573   6.285   3.003   7.464  0.0184 -0.4172  0.5258
  793TIP3    H126574   6.253   3.088   7.434 -0.1746  0.0920  2.0931
  793TIP3    H226575   6.324   2.964   7.386 -1.6655  0.2368 -0.7098
  794TIP3   OH226576   4.562   2.066   9.125  0.1484 -0.0132  0.5353
  794TIP3    H126577   4.540   1.973   9.134 -0.7645  0.2030  0.6259
  794TIP3    H226578   4.490   2.112   9.167  1.7450  0.7008  2.6725
  795TIP3   OH226579   0.473   3.871   9.022 -0.3445  0.1503 -0.8085
  795TIP3    H126580   0.465   3.905   8.933  0.8597  1.9893 -0.2788
  795TIP3    H226581   0.492   3.949   9.076 -0.2722 -1.0161  0.9365
  796TIP3   OH226582   5.706   3.291   7.855 -0.1129  0.0824 -0.3062
  796TIP3    H126583   5.737   3.201   7.854 -1.5393 -0.4856  1.2582
  796TIP3    H226584   5.612   3.284   7.872 -0.3568  1.8523 -0.6704
  797TIP3   OH226585   3.697   3.727   8.921 -0.1153 -0.0225 -0.4038
  797TIP3    H126586   3.634   3.785   8.877 -0.8455  1.2465  2.1408
  797TIP3    H226587   3.643   3.657   8.957  0.0224  0.4889  0.8557
  798TIP3   OH226588   3.999   5.450   7.317 -0.5290 -1.0143 -0.2025
  798TIP3    H126589   3.959   5.422   7.399 -0.7725 -3.1885 -1.0016
  798TIP3    H226590   3.944   5.411   7.249  0.2777 -0.1412 -1.4096
  799TIP3   OH226591   7.665   5.939   9.477 -0.2107  0.0339 -0.6344
  799TIP3    H126592   7.676   6.027   9.515 -1.1211 -0.0789 -0.0920
  799TIP3    H226593   7.664   5.954   9.383  2.0586  0.3218 -0.6694
  800TIP3   OH226594   7.387   1.151   8.710  0.1633  0.6814  0.1640
  800TIP3    H126595   7.470   1.195   8.729 -0.0809  1.4009 -0.4070
  800TIP3    H226596   7.327   1.222   8.685 -0.0555 -0.0317 -1.4168
  801TIP3   OH226597   5.593   1.532   6.999  0.1934 -0.7093  0.1528
  801TIP3    H126598   5.626   1.479   7.072 -0.4632 -2.3909 -0.6953
  801TIP3    H226599   5.541   1.470   6.947  0.1051  0.5909 -1.3849
  802TIP3   OH226600   5.294   5.212   8.833 -0.7489  0.5686 -0.2911
  802TIP3    H126601   5.357   5.206   8.905  0.0412 -0.7115 -1.0501
  802TIP3    H226602   5.324   5.286   8.780  0.4878 -0.3709 -0.9533
  803TIP3   OH226603   3.326   7.669   9.399  0.1640 -0.2156 -0.0826
  803TIP3    H126604   3.393   7.724   9.439 -0.1063 -1.1785  1.8429
  803TIP3    H226605   3.297   7.718   9.322  0.9236  1.6511  0.7497
  804TIP3   OH226606   5.257   2.466   7.161 -0.5763  0.5497 -0.3764
  804TIP3    H126607   5.184   2.449   7.101 -0.4597  0.3500 -0.4652
  804TIP3    H226608   5.295   2.548   7.131 -0.8049  0.6877 -0.2899
  805TIP3   OH226609   4.382   6.889   7.204 -0.1627  0.6635 -0.0734
  805TIP3    H126610   4.395   6.877   7.110 -2.4769 -0.2116 -0.3295
  805TIP3    H226611   4.287   6.894   7.215  0.0642  0.9776  2.2059
  806TIP3   OH226612   6.195   0.784   8.253  0.3429 -0.1011 -0.1087
  806TIP3    H126613   6.233   0.696   8.259 -0.8341 -0.6131  0.2311
  806TIP3    H226614   6.110   0.770   8.212 -0.8394  0.5478  1.9637
  807TIP3   OH226615   2.287   2.358   8.382 -0.2206 -0.6287 -0.1171
  807TIP3    H126616   2.232   2.308   8.442 -1.3535 -0.8237 -1.3020
  807TIP3    H226617   2.309   2.297   8.312  0.6125 -0.2276 -0.2251
  808TIP3   OH226618   2.830   7.184   8.782  0.1008 -0.2743  1.0024
  808TIP3    H126619   2.826   7.229   8.698 -0.8610  0.3198  1.3551
  808TIP3    H226620   2.787   7.244   8.843 -2.2795 -2.1223  1.2873
  809TIP3   OH226621   3.077   1.356   9.692  0.0794 -0.1993 -0.0144
  809TIP3    H126622   3.027   1.402   9.759 -0.2155  0.0908 -0.4276
  809TIP3    H226623   3.010   1.325   9.630  0.3600 -0.3321 -0.2521
  810TIP3   OH226624   5.315   0.941   9.557 -0.0480 -0.5981 -0.2374
  810TIP3    H126625   5.398   0.923   9.601 -0.6279 -1.1767  0.6572
  810TIP3    H226626   5.328   0.910   9.468  1.4575  1.4132 -0.7875
  811TIP3   OH226627   4.330   1.516   9.335  0.0329  0.4685  0.3580
  811TIP3    H126628   4.344   1.507   9.241  0.5672  1.8763  0.2855
  811TIP3    H226629   4.299   1.606   9.346 -0.8979  0.0452  1.4434
  812TIP3   OH226630   6.490   4.254   6.597  0.5266 -0.0663 -0.8279
  812TIP3    H126631   6.429   4.187   6.626  1.2985 -0.5837 -0.3389
  812TIP3    H226632   6.444   4.302   6.529 -1.2869  1.0350  1.0652
  813TIP3   OH226633   0.161   1.410   8.885 -1.0219  0.5862 -0.0211
  813TIP3    H126634   0.177   1.450   8.971 -2.4402 -1.7095  1.4279
  813TIP3    H226635   0.067   1.419   8.872 -0.7219  1.6038 -1.7696
  814TIP3   OH226636   0.360   5.692   7.277 -0.0401 -0.5735  0.0391
  814TIP3    H126637   0.336   5.601   7.256 -1.6014 -0.2370  0.2651
  814TIP3    H226638   0.369   5.734   7.191 -1.9617 -0.3128 -0.0772
  815TIP3   OH226639   3.964   2.861   9.145 -0.3722 -0.3075 -0.5368
  815TIP3    H126640   3.937   2.950   9.121  0.5461 -0.2242 -1.3016
  815TIP3    H226641   3.995   2.822   9.063 -1.5745 -1.6430 -0.3883
  816TIP3   OH226642   0.977   5.073   7.479 -0.1469 -0.2430 -0.0184
  816TIP3    H126643   0.984   5.097   7.387 -1.1991 -0.6062 -0.2017
  816TIP3    H226644   1.015   4.985   7.483 -1.4761 -0.8519 -0.3965
  817TIP3   OH226645   4.141   6.646   7.139 -0.0713 -0.2466  0.1377
  817TIP3    H126646   4.183   6.640   7.053 -1.1432  0.2956 -0.4430
  817TIP3    H226647   4.159   6.561   7.180  3.3177  0.6554  0.7792
  818TIP3   OH226648   3.905   7.657   8.825  0.1266  0.0498  0.4382
  818TIP3    H126649   3.881   7.697   8.908 -1.0144  1.6005 -0.5715
  818TIP3    H226650   3.838   7.592   8.808 -0.1693  0.3925  0.2917
  819TIP3   OH226651   4.522   1.917   9.507 -0.6728 -0.0869 -0.4660
  819TIP3    H126652   4.579   1.859   9.456  0.4271  0.8830 -0.3612
  819TIP3    H226653   4.502   1.866   9.585 -1.6535 -1.2424 -1.4169
  820TIP3   OH226654   3.703   7.365   7.578  0.2158  0.2976  0.0310
  820TIP3    H126655   3.675   7.331   7.494  1.7511 -0.2361 -0.2995
  820TIP3    H226656   3.649   7.442   7.592 -2.5938 -1.5908  0.2845
  821TIP3   OH226657   5.303   7.155   9.480  0.1934  0.1953  0.2507
  821TIP3    H126658   5.367   7.086   9.460  0.7904  0.6218  0.6631
  821TIP3    H226659   5.330   7.188   9.566  0.3569  1.4450 -0.2686
  822TIP3   OH226660   3.717   7.197   8.729 -0.3564 -0.4041  0.4015
  822TIP3    H126661   3.697   7.262   8.796 -0.1281 -0.7377  0.7958
  822TIP3    H226662   3.696   7.113   8.770  0.2371 -0.6438  0.2276
  823TIP3   OH226663   1.464   6.828   9.662  0.5109  0.3132  0.0541
  823TIP3    H126664   1.479   6.913   9.703 -1.6493  0.8365 -0.1277
  823TIP3    H226665   1.472   6.845   9.568  0.2666  0.2672  0.0252
  824TIP3   OH226666   1.947   6.413   6.993 -0.0205 -0.0800  0.0621
  824TIP3    H126667   1.971   6.498   7.029  0.5858 -0.0117 -0.4691
  824TIP3    H226668   1.880   6.379   7.051  1.5458 -0.3706  1.7916
  825TIP3   OH226669   4.903   2.212   8.283  0.9019 -0.1925 -0.5004
  825TIP3    H126670   4.998   2.209   8.294  1.1277 -1.5071 -2.2947
  825TIP3    H226671   4.889   2.186   8.192 -1.1900 -0.2350 -0.2106
  826TIP3   OH226672   1.380   7.563   9.555  0.3331  0.3053  0.5059
  826TIP3    H126673   1.357   7.570   9.462  0.1616 -0.7677  0.4559
  826TIP3    H226674   1.459   7.616   9.563  1.4503 -1.0891 -0.6757
  827TIP3   OH226675   6.603   2.901   9.483 -0.3842  0.2457  0.4913
  827TIP3    H126676   6.524   2.898   9.430  0.0070  0.0163 -0.0868
  827TIP3    H226677   6.603   2.819   9.531  0.4333 -0.5924 -0.8853
  828TIP3   OH226678   6.711   5.559   9.427 -0.8542  0.2795  0.2298
  828TIP3    H126679   6.801   5.559   9.393 -1.0724  1.1690 -0.4069
  828TIP3    H226680   6.664   5.498   9.370 -0.3228 -1.4943  1.6029
  829TIP3   OH226681   4.788   4.818   7.198 -0.1027 -0.6005  0.3271
  829TIP3    H126682   4.777   4.881   7.269  2.0183 -1.4414  1.4843
  829TIP3    H226683   4.795   4.872   7.119 -0.5763  0.4662  0.9903
  830TIP3   OH226684   6.805   0.636   7.186  0.4611  0.3397 -0.4103
  830TIP3    H126685   6.730   0.656   7.242  1.2205  0.7411  0.4782
  830TIP3    H226686   6.778   0.558   7.137 -0.9807  1.1712 -0.9723
  831TIP3   OH226687   4.108   0.260   7.128  0.4320 -0.2440  0.4650
  831TIP3    H126688   4.039   0.195   7.135 -0.0647  0.1095 -0.8718
  831TIP3    H226689   4.189   0.211   7.141 -0.0327 -0.7278  1.6547
  832TIP3   OH226690   4.670   5.820   7.110 -0.8511  0.0959  0.5732
  832TIP3    H126691   4.750   5.844   7.063 -0.4317  1.0355  1.7119
  832TIP3    H226692   4.623   5.763   7.050  0.7751 -0.6629 -0.0481
  833TIP3   OH226693   3.135   0.475   9.240  0.0230  0.0186 -0.4164
  833TIP3    H126694   3.114   0.388   9.275  1.4047  0.2331  1.0416
  833TIP3    H226695   3.109   0.536   9.309  0.6704  0.6242 -0.6973
  834TIP3   OH226696   0.039   6.228   9.017  0.6031 -0.2762  0.3876
  834TIP3    H126697   0.089   6.216   9.098  1.6047  1.6308  0.0970
  834TIP3    H226698  -0.052   6.214   9.043  0.9978 -0.7414  1.5975
  835TIP3   OH226699   7.140   1.986   8.097  0.7841 -0.3328 -0.1708
  835TIP3    H126700   7.184   2.054   8.047 -0.2892 -1.0498 -2.1852
  835TIP3    H226701   7.133   1.912   8.037 -0.7251 -1.1747  0.9628
  836TIP3   OH226702   2.752   2.868   7.289  0.4116 -0.0043  0.2395
  836TIP3    H126703   2.764   2.896   7.199  0.0819  0.4546  0.3313
  836TIP3    H226704   2.760   2.773   7.287 -3.1765 -0.4490 -0.9189
  837TIP3   OH226705   4.996   1.150   9.151  0.2429 -0.2327 -0.2600
  837TIP3    H126706   4.902   1.136   9.161  0.0421  0.7772 -0.6427
  837TIP3    H226707   5.018   1.106   9.069 -0.0732  0.2987 -0.6341
  838TIP3   OH226708   2.170   2.512   9.210  0.2170  0.1681  0.4367
  838TIP3    H126709   2.113   2.588   9.225 -1.8459 -0.2330 -3.8735
  838TIP3    H226710   2.120   2.437   9.242  0.3182  0.1957  0.6658
  839TIP3   OH226711   6.542   4.791   7.187 -0.6193  0.4565  0.6637
  839TIP3    H126712   6.566   4.708   7.147  0.2102  0.1224  1.7754
  839TIP3    H226713   6.447   4.793   7.183 -0.8075 -1.5079  2.3655
  840TIP3   OH226714   2.644   6.850   8.191  0.3899 -0.1191  0.0319
  840TIP3    H126715   2.707   6.824   8.123  0.0998 -2.7243  0.6527
  840TIP3    H226716   2.685   6.823   8.273 -0.0111  1.4433  0.7775
  841TIP3   OH226717   0.592   5.093   7.913  0.3858  0.1831 -0.1119
  841TIP3    H126718   0.640   5.027   7.863  0.9263  0.9991 -0.7195
  841TIP3    H226719   0.582   5.166   7.851 -1.0035  0.3131  0.2489
  842TIP3   OH226720   3.355   3.234   7.584 -0.2902  0.1743  1.1615
  842TIP3    H126721   3.338   3.213   7.492  0.0736  0.4346  1.0348
  842TIP3    H226722   3.412   3.311   7.582 -0.7994  0.5707  1.6155
  843TIP3   OH226723   2.878   1.368   9.488 -0.0255 -0.1531 -1.3674
  843TIP3    H126724   2.865   1.279   9.457 -1.6076 -0.5086  0.1507
  843TIP3    H226725   2.789   1.405   9.493 -0.1034 -0.3362  3.0944
  844TIP3   OH226726   3.817   4.700   8.952 -0.1005 -0.1503 -0.8643
  844TIP3    H126727   3.789   4.609   8.961 -1.3040  0.3083  0.3775
  844TIP3    H226728   3.743   4.744   8.911 -0.4217  0.6733  0.5300
  845TIP3   OH226729   0.647   1.220   7.282  0.2723 -0.4654  0.5852
  845TIP3    H126730   0.688   1.298   7.318  1.7494 -0.7239 -0.4488
  845TIP3    H226731   0.577   1.198   7.345  0.0431  1.4621  1.0555
  846TIP3   OH226732   2.657   3.385   7.671  0.2159 -0.3121  0.2509
  846TIP3    H126733   2.638   3.339   7.589 -0.1527 -0.5211  0.4534
  846TIP3    H226734   2.641   3.477   7.652  0.4529 -0.3224 -0.0065
  847TIP3   OH226735   2.819   1.189   8.839  0.3611  0.2287 -0.7643
  847TIP3    H126736   2.733   1.180   8.797 -0.1880  2.5963 -0.3300
  847TIP3    H226737   2.833   1.106   8.884 -1.4864 -0.3983 -1.2649
  848TIP3   OH226738   4.824   5.638   8.771  0.3320 -0.0975 -0.4164
  848TIP3    H126739   4.746   5.584   8.780  1.5628 -1.8121  0.7885
  848TIP3    H226740   4.819   5.675   8.683 -1.6184 -0.4598 -0.4923
  849TIP3   OH226741   0.134   4.758   9.146 -0.4596 -0.4304 -0.5213
  849TIP3    H126742   0.209   4.699   9.135  0.3470  0.4915 -0.1363
  849TIP3    H226743   0.116   4.792   9.059  0.1687  0.0480 -0.4669
  850TIP3   OH226744   0.016   7.610   8.529 -0.2350 -0.7081  0.1115
  850TIP3    H126745   0.071   7.675   8.573 -0.1103 -0.3640 -0.5400
  850TIP3    H226746  -0.053   7.662   8.487 -1.8161 -1.2087  1.9237
  851TIP3   OH226747   3.761   4.145   8.595 -0.7289  0.6092  0.6824
  851TIP3    H126748   3.845   4.182   8.620  0.5868 -1.5380 -0.3013
  851TIP3    H226749   3.780   4.053   8.577 -3.0041  0.4032 -1.0474
  852TIP3   OH226750   6.719   1.785   8.126 -0.5787 -0.0458 -0.5163
  852TIP3    H126751   6.758   1.819   8.046 -1.4586 -1.0639 -1.4111
  852TIP3    H226752   6.733   1.690   8.122  1.8630  0.0939  1.9357
  853TIP3   OH226753   5.915   6.012   8.116 -0.2522  0.0810 -0.1109
  853TIP3    H126754   5.831   6.049   8.143  0.3105  0.9454  0.5213
  853TIP3    H226755   5.901   5.917   8.117 -1.3150  0.2299 -0.3655
  854TIP3   OH226756   0.052   2.704   7.050 -0.3051  0.0884  0.0324
  854TIP3    H126757   0.081   2.787   7.087  0.0848  0.7115 -1.6046
  854TIP3    H226758  -0.038   2.693   7.081 -0.4333  1.2338  0.0859
  855TIP3   OH226759   3.197   7.215   8.111  0.0758 -0.2777  0.2494
  855TIP3    H126760   3.268   7.176   8.162  0.3612 -2.8775 -1.9337
  855TIP3    H226761   3.222   7.307   8.101  2.9616 -1.0388 -0.1400
  856TIP3   OH226762   4.384   0.967   7.860 -0.1167 -0.1691 -0.3706
  856TIP3    H126763   4.443   1.026   7.906  0.7557  0.6231 -2.3554
  856TIP3    H226764   4.300   1.012   7.861 -0.3328 -0.5714  1.1359
  857TIP3   OH226765   5.924   5.334   8.713  0.3724  0.2500 -0.2740
  857TIP3    H126766   5.843   5.359   8.669 -0.2558 -0.9380  0.1542
  857TIP3    H226767   5.963   5.417   8.741 -0.5373  0.8579 -0.7453
  858TIP3   OH226768   2.284   3.409   7.245  0.5952  0.1156  0.1015
  858TIP3    H126769   2.337   3.475   7.289  0.0880 -0.2422  1.2700
  858TIP3    H226770   2.346   3.341   7.220  0.7410 -0.1790  1.2275
  859TIP3   OH226771   0.771   7.032   9.206 -0.1477 -0.1349 -0.5773
  859TIP3    H126772   0.786   7.025   9.300 -0.9993 -4.0519 -0.5593
  859TIP3    H226773   0.856   7.058   9.170  1.2771 -2.1839  1.0580
  860TIP3   OH226774   1.059   4.171   8.202 -0.0914 -0.6155  0.1853
  860TIP3    H126775   1.089   4.244   8.256 -0.4185  0.7427 -1.3584
  860TIP3    H226776   1.099   4.094   8.241  1.3316  0.5323  1.1194
  861TIP3   OH226777   2.103   3.601   7.629  0.4135 -0.1807  0.0768
  861TIP3    H126778   2.176   3.540   7.633  1.1861  0.7827  1.1758
  861TIP3    H226779   2.089   3.628   7.720 -0.3595  0.7621 -0.3041
  862TIP3   OH226780   2.455   3.153   9.298  0.0974 -1.0334 -0.7121
  862TIP3    H126781   2.464   3.247   9.282  1.1799 -0.8735  0.7159
  862TIP3    H226782   2.529   3.113   9.251  1.4944 -0.8448  1.2406
  863TIP3   OH226783   5.727   1.343   7.704  0.3705  0.1347 -0.0623
  863TIP3    H126784   5.686   1.404   7.764  0.2940 -1.1073  1.1963
  863TIP3    H226785   5.799   1.392   7.664 -0.8747  1.6121 -0.5471
  864TIP3   OH226786   1.916   4.229   7.424 -0.8205 -0.4209  0.0021
  864TIP3    H126787   1.931   4.292   7.494 -0.1101 -0.1737 -0.3641
  864TIP3    H226788   1.955   4.269   7.347  0.9672 -1.9135  0.0607
  865TIP3   OH226789   4.393   1.148   8.835  0.2165  0.4824 -0.4828
  865TIP3    H126790   4.355   1.153   8.923 -1.9980 -0.6338 -1.2772
  865TIP3    H226791   4.466   1.087   8.843 -0.2716  0.0043  0.5160
  866TIP3   OH226792   5.964   5.916   8.906 -0.0586  0.4476 -0.3684
  866TIP3    H126793   5.882   5.963   8.893  1.5952  4.0594  1.1054
  866TIP3    H226794   6.019   5.943   8.832  1.2412  1.7432  1.0034
  867TIP3   OH226795   6.960   4.822   7.734  0.1988  0.2836 -0.2686
  867TIP3    H126796   6.940   4.915   7.722  1.2749  0.5189 -0.3533
  867TIP3    H226797   6.922   4.800   7.819 -2.4823  0.0659 -1.4434
  868TIP3   OH226798   3.842   5.742   8.917 -0.4047  0.4440 -0.5792
  868TIP3    H126799   3.870   5.815   8.972  0.4449  0.7967 -1.4509
  868TIP3    H226800   3.859   5.771   8.827  2.3065 -1.7138 -0.8997
  869TIP3   OH226801   4.309   7.644   9.084  0.5201 -0.4178 -0.6162
  869TIP3    H126802   4.267   7.710   9.139  0.1964 -0.2659 -1.0363
  869TIP3    H226803   4.317   7.686   8.998 -2.4953 -1.9260 -1.7841
  870TIP3   OH226804   6.790   4.756   9.416 -0.1373 -0.0182 -0.1934
  870TIP3    H126805   6.871   4.707   9.426  0.3961  0.6091 -1.3077
  870TIP3    H226806   6.814   4.846   9.440 -1.1962 -0.2835  2.2448
  871TIP3   OH226807   1.126   4.881   7.731 -0.2777  0.4434 -0.0261
  871TIP3    H126808   1.213   4.884   7.771  1.3034  1.1721 -3.1610
  871TIP3    H226809   1.101   4.788   7.736 -0.5017  0.5626  2.9834
  872TIP3   OH226810   3.517   1.029   9.136  0.0127  0.2091  0.2302
  872TIP3    H126811   3.450   1.072   9.190  0.2931  0.3339  0.4798
  872TIP3    H226812   3.571   1.101   9.103 -0.5528  0.1983 -0.7734
  873TIP3   OH226813   3.008   1.440   7.014  0.7260  0.1348  0.2232
  873TIP3    H126814   3.095   1.401   7.016  0.9708  0.6820  1.1500
  873TIP3    H226815   2.966   1.403   6.937  0.9875 -1.8531  0.9770
  874TIP3   OH226816   2.629   3.784   8.330 -0.3327 -0.1598 -0.3882
  874TIP3    H126817   2.563   3.797   8.398  0.1572  0.8271 -0.0810
  874TIP3    H226818   2.657   3.872   8.306  0.6332 -0.5458 -0.7536
  875TIP3   OH226819   7.509   1.782   8.902  0.0825 -0.5861 -0.7247
  875TIP3    H126820   7.426   1.829   8.906  0.2996 -0.2814  0.8588
  875TIP3    H226821   7.531   1.779   8.809 -0.7687  0.9767 -0.9958
  876TIP3   OH226822   1.859   7.107   9.057 -0.2791  0.0210  0.3572
  876TIP3    H126823   1.935   7.080   9.006 -0.3964  2.0487 -0.9705
  876TIP3    H226824   1.877   7.073   9.145  3.0246  1.8578  0.5420
  877TIP3   OH226825   3.847   3.298   8.070  0.5310 -0.5989 -0.5378
  877TIP3    H126826   3.835   3.338   7.984 -0.1069  2.7337  0.9596
  877TIP3    H226827   3.799   3.355   8.130  3.3201 -1.1022  2.4300
  878TIP3   OH226828   4.125   6.347   6.796  0.3716  0.4412  0.0137
  878TIP3    H126829   4.187   6.302   6.739 -1.5715  0.2681 -2.1083
  878TIP3    H226830   4.065   6.278   6.825 -0.0738  0.9394  0.2911
  879TIP3   OH226831   0.055   3.848   9.253 -0.3186  0.4265 -0.2098
  879TIP3    H126832   0.039   3.756   9.273  2.8062  0.0333  1.0381
  879TIP3    H226833   0.149   3.855   9.241 -0.5940  3.2463 -1.7713
  880TIP3   OH226834   2.066   2.548   8.493 -0.3742  0.2640 -0.0628
  880TIP3    H126835   2.128   2.530   8.423 -0.6131 -0.0574 -0.1954
  880TIP3    H226836   2.092   2.489   8.564  0.9287  1.7664  0.7822
  881TIP3   OH226837   1.657   5.945   9.013 -0.4065 -0.2212  0.2391
  881TIP3    H126838   1.737   5.893   9.003 -0.3936  0.0696 -1.5491
  881TIP3    H226839   1.590   5.893   8.970 -1.2842 -0.5863  1.9573
  882TIP3   OH226840   5.971   4.609   8.305 -0.6963  0.0943  0.2911
  882TIP3    H126841   5.998   4.519   8.287 -0.1070  0.5716 -1.3666
  882TIP3    H226842   5.974   4.617   8.401  2.2682 -0.7455  0.3425
  883TIP3   OH226843   5.895   6.827   7.878 -0.1596  0.2936  0.3773
  883TIP3    H126844   5.940   6.819   7.793  0.5736  0.9261  0.7020
  883TIP3    H226845   5.944   6.893   7.926  0.0076 -0.7347  1.6779
  884TIP3   OH226846   7.015   6.907   9.094 -0.2169 -0.3395 -0.6848
  884TIP3    H126847   6.939   6.963   9.110  1.3556  1.6518  0.3274
  884TIP3    H226848   7.045   6.932   9.007  0.6744  0.6996 -0.1048
  885TIP3   OH226849   6.143   4.960   9.574 -0.6834  0.5686 -0.0340
  885TIP3    H126850   6.199   4.902   9.521 -2.3082 -0.5405 -0.6262
  885TIP3    H226851   6.204   5.019   9.618  0.9063 -0.2432 -1.0524
  886TIP3   OH226852   5.415   3.377   7.484 -0.0538 -0.2524 -0.3390
  886TIP3    H126853   5.341   3.390   7.424 -2.1220 -1.8445  1.7194
  886TIP3    H226854   5.452   3.293   7.458  0.5893  0.1908 -0.8854
  887TIP3   OH226855   7.558   5.580   9.051 -0.5209  0.0999 -0.0493
  887TIP3    H126856   7.476   5.588   9.002  0.3858 -1.4948 -1.9917
  887TIP3    H226857   7.606   5.660   9.030 -1.4246  0.9015  0.8561
  888TIP3   OH226858   3.238   4.008   8.184  0.3744  0.6961 -0.3267
  888TIP3    H126859   3.290   3.980   8.109  0.1092 -0.8623  0.0144
  888TIP3    H226860   3.235   3.930   8.240  0.0680  1.6484  1.0101
  889TIP3   OH226861   6.637   0.083   7.271  0.3343 -0.4692 -0.0864
  889TIP3    H126862   6.726   0.093   7.237 -0.6693 -0.1709 -2.8349
  889TIP3    H226863   6.610  -0.004   7.242 -0.3627 -0.4884  0.5827
  890TIP3   OH226864   1.406   1.436   7.123 -0.2706 -0.0844 -0.1538
  890TIP3    H126865   1.438   1.525   7.133  0.6743 -0.4567  0.2392
  890TIP3    H226866   1.485   1.384   7.106 -0.8968 -0.7150 -1.2645
  891TIP3   OH226867   0.528   2.972   9.737  0.3901 -0.2276  0.4612
  891TIP3    H126868   0.585   2.898   9.758  1.3435  0.4476  0.3173
  891TIP3    H226869   0.589   3.043   9.714 -0.4917  0.6881  0.8960
  892TIP3   OH226870   6.348   6.524   8.867  0.1247  1.0168 -0.0527
  892TIP3    H126871   6.281   6.509   8.801 -0.3979  0.5899  0.5523
  892TIP3    H226872   6.316   6.600   8.916 -1.1206 -0.5094  1.6620
  893TIP3   OH226873   0.011   5.402   7.506 -0.0880  0.8355  0.1470
  893TIP3    H126874  -0.054   5.371   7.570 -0.2006  1.0802  0.1516
  893TIP3    H226875   0.059   5.471   7.551  0.6434  0.1876  0.3828
  894TIP3   OH226876   1.824   1.140   6.940 -0.4670 -0.2766 -0.3771
  894TIP3    H126877   1.859   1.052   6.957 -2.3337 -0.9921  0.0139
  894TIP3    H226878   1.821   1.182   7.026 -1.3240 -0.5230 -0.2833
  895TIP3   OH226879   2.980   6.282   9.227  0.0955  0.8367 -0.5648
  895TIP3    H126880   2.961   6.323   9.312 -2.1115  0.6028 -0.8882
  895TIP3    H226881   3.025   6.201   9.249  1.1139  1.5970  0.2709
  896TIP3   OH226882   1.772   6.092   7.989  0.0937  0.2156  0.1925
  896TIP3    H126883   1.799   6.158   7.925  0.6559  0.7027  0.9194
  896TIP3    H226884   1.801   6.127   8.073  0.4195 -0.9656  0.5876
  897TIP3   OH226885   7.461   0.611   7.382 -0.1849  0.5080  0.4984
  897TIP3    H126886   7.391   0.564   7.336  0.2287  0.9681 -0.6202
  897TIP3    H226887   7.522   0.637   7.313  0.1904  1.6669  1.2452
  898TIP3   OH226888   6.925   3.982   9.072 -0.3877 -0.3333  0.2051
  898TIP3    H126889   6.932   3.899   9.025  0.2946 -0.0611 -0.1854
  898TIP3    H226890   6.847   3.972   9.128 -0.8520 -0.8904 -0.5269
  899TIP3   OH226891   3.094   0.345   6.948  0.1083 -0.4106 -0.0204
  899TIP3    H126892   3.180   0.307   6.967 -0.3940 -0.7127  1.9191
  899TIP3    H226893   3.111   0.438   6.935  0.6219 -0.2407  1.6290
  900TIP3   OH226894   1.204   3.405   8.780  0.3696 -0.5371  0.2605
  900TIP3    H126895   1.191   3.376   8.689 -2.5940 -0.1898  0.4653
  900TIP3    H226896   1.190   3.327   8.833  1.3799 -0.5856  0.4688
  901TIP3   OH226897   0.600   6.457   8.241  0.2587 -0.1371 -0.0512
  901TIP3    H126898   0.676   6.400   8.242 -0.2291 -0.8008  0.1117
  901TIP3    H226899   0.612   6.512   8.164 -0.3544 -2.0113 -1.5796
  902TIP3   OH226900   4.373   3.203   7.933 -0.6155 -0.6473  0.0698
  902TIP3    H126901   4.435   3.269   7.900  0.2535 -1.7807 -0.6219
  902TIP3    H226902   4.304   3.200   7.866  0.1034 -1.4799 -0.6572
  903TIP3   OH226903   0.200   0.631   9.269 -0.6533  0.0371  0.3103
  903TIP3    H126904   0.137   0.606   9.336 -1.6246 -1.3131 -1.0180
  903TIP3    H226905   0.285   0.624   9.311 -1.3149  0.7159  1.8099
  904TIP3   OH226906   6.766   1.997   8.782 -0.0096 -0.1313  0.5947
  904TIP3    H126907   6.798   1.974   8.695 -1.0823  1.3625 -0.2260
  904TIP3    H226908   6.831   2.058   8.817  1.2354 -1.8727  1.5426
  905TIP3   OH226909   6.527   0.188   9.646 -0.1734 -0.6550  0.1692
  905TIP3    H126910   6.609   0.175   9.599 -0.2543  0.2755 -0.2505
  905TIP3    H226911   6.540   0.145   9.730  0.9195 -0.1194  0.2923
  906TIP3   OH226912   0.815   2.348   8.307  0.1192  0.1594  0.7568
  906TIP3    H126913   0.724   2.341   8.279  0.0595  0.0695  0.9705
  906TIP3    H226914   0.861   2.280   8.258  0.4757  1.5775 -0.9689
  907TIP3   OH226915   6.592   5.965   7.011 -0.4903  0.5505  0.9218
  907TIP3    H126916   6.558   5.876   7.008 -0.9017  0.7039 -1.5888
  907TIP3    H226917   6.521   6.017   7.051 -0.9876  0.0272  0.7239
  908TIP3   OH226918   2.740   0.118   9.500 -0.3260 -0.7109  0.0971
  908TIP3    H126919   2.729   0.108   9.406  0.6218 -1.6265  0.0734
  908TIP3    H226920   2.789   0.040   9.528  0.3808  0.0768  1.1629
  909TIP3   OH226921   5.762   2.171   8.484  0.3089  0.3267  0.0769
  909TIP3    H126922   5.682   2.152   8.434  0.9840 -0.9351 -0.5529
  909TIP3    H226923   5.785   2.088   8.525  3.1192 -0.2362 -2.3916
  910TIP3   OH226924   7.073   2.789   8.508 -0.5733  0.0201 -0.0924
  910TIP3    H126925   7.072   2.709   8.560 -0.6280  0.3649  0.4411
  910TIP3    H226926   7.081   2.860   8.572  1.7252  0.3559 -0.6566
  911TIP3   OH226927   4.143   6.835   8.127 -0.0980  0.5081 -0.4617
  911TIP3    H126928   4.055   6.859   8.099  0.0674  1.3947 -0.2502
  911TIP3    H226929   4.199   6.905   8.094  0.4781  0.1629 -0.2459
  912TIP3   OH226930   5.059   5.234   9.005  0.1161 -0.3615 -0.2202
  912TIP3    H126931   5.121   5.213   8.936 -0.1929 -2.0783 -0.0145
  912TIP3    H226932   4.973   5.226   8.963 -0.0336 -0.1908  0.0536
  913TIP3   OH226933   0.136   3.048   8.293  0.0249 -0.0696 -0.3607
  913TIP3    H126934   0.102   2.971   8.339 -0.2613  0.0945 -0.2935
  913TIP3    H226935   0.140   3.116   8.360 -0.0500  0.0708 -0.4988
  914TIP3   OH226936   3.336   5.838   9.138 -0.4062 -0.4807  0.1075
  914TIP3    H126937   3.296   5.909   9.088  0.5094 -0.7402 -1.0335
  914TIP3    H226938   3.354   5.876   9.224 -2.4115 -0.1458  0.4449
  915TIP3   OH226939   4.190   6.244   8.761  0.1424  0.2882  0.1539
  915TIP3    H126940   4.127   6.303   8.721 -0.8846  1.1308  2.7947
  915TIP3    H226941   4.266   6.248   8.704 -1.4732  0.7294 -2.0980
  916TIP3   OH226942   4.853   7.062   8.940 -0.1802  0.5386 -0.1305
  916TIP3    H126943   4.888   6.976   8.964  0.1632  0.2727 -1.4634
  916TIP3    H226944   4.799   7.088   9.014  0.1185 -0.5982  0.5131
  917TIP3   OH226945   5.224   0.884   8.806  0.2297 -0.3128 -0.0082
  917TIP3    H126946   5.265   0.866   8.891  2.1947 -2.9440 -1.3600
  917TIP3    H226947   5.130   0.885   8.824  0.5816 -1.1647  2.1402
  918TIP3   OH226948   6.367   6.629   8.530  0.0768 -0.5228 -0.1797
  918TIP3    H126949   6.281   6.594   8.556  0.4646 -0.7312  0.8822
  918TIP3    H226950   6.372   6.613   8.436 -1.1035 -0.3887 -0.2788
  919TIP3   OH226951   6.233   1.762   8.886  0.0868  0.4795 -0.1417
  919TIP3    H126952   6.190   1.680   8.860 -1.4212  1.0293  0.5150
  919TIP3    H226953   6.236   1.814   8.806 -1.0721  0.6699 -0.0848
  920TIP3   OH226954   4.131   2.332   7.176  0.5126 -0.7903 -0.0400
  920TIP3    H126955   4.168   2.296   7.257  2.7817 -0.4136 -0.8404
  920TIP3    H226956   4.138   2.427   7.186 -1.4488 -0.6345  0.2711
  921TIP3   OH226957   2.095   2.501   8.892  0.1526 -0.1043 -0.2450
  921TIP3    H126958   2.065   2.501   8.982 -1.1229 -1.6154 -0.6258
  921TIP3    H226959   2.177   2.551   8.893 -0.5649  1.1070  1.4716
  922TIP3   OH226960   2.061   7.552   9.641  0.4986  0.2630  0.1431
  922TIP3    H126961   2.019   7.469   9.615  0.3829  0.8436 -1.6711
  922TIP3    H226962   1.991   7.617   9.635  1.1329  0.8789 -0.7734
  923TIP3   OH226963   6.981   6.180   7.115  0.2796 -0.3092 -0.8238
  923TIP3    H126964   7.037   6.188   7.037  0.7556 -0.6569 -0.5243
  923TIP3    H226965   6.893   6.168   7.080  0.8425 -3.6253 -1.4236
  924TIP3   OH226966   4.179   7.598   9.448  0.3101 -0.3741  0.3301
  924TIP3    H126967   4.249   7.601   9.514 -1.1126  3.4516  1.9755
  924TIP3    H226968   4.131   7.518   9.468  1.6132 -0.8060  2.0654
  925TIP3   OH226969   2.740   0.616   8.936 -0.0912  0.0489 -0.3692
  925TIP3    H126970   2.669   0.552   8.929  0.4442 -0.6496  0.3661
  925TIP3    H226971   2.783   0.614   8.851 -0.6565  0.1375 -0.6644
  926TIP3   OH226972   2.400   1.574   8.220 -0.5244 -0.1714 -0.3584
  926TIP3    H126973   2.451   1.608   8.147  0.5011 -1.3125 -0.1978
  926TIP3    H226974   2.382   1.651   8.274 -2.5386  0.9765 -2.4785
  927TIP3   OH226975   6.738   5.216   9.571 -0.4208  0.2127 -0.2274
  927TIP3    H126976   6.668   5.183   9.514 -2.3996  0.5296  1.8407
  927TIP3    H226977   6.715   5.308   9.587 -1.1335 -0.3491  2.5713
  928TIP3   OH226978   3.680   5.620   7.703 -0.1764  0.4397  0.7256
  928TIP3    H126979   3.638   5.543   7.665  1.2028 -0.6788  1.3780
  928TIP3    H226980   3.744   5.646   7.637  0.0596  0.4119  0.9456
  929TIP3   OH226981   7.105   0.559   8.207 -0.0738 -0.6122  0.3982
  929TIP3    H126982   7.153   0.630   8.250  1.5956 -2.1831  1.3178
  929TIP3    H226983   7.135   0.562   8.116  1.9427 -1.5713  0.9543
  930TIP3   OH226984   3.413   0.080   7.816 -0.0692 -0.0775 -0.3623
  930TIP3    H126985   3.319   0.081   7.835  0.1805 -0.7112  1.0347
  930TIP3    H226986   3.431   0.167   7.781 -0.8964  0.6469  0.9303
  931TIP3   OH226987   1.376   0.531   6.623 -0.0554 -0.1073 -0.2647
  931TIP3    H126988   1.284   0.542   6.602 -0.0429  1.1713  0.2318
  931TIP3    H226989   1.396   0.604   6.683  1.5723  0.3865 -1.3256
  932TIP3   OH226990   0.007   0.660   8.713  0.2241  0.3899  0.3294
  932TIP3    H126991  -0.014   0.570   8.689  0.7118  0.5932 -0.9936
  932TIP3    H226992  -0.066   0.712   8.679  0.4900  0.6005  0.0709
  933TIP3   OH226993   1.075   5.140   8.708 -0.0703  0.3405  0.4167
  933TIP3    H126994   1.000   5.134   8.767  1.2685 -0.3359  2.1154
  933TIP3    H226995   1.128   5.062   8.728  2.0971  1.8036  0.7263
  934TIP3   OH226996   2.235   1.814   9.019 -0.0649 -0.4420 -0.2748
  934TIP3    H126997   2.239   1.721   9.039 -1.4718 -0.4056  0.3570
  934TIP3    H226998   2.326   1.841   9.008  0.3784 -1.8201 -0.1728
  935TIP3   OH226999   4.718   1.269   9.394 -0.4400  0.2650 -0.8461
  935TIP3    H127000   4.749   1.238   9.308 -0.4627  2.3978 -1.6804
  935TIP3    H227001   4.706   1.363   9.383 -0.6230  0.5794  1.4718
  936TIP3   OH227002   6.290   5.834   8.190 -0.6254 -0.9772 -0.2007
  936TIP3    H127003   6.369   5.866   8.147 -0.4426 -1.2289 -0.0587
  936TIP3    H227004   6.319   5.809   8.278 -1.3601  1.3615  0.7737
  937TIP3   OH227005   4.163   7.321   8.269  0.4139 -0.1688 -0.1048
  937TIP3    H127006   4.211   7.340   8.188 -0.2452 -0.6916 -0.6367
  937TIP3    H227007   4.087   7.272   8.240  0.8735 -1.5788  0.9872
  938TIP3   OH227008   2.598   4.878   8.381 -0.1645  0.2355 -0.5319
  938TIP3    H127009   2.556   4.958   8.351 -0.9286  0.3288  0.7103
  938TIP3    H227010   2.585   4.878   8.476 -0.3703 -1.4593 -0.5213
  939TIP3   OH227011   5.092   0.091   8.015  0.5889  0.0324 -0.1220
  939TIP3    H127012   5.057   0.021   8.071  0.4059  0.3914  0.2169
  939TIP3    H227013   5.065   0.066   7.926  0.4750 -0.2974  0.0018
  940TIP3   OH227014   0.434   5.647   7.904 -0.7715 -0.3915  0.3643
  940TIP3    H127015   0.437   5.569   7.958 -0.8610 -0.5371  0.1595
  940TIP3    H227016   0.353   5.692   7.930  0.6468  1.1241  2.5324
  941TIP3   OH227017   2.919   3.978   9.808  0.1669 -0.0443  0.1561
  941TIP3    H127018   2.830   3.974   9.843  0.2752 -0.4412  0.3907
  941TIP3    H227019   2.958   3.894   9.833 -0.0561 -0.7682 -1.7646
  942TIP3   OH227020   5.537   2.044   9.817  0.0674  0.5864 -0.5112
  942TIP3    H127021   5.586   2.122   9.841  0.7810 -0.0506  0.1875
  942TIP3    H227022   5.599   1.972   9.830 -1.2847 -0.3433  1.2157
  943TIP3   OH227023   4.749   4.157   8.733 -0.1075  0.3402  0.1268
  943TIP3    H127024   4.840   4.186   8.734  0.5279 -1.0242 -3.4283
  943TIP3    H227025   4.706   4.216   8.670 -0.7603 -1.2233 -0.9537
  944TIP3   OH227026   6.746   6.162   6.935 -0.5453 -0.0717 -0.2998
  944TIP3    H127027   6.670   6.216   6.912 -1.1328 -0.1887  1.2471
  944TIP3    H227028   6.710   6.075   6.950  0.1130 -0.4518 -0.8924
  945TIP3   OH227029   7.412   7.341   9.749 -0.0371  0.2403 -0.3663
  945TIP3    H127030   7.375   7.346   9.661 -1.4403  2.5800  0.2553
  945TIP3    H227031   7.362   7.272   9.792  0.3379 -0.5950 -1.2229
  946TIP3   OH227032   7.432   0.560   8.954  0.1294 -0.3416  0.0290
  946TIP3    H127033   7.418   0.477   8.998 -1.2279 -1.1047 -1.7567
  946TIP3    H227034   7.516   0.550   8.909 -0.7865 -1.4254 -1.5326
  947TIP3   OH227035   6.688   2.280   8.934 -0.4517 -0.1311  0.1311
  947TIP3    H127036   6.608   2.233   8.957 -1.8744  1.1048 -2.0047
  947TIP3    H227037   6.747   2.212   8.901 -1.3904 -0.7890 -0.2196
  948TIP3   OH227038   6.245   5.300   8.170 -0.1921 -0.1909 -0.7619
  948TIP3    H127039   6.224   5.227   8.229  0.1535 -0.2352 -0.6911
  948TIP3    H227040   6.187   5.288   8.095 -1.3518  0.4195 -0.0079
  949TIP3   OH227041   6.625   0.647   8.796  0.3147  0.2013 -0.2566
  949TIP3    H127042   6.656   0.713   8.858  0.3436  0.1855 -0.2535
  949TIP3    H227043   6.645   0.563   8.838  1.3331  0.1691 -0.7556
  950TIP3   OH227044   4.542   5.074   7.508  0.5612  0.2724 -0.1120
  950TIP3    H127045   4.500   5.090   7.423 -0.2566  0.6530  0.3486
  950TIP3    H227046   4.627   5.035   7.486  0.2273  0.0650 -1.0879
  951TIP3   OH227047   6.821   7.382   7.389 -0.6072  0.3493  0.1258
  951TIP3    H127048   6.845   7.429   7.310 -0.1727  1.3401  0.8249
  951TIP3    H227049   6.791   7.450   7.449 -2.0873 -0.5059  0.4089
  952TIP3   OH227050   7.351   6.786   9.569  0.5225 -0.3590  0.1268
  952TIP3    H127051   7.343   6.877   9.540 -0.4188 -0.0923  1.1498
  952TIP3    H227052   7.424   6.751   9.518  0.0877  0.5960 -1.2006
  953TIP3   OH227053   3.286   6.022   6.904 -0.1178  0.0809 -0.6966
  953TIP3    H127054   3.287   5.997   6.811  0.9036  0.7907 -0.8882
  953TIP3    H227055   3.290   6.117   6.903 -0.1899  0.0936  0.0838
  954TIP3   OH227056   0.289   4.967   8.657  0.1803  0.4062  0.0797
  954TIP3    H127057   0.315   4.929   8.741 -0.8818  0.1395  0.3076
  954TIP3    H227058   0.199   4.998   8.672 -0.1790 -0.0374 -1.0862
  955TIP3   OH227059   3.395   4.416   9.958 -0.1829 -0.2564 -0.1289
  955TIP3    H127060   3.390   4.325   9.986  2.6606 -0.3654  0.2751
  955TIP3    H227061   3.423   4.412   9.867 -1.0560  0.2158 -0.4284
  956TIP3   OH227062   0.668   1.115   9.952  0.0109  0.0783 -0.1306
  956TIP3    H127063   0.723   1.164   9.890 -0.8094 -0.1367 -1.0383
  956TIP3    H227064   0.600   1.178   9.978 -1.2437 -0.6386 -1.5533
  957TIP3   OH227065   0.474   2.571   8.687 -0.2933 -0.1192  0.5047
  957TIP3    H127066   0.434   2.534   8.608  0.4171  0.3914 -0.1079
  957TIP3    H227067   0.560   2.528   8.692  0.4209  1.1887 -0.0500
  958TIP3   OH227068   7.502   4.415   9.045  0.4372 -0.3424 -0.0685
  958TIP3    H127069   7.477   4.331   9.006 -0.4433  0.1146 -0.5035
  958TIP3    H227070   7.516   4.473   8.970 -1.5500  0.6253  0.2668
  959TIP3   OH227071   5.749   7.037   9.618  0.5162 -0.0559  0.1259
  959TIP3    H127072   5.790   7.027   9.704  1.3346  0.1602 -0.2264
  959TIP3    H227073   5.717   6.949   9.597  0.9930 -0.2859  0.3268
  960TIP3   OH227074   3.723   2.187   8.468  0.9323 -0.2159  0.1876
  960TIP3    H127075   3.754   2.173   8.557  1.9702 -0.7595 -0.2371
  960TIP3    H227076   3.644   2.239   8.478  0.7014 -0.7764  1.4541
  961TIP3   OH227077   4.013   0.160   9.611 -0.0560 -0.6874  0.3158
  961TIP3    H127078   4.044   0.082   9.564 -0.6770 -0.3623 -0.6591
  961TIP3    H227079   3.937   0.129   9.661 -0.4429 -0.6786 -0.2490
  962TIP3   OH227080   6.434   5.367   9.415 -0.0280  0.3326  0.1962
  962TIP3    H127081   6.347   5.356   9.455  0.4452 -0.0058  1.1442
  962TIP3    H227082   6.490   5.396   9.486  1.3314 -2.3738  0.3628
  963TIP3   OH227083   4.592   4.631   7.575 -0.6614 -0.0894 -0.1153
  963TIP3    H127084   4.630   4.550   7.542 -0.0306 -0.5691  1.6965
  963TIP3    H227085   4.523   4.603   7.634  1.1592  0.5355  2.4793
  964TIP3   OH227086   3.964   4.259   8.396  0.2537 -0.3295 -0.3856
  964TIP3    H127087   3.944   4.305   8.477  0.9464 -1.7632  0.6420
  964TIP3    H227088   3.880   4.256   8.349  0.1469  1.7356 -0.4189
  965TIP3   OH227089   2.843   6.560   8.317 -0.3650 -0.3817 -0.3712
  965TIP3    H127090   2.867   6.490   8.378  1.1850  1.9109  1.8735
  965TIP3    H227091   2.908   6.555   8.247  0.4454 -0.5694  0.3653
  966TIP3   OH227092   3.701   2.181   9.118  0.0291  0.5076  0.0166
  966TIP3    H127093   3.671   2.222   9.037  1.0864 -0.0776 -0.6941
  966TIP3    H227094   3.768   2.119   9.090 -0.5670 -0.7339  1.1913
  967TIP3   OH227095   7.160   3.105   7.358  0.2866  0.2245 -0.0103
  967TIP3    H127096   7.113   3.120   7.276 -0.9541  1.2285  0.8539
  967TIP3    H227097   7.130   3.019   7.388  1.8280 -0.8170 -1.2774
  968TIP3   OH227098   0.575   1.802   9.455 -0.0071  0.2634 -0.0487
  968TIP3    H127099   0.528   1.746   9.394 -0.1262 -1.2947  1.4253
  968TIP3    H227100   0.659   1.757   9.470 -0.1441  0.3987  1.2281
  969TIP3   OH227101   5.144   1.813   8.751 -0.3224 -0.6618 -0.3379
  969TIP3    H127102   5.150   1.717   8.743 -0.4232 -0.6086 -1.1504
  969TIP3    H227103   5.190   1.846   8.674  2.7405  0.0461  1.6656
  970TIP3   OH227104   6.601   2.551   8.554  0.3848 -0.1889  0.3331
  970TIP3    H127105   6.598   2.470   8.605 -0.0986  1.3597  2.9046
  970TIP3    H227106   6.526   2.544   8.494 -0.2054 -1.2545  1.1531
  971TIP3   OH227107   4.324   7.212   7.087  0.0052  0.4206  0.4122
  971TIP3    H127108   4.342   7.193   6.995 -0.3022  0.9241  0.2381
  971TIP3    H227109   4.407   7.195   7.132 -0.3195 -1.5505  0.3370
  972TIP3   OH227110   2.171   4.847   8.093  0.1238  0.1597  0.4745
  972TIP3    H127111   2.236   4.912   8.069 -0.4509 -0.1911 -2.4231
  972TIP3    H227112   2.204   4.765   8.056 -0.8904 -0.4818  0.9356
  973TIP3   OH227113   6.941   2.599   8.822  0.6933  0.3943  0.5345
  973TIP3    H127114   7.036   2.612   8.818  0.7626 -0.1783  0.1760
  973TIP3    H227115   6.928   2.532   8.889  0.7613 -1.3656 -1.1237
  974TIP3   OH227116   2.341   4.449   9.205 -0.3435 -0.6830 -0.0799
  974TIP3    H127117   2.350   4.509   9.131  2.4775 -0.0912  0.6243
  974TIP3    H227118   2.347   4.362   9.166 -1.6762 -0.4657 -0.8106
  975TIP3   OH227119   4.349   5.941   8.174 -0.0784 -0.3051  0.0712
  975TIP3    H127120   4.314   5.855   8.196  0.5363 -0.2899  1.1482
  975TIP3    H227121   4.430   5.948   8.223 -0.0863  0.8730 -0.0488
  976TIP3   OH227122   5.767   0.187   9.104 -0.0106 -0.2321  0.2362
  976TIP3    H127123   5.784   0.269   9.152 -0.5998 -0.8286  1.4934
  976TIP3    H227124   5.826   0.192   9.029 -1.7684  2.5039 -1.1399
  977TIP3   OH227125   4.298   5.235   7.940 -0.2645 -0.7757  0.2418
  977TIP3    H127126   4.336   5.230   7.852 -0.3958 -1.6372  0.2217
  977TIP3    H227127   4.204   5.239   7.926 -0.2337  0.8213  0.3086
  978TIP3   OH227128   0.440   4.172   7.757  0.4015  0.3725 -0.0764
  978TIP3    H127129   0.411   4.155   7.847  0.9050 -1.3654 -0.1952
  978TIP3    H227130   0.532   4.148   7.758  0.6433  1.2312 -0.8573
  979TIP3   OH227131   4.015   6.831   7.296 -0.5635 -0.2997  0.1912
  979TIP3    H127132   4.061   6.772   7.236 -0.9766 -0.5623  0.1280
  979TIP3    H227133   4.067   6.911   7.295 -1.4790  0.3611 -1.9006
  980TIP3   OH227134   0.779   4.785   8.035  0.7209 -0.1491  0.8065
  980TIP3    H127135   0.839   4.712   8.048  0.7484 -0.3732 -0.4808
  980TIP3    H227136   0.829   4.848   7.983  0.7170  0.8273  1.9464
  981TIP3   OH227137   3.039   4.400   8.764  0.4264 -0.0007 -0.6100
  981TIP3    H127138   3.052   4.422   8.856  1.3813  0.3215 -0.8139
  981TIP3    H227139   3.027   4.484   8.720  1.5372 -0.0254 -1.0014
  982TIP3   OH227140   2.343   2.656   8.815 -0.3090  0.1284 -0.7938
  982TIP3    H127141   2.306   2.730   8.767  1.0552  0.3072 -1.6196
  982TIP3    H227142   2.368   2.593   8.747 -1.1959 -0.9974 -0.1189
  983TIP3   OH227143   6.973   7.384   9.225  0.2328  0.6941 -0.1529
  983TIP3    H127144   6.921   7.406   9.147 -0.0223  1.5156  0.2389
  983TIP3    H227145   6.994   7.469   9.265  0.3801  0.2863  0.6601
  984TIP3   OH227146   0.635   6.595   9.401  0.3228 -0.1810 -0.0577
  984TIP3    H127147   0.674   6.509   9.416 -0.8285 -1.0374 -1.7357
  984TIP3    H227148   0.579   6.610   9.477  0.2340 -1.0992  0.0657
  985TIP3   OH227149   2.514   7.625   8.191 -0.5948  0.2361 -0.3467
  985TIP3    H127150   2.424   7.656   8.204  0.0807  1.1175  3.1622
  985TIP3    H227151   2.564   7.705   8.171 -0.4740 -0.2113 -1.9933
  986TIP3   OH227152   2.196   6.312   9.084 -0.6747 -0.3953  0.1054
  986TIP3    H127153   2.252   6.256   9.137 -1.8895 -0.7539  1.0373
  986TIP3    H227154   2.221   6.291   8.994  1.0148 -0.1854  0.4845
  987TIP3   OH227155   7.615   1.454   8.139 -0.1116  0.0603  0.6488
  987TIP3    H127156   7.680   1.518   8.170 -0.6164  0.5441  0.7370
  987TIP3    H227157   7.531   1.490   8.168 -0.4342 -0.4712  0.3882
  988TIP3   OH227158   1.349   6.535   7.073  0.5190  0.0992 -0.4847
  988TIP3    H127159   1.301   6.568   6.998  0.1490 -1.3790 -0.9424
  988TIP3    H227160   1.283   6.525   7.142  0.8628  1.4840  0.0799
  989TIP3   OH227161   2.332   6.490   7.213 -0.0063  0.2759 -0.1309
  989TIP3    H127162   2.424   6.494   7.238  0.3704  0.1335 -1.4474
  989TIP3    H227163   2.289   6.554   7.269  0.5714 -0.9319  1.8030
  990TIP3   OH227164   0.776   1.541   7.748  0.1945  0.5952  0.4711
  990TIP3    H127165   0.737   1.534   7.835  0.1591 -1.1588  0.3486
  990TIP3    H227166   0.860   1.496   7.755 -0.1101 -0.1766 -0.5489
  991TIP3   OH227167   2.584   1.767   7.760  0.4888 -0.2186 -0.0059
  991TIP3    H127168   2.495   1.742   7.734 -0.0828  0.9013  0.7746
  991TIP3    H227169   2.619   1.689   7.803 -0.3134 -0.4933  0.1647
  992TIP3   OH227170   2.786   2.168   8.602 -0.1289 -0.3076 -0.2856
  992TIP3    H127171   2.692   2.157   8.594 -0.1808  0.8820 -1.6592
  992TIP3    H227172   2.798   2.233   8.672 -0.2604 -1.1064  0.5011
  993TIP3   OH227173   3.981   4.393   7.146  0.5706 -0.0796  0.9228
  993TIP3    H127174   4.016   4.339   7.217 -0.5154 -2.9660 -0.5528
  993TIP3    H227175   3.945   4.330   7.083 -2.3789  2.4487 -0.1966
  994TIP3   OH227176   2.898   6.667   8.705 -0.7615 -0.1447  0.0716
  994TIP3    H127177   2.929   6.737   8.648  2.0751  0.4940  2.1816
  994TIP3    H227178   2.825   6.705   8.753  0.8721  1.5706  1.3470
  995TIP3   OH227179   4.419   4.753   8.933 -0.4686  0.1942  0.0158
  995TIP3    H127180   4.482   4.823   8.952  0.6411 -0.9958  0.8986
  995TIP3    H227181   4.338   4.799   8.911  0.4406  1.7594 -0.1913
  996TIP3   OH227182   0.116   7.074   8.547 -0.6302 -0.4750  0.0645
  996TIP3    H127183   0.162   6.999   8.511 -1.1009 -0.0142 -1.5774
  996TIP3    H227184   0.025   7.045   8.556 -1.0773  0.2002 -1.7210
  997TIP3   OH227185   0.252   4.775   8.009 -0.3394 -0.5212 -0.2644
  997TIP3    H127186   0.338   4.735   8.022 -0.0886  0.0000 -0.2884
  997TIP3    H227187   0.215   4.779   8.098 -0.1112 -0.2469 -0.1796
  998TIP3   OH227188   4.260   2.775   8.198 -0.3740 -0.5118  0.1836
  998TIP3    H127189   4.286   2.791   8.289 -0.1399  0.4663 -0.0445
  998TIP3    H227190   4.172   2.738   8.205 -1.3747  1.7660  0.7528
  999TIP3   OH227191   6.765   0.426   8.090  0.1481  0.0001  0.0040
  999TIP3    H127192   6.708   0.378   8.030 -0.8416 -1.1227  1.7720
  999TIP3    H227193   6.842   0.368   8.100  1.0431  0.8932 -1.3148
 1000TIP3   OH227194   1.389   3.422   8.328  0.1427  0.2996  0.5770
 1000TIP3    H127195   1.338   3.375   8.395 -2.4876  2.6378  0.3994
 1000TIP3    H227196   1.405   3.356   8.261  1.2466 -1.6332  2.6024
 1001TIP3   OH227197   6.069   0.783   8.757  0.0720  0.0828  0.4972
 1001TIP3    H127198   5.978   0.807   8.772  0.5798  1.5995  1.4186
 1001TIP3    H227199   6.089   0.818   8.670 -0.2234 -0.2584  0.2902
 1002TIP3   OH227200   1.548   1.890   8.157 -0.5066  0.7701 -0.5103
 1002TIP3    H127201   1.582   1.979   8.159  1.1254  0.2315 -1.9702
 1002TIP3    H227202   1.454   1.900   8.172 -0.2086  2.6097  0.4555
 1003TIP3   OH227203   6.857   3.827   7.116  0.0326  0.1418 -0.2769
 1003TIP3    H127204   6.936   3.878   7.135  0.7604 -0.5025 -1.4137
 1003TIP3    H227205   6.890   3.745   7.077 -1.1530 -0.6225  0.2515
 1004TIP3   OH227206   3.117   4.375   9.041 -0.3783 -0.7772 -0.1979
 1004TIP3    H127207   3.195   4.349   9.088 -1.8957 -2.4200  1.6019
 1004TIP3    H227208   3.045   4.331   9.087 -2.1548 -1.2443 -3.1008
 1005TIP3   OH227209   6.432   5.815   8.824 -0.1880  0.0464  0.0352
 1005TIP3    H127210   6.446   5.739   8.768  2.5060 -0.0169  0.6715
 1005TIP3    H227211   6.459   5.786   8.911 -0.0491  1.4433  0.4789
 1006TIP3   OH227212   1.866   3.526   6.929 -0.2574  0.8467  0.6997
 1006TIP3    H127213   1.948   3.506   6.975  0.2318  3.4158  1.1475
 1006TIP3    H227214   1.823   3.591   6.985 -1.7298  0.8777 -0.4125
 1007TIP3   OH227215   6.111   3.333   8.676  0.6193  0.2708  0.1199
 1007TIP3    H127216   6.058   3.354   8.599 -0.3188 -1.9886  0.0731
 1007TIP3    H227217   6.089   3.401   8.740 -2.0668 -0.3141 -0.0572
 1008TIP3   OH227218   0.528   7.340   7.170  0.5938  0.1095  0.3430
 1008TIP3    H127219   0.537   7.316   7.078 -1.5493 -2.0332  0.5696
 1008TIP3    H227220   0.579   7.274   7.217  0.9555  0.6622  0.7400
 1009TIP3   OH227221   7.028   1.127   8.829 -0.6095 -0.7706  0.1916
 1009TIP3    H127222   6.987   1.048   8.864 -0.0868 -0.2744  2.0429
 1009TIP3    H227223   7.018   1.192   8.899 -0.5460  0.6551 -1.0732
 1010TIP3   OH227224   7.182   5.786   8.965 -0.2263  0.1877 -0.2507
 1010TIP3    H127225   7.173   5.872   8.925  1.1530  0.0166 -0.9937
 1010TIP3    H227226   7.168   5.724   8.893 -1.4585 -0.2344  0.3288
 1011TIP3   OH227227   3.979   7.408   9.419 -0.3109 -0.0688 -0.2663
 1011TIP3    H127228   3.888   7.424   9.445 -0.3077 -0.1268 -0.2192
 1011TIP3    H227229   3.973   7.368   9.333 -0.2955  0.7762 -0.6710
 1012TIP3   OH227230   6.022   1.916   9.035 -0.0899  0.2917  0.0619
 1012TIP3    H127231   6.083   1.873   8.975 -1.5181  0.7151 -1.7987
 1012TIP3    H227232   6.066   1.997   9.062  0.7796 -0.1570 -0.0027
 1013TIP3   OH227233   1.539   0.208   9.151 -0.4296  0.2051 -0.2600
 1013TIP3    H127234   1.580   0.284   9.109 -1.2704  0.1385 -1.2528
 1013TIP3    H227235   1.520   0.148   9.079 -2.0607  0.1516  0.1669
 1014TIP3   OH227236   3.089   7.554   8.435 -0.1688 -0.1945  0.3141
 1014TIP3    H127237   3.180   7.542   8.460 -0.6888  0.2306  2.6206
 1014TIP3    H227238   3.088   7.637   8.387  0.6713 -0.3429  0.0228
 1015TIP3   OH227239   1.944   0.584   7.674  0.1082 -0.3162 -0.0065
 1015TIP3    H127240   1.938   0.596   7.579  0.7187  0.2191  0.0155
 1015TIP3    H227241   1.869   0.529   7.696 -0.0909 -0.3672 -0.7872
 1016TIP3   OH227242   1.619   2.688   7.143  0.0908 -0.1585  0.2397
 1016TIP3    H127243   1.577   2.633   7.077 -1.3517  0.0502  0.9363
 1016TIP3    H227244   1.595   2.647   7.227 -2.4605  2.3260  0.8997
 1017TIP3   OH227245   5.248   5.869   7.452  0.4460  0.2650  0.3956
 1017TIP3    H127246   5.227   5.930   7.381  1.3003  0.9155  0.6951
 1017TIP3    H227247   5.300   5.800   7.410  0.3056  0.2491  0.2462
 1018TIP3   OH227248   0.292   1.119   9.379  0.3691 -0.6294  0.1883
 1018TIP3    H127249   0.356   1.100   9.446  0.1205  0.0498  0.6273
 1018TIP3    H227250   0.251   1.035   9.359  1.9739 -1.2307 -0.7213
 1019TIP3   OH227251   7.409   6.901   7.029  0.2561  0.1931 -0.2746
 1019TIP3    H127252   7.434   6.823   6.979 -0.1825 -0.8145  1.0255
 1019TIP3    H227253   7.325   6.927   6.992  0.0151 -0.4356 -0.1785
 1020TIP3   OH227254   2.418   3.135   7.881 -0.4253 -0.1441  0.2860
 1020TIP3    H127255   2.359   3.207   7.907 -1.9304 -1.5153  0.8165
 1020TIP3    H227256   2.399   3.121   7.789  0.1498  0.3613  0.0806
 1021TIP3   OH227257   4.166   6.485   8.979  0.4095 -0.0964  0.4294
 1021TIP3    H127258   4.224   6.456   8.909  0.4217 -0.8122  0.7279
 1021TIP3    H227259   4.225   6.522   9.045  0.2924  2.2352 -0.6623
 1022TIP3   OH227260   5.894   6.342   8.075  0.1238 -0.4523  0.1360
 1022TIP3    H127261   5.853   6.413   8.025  0.7761 -1.2388 -1.5828
 1022TIP3    H227262   5.823   6.280   8.090  0.3903 -1.4169 -2.1130
 1023TIP3   OH227263   2.999   1.652   8.537  0.7824 -0.0248 -0.5294
 1023TIP3    H127264   3.071   1.621   8.591 -0.1884 -0.1643  0.7387
 1023TIP3    H227265   2.959   1.722   8.588  1.1654  1.3587 -2.0612
 1024TIP3   OH227266   7.593   6.174   7.740  0.2838 -0.1933  0.2637
 1024TIP3    H127267   7.532   6.192   7.669  0.3231  0.0489  0.2921
 1024TIP3    H227268   7.581   6.246   7.802 -1.7278 -1.7928  1.8835
 1025TIP3   OH227269   4.668   3.844   7.961 -0.1036 -0.4230  0.2656
 1025TIP3    H127270   4.636   3.814   8.046  0.6633 -0.4659  0.5497
 1025TIP3    H227271   4.614   3.798   7.897 -0.6038 -0.4888  0.7242
 1026TIP3   OH227272   1.048   1.555   7.942  0.4469  0.3294 -0.6527
 1026TIP3    H127273   1.037   1.467   7.905 -1.1849  0.0907  0.2809
 1026TIP3    H227274   1.112   1.543   8.012  2.5850  0.5398 -2.4878
 1027TIP3   OH227275   3.572   4.373   8.368  0.0507 -0.3632 -0.4109
 1027TIP3    H127276   3.589   4.461   8.400  0.9491 -0.3305 -0.9494
 1027TIP3    H227277   3.477   4.362   8.377  0.1067  0.0925  1.0654
 1028TIP3   OH227278   0.652   7.384   6.901 -0.7503 -0.1401  0.0155
 1028TIP3    H127279   0.689   7.466   6.933 -1.0907 -0.0420  0.1678
 1028TIP3    H227280   0.718   7.318   6.924 -0.4386  0.1007 -0.1845
 1029TIP3   OH227281   2.229   3.601   9.514  0.5527 -0.4251  0.0592
 1029TIP3    H127282   2.181   3.614   9.432 -1.0648  0.5055  1.1143
 1029TIP3    H227283   2.298   3.668   9.511  0.0205  0.1268 -0.2123
 1030TIP3   OH227284   0.750   7.415   9.485 -0.7190  0.8651 -0.0547
 1030TIP3    H127285   0.758   7.323   9.511 -0.6462  0.9553  0.2517
 1030TIP3    H227286   0.841   7.444   9.472 -0.7219  1.0012  0.2345
 1031TIP3   OH227287   4.902   5.560   6.607  0.1482  0.4918 -0.0728
 1031TIP3    H127288   4.862   5.604   6.682  1.0090  0.5373  0.3769
 1031TIP3    H227289   4.987   5.531   6.639  0.7600  0.9814 -1.1949
 1032TIP3   OH227290   6.361   4.211   8.127 -0.0584  0.2737  0.1201
 1032TIP3    H127291   6.351   4.116   8.127  0.2480  0.2256  1.3038
 1032TIP3    H227292   6.271   4.245   8.118 -0.1695 -0.1177 -0.2654
 1033TIP3   OH227293   7.442   0.274   8.990 -0.0050 -0.5424 -0.2186
 1033TIP3    H127294   7.435   0.242   8.900  0.8679 -0.5509 -0.2893
 1033TIP3    H227295   7.521   0.232   9.025  0.5025  0.6221  0.0700
 1034TIP3   OH227296   0.772   7.117   9.530  0.0186  0.0456  0.6009
 1034TIP3    H127297   0.681   7.094   9.515  0.1974 -0.6119  0.4986
 1034TIP3    H227298   0.816   7.034   9.547  0.7865  0.2354 -0.3406
 1035TIP3   OH227299   1.205   4.285   8.448 -0.3361 -0.4474 -0.1658
 1035TIP3    H127300   1.244   4.335   8.520 -0.2539 -2.8190  1.5667
 1035TIP3    H227301   1.279   4.260   8.393  0.1332 -1.5683  0.9214
 1036TIP3   OH227302   3.936   3.047   8.014  0.7728  0.2950  0.3304
 1036TIP3    H127303   3.857   2.995   8.028  1.5375 -1.0116 -0.0484
 1036TIP3    H227304   3.907   3.137   8.025 -0.8833 -0.1124 -0.3332
 1037TIP3   OH227305   2.190   5.765   8.998  0.4664 -0.1162 -0.0062
 1037TIP3    H127306   2.135   5.692   9.026  0.5560 -0.2657 -0.2155
 1037TIP3    H227307   2.175   5.771   8.904 -0.1140  0.6199  0.1243
 1038TIP3   OH227308   3.376   1.592   8.299  0.0496  0.1235 -0.3412
 1038TIP3    H127309   3.290   1.569   8.332 -0.7920  0.6364 -2.0219
 1038TIP3    H227310   3.438   1.546   8.355 -1.2956  0.1518  1.2129
 1039TIP3   OH227311   2.538   5.764   9.365  0.3291 -0.1177  0.9587
 1039TIP3    H127312   2.535   5.848   9.411  0.9379  1.8611 -2.3041
 1039TIP3    H227313   2.453   5.757   9.323  0.6741 -0.6045  0.3293
 1040TIP3   OH227314   4.764   7.279   7.696 -0.0291  0.4999 -0.3989
 1040TIP3    H127315   4.751   7.306   7.787 -1.0916  1.7694 -0.8883
 1040TIP3    H227316   4.829   7.341   7.662 -0.1446  0.4689 -0.6800
 1041TIP3   OH227317   6.533   2.008   7.581 -0.7083  0.2748 -0.0431
 1041TIP3    H127318   6.502   1.951   7.651 -0.6619 -0.2378 -0.4323
 1041TIP3    H227319   6.594   1.953   7.531  0.7359  1.2056  0.6222
 1042TIP3   OH227320   6.856   4.245   7.456  0.1195  0.1082 -0.0644
 1042TIP3    H127321   6.861   4.268   7.364  0.0587  0.8813  0.1139
 1042TIP3    H227322   6.880   4.153   7.460  1.5839  0.4360 -0.6818
 1043TIP3   OH227323   4.239   0.266   7.948 -0.2207  0.4680 -0.0018
 1043TIP3    H127324   4.235   0.203   7.876  0.4380 -0.5958  0.8544
 1043TIP3    H227325   4.328   0.302   7.944 -0.6988  1.6293 -0.6926
 1044TIP3   OH227326   2.317   7.331   9.455  0.1400 -0.3525 -1.1013
 1044TIP3    H127327   2.301   7.308   9.363  0.5865  0.5319 -1.4092
 1044TIP3    H227328   2.263   7.409   9.470 -1.2480 -1.4442 -0.1104
 1045TIP3   OH227329   2.749   1.839   8.879 -0.4153 -0.0265 -0.0696
 1045TIP3    H127330   2.660   1.833   8.914  0.6582 -0.8375  2.8443
 1045TIP3    H227331   2.802   1.865   8.955  2.1429 -1.7359 -1.1605
 1046TIP3   OH227332   2.058   3.569   8.326 -0.4496 -0.3350 -0.2458
 1046TIP3    H127333   2.145   3.534   8.343 -1.1910 -2.0973  0.1972
 1046TIP3    H227334   2.027   3.521   8.249 -0.9777  0.3473 -0.4684
 1047TIP3   OH227335   4.041   2.315   9.077 -0.4722 -0.3927  0.1960
 1047TIP3    H127336   4.075   2.299   9.165 -1.0712 -0.5127  0.4095
 1047TIP3    H227337   3.972   2.379   9.088 -0.7205 -0.5926 -0.1538
 1048TIP3   OH227338   4.107   1.874   8.534  0.0388  0.7026  0.0076
 1048TIP3    H127339   4.140   1.957   8.566  0.6842  0.5238 -0.1919
 1048TIP3    H227340   4.169   1.809   8.568  1.2137  0.5695 -2.2561
 1049TIP3   OH227341   3.623   6.570   7.942 -0.2694  0.2211  0.3451
 1049TIP3    H127342   3.587   6.647   7.898 -0.8286 -0.3681 -0.2561
 1049TIP3    H227343   3.623   6.593   8.035 -0.8232  0.7832  0.2114
 1050TIP3   OH227344   4.025   0.615   8.532  0.1096  0.1593  0.2311
 1050TIP3    H127345   3.946   0.640   8.484  0.3289  1.1362  0.3563
 1050TIP3    H227346   4.049   0.694   8.581  2.0653  0.4044 -1.0175
 1051TIP3   OH227347   3.311   2.761   9.465 -0.1555 -0.1904  0.1465
 1051TIP3    H127348   3.401   2.796   9.466  0.0011 -0.5319  1.9270
 1051TIP3    H227349   3.257   2.835   9.494 -0.5401  0.1317 -1.2891
 1052TIP3   OH227350   5.594   7.288   7.641  0.5879  0.4797  0.4198
 1052TIP3    H127351   5.625   7.378   7.636  0.7955  0.3888 -0.0415
 1052TIP3    H227352   5.505   7.291   7.607 -0.2253  0.8735  2.4851
 1053TIP3   OH227353   2.888   5.520   9.411 -0.3454  0.6733  0.1162
 1053TIP3    H127354   2.983   5.517   9.415 -0.2763  2.6288  1.2789
 1053TIP3    H227355   2.862   5.430   9.391  1.7393  0.2003 -0.6753
 1054TIP3   OH227356   5.957   1.544   8.977  0.5094  0.4367  0.0487
 1054TIP3    H127357   5.922   1.455   8.969  1.1311  0.2874 -1.4416
 1054TIP3    H227358   5.989   1.549   9.067 -1.6675 -0.0070  0.9105
 1055TIP3   OH227359   5.730   4.839   8.898  0.2630  0.3257  0.3820
 1055TIP3    H127360   5.805   4.826   8.956  0.0831 -1.8089  0.2291
 1055TIP3    H227361   5.742   4.927   8.863  1.1619  1.1174  2.5059
 1056TIP3   OH227362   5.680   3.792   8.072 -0.7981 -0.6078  0.7022
 1056TIP3    H127363   5.649   3.779   8.162  0.6647  0.1549  1.3569
 1056TIP3    H227364   5.746   3.724   8.060 -1.0569 -0.7631  0.1777
 1057TIP3   OH227365   1.805   3.321   7.613 -0.1981 -0.2750 -0.3565
 1057TIP3    H127366   1.815   3.387   7.681  1.9835 -1.5881  0.7239
 1057TIP3    H227367   1.778   3.242   7.661  0.8186 -1.0774 -1.0734
 1058TIP3   OH227368   4.663   1.256   9.081 -0.0207 -0.5774 -0.2967
 1058TIP3    H127369   4.726   1.277   9.012  1.2058  1.1493  1.2333
 1058TIP3    H227370   4.696   1.175   9.119  0.4521 -0.4571 -0.4442
 1059TIP3   OH227371   1.595   6.549   7.438  0.4397  0.2969 -0.6037
 1059TIP3    H127372   1.587   6.549   7.342 -1.0587  0.4040 -0.4900
 1059TIP3    H227373   1.508   6.526   7.470  0.8470  0.5465  0.7464
 1060TIP3   OH227374   2.516   4.232   9.162 -0.0339 -0.5788  0.2252
 1060TIP3    H127375   2.548   4.157   9.213 -0.2816 -1.3286 -0.6909
 1060TIP3    H227376   2.538   4.209   9.071  0.9642  1.0037  0.0382
 1061TIP3   OH227377   1.367   5.273   9.014 -0.4596  0.4645 -0.3003
 1061TIP3    H127378   1.300   5.205   9.018 -0.6286  0.6689  0.3430
 1061TIP3    H227379   1.437   5.235   8.960 -1.2134  0.3636 -1.2450
 1062TIP3   OH227380   2.568   1.163   7.765  0.3963  0.4875 -0.3194
 1062TIP3    H127381   2.546   1.156   7.672  1.7822 -1.0146 -0.5706
 1062TIP3    H227382   2.503   1.109   7.809  0.1347  0.6682 -0.4796
 1063TIP3   OH227383   4.736   4.402   7.915  0.7254 -0.6468  0.2803
 1063TIP3    H127384   4.664   4.363   7.964  0.9515 -2.7564 -0.9321
 1063TIP3    H227385   4.694   4.461   7.853  0.1435 -1.0067  0.3267
 1064TIP3   OH227386   5.205   1.293   8.462  0.2369 -0.4087 -0.1235
 1064TIP3    H127387   5.297   1.319   8.468 -0.2710  1.2111  1.7264
 1064TIP3    H227388   5.205   1.200   8.484  1.6281 -1.0029 -2.3380
 1065TIP3   OH227389   7.500   4.006   7.876 -0.3548  0.1051 -0.2904
 1065TIP3    H127390   7.536   4.088   7.843 -0.3814 -0.2409 -1.2263
 1065TIP3    H227391   7.543   3.939   7.822  1.5868 -0.7047  2.0741
 1066TIP3   OH227392   2.561   1.915   7.246 -0.3040  0.8174 -0.2812
 1066TIP3    H127393   2.591   2.001   7.275 -0.6918  0.8731 -0.0412
 1066TIP3    H227394   2.632   1.855   7.269 -0.2101  1.0087 -0.0753
 1067TIP3   OH227395   6.732   4.000   9.249  0.8571 -0.4356  0.2216
 1067TIP3    H127396   6.645   3.976   9.283  0.3568  0.4451 -0.3794
 1067TIP3    H227397   6.756   4.078   9.299  0.5716  0.2655 -0.7030
 1068TIP3   OH227398   4.527   2.423   9.093 -0.8738 -0.4132 -0.0655
 1068TIP3    H127399   4.517   2.393   9.184 -1.0799  1.9079  0.7478
 1068TIP3    H227400   4.438   2.442   9.064 -0.9689 -2.3689 -1.2963
 1069TIP3   OH227401   6.821   4.001   8.100 -0.0841 -0.2367  0.1651
 1069TIP3    H127402   6.741   3.961   8.134  1.3124 -1.1430  2.6695
 1069TIP3    H227403   6.857   3.937   8.040  0.6048 -1.5552  1.8903
 1070TIP3   OH227404   5.874   5.746   8.064 -0.0207  0.5482 -0.0674
 1070TIP3    H127405   5.813   5.702   8.124  0.4187  0.1004  0.0554
 1070TIP3    H227406   5.961   5.714   8.091  0.3431  1.7612  0.2621
 1071TIP3   OH227407   6.023   0.546   8.924 -0.0701 -0.3366  0.3783
 1071TIP3    H127408   6.113   0.511   8.925  0.2484  0.4001 -0.7066
 1071TIP3    H227409   6.030   0.627   8.874 -1.0223  0.6660  1.8173
 1072TIP3   OH227410   3.130   4.462   9.790  0.3071  0.5812 -0.2282
 1072TIP3    H127411   3.198   4.501   9.845 -0.9660  0.0302  1.8645
 1072TIP3    H227412   3.118   4.374   9.825  0.1627 -0.1752 -2.1104
 1073TIP3   OH227413   2.198   4.066   8.322 -0.1607  0.1704 -0.4817
 1073TIP3    H127414   2.216   3.974   8.304 -0.4702 -0.4618  2.0495
 1073TIP3    H227415   2.104   4.076   8.307 -0.1558  0.0258 -0.6064
 1074TIP3   OH227416   3.240   5.743   8.242  0.5472 -0.1558  0.5808
 1074TIP3    H127417   3.303   5.717   8.175  1.1535 -0.5937  1.3022
 1074TIP3    H227418   3.154   5.724   8.204  0.8819 -0.4198 -0.0517
 1075TIP3   OH227419   0.096   6.532   9.356 -0.4815  1.1766  0.3410
 1075TIP3    H127420   0.095   6.547   9.262 -1.6695  0.4499  0.2112
 1075TIP3    H227421   0.187   6.512   9.377 -0.1954  1.3986 -0.6381
 1076TIP3   OH227422   6.980   7.548   7.206 -0.0168 -0.2416 -0.4749
 1076TIP3    H127423   6.952   7.637   7.183 -0.9162 -0.3379  0.1855
 1076TIP3    H227424   7.030   7.560   7.287  1.9208 -0.0746 -1.6236
 1077TIP3   OH227425   2.177   0.591   8.877  0.0568 -0.4899 -0.3939
 1077TIP3    H127426   2.257   0.633   8.909 -0.9054  3.4374 -2.4142
 1077TIP3    H227427   2.115   0.601   8.950  0.0208  1.3543 -0.6077
 1078TIP3   OH227428   3.621   4.333   7.727  0.5725  0.1739 -0.1717
 1078TIP3    H127429   3.692   4.376   7.774 -0.1162 -0.4689  1.5235
 1078TIP3    H227430   3.547   4.332   7.788 -0.3855 -0.6627 -1.2703
 1079TIP3   OH227431   0.777   3.096   8.169 -0.2653 -0.1316  0.0482
 1079TIP3    H127432   0.798   3.121   8.259 -0.3855  0.5570 -0.1129
 1079TIP3    H227433   0.824   3.159   8.114 -0.6982 -0.1527 -0.3563
 1080TIP3   OH227434   2.513   2.092   8.440 -0.0003  0.2315 -0.5705
 1080TIP3    H127435   2.421   2.101   8.466  0.3623  0.7342  0.6147
 1080TIP3    H227436   2.521   2.146   8.362 -1.0842 -1.1544 -1.6940
 1081TIP3   OH227437   5.427   5.425   8.182 -0.6325 -0.1687  0.3823
 1081TIP3    H127438   5.367   5.455   8.114  1.9979 -0.3235 -2.2173
 1081TIP3    H227439   5.429   5.330   8.172 -0.1482 -0.1847  0.5798
 1082TIP3   OH227440   1.289   2.797   9.461 -0.6202  0.5689  0.3131
 1082TIP3    H127441   1.255   2.708   9.463  1.7068 -0.3802  0.4662
 1082TIP3    H227442   1.343   2.804   9.539  1.7968  0.9901 -1.2936
 1083TIP3   OH227443   1.773   7.620   9.663  0.6090 -0.1508 -0.1293
 1083TIP3    H127444   1.768   7.531   9.628  1.3911  0.2372 -1.2624
 1083TIP3    H227445   1.730   7.674   9.597  1.1538  0.4501  0.0001
 1084TIP3   OH227446   2.327   0.179   7.131  0.0161 -0.1271  0.0535
 1084TIP3    H127447   2.415   0.214   7.147 -0.9504  2.2445  0.6105
 1084TIP3    H227448   2.318   0.106   7.192  0.6569  1.3333  1.9938
 1085TIP3   OH227449   5.627   7.371   9.434  0.0527 -0.3788  0.2575
 1085TIP3    H127450   5.696   7.320   9.392  0.3986  1.1617 -1.1639
 1085TIP3    H227451   5.545   7.329   9.407  0.3887 -1.7342  1.2925
 1086TIP3   OH227452   6.612   6.914   9.271  0.0324  0.0754 -0.2952
 1086TIP3    H127453   6.667   6.836   9.262 -0.4941 -0.3502  0.1155
 1086TIP3    H227454   6.581   6.933   9.182 -1.1793 -1.1798 -0.1675
 1087TIP3   OH227455   0.400   3.038   9.086 -0.2522  0.1245  0.5321
 1087TIP3    H127456   0.388   3.029   9.181  0.0767 -0.6856  0.5060
 1087TIP3    H227457   0.491   3.013   9.071  0.0827  1.4958  0.1405
 1088TIP3   OH227458   4.133   2.309   9.349  0.0367 -0.2593  0.2872
 1088TIP3    H127459   4.073   2.273   9.414 -0.7337 -0.4925 -0.5230
 1088TIP3    H227460   4.213   2.258   9.359 -0.4088 -0.9504  0.4072
 1089TIP3   OH227461   6.162   3.271   8.240  0.2402  0.3394  0.5289
 1089TIP3    H127462   6.205   3.193   8.275  0.6056 -0.1695 -1.0082
 1089TIP3    H227463   6.100   3.296   8.309 -1.6722 -2.7376  0.1229
 1090TIP3   OH227464   5.764   4.822   7.984  0.7920 -0.0606  0.7024
 1090TIP3    H127465   5.731   4.903   7.945 -1.0806 -1.2719 -0.3843
 1090TIP3    H227466   5.726   4.821   8.072  0.3594 -0.0320  0.5185
 1091TIP3   OH227467   0.414   5.047   9.027 -0.0818 -0.1694 -0.0329
 1091TIP3    H127468   0.458   5.054   9.112  0.1592  0.5965 -0.2120
 1091TIP3    H227469   0.424   4.955   9.002  0.1505 -0.3209  0.6070
 1092TIP3   OH227470   3.943   1.222   6.889  0.0073 -0.7892  0.1346
 1092TIP3    H127471   3.848   1.232   6.892  0.1652  1.4308 -0.3306
 1092TIP3    H227472   3.970   1.221   6.981 -0.3215  1.0827  0.3090
 1093TIP3   OH227473   0.267   6.952   7.254 -0.7242  0.2554 -0.2287
 1093TIP3    H127474   0.216   6.984   7.180  1.0614  0.6380 -1.3531
 1093TIP3    H227475   0.353   6.993   7.243  0.7074 -2.4694  0.0340
 1094TIP3   OH227476   2.210   2.090   8.497  0.5359  0.5360  0.1361
 1094TIP3    H127477   2.155   2.015   8.518 -0.7248  1.2490 -0.4455
 1094TIP3    H227478   2.203   2.099   8.402  1.3757  0.8636  0.0996
 1095TIP3   OH227479   2.210   1.879   8.158 -0.6979  0.2681 -0.7220
 1095TIP3    H127480   2.299   1.870   8.124 -0.7879  0.5735 -1.0474
 1095TIP3    H227481   2.165   1.801   8.127 -0.4010 -0.1642 -0.0896
 1096TIP3   OH227482   5.228   6.318   9.077  0.9925 -0.1187  0.0147
 1096TIP3    H127483   5.198   6.348   9.162  0.9761  1.1507 -0.4228
 1096TIP3    H227484   5.278   6.239   9.096  0.2369 -0.3611  1.1031
 1097TIP3   OH227485   5.402   6.757   7.028 -0.7909  0.5672  0.4549
 1097TIP3    H127486   5.416   6.663   7.040 -0.1734  0.1887 -2.5643
 1097TIP3    H227487   5.309   6.765   7.007 -0.3024  0.1517 -2.2549
 1098TIP3   OH227488   5.250   5.922   9.102 -0.0333 -0.5375  0.2686
 1098TIP3    H127489   5.207   5.956   9.181 -0.1775  1.7658 -0.7255
 1098TIP3    H227490   5.335   5.891   9.132  0.0285  0.5689  1.3251
 1099TIP3   OH227491   2.847   0.108   8.456 -0.2192 -0.0742 -0.1536
 1099TIP3    H127492   2.883   0.094   8.544  0.8620 -3.6347 -1.0071
 1099TIP3    H227493   2.923   0.132   8.403 -0.2666 -1.0594 -0.6833
 1100TIP3   OH227494   3.632   6.838   8.057  0.5037  0.1917  0.6122
 1100TIP3    H127495   3.650   6.837   8.151 -2.7836  4.0026  1.5784
 1100TIP3    H227496   3.550   6.790   8.048  1.1449 -0.7489 -0.4905
 1101TIP3   OH227497   3.196   1.144   8.521  0.0990 -0.2638  0.1966
 1101TIP3    H127498   3.197   1.089   8.599 -0.1289  0.1336  0.4843
 1101TIP3    H227499   3.286   1.142   8.489  0.6107  0.9436  1.4579
 1102TIP3   OH227500   1.273   1.203   8.657 -0.4176  0.5891  0.2810
 1102TIP3    H127501   1.294   1.144   8.585 -0.9517  0.7872 -0.0443
 1102TIP3    H227502   1.333   1.178   8.728  0.0614  0.3465 -0.2074
 1103TIP3   OH227503   2.835   3.482   8.092 -0.4061  0.6751 -0.1526
 1103TIP3    H127504   2.884   3.553   8.051  1.8310  0.1173  1.3632
 1103TIP3    H227505   2.851   3.406   8.035 -1.8043  1.0538 -1.1113
 1104TIP3   OH227506   2.360   4.703   9.720 -0.1134 -0.2609  0.8773
 1104TIP3    H127507   2.429   4.738   9.777 -0.0033  0.0007  0.5846
 1104TIP3    H227508   2.378   4.742   9.634  0.0580 -1.0991  0.5268
 1105TIP3   OH227509   2.834   1.659   7.563  0.3336  0.3987 -0.0679
 1105TIP3    H127510   2.786   1.649   7.645 -0.5449 -0.8653 -0.6962
 1105TIP3    H227511   2.825   1.574   7.519  0.5703  1.1130 -1.5734
 1106TIP3   OH227512   7.447   7.083   9.410  0.0637 -0.5175 -0.1028
 1106TIP3    H127513   7.388   7.059   9.338  0.3109 -3.0097  0.4174
 1106TIP3    H227514   7.401   7.151   9.458 -2.3868 -2.2624  0.1991
 1107TIP3   OH227515   0.711   5.250   8.307  0.0588 -0.5021  0.3602
 1107TIP3    H127516   0.670   5.336   8.312 -2.3040 -1.5634  0.1963
 1107TIP3    H227517   0.695   5.210   8.392  0.6428 -1.0130  0.2455
 1108TIP3   OH227518   6.831   5.517   9.102 -0.3784 -0.4497  0.3413
 1108TIP3    H127519   6.751   5.472   9.132 -0.2801 -1.4924 -0.8518
 1108TIP3    H227520   6.891   5.446   9.081  0.7853  0.3243  0.9634
 1109TIP3   OH227521   5.201   3.675   8.329  0.2839 -0.3342 -0.0597
 1109TIP3    H127522   5.135   3.608   8.316 -1.1810  1.2040 -0.9440
 1109TIP3    H227523   5.246   3.650   8.410 -0.9936 -1.7098  0.2557
 1110TIP3   OH227524   4.744   7.340   9.133  0.3093  0.0795  0.0490
 1110TIP3    H127525   4.784   7.425   9.150  2.0954 -0.6061 -0.4192
 1110TIP3    H227526   4.698   7.350   9.051  0.3388  0.6516  0.0998
 1111TIP3   OH227527   2.168   2.972   9.155  0.5426  0.4395  0.0862
 1111TIP3    H127528   2.092   2.991   9.099  0.1364 -0.9488  0.1303
 1111TIP3    H227529   2.238   2.950   9.093  0.3797 -0.0910  0.0836
 1112TIP3   OH227530   3.843   5.870   7.794  0.3081  0.1699 -0.0668
 1112TIP3    H127531   3.804   5.955   7.776  0.3981 -0.0488 -1.3474
 1112TIP3    H227532   3.810   5.812   7.726  3.0378  0.0461 -1.4530
 1113TIP3   OH227533   1.118   3.215   9.525  0.5045  0.0506 -0.0323
 1113TIP3    H127534   1.159   3.173   9.449  0.5567 -1.3439  0.7300
 1113TIP3    H227535   1.189   3.265   9.566  1.1442 -1.2558  0.5132
 1114TIP3   OH227536   1.356   7.542   7.615 -0.5780  0.0757 -0.4376
 1114TIP3    H127537   1.436   7.589   7.593 -1.2359  2.0335  1.1493
 1114TIP3    H227538   1.377   7.495   7.695 -0.7310 -0.2421 -0.5809
 1115TIP3   OH227539   0.719   0.427   8.701 -0.0706 -0.0709  0.4303
 1115TIP3    H127540   0.724   0.517   8.733 -1.0865  0.4660 -0.8216
 1115TIP3    H227541   0.713   0.374   8.780  1.2587  0.8903  1.2113
 1116TIP3   OH227542   6.074   4.920   8.854 -0.0751  0.1877  0.3370
 1116TIP3    H127543   6.158   4.875   8.867 -0.4761 -0.2986  1.3193
 1116TIP3    H227544   6.023   4.900   8.932 -0.7520  1.2935  0.2037
 1117TIP3   OH227545   2.391   5.975   8.780 -0.5634  0.8062  0.2635
 1117TIP3    H127546   2.444   6.023   8.716 -1.2419 -0.6850 -1.5035
 1117TIP3    H227547   2.454   5.937   8.840  0.0950  2.3233  0.5714
 1118TIP3   OH227548   3.905   3.106   9.054 -0.3223  0.0261  0.1298
 1118TIP3    H127549   3.860   3.139   8.976 -0.7187 -0.6425  0.0697
 1118TIP3    H227550   3.925   3.185   9.105 -2.2932  0.3063  0.5442
 1119TIP3   OH227551   6.728   0.023   8.750  0.2285  0.0617 -0.7528
 1119TIP3    H127552   6.647  -0.000   8.797  0.4084  0.8976  0.0072
 1119TIP3    H227553   6.747  -0.053   8.696  0.6324 -1.4700  1.3950
 1120TIP3   OH227554   3.197   5.374   9.349 -0.2379  0.1544  0.4538
 1120TIP3    H127555   3.261   5.335   9.289 -0.5185  0.0183  0.2360
 1120TIP3    H227556   3.246   5.393   9.429  0.1142  0.2302  0.2188
 1121TIP3   OH227557   0.354   3.375   7.391 -0.1483  0.0403 -0.9823
 1121TIP3    H127558   0.337   3.436   7.463 -0.8579 -1.5079  0.2389
 1121TIP3    H227559   0.283   3.310   7.398  1.1858 -1.5490 -1.4751
 1122TIP3   OH227560   6.242   6.524   7.355 -0.0260 -0.6000  0.1372
 1122TIP3    H127561   6.229   6.467   7.431 -0.1909 -1.0982 -0.2552
 1122TIP3    H227562   6.191   6.603   7.375  0.6125 -0.3670  0.9086
 1123TIP3   OH227563   3.951   4.281   9.336 -0.4791  0.5405 -0.0705
 1123TIP3    H127564   3.891   4.209   9.317  0.2507 -0.1355  0.1600
 1123TIP3    H227565   4.035   4.239   9.353 -0.3755  1.3342  1.5523
 1124TIP3   OH227566   3.107   1.463   7.510  0.2981 -0.2302  0.3035
 1124TIP3    H127567   3.073   1.444   7.423 -1.5955 -0.1587  0.9848
 1124TIP3    H227568   3.095   1.382   7.560 -1.1769  0.5167  1.2251
 1125TIP3   OH227569   1.097   1.694   9.249 -0.3199  0.0893 -0.2781
 1125TIP3    H127570   1.016   1.744   9.246 -0.7122 -0.5890 -1.5697
 1125TIP3    H227571   1.072   1.606   9.219  0.6565 -0.4736  0.4712
 1126TIP3   OH227572   2.965   0.037   8.727 -0.1229  0.9207 -0.5820
 1126TIP3    H127573   3.056   0.010   8.720 -0.5528 -0.5081 -0.8454
 1126TIP3    H227574   2.967   0.111   8.788  1.0939  0.3336  0.1310
 1127TIP3   OH227575   4.852   1.682   8.137  0.0887  0.2846 -0.5795
 1127TIP3    H127576   4.770   1.634   8.128  0.6216 -0.5868 -0.8908
 1127TIP3    H227577   4.826   1.775   8.138 -0.9378  0.0032 -0.1168
 1128TIP3   OH227578   7.113   6.697   9.591 -0.3211  0.0689 -0.3949
 1128TIP3    H127579   7.148   6.616   9.554  1.3610 -0.5586  2.3189
 1128TIP3    H227580   7.187   6.757   9.594 -0.2328 -0.0551  2.1447
 1129TIP3   OH227581   5.028   0.599   7.733 -0.4153  0.2225  0.6657
 1129TIP3    H127582   4.978   0.582   7.653  1.4118  1.4230 -0.8161
 1129TIP3    H227583   5.013   0.522   7.787 -2.8435  0.0050 -0.1935
 1130TIP3   OH227584   4.918   5.317   8.753  0.2389 -0.6394 -0.1803
 1130TIP3    H127585   4.965   5.320   8.670 -2.1124 -0.5675 -1.5702
 1130TIP3    H227586   4.903   5.409   8.776  0.5603 -0.6652  0.1455
 1131TIP3   OH227587   4.725   2.510   7.629 -0.0077 -0.0951 -0.5792
 1131TIP3    H127588   4.659   2.442   7.641  1.5729 -1.9223 -1.7289
 1131TIP3    H227589   4.683   2.590   7.662 -2.0184 -1.5444  0.5841
 1132TIP3   OH227590   1.396   1.110   8.901  0.3513  0.0538  0.0315
 1132TIP3    H127591   1.445   1.030   8.920  0.6893  0.0785 -0.7284
 1132TIP3    H227592   1.381   1.150   8.987  1.6661  0.0541  0.2747
 1133TIP3   OH227593   4.131   0.889   8.967  0.1497 -0.0696 -0.4879
 1133TIP3    H127594   4.100   0.800   8.951 -0.9983 -0.3615  2.5513
 1133TIP3    H227595   4.052   0.943   8.959  0.4149  0.3494 -0.2967
 1134TIP3   OH227596   1.639   1.736   7.383  0.5259  0.0107 -0.4182
 1134TIP3    H127597   1.546   1.721   7.364  0.6834 -4.7973  1.1822
 1134TIP3    H227598   1.639   1.785   7.465 -0.6377 -0.3121 -0.1985
 1135TIP3   OH227599   2.974   4.659   8.950 -0.0902  0.1839 -0.1092
 1135TIP3    H127600   3.016   4.618   9.026  2.5286  3.4465  0.4544
 1135TIP3    H227601   2.928   4.735   8.987 -0.7687  0.5170 -1.5757
 1136TIP3   OH227602   1.678   3.397   8.565 -0.4664 -0.1134 -0.6637
 1136TIP3    H127603   1.683   3.462   8.495 -0.7425  1.0308  0.3338
 1136TIP3    H227604   1.630   3.442   8.635 -3.0169 -2.2675 -0.8884
 1137TIP3   OH227605   3.410   4.983   8.882 -0.1880 -0.4148  0.0401
 1137TIP3    H127606   3.362   4.942   8.810  0.0209  1.2310 -1.1015
 1137TIP3    H227607   3.342   5.017   8.941 -0.4386  0.5818 -0.7913
 1138TIP3   OH227608   4.976   5.393   8.165  1.2097  0.6393 -0.4875
 1138TIP3    H127609   5.056   5.350   8.133  2.2725  1.5429  0.8627
 1138TIP3    H227610   4.980   5.481   8.128  2.0012  1.4036  1.3001
 1139TIP3   OH227611   2.067   0.238   8.400 -0.0243 -0.5996 -0.4681
 1139TIP3    H127612   2.013   0.194   8.464  0.1485  0.2763  0.3067
 1139TIP3    H227613   2.005   0.269   8.334 -0.5924  0.9313  0.7213
 1140TIP3   OH227614   4.837   3.610   9.612 -0.5841 -0.0067 -0.3207
 1140TIP3    H127615   4.803   3.539   9.667 -1.2299  1.5099  1.3203
 1140TIP3    H227616   4.932   3.603   9.620 -0.6644  0.0910  0.9004
 1141TIP3   OH227617   0.431   1.436   8.114 -0.1504 -0.5122 -0.1024
 1141TIP3    H127618   0.430   1.526   8.083  2.6978 -0.6052 -0.7259
 1141TIP3    H227619   0.394   1.440   8.202 -1.0538  1.0541 -0.5110
 1142TIP3   OH227620   0.903   5.549   8.035 -0.0985 -0.4454  0.1031
 1142TIP3    H127621   0.919   5.538   8.128  0.9189  0.0747  0.0150
 1142TIP3    H227622   0.877   5.462   8.004  1.4321 -1.0868  0.5304
 1143TIP3   OH227623   3.095   4.960   8.405 -0.5885 -0.1071 -0.2379
 1143TIP3    H127624   3.013   4.911   8.411 -0.1182 -0.7387  2.2457
 1143TIP3    H227625   3.148   4.912   8.341 -2.2113  0.4950 -2.1111
 1144TIP3   OH227626   2.279   4.685   8.390  0.4782 -0.2062 -0.0837
 1144TIP3    H127627   2.323   4.666   8.307 -0.7172 -2.8899 -0.2083
 1144TIP3    H227628   2.335   4.645   8.456 -0.3074 -1.2375  0.0016
 1145TIP3   OH227629   1.576   2.844   7.358 -0.3881  0.8678  0.1883
 1145TIP3    H127630   1.574   2.754   7.391  2.4291  1.0140  1.0132
 1145TIP3    H227631   1.624   2.837   7.275  0.8242  1.7237  0.7968
 1146TIP3   OH227632   1.171   2.789   7.759  0.0662 -0.3066  0.2132
 1146TIP3    H127633   1.127   2.855   7.812  0.5293 -0.8067  1.2436
 1146TIP3    H227634   1.262   2.818   7.755  0.4563 -1.3048  1.3905
 1147TIP3   OH227635   2.968   6.537   7.994  0.1181 -0.3339  0.5216
 1147TIP3    H127636   2.921   6.620   7.985 -0.3743 -0.6998 -0.4595
 1147TIP3    H227637   2.900   6.473   8.012  0.3608 -0.6939  0.1842
 1148TIP3   OH227638   7.425   7.546   6.429 -0.5497 -0.1123 -0.3049
 1148TIP3    H127639   7.373   7.570   6.506  1.4105  0.7643  0.8029
 1148TIP3    H227640   7.456   7.458   6.447  2.0081  0.9917  1.1984
 1149TIP3   OH227641   2.217   2.755   8.563 -0.2971  0.7281  0.3548
 1149TIP3    H127642   2.143   2.813   8.583 -1.2945 -0.0116 -1.0473
 1149TIP3    H227643   2.180   2.667   8.567  0.3575  0.3734 -0.9126
 1150TIP3   OH227644   0.536   2.022   9.099 -0.7011 -0.5006  0.2332
 1150TIP3    H127645   0.464   2.033   9.161 -1.2158  0.3421 -0.4949
 1150TIP3    H227646   0.609   2.069   9.140 -1.2119  0.5859 -0.0579
 1151TIP3   OH227647   7.006   2.961   9.138  0.3773  0.4948  0.0604
 1151TIP3    H127648   6.940   2.915   9.189  1.4287 -0.9603  0.1549
 1151TIP3    H227649   7.088   2.948   9.186  1.1505  0.2579 -1.2619
 1152TIP3   OH227650   5.432   6.640   9.304  0.2105 -0.0736  0.6532
 1152TIP3    H127651   5.462   6.556   9.340  1.6463  0.4662  0.7856
 1152TIP3    H227652   5.476   6.647   9.219 -0.1857  0.3820  0.4805
 1153TIP3   OH227653   4.670   7.153   9.470 -0.5241 -0.6488  0.3277
 1153TIP3    H127654   4.652   7.185   9.558 -1.6729  2.4701 -0.8702
 1153TIP3    H227655   4.584   7.146   9.429  0.0705  0.5017 -1.2550
 1154TIP3   OH227656   7.266   0.178   8.043  0.0155 -0.1465  0.3617
 1154TIP3    H127657   7.203   0.180   8.115  0.2303 -0.3178  0.5572
 1154TIP3    H227658   7.215   0.199   7.965 -0.6632 -2.0494  0.2510
 1155TIP3   OH227659   6.387   2.308   8.887  0.3725  0.6813 -0.3091
 1155TIP3    H127660   6.294   2.317   8.864 -0.1328 -1.1854  0.6878
 1155TIP3    H227661   6.408   2.218   8.863  1.1842  0.2668  1.7614
 1156TIP3   OH227662   6.158   6.826   8.978 -0.7179  0.4532 -0.0205
 1156TIP3    H127663   6.108   6.893   9.023 -1.6971  1.0797 -1.9137
 1156TIP3    H227664   6.161   6.855   8.887 -0.5928 -1.7161 -0.7839
 1157TIP3   OH227665   4.710   6.505   7.856  0.2359 -0.3386  0.2876
 1157TIP3    H127666   4.760   6.574   7.812  0.0514 -0.2487  0.2168
 1157TIP3    H227667   4.769   6.429   7.856  0.0250 -0.5125 -0.6360
 1158TIP3   OH227668   1.780   3.742   7.485 -0.3778  0.1553 -0.3777
 1158TIP3    H127669   1.806   3.657   7.449  0.0003  0.0230  0.1928
 1158TIP3    H227670   1.818   3.743   7.573  0.5301  1.3595 -0.7590
 1159TIP3   OH227671   5.455   5.839   9.268 -0.2745 -0.4139  0.4806
 1159TIP3    H127672   5.444   5.901   9.340  0.4605  0.4423 -0.1255
 1159TIP3    H227673   5.484   5.758   9.311  0.7923  0.2713  1.0883
 1160TIP3   OH227674   7.305   4.883   7.564  0.2301  0.5519 -0.4864
 1160TIP3    H127675   7.237   4.816   7.570 -1.0688  1.9225  2.4836
 1160TIP3    H227676   7.262   4.959   7.524  0.6598  0.7240 -0.6342
 1161TIP3   OH227677   5.209   1.928   7.396 -0.2058 -0.0619 -0.5062
 1161TIP3    H127678   5.157   1.965   7.326  0.2576 -0.0180 -0.8315
 1161TIP3    H227679   5.272   1.871   7.352  0.4476  0.3907 -0.1684
 1162TIP3   OH227680   0.116   4.394   9.329 -0.1652 -0.2701 -0.1655
 1162TIP3    H127681   0.162   4.415   9.247  0.0558  0.0178  0.0332
 1162TIP3    H227682   0.185   4.365   9.388 -0.0038  1.6157  0.6348
 1163TIP3   OH227683   6.725   3.095   8.182  0.8867 -0.0847  0.4270
 1163TIP3    H127684   6.760   3.006   8.183  1.3033  0.0636  1.6819
 1163TIP3    H227685   6.632   3.084   8.202  0.1059 -0.4737 -2.8398
 1164TIP3   OH227686   4.851   5.213   6.908  0.2415 -0.7855  0.1590
 1164TIP3    H127687   4.832   5.120   6.920  0.5646 -0.8750  0.0038
 1164TIP3    H227688   4.766   5.256   6.909  0.1120 -1.0455  0.5548
 1165TIP3   OH227689   0.387   6.852   9.327 -0.4455 -0.5550  0.2140
 1165TIP3    H127690   0.425   6.784   9.271  0.3615 -1.4520  1.7780
 1165TIP3    H227691   0.345   6.804   9.398  0.1458  0.5756  1.3559
 1166TIP3   OH227692   6.078   4.079   7.756 -0.0706  0.1060  0.2432
 1166TIP3    H127693   6.101   4.147   7.693  0.4768 -0.5454 -0.2625
 1166TIP3    H227694   6.102   3.997   7.714 -0.5911 -0.3997  0.9106
 1167TIP3   OH227695   0.842   6.427   8.907 -0.4439  0.2348 -0.8495
 1167TIP3    H127696   0.933   6.422   8.880 -1.0529 -1.0726 -2.8591
 1167TIP3    H227697   0.811   6.510   8.871  0.4060  1.7439  1.6302
 1168TIP3   OH227698   5.671   2.716   7.174 -0.4827  0.0781 -0.3110
 1168TIP3    H127699   5.723   2.700   7.095  0.0759  0.9546 -0.1414
 1168TIP3    H227700   5.657   2.811   7.174 -0.9332  0.0201  0.3727
 1169TIP3   OH227701   1.295   0.432   8.775 -0.2134  0.2808 -0.5265
 1169TIP3    H127702   1.253   0.362   8.725 -0.6818 -2.5800  3.4402
 1169TIP3    H227703   1.223   0.479   8.818  0.3064  0.3999  0.2326
 1170TIP3   OH227704   7.089   0.733   7.403  0.5630  0.1375  0.1328
 1170TIP3    H127705   7.073   0.736   7.309  0.7498 -0.5266  0.0806
 1170TIP3    H227706   7.175   0.772   7.414  1.1696 -1.0922 -0.1270
 1171TIP3   OH227707   4.123   4.514   8.139 -0.0006 -0.6302  0.2660
 1171TIP3    H127708   4.145   4.575   8.210  0.6528  0.7343 -1.0445
 1171TIP3    H227709   4.028   4.503   8.145  0.0769 -0.7485  1.4973
 1172TIP3   OH227710   4.968   4.613   7.923  0.1231 -0.9076  0.2876
 1172TIP3    H127711   4.924   4.594   8.007  1.1800 -1.3424  0.7554
 1172TIP3    H227712   4.950   4.536   7.869 -0.4962 -0.6602  0.1347
 1173TIP3   OH227713   2.458   3.756   9.461  0.5489  0.0842  0.2046
 1173TIP3    H127714   2.501   3.777   9.544  0.7669  1.5952 -0.2413
 1173TIP3    H227715   2.530   3.755   9.397  0.6219 -2.6705  0.2375
 1174TIP3   OH227716   5.985   3.661   9.537 -0.4525  0.1427  0.2533
 1174TIP3    H127717   6.037   3.703   9.468 -0.9745 -1.7540 -1.3976
 1174TIP3    H227718   5.898   3.700   9.529 -0.2100  0.7699  0.6350
 1175TIP3   OH227719   7.647   4.918   8.353  0.5807  0.7172  0.1065
 1175TIP3    H127720   7.617   4.981   8.286  1.8286  0.5849 -0.6183
 1175TIP3    H227721   7.635   4.964   8.436 -1.1425  0.8322 -0.1690
 1176TIP3   OH227722   6.099   7.012   7.974 -0.6575  0.2562  0.3076
 1176TIP3    H127723   6.175   6.983   7.923 -0.6925  1.8037 -0.6902
 1176TIP3    H227724   6.122   6.995   8.065  0.8761  0.6381  0.0098
 1177TIP3   OH227725   3.537   1.671   9.013  0.4450  0.2167  0.1577
 1177TIP3    H127726   3.569   1.598   8.960  0.6973  0.1548  0.3971
 1177TIP3    H227727   3.488   1.629   9.084  0.9629  0.2664  0.5447
 1178TIP3   OH227728   4.612   4.303   9.610 -0.0372  0.2211 -0.1048
 1178TIP3    H127729   4.702   4.332   9.597  0.1688 -0.4678 -0.2672
 1178TIP3    H227730   4.593   4.247   9.535 -0.8233  0.8655 -0.4028
 1179TIP3   OH227731   2.883   3.666   8.603 -0.5195  0.0785 -0.1630
 1179TIP3    H127732   2.810   3.616   8.640 -0.9445 -0.3651 -1.5730
 1179TIP3    H227733   2.875   3.753   8.643 -1.4393 -0.1548  0.1785
 1180TIP3   OH227734   4.992   5.653   8.050 -0.1472 -0.3963  0.4113
 1180TIP3    H127735   5.050   5.722   8.080 -1.9274  1.1336  0.5384
 1180TIP3    H227736   4.922   5.698   8.002 -2.6195 -1.7775  2.4022
 1181TIP3   OH227737   7.135   6.791   7.954  0.1079 -0.5065 -0.0209
 1181TIP3    H127738   7.200   6.841   7.905 -0.4982  0.3131 -0.0239
 1181TIP3    H227739   7.053   6.805   7.906 -0.7684  1.3272  1.8143
 1182TIP3   OH227740   6.040   2.153   8.518 -0.0423 -0.0746  0.0952
 1182TIP3    H127741   6.073   2.063   8.513  0.1421  0.0466 -1.1960
 1182TIP3    H227742   5.948   2.146   8.492 -0.1781  0.0496  0.5258
 1183TIP3   OH227743   7.090   4.054   8.130  0.0933  0.5955  0.3690
 1183TIP3    H127744   6.996   4.057   8.112  0.2515 -0.5754 -0.8743
 1183TIP3    H227745   7.127   4.122   8.074  0.1200  0.0749 -0.2548
 1184TIP3   OH227746   2.113   6.286   7.796  0.1938 -0.6657 -0.0161
 1184TIP3    H127747   2.139   6.201   7.759  0.3946 -0.1442 -1.1187
 1184TIP3    H227748   2.021   6.274   7.820 -0.4350 -0.5947 -2.1360
 1185TIP3   OH227749   0.051   2.151   7.138  0.1891 -0.2253 -0.2970
 1185TIP3    H127750   0.120   2.087   7.158  0.1199  0.2175  1.4604
 1185TIP3    H227751   0.098   2.232   7.120  0.1554 -0.0738  0.2950
 1186TIP3   OH227752   1.273   2.365   7.645 -0.2367 -0.4261 -0.3943
 1186TIP3    H127753   1.211   2.294   7.628 -0.9530  0.4896 -1.8088
 1186TIP3    H227754   1.218   2.438   7.674  0.1462  0.4102 -1.7037
 1187TIP3   OH227755   0.373   2.820   7.870  0.1504  0.0392  0.6028
 1187TIP3    H127756   0.345   2.748   7.927  1.0921 -0.9008 -0.1070
 1187TIP3    H227757   0.291   2.860   7.840 -0.3931 -1.0172  0.6474
 1188TIP3   OH227758   0.551   0.158   9.355 -0.6956  0.3041 -0.4314
 1188TIP3    H127759   0.568   0.077   9.403  2.6825  1.1065 -0.0169
 1188TIP3    H227760   0.464   0.187   9.386 -1.1010 -2.0886  0.8788
 1189TIP3   OH227761   6.065   2.791   8.946  0.0745 -0.6457 -0.1518
 1189TIP3    H127762   6.087   2.710   8.992  0.6752  1.0014  2.7475
 1189TIP3    H227763   6.137   2.806   8.886  0.7276 -1.5084  0.3976
 1190TIP3   OH227764   7.538   0.110   9.496  0.5171 -0.0754 -0.1080
 1190TIP3    H127765   7.631   0.127   9.510  0.6844 -2.0905  1.6690
 1190TIP3    H227766   7.535   0.038   9.434  0.1529 -0.2235  0.0778
 1191TIP3   OH227767   5.236   0.289   8.315 -0.0245 -0.1060  0.6696
 1191TIP3    H127768   5.162   0.347   8.298  0.8416  0.3644 -1.9305
 1191TIP3    H227769   5.284   0.332   8.386  0.3908  2.2557 -0.9230
 1192TIP3   OH227770   0.607   3.893   7.561  0.1525 -0.6112 -0.1559
 1192TIP3    H127771   0.673   3.869   7.497  3.2976  2.5942  1.5640
 1192TIP3    H227772   0.543   3.946   7.512  1.8417  0.7927 -0.9340
 1193TIP3   OH227773   7.306   7.139   7.363 -0.5133  0.1403  0.2180
 1193TIP3    H127774   7.288   7.231   7.384 -0.2399  0.2415  0.0109
 1193TIP3    H227775   7.270   7.090   7.437  0.5100  0.4978  0.9706
 1194TIP3   OH227776   4.227   0.147   7.685  0.1100  0.1559  0.5051
 1194TIP3    H127777   4.320   0.158   7.666  0.5677 -0.5422  2.1713
 1194TIP3    H227778   4.188   0.122   7.601  1.9208 -2.3737  0.2919
 1195TIP3   OH227779   1.571   1.728   6.893 -0.1057 -0.5083  0.3593
 1195TIP3    H127780   1.508   1.699   6.827  0.5425 -1.4490  0.1364
 1195TIP3    H227781   1.647   1.755   6.842  0.1346 -0.5657  0.6869
 1196TIP3   OH227782   2.786   3.399   8.704  0.4602 -0.3116 -0.6825
 1196TIP3    H127783   2.699   3.438   8.710  0.1454 -0.9526 -0.9525
 1196TIP3    H227784   2.801   3.387   8.610  1.9673  2.2249 -0.8539
 1197TIP3   OH227785   4.254   7.652   8.279  0.0150  0.2087 -0.6142
 1197TIP3    H127786   4.277   7.719   8.343 -1.5422  1.4090 -1.2402
 1197TIP3    H227787   4.182   7.604   8.321  0.1362 -0.1072 -0.7685
 1198TIP3   OH227788   4.022   1.420   7.799  0.3247 -0.0889  0.1004
 1198TIP3    H127789   3.969   1.482   7.849 -0.8984  0.6843 -2.0198
 1198TIP3    H227790   4.090   1.392   7.860 -0.5327  1.4726  1.8784
 1199TIP3   OH227791   0.880   5.655   9.046 -0.0988  0.1405 -0.6706
 1199TIP3    H127792   0.927   5.702   9.116 -0.1085 -2.2471  1.0593
 1199TIP3    H227793   0.827   5.723   9.005  0.9771  1.9379  0.6945
 1200TIP3   OH227794   2.439   5.083   8.243 -0.0657  0.5408  0.1485
 1200TIP3    H127795   2.441   5.167   8.198  2.2614 -0.3985 -1.7173
 1200TIP3    H227796   2.435   5.018   8.173  0.1648 -0.9512  1.4566
 1201TIP3   OH227797   4.386   1.190   7.387 -0.4812  0.7581 -0.2391
 1201TIP3    H127798   4.472   1.231   7.378  0.0750  0.1540  1.7311
 1201TIP3    H227799   4.399   1.100   7.356 -0.2904  0.5803  0.3284
 1202TIP3   OH227800   6.461   1.714   7.153 -0.5264 -0.1887  0.1441
 1202TIP3    H127801   6.457   1.634   7.101  0.9265  0.6360 -1.3445
 1202TIP3    H227802   6.546   1.753   7.129 -0.3620  0.8513  2.2431
 1203TIP3   OH227803   2.409   2.914   6.956  0.0987  0.1368 -0.2884
 1203TIP3    H127804   2.474   2.982   6.969 -1.7141  2.5169 -2.6422
 1203TIP3    H227805   2.423   2.884   6.866 -1.4009 -0.0138 -0.4952
 1204TIP3   OH227806   2.984   4.073   9.303  0.0648  0.3939  0.4462
 1204TIP3    H127807   3.059   4.077   9.362  0.9842  1.8838 -0.7278
 1204TIP3    H227808   2.928   4.147   9.329 -1.2622 -0.9483  1.5808
 1205TIP3   OH227809   2.310   6.165   9.282 -0.1485 -0.0719  0.2281
 1205TIP3    H127810   2.400   6.146   9.308  0.3092 -1.1412 -1.8688
 1205TIP3    H227811   2.261   6.087   9.307  0.2931 -1.1025 -1.9072
 1206TIP3   OH227812   3.529   3.171   9.310  0.6305 -0.7190 -0.3493
 1206TIP3    H127813   3.599   3.229   9.340  1.8373 -2.0189 -0.5244
 1206TIP3    H227814   3.497   3.212   9.229  0.4982  0.3968  0.2518
 1207TIP3   OH227815   3.135   5.251   8.657 -0.6369  0.2643 -0.2046
 1207TIP3    H127816   3.146   5.341   8.626 -1.9919  0.5446  0.0470
 1207TIP3    H227817   3.055   5.253   8.709 -0.7199 -1.0997 -0.2305
 1208TIP3   OH227818   6.714   5.702   8.481  0.5245 -0.2460 -0.0617
 1208TIP3    H127819   6.793   5.755   8.469  0.2140  0.8521  2.3059
 1208TIP3    H227820   6.726   5.659   8.565 -0.9253 -0.9628 -0.1867
 1209TIP3   OH227821   1.732   5.596   7.920  0.2885 -0.2590 -0.2684
 1209TIP3    H127822   1.658   5.546   7.956 -0.1069  0.8605  0.5210
 1209TIP3    H227823   1.805   5.573   7.978  0.3269 -0.5906 -0.4431
 1210TIP3   OH227824   5.160   4.664   7.161  0.0331 -0.1974 -0.4343
 1210TIP3    H127825   5.255   4.666   7.147 -0.0622 -0.5786 -1.1607
 1210TIP3    H227826   5.135   4.573   7.147 -0.3612 -0.2209  0.3565
 1211TIP3   OH227827   5.503   6.442   8.150 -0.8024  0.2888  0.1052
 1211TIP3    H127828   5.485   6.496   8.073  0.5713  1.9489  0.8839
 1211TIP3    H227829   5.422   6.446   8.201 -1.0092  0.9187 -0.2573
 1212TIP3   OH227830   3.610   3.591   7.328 -0.2652  0.1544  0.1826
 1212TIP3    H127831   3.581   3.678   7.352  0.3033 -0.1571  2.1761
 1212TIP3    H227832   3.538   3.554   7.277 -1.6515  0.8239  1.5976
 1213TIP3   OH227833   5.124   5.383   9.635  0.0416  0.1308  0.1507
 1213TIP3    H127834   5.064   5.458   9.631  1.5205  1.4749  1.4679
 1213TIP3    H227835   5.212   5.423   9.639  0.8404 -1.5961  1.9071
 1214TIP3   OH227836   6.564   7.423   9.038  0.1667 -0.1448  0.5983
 1214TIP3    H127837   6.590   7.511   9.066  1.1397 -0.6213  1.2526
 1214TIP3    H227838   6.530   7.436   8.949  0.0998  0.9210  0.7612
 1215TIP3   OH227839   4.606   5.325   9.036  0.2106  0.1450 -0.0591
 1215TIP3    H127840   4.692   5.338   9.076 -0.3069 -0.3242  1.2780
 1215TIP3    H227841   4.623   5.324   8.942  2.1884 -3.1092  0.1843
 1216TIP3   OH227842   6.270   1.040   7.727  0.1139 -0.1893  0.1872
 1216TIP3    H127843   6.199   0.994   7.773 -0.7053  0.7866 -0.0642
 1216TIP3    H227844   6.335   1.058   7.795  0.2816 -1.3645  0.3601
 1217TIP3   OH227845   3.727   4.880   7.701  0.0183  0.4111 -0.2218
 1217TIP3    H127846   3.691   4.803   7.656 -0.4430  0.5387 -0.0806
 1217TIP3    H227847   3.739   4.852   7.791 -0.0725  0.4805 -0.1880
 1218TIP3   OH227848   2.851   5.137   7.660  0.0998 -0.0511 -0.2689
 1218TIP3    H127849   2.931   5.177   7.697  1.1155 -1.2124 -1.1306
 1218TIP3    H227850   2.854   5.047   7.691 -0.6129 -0.2423 -0.7474
 1219TIP3   OH227851   5.451   3.069   9.201 -0.1312  0.4867  0.1747
 1219TIP3    H127852   5.423   3.160   9.196 -0.6733  0.3086 -0.1007
 1219TIP3    H227853   5.378   3.019   9.164 -1.1818 -0.3147  3.0285
 1220TIP3   OH227854   2.942   7.213   9.368  0.0484 -0.0927  0.0906
 1220TIP3    H127855   2.864   7.226   9.422  0.0738 -0.8926  0.3267
 1220TIP3    H227856   2.924   7.263   9.289 -0.4577  0.2027  0.3864
 1221TIP3   OH227857   6.837   3.298   9.286  0.1178  0.0560  0.1866
 1221TIP3    H127858   6.906   3.322   9.347  1.5346 -0.3434 -1.1743
 1221TIP3    H227859   6.844   3.363   9.215  0.0080 -0.7929 -0.6221
 1222TIP3   OH227860   0.430   1.485   7.744  0.2065 -0.2372 -0.1271
 1222TIP3    H127861   0.428   1.401   7.790  0.5274 -0.0312  0.2697
 1222TIP3    H227862   0.397   1.548   7.807 -0.2718 -0.1035 -0.5125
 1223TIP3   OH227863   0.402   0.211   8.468 -0.4933 -0.2436 -0.0643
 1223TIP3    H127864   0.438   0.299   8.463  1.8890 -0.8597  2.9881
 1223TIP3    H227865   0.309   0.221   8.449  0.0262  2.5797 -1.5646
 1224TIP3   OH227866   4.172   6.781   9.085  0.6295  0.0735 -0.3404
 1224TIP3    H127867   4.205   6.867   9.111  2.0357  0.0756 -1.9199
 1224TIP3    H227868   4.236   6.719   9.120  0.7812 -0.1482 -0.9825
 1225TIP3   OH227869   1.002   2.162   9.608 -0.4506  0.6491 -0.0318
 1225TIP3    H127870   1.063   2.101   9.568 -0.8600  0.4127 -0.3014
 1225TIP3    H227871   0.940   2.107   9.656  0.4015  0.9417  1.4958
 1226TIP3   OH227872   6.283   6.271   8.409 -0.0617  0.8291  0.2591
 1226TIP3    H127873   6.330   6.190   8.431 -1.0415  0.3033  0.4956
 1226TIP3    H227874   6.202   6.241   8.368 -1.0666  1.6286  1.5865
 1227TIP3   OH227875   0.073   7.482   7.875 -0.3036 -0.4106 -0.0630
 1227TIP3    H127876   0.152   7.433   7.854  0.7327 -0.0341  2.5269
 1227TIP3    H227877   0.025   7.425   7.935 -0.7233  0.3804  0.3715
 1228TIP3   OH227878   6.561   0.581   8.206 -0.0086 -0.2397  0.0617
 1228TIP3    H127879   6.617   0.518   8.161  0.0453  0.2292 -0.5492
 1228TIP3    H227880   6.620   0.627   8.266 -0.5436 -2.5754  2.5463
 1229TIP3   OH227881   6.992   4.502   8.451  0.2866 -0.1929 -0.6847
 1229TIP3    H127882   6.926   4.464   8.508  0.6972  0.2432  0.1048
 1229TIP3    H227883   7.043   4.559   8.509  0.5572  0.4527 -1.5469
 1230TIP3   OH227884   0.193   0.760   8.893 -0.0895 -0.1817  0.1592
 1230TIP3    H127885   0.175   0.747   8.986 -2.2434  1.6212  0.0884
 1230TIP3    H227886   0.142   0.691   8.850 -1.7368  0.9229  0.2446
 1231TIP3   OH227887   4.628   4.806   8.175  0.3278  0.1682 -0.0119
 1231TIP3    H127888   4.610   4.870   8.107  1.2648  0.3223 -0.1341
 1231TIP3    H227889   4.723   4.794   8.172  0.2527 -0.6649  0.5117
 1232TIP3   OH227890   0.020   5.035   8.682 -0.6458 -0.3842  0.2986
 1232TIP3    H127891  -0.076   5.036   8.671 -0.6228  1.4782 -0.1117
 1232TIP3    H227892   0.051   5.106   8.626  0.6306  1.6000  3.3142
 1233TIP3   OH227893   3.718   4.615   7.621 -0.4528 -0.3336 -0.5040
 1233TIP3    H127894   3.752   4.537   7.664 -1.7150 -1.1486 -0.9091
 1233TIP3    H227895   3.788   4.642   7.562 -0.1321 -1.3956 -0.6335
 1234TIP3   OH227896   6.613   2.150   8.060 -0.3743  0.5398  0.2798
 1234TIP3    H127897   6.622   2.188   7.973 -0.7810  0.1022  0.0454
 1234TIP3    H227898   6.533   2.097   8.056  0.0515 -0.1522  0.6668
 1235TIP3   OH227899   4.177   1.750   9.343 -0.3542 -0.1008 -0.4507
 1235TIP3    H127900   4.210   1.793   9.264 -0.1469  0.4209 -0.0872
 1235TIP3    H227901   4.101   1.800   9.369  0.5745  0.8053  0.6477
 1236TIP3   OH227902   1.954   5.370   9.555 -0.1521 -0.6909  0.0387
 1236TIP3    H127903   1.995   5.285   9.569 -1.5177 -1.3315  0.3650
 1236TIP3    H227904   1.959   5.413   9.640 -0.7805 -1.0693  0.2764
 1237TIP3   OH227905   5.815   0.684   8.296  0.7939  0.4367 -0.2433
 1237TIP3    H127906   5.781   0.727   8.218 -0.5560 -0.3961 -0.1459
 1237TIP3    H227907   5.882   0.624   8.263 -0.6083 -0.8262 -0.9783
 1238TIP3   OH227908   7.217   3.862   8.563  0.2422  0.6551 -0.1542
 1238TIP3    H127909   7.217   3.922   8.488 -0.8590 -0.3080 -0.9517
 1238TIP3    H227910   7.303   3.821   8.561 -0.1179 -0.0863 -1.5163
 1239TIP3   OH227911   0.771   7.390   7.929  0.0527 -0.4666 -0.4292
 1239TIP3    H127912   0.787   7.443   7.851 -1.8618 -0.3937 -0.8013
 1239TIP3    H227913   0.761   7.301   7.896  0.9803 -0.7287 -0.0482
 1240TIP3   OH227914   3.154   2.174   8.400  0.5924  0.2512 -0.4097
 1240TIP3    H127915   3.124   2.084   8.415  2.4073 -0.0973  1.4134
 1240TIP3    H227916   3.073   2.225   8.394 -0.4546 -1.3787 -0.8111
 1241TIP3   OH227917   1.651   7.610   8.976  0.0897 -0.0797  0.0066
 1241TIP3    H127918   1.718   7.676   8.994  0.2327  0.1487 -1.2298
 1241TIP3    H227919   1.615   7.635   8.891 -1.0111 -0.6640  0.2742
 1242TIP3   OH227920   2.641   2.165   7.356  0.0979 -0.0595 -0.2948
 1242TIP3    H127921   2.573   2.224   7.323  1.9675  2.7251  0.5076
 1242TIP3    H227922   2.723   2.211   7.338  1.6346 -2.1085  1.0809
 1243TIP3   OH227923   5.064   5.272   8.425 -0.2422 -0.3772  0.3321
 1243TIP3    H127924   5.049   5.361   8.455 -1.4940 -0.1304 -0.9501
 1243TIP3    H227925   5.106   5.282   8.340  1.0600 -1.0459  0.8689
 1244TIP3   OH227926   6.356   4.293   7.102 -0.6235 -0.3518 -0.0521
 1244TIP3    H127927   6.310   4.338   7.031  0.3133  0.2124 -0.3176
 1244TIP3    H227928   6.392   4.364   7.156  2.1280 -0.6964 -1.2820
 1245TIP3   OH227929   2.229   0.669   7.671 -0.6818 -0.0713 -0.2206
 1245TIP3    H127930   2.135   0.654   7.680 -0.4227 -0.9581  1.2113
 1245TIP3    H227931   2.268   0.582   7.664  0.3155  0.0430  2.6037
 1246TIP3   OH227932   3.652   0.972   8.089  0.1605 -0.2415 -0.1490
 1246TIP3    H127933   3.663   0.922   8.008  0.5596 -0.3101 -0.0536
 1246TIP3    H227934   3.563   1.007   8.083  0.2994  0.0298 -0.7735
 1247TIP3   OH227935   2.280   1.225   9.019 -0.2000  0.2516 -0.0722
 1247TIP3    H127936   2.277   1.267   8.934 -0.9472 -2.3004 -1.4220
 1247TIP3    H227937   2.373   1.221   9.042  0.3119 -1.4454 -2.1461
 1248TIP3   OH227938   3.550   3.481   6.982  0.6456 -0.6674 -0.1718
 1248TIP3    H127939   3.521   3.548   6.920  0.6811 -0.5157 -0.0256
 1248TIP3    H227940   3.480   3.477   7.047  0.8168 -0.5115  0.0209
 1249TIP3   OH227941   2.664   0.729   7.552  0.2444  0.1787 -0.3313
 1249TIP3    H127942   2.645   0.735   7.458 -1.9604  1.0320  0.1052
 1249TIP3    H227943   2.593   0.777   7.594  1.2064 -0.1367  1.7971
 1250TIP3   OH227944   0.365   3.871   8.185 -0.4106  0.4211 -0.1843
 1250TIP3    H127945   0.452   3.840   8.160  0.8445  1.0261  3.0002
 1250TIP3    H227946   0.320   3.792   8.216  0.1315  0.5537  0.9899
 1251TIP3   OH227947   3.154   5.595   7.344 -0.4418 -0.1804 -0.0255
 1251TIP3    H127948   3.178   5.624   7.432 -0.2031  1.5083 -0.6157
 1251TIP3    H227949   3.061   5.617   7.335 -0.0967  1.1126 -0.7170
 1252TIP3   OH227950   1.473   5.245   8.572 -0.2107  0.3211 -0.4101
 1252TIP3    H127951   1.522   5.259   8.491 -1.8522 -1.0226 -1.7054
 1252TIP3    H227952   1.497   5.156   8.600 -0.1873  0.5174  0.2191
 1253TIP3   OH227953   6.606   6.212   8.531 -0.0873  0.0989  0.7137
 1253TIP3    H127954   6.533   6.162   8.494  0.5311 -0.2011 -0.1240
 1253TIP3    H227955   6.572   6.247   8.613 -1.2228  0.0725  0.2708
 1254TIP3   OH227956   1.703   2.295   7.254  0.5674 -0.7849 -0.1294
 1254TIP3    H127957   1.670   2.212   7.288  0.9423 -1.0808 -0.4798
 1254TIP3    H227958   1.628   2.334   7.208 -0.1303 -0.0903  1.5136
 1255TIP3   OH227959   3.225   0.606   8.234  0.3821 -0.3406  0.4500
 1255TIP3    H127960   3.185   0.528   8.272  0.6196 -1.0271 -0.6594
 1255TIP3    H227961   3.186   0.679   8.282  0.7986 -1.1602  2.1049
 1256TIP3   OH227962   4.115   5.978   8.747 -0.4929 -0.0280  0.0587
 1256TIP3    H127963   4.022   5.980   8.726 -0.4236  0.0544 -0.2456
 1256TIP3    H227964   4.140   6.070   8.756 -1.0371 -0.0663  2.8926
 1257TIP3   OH227965   0.497   6.710   9.617  0.3535 -0.0330  0.5032
 1257TIP3    H127966   0.508   6.677   9.707 -0.5153 -1.6412  0.0632
 1257TIP3    H227967   0.402   6.709   9.603  0.4049  1.2617 -0.0816
 1258TIP3   OH227968   5.158   7.430   8.070 -0.2017 -0.3307  0.4065
 1258TIP3    H127969   5.073   7.473   8.072 -0.2028 -0.1188 -1.7658
 1258TIP3    H227970   5.211   7.484   8.011  1.1975 -0.8990  1.0782
 1259TIP3   OH227971   4.724   2.147   7.495 -0.0906 -0.8375  0.6782
 1259TIP3    H127972   4.782   2.152   7.419 -1.1504  0.2226 -0.0875
 1259TIP3    H227973   4.637   2.131   7.458 -0.9923  1.7843  1.4795
 1260TIP3   OH227974   2.726   7.226   7.990  0.0392  0.0991  0.0722
 1260TIP3    H127975   2.803   7.174   7.965  0.5174  1.3659 -1.2221
 1260TIP3    H227976   2.671   7.165   8.039  2.0907 -0.7151  1.5280
 1261TIP3   OH227977   0.384   2.466   7.797 -0.2862 -0.2064  0.4122
 1261TIP3    H127978   0.326   2.532   7.836 -2.0147 -1.9000  0.8676
 1261TIP3    H227979   0.452   2.453   7.863 -1.1952 -0.4662  1.3402
 1262TIP3   OH227980   2.756   7.188   9.560 -0.3043  0.2464  0.5140
 1262TIP3    H127981   2.796   7.117   9.610  0.0140  0.7696  1.0147
 1262TIP3    H227982   2.669   7.156   9.536  0.7368 -1.3643 -1.4994
 1263TIP3   OH227983   0.696   6.926   8.750  0.1734  0.0342  0.1477
 1263TIP3    H127984   0.643   6.972   8.815 -3.3757 -0.2063 -2.3070
 1263TIP3    H227985   0.767   6.987   8.729 -1.2393  2.0609  0.9387
 1264TIP3   OH227986   5.423   6.481   8.589 -0.4819  0.0670 -0.0786
 1264TIP3    H127987   5.464   6.566   8.603 -1.6358  0.7322 -0.6573
 1264TIP3    H227988   5.430   6.437   8.674 -2.0423  1.7036  0.9784
 1265TIP3   OH227989   0.021   2.763   9.280 -0.2519  0.1973  0.0856
 1265TIP3    H127990  -0.072   2.780   9.267  0.1507  0.9201 -2.2270
 1265TIP3    H227991   0.047   2.824   9.349 -1.6122 -0.5643  1.3397
 1266TIP3   OH227992   7.650   1.660   9.085 -0.0198 -0.1075 -0.2504
 1266TIP3    H127993   7.600   1.606   9.146  1.4493 -0.7293  0.4605
 1266TIP3    H227994   7.585   1.691   9.021 -1.4119 -0.2782  1.0258
 1267TIP3   OH227995   5.176   7.101   7.689  0.4276  0.1444 -0.1812
 1267TIP3    H127996   5.175   7.061   7.602  1.0678  0.2962 -0.2641
 1267TIP3    H227997   5.184   7.195   7.671  0.5783  0.1735  0.0418
 1268TIP3   OH227998   7.450   2.652   8.559  0.2894  0.0654  0.2609
 1268TIP3    H127999   7.432   2.592   8.486  3.4378 -1.0046  0.2539
 1268TIP3    H228000   7.477   2.734   8.516  1.8964 -0.4858  0.1571
 1269TIP3   OH228001   4.670   4.889   8.542 -0.8659 -0.3046 -0.0610
 1269TIP3    H128002   4.723   4.938   8.479 -0.6563  1.1137  1.1656
 1269TIP3    H228003   4.715   4.805   8.552  0.3220  0.3055 -0.1727
 1270TIP3   OH228004   3.041   6.629   8.943 -0.1492  0.0254 -0.1124
 1270TIP3    H128005   3.128   6.661   8.919 -0.1462  0.1496  0.0646
 1270TIP3    H228006   2.990   6.635   8.862 -0.6762  2.2203  0.3075
 1271TIP3   OH228007   7.149   1.605   6.712 -0.3213  0.0701 -0.4623
 1271TIP3    H128008   7.230   1.553   6.706 -0.5482 -0.5407  1.3123
 1271TIP3    H228009   7.176   1.686   6.754 -0.7213 -0.3734  0.6654
 1272TIP3   OH228010   1.304   7.319   7.893 -0.0312 -0.1787 -0.2564
 1272TIP3    H128011   1.288   7.396   7.948 -0.4904 -0.3943 -0.0810
 1272TIP3    H228012   1.229   7.317   7.834  0.3750 -0.0476 -0.7812
 1273TIP3   OH228013   5.018   5.472  10.000 -0.5562  0.4352 -0.6517
 1273TIP3    H128014   5.095   5.526   9.979 -0.7256  1.3329  0.8755
 1273TIP3    H228015   5.048   5.415  10.071 -0.8471 -0.3621 -1.1614
 1274TIP3   OH228016   0.554   5.181   6.704  0.5912  0.4995  0.3059
 1274TIP3    H128017   0.465   5.209   6.726 -0.9198 -3.0615 -0.5908
 1274TIP3    H228018   0.566   5.206   6.613  0.0697  0.0602  0.1135
 1275TIP3   OH228019   2.626   2.269   8.083  0.5110  0.2256 -0.0167
 1275TIP3    H128020   2.717   2.297   8.076  0.3841  0.4285 -0.9409
 1275TIP3    H228021   2.581   2.312   8.010  0.1597 -1.8071 -1.0620
 1276TIP3   OH228022   3.051   1.353   7.257  0.9679 -0.3273  0.2004
 1276TIP3    H128023   3.043   1.411   7.182 -1.0663 -0.9884 -0.1615
 1276TIP3    H228024   3.086   1.271   7.221  0.0484 -0.6248 -0.0309
 1277TIP3   OH228025   1.339   4.526   8.554  0.5369  0.4389  0.0397
 1277TIP3    H128026   1.399   4.582   8.604  0.6556  0.0281  0.3719
 1277TIP3    H228027   1.276   4.586   8.515  0.2160  0.7462  0.9993
 1278TIP3   OH228028   2.829   6.291   8.438 -0.2472  0.3654  0.3710
 1278TIP3    H128029   2.869   6.313   8.522  1.9767  1.7902 -0.9884
 1278TIP3    H228030   2.881   6.218   8.405 -0.7749  0.1714 -0.0502
 1279TIP3   OH228031   4.517   0.388   7.978  0.4596 -0.2490  0.0506
 1279TIP3    H128032   4.506   0.483   7.981 -1.4128 -0.4183 -0.2452
 1279TIP3    H228033   4.537   0.363   8.068 -0.5646  0.2782  0.4384
 1280TIP3   OH228034   2.976   0.252   7.976 -0.1201 -0.1985  0.1440
 1280TIP3    H128035   2.951   0.182   7.915  0.8545 -1.7233  1.4297
 1280TIP3    H228036   3.067   0.272   7.953 -0.9726  2.2463 -1.6166
 1281TIP3   OH228037   6.612   2.338   8.251 -0.1963  0.0220 -0.0566
 1281TIP3    H128038   6.618   2.272   8.182  2.0808 -0.1250  0.2134
 1281TIP3    H228039   6.556   2.298   8.318 -1.5649 -0.2534 -1.3071
 1282TIP3   OH228040   3.572   3.185   7.776  0.6369 -0.0871 -0.3915
 1282TIP3    H128041   3.657   3.222   7.751  1.0966 -1.7365 -1.4684
 1282TIP3    H228042   3.518   3.195   7.698 -0.3082  1.2372  0.3903
 1283TIP3   OH228043   0.896   2.493   8.512  0.1258  0.0063 -0.3113
 1283TIP3    H128044   0.957   2.556   8.474 -0.0531  0.2271 -0.2378
 1283TIP3    H228045   0.868   2.438   8.438 -2.2474  2.0741 -1.1017
 1284TIP3   OH228046   5.940   1.691   7.693 -0.7008  0.8561  0.3121
 1284TIP3    H128047   5.996   1.621   7.658 -3.2213 -0.5265 -1.2139
 1284TIP3    H228048   5.981   1.714   7.776  2.1655  0.0252 -0.7393
 1285TIP3   OH228049   0.852   4.941   7.722 -0.1981  0.1741  0.8519
 1285TIP3    H128050   0.883   5.003   7.657 -1.0423  0.7647  0.9990
 1285TIP3    H228051   0.931   4.903   7.760  0.3502 -1.5121 -1.7389
 1286TIP3   OH228052   0.118   2.944   7.179 -0.3335  0.4647  0.2729
 1286TIP3    H128053   0.111   2.889   7.257  0.9430 -0.5316 -0.2778
 1286TIP3    H228054   0.133   3.032   7.212  0.5376 -0.0078  1.1623
 1287TIP3   OH228055   0.440   2.719   8.993 -0.2182  0.0204  0.4861
 1287TIP3    H128056   0.460   2.626   8.995  0.8308  0.1902 -0.8888
 1287TIP3    H228057   0.429   2.743   9.085 -0.2328 -1.3946  0.8745
 1288TIP3   OH228058   0.897   1.761   7.256  0.3771  0.3944  0.1662
 1288TIP3    H128059   0.877   1.762   7.350  1.4210 -0.3925  0.4173
 1288TIP3    H228060   0.893   1.853   7.230 -0.1645  0.5991  0.9261
 1289TIP3   OH228061   1.536   4.385   8.798  0.1250  0.1125 -0.0632
 1289TIP3    H128062   1.544   4.346   8.711  0.3003 -0.6439  0.2910
 1289TIP3    H228063   1.572   4.474   8.788  4.6811 -1.4307  0.2868
 1290TIP3   OH228064   2.038   2.223   8.032 -0.0952 -0.6823 -0.4616
 1290TIP3    H128065   2.012   2.148   7.978  0.9642 -0.3519 -1.4716
 1290TIP3    H228066   2.087   2.280   7.972  1.2928 -0.3975  0.8823
 1291TIP3   OH228067   3.960   6.752   7.652  0.2562  0.7603 -0.2273
 1291TIP3    H128068   3.916   6.744   7.736 -1.0701 -0.6211 -0.9956
 1291TIP3    H228069   4.046   6.789   7.673  0.4383 -0.6733  1.8956
 1292TIP3   OH228070   7.290   0.614   8.634  0.5768 -0.2135  0.2357
 1292TIP3    H128071   7.251   0.669   8.566  0.8628  1.5564  1.4320
 1292TIP3    H228072   7.216   0.587   8.688  0.2791 -2.0376 -0.9774
 1293TIP3   OH228073   6.538   4.320   8.996 -0.0964 -0.0141 -0.1548
 1293TIP3    H128074   6.625   4.311   9.035  0.0549  1.8204 -0.0089
 1293TIP3    H228075   6.486   4.365   9.063 -1.3293 -1.4845 -0.0529
 1294TIP3   OH228076   7.379   1.634   7.826  0.5183  0.1244 -0.0339
 1294TIP3    H128077   7.381   1.712   7.880  0.3567  0.7497 -0.9085
 1294TIP3    H228078   7.333   1.661   7.746 -0.6309 -1.1794  0.1366
 1295TIP3   OH228079   4.768   3.302   8.127  0.0732  1.0075  0.6736
 1295TIP3    H128080   4.753   3.229   8.067 -1.0706  2.9730 -1.6118
 1295TIP3    H228081   4.708   3.287   8.200  0.6568 -0.8471  0.8297
 1296TIP3   OH228082   3.381   3.769   8.016  0.2610  0.3517 -0.1911
 1296TIP3    H128083   3.471   3.771   7.983  0.0859 -0.5798 -0.7524
 1296TIP3    H228084   3.388   3.718   8.097  0.1421 -0.2778 -0.5710
 1297TIP3   OH228085   4.770   5.028   9.603 -0.3198 -0.1825 -0.1564
 1297TIP3    H128086   4.791   5.108   9.650 -0.1033  0.5258 -1.4306
 1297TIP3    H228087   4.675   5.021   9.608 -0.2387 -0.7492  1.3486
 1298TIP3   OH228088   3.809   0.089   9.073  0.3338  0.8534 -0.3120
 1298TIP3    H128089   3.875   0.074   9.142  0.1012  0.2189 -0.2215
 1298TIP3    H228090   3.725   0.072   9.116  0.2158 -0.0878 -0.8836
 1299TIP3   OH228091   3.255   6.557   9.351 -0.2002  0.5115  0.0053
 1299TIP3    H128092   3.254   6.534   9.444  1.3566  0.3139  0.0133
 1299TIP3    H228093   3.235   6.650   9.349  1.3099  0.8871  0.7138
 1300TIP3   OH228094   0.995   4.792   8.286  0.1976 -0.5267 -0.5471
 1300TIP3    H128095   0.903   4.800   8.311  0.4287  1.2323 -0.1435
 1300TIP3    H228096   1.009   4.860   8.220  0.9994 -1.3993 -1.3350
 1301TIP3   OH228097   6.518   6.236   6.799  0.0922  0.7113  0.4563
 1301TIP3    H128098   6.455   6.179   6.754  0.1466  1.0041  0.0016
 1301TIP3    H228099   6.488   6.325   6.780  0.0633  0.8392  1.0831
 1302TIP3   OH228100   6.660   5.314   7.549  0.3852  0.3566  0.2727
 1302TIP3    H128101   6.650   5.223   7.578  0.5570  0.0634 -0.5817
 1302TIP3    H228102   6.570   5.344   7.534  0.3934 -0.1770 -0.9577
 1303TIP3   OH228103   7.129   2.357   8.771 -0.4147 -0.0342  0.3826
 1303TIP3    H128104   7.046   2.327   8.734 -0.1676 -1.0142  0.5993
 1303TIP3    H228105   7.146   2.440   8.727 -1.1714 -0.1571 -0.1628
 1304TIP3   OH228106   3.814   1.235   8.341  0.8063 -0.1072  0.0574
 1304TIP3    H128107   3.803   1.286   8.261 -0.2893 -1.5293 -0.7589
 1304TIP3    H228108   3.894   1.268   8.381  1.3851  0.6313 -1.6452
 1305TIP3   OH228109   2.912   1.917   9.091  0.1087  0.1194 -0.3022
 1305TIP3    H128110   2.955   1.882   9.168 -0.9762 -1.2779 -0.2899
 1305TIP3    H228111   2.879   2.003   9.118  0.0549 -0.2031  0.6801
 1306TIP3   OH228112   3.343   7.264   7.742  0.5092 -0.0903 -0.8750
 1306TIP3    H128113   3.326   7.311   7.660 -1.0147 -0.1121 -0.5963
 1306TIP3    H228114   3.394   7.326   7.795  2.2243 -0.3675 -2.1084
 1307TIP3   OH228115   4.900   3.626   7.848 -0.2526  0.1296 -0.3982
 1307TIP3    H128116   4.819   3.617   7.798 -0.3919 -0.7795 -0.0175
 1307TIP3    H228117   4.873   3.615   7.939  0.1611  0.7647 -0.1873
 1308TIP3   OH228118   4.029   5.215   9.199  0.3565 -0.1770  0.5228
 1308TIP3    H128119   4.022   5.130   9.157  1.0916  0.3626 -0.7401
 1308TIP3    H228120   3.939   5.238   9.222 -0.2883  0.0983 -2.0103
 1309TIP3   OH228121   3.153   6.391   9.031  0.5538 -0.5234 -0.2669
 1309TIP3    H128122   3.085   6.358   9.089  1.1731 -2.0697 -0.3735
 1309TIP3    H228123   3.113   6.466   8.988 -1.1442 -1.4905 -0.4666
 1310TIP3   OH228124   1.523   2.465   9.139 -0.3605 -0.0013  0.2716
 1310TIP3    H128125   1.452   2.529   9.135  1.0171  1.7391  1.9760
 1310TIP3    H228126   1.594   2.505   9.089 -0.0891 -1.1054 -0.2617
 1311TIP3   OH228127   7.645   1.830   8.180  0.5611  0.6189  0.4372
 1311TIP3    H128128   7.692   1.764   8.230 -1.3393 -0.8020  0.4412
 1311TIP3    H228129   7.619   1.896   8.245 -1.6793 -1.0913  1.4058
 1312TIP3   OH228130   0.478   2.285   7.388  0.2963 -0.2955 -0.6830
 1312TIP3    H128131   0.513   2.204   7.351  2.9646  0.3798  0.1590
 1312TIP3    H228132   0.436   2.259   7.470  0.4658 -0.9043 -0.7865
 1313TIP3   OH228133   0.705   3.949   9.420  0.0439  0.2210  0.4123
 1313TIP3    H128134   0.718   4.024   9.479  0.1615  0.7232 -0.2479
 1313TIP3    H228135   0.760   3.880   9.458 -0.3835  0.3286  1.2604
 1314TIP3   OH228136   4.164   3.188   7.772 -0.6131 -0.2243  0.3110
 1314TIP3    H128137   4.077   3.216   7.745 -0.7862 -0.0937  0.9903
 1314TIP3    H228138   4.154   3.094   7.790 -0.7613 -0.0815  0.9809
 1315TIP3   OH228139   1.503   7.246   7.054 -0.0730 -0.1120  0.2550
 1315TIP3    H128140   1.413   7.277   7.049 -0.1842 -0.5067 -0.2376
 1315TIP3    H228141   1.504   7.166   7.002  0.3723 -0.5627  0.9382
 1316TIP3   OH228142   7.198   6.011   7.206 -0.2690  0.1092 -0.8970
 1316TIP3    H128143   7.180   5.959   7.128 -0.2704 -1.3293  0.0287
 1316TIP3    H228144   7.123   6.069   7.214 -0.2916  0.2453 -1.9224
 1317TIP3   OH228145   1.396   6.564   9.576  0.4291  0.2438 -0.2445
 1317TIP3    H128146   1.397   6.647   9.623  0.9863 -1.1574  2.4446
 1317TIP3    H228147   1.489   6.544   9.560  0.3941 -0.5115  0.4364
 1318TIP3   OH228148   6.497   2.465   7.675 -0.1219 -0.1206 -0.3724
 1318TIP3    H128149   6.456   2.484   7.591  0.7525 -2.7402 -1.5093
 1318TIP3    H228150   6.567   2.529   7.682  0.7282 -0.7231 -2.4398
 1319TIP3   OH228151   0.771   0.882   7.748  0.6359  0.0555 -0.3393
 1319TIP3    H128152   0.786   0.975   7.763  0.5170  0.0525 -0.2056
 1319TIP3    H228153   0.812   0.838   7.822 -1.9328  0.1556  1.2828
 1320TIP3   OH228154   6.048   1.338   8.020 -0.0303  0.1784  0.4286
 1320TIP3    H128155   5.973   1.365   8.073 -0.2840  0.2455  0.0405
 1320TIP3    H228156   6.097   1.277   8.076 -0.4982 -0.0405  0.6019
 1321TIP3   OH228157   4.236   2.149   8.481  0.0171  0.1416  0.1376
 1321TIP3    H128158   4.143   2.152   8.457 -0.1596 -0.9034  0.6263
 1321TIP3    H228159   4.282   2.139   8.398 -0.3635 -0.1548 -0.0405
 1322TIP3   OH228160   2.783   5.681   9.221  0.0734 -0.2590  0.1328
 1322TIP3    H128161   2.694   5.691   9.255  0.1568  1.2847 -0.0177
 1322TIP3    H228162   2.830   5.633   9.289 -0.1142  1.5731  1.6401
 1323TIP3   OH228163   2.774   7.429   9.659 -0.0266 -0.0535  0.5637
 1323TIP3    H128164   2.772   7.346   9.610 -0.0532 -0.9845  2.0863
 1323TIP3    H228165   2.690   7.470   9.639  0.7430  0.5496 -1.7171
 1324TIP3   OH228166   1.024   0.186   8.410  0.2878  0.1973  0.2925
 1324TIP3    H128167   1.018   0.091   8.399  0.1757  0.3362 -1.1000
 1324TIP3    H228168   0.979   0.222   8.333  1.6855  1.3654 -0.0445
 1325TIP3   OH228169   4.387   6.374   8.366 -0.0421  0.2356  0.2867
 1325TIP3    H128170   4.385   6.415   8.279 -0.2776  0.3441  0.3406
 1325TIP3    H228171   4.428   6.440   8.422 -1.6477  0.9886  0.6557
 1326TIP3   OH228172   2.246   0.034   8.284  0.0722 -0.1303  0.1919
 1326TIP3    H128173   2.224   0.008   8.373  2.2860  0.4855  0.9810
 1326TIP3    H228174   2.201   0.118   8.272  0.2552  0.0876  0.9734
 1327TIP3   OH228175   0.969   4.620   8.561 -0.2191 -0.0644 -0.2973
 1327TIP3    H128176   0.914   4.691   8.596  1.1465  1.5879 -1.3463
 1327TIP3    H228177   1.056   4.658   8.554  0.3980 -1.5954 -1.6853
 1328TIP3   OH228178   6.649   1.302   8.741  0.5066  0.2063 -0.3282
 1328TIP3    H128179   6.741   1.279   8.747  0.3339 -0.1173  2.7385
 1328TIP3    H228180   6.641   1.384   8.789 -0.5816  1.1090 -1.9615
 1329TIP3   OH228181   1.175   5.006   8.994  0.0641 -0.0181  0.1322
 1329TIP3    H128182   1.087   4.975   9.016  0.4858 -0.8031  0.7535
 1329TIP3    H228183   1.190   4.973   8.906 -0.3940  0.4152 -0.1132
 1330TIP3   OH228184   6.190   2.184   7.612  0.8657  0.9214  0.5907
 1330TIP3    H128185   6.270   2.228   7.585 -0.0299  1.3725 -1.5474
 1330TIP3    H228186   6.195   2.097   7.574  0.3964  0.9185  0.5224
 1331TIP3   OH228187   7.229   2.275   6.876  0.0445  0.2226 -0.4518
 1331TIP3    H128188   7.179   2.318   6.945  0.4529 -0.0793  0.0405
 1331TIP3    H228189   7.204   2.322   6.796  0.5389  1.4467  0.0752
 1332TIP3   OH228190   0.925   1.049   9.438 -0.4493  0.6967 -0.2349
 1332TIP3    H128191   0.976   0.991   9.495  2.6826  0.8975 -2.5056
 1332TIP3    H228192   0.911   1.128   9.489 -1.1398 -0.4931  1.4988
 1333TIP3   OH228193   2.004   0.324   9.642  0.7015  0.6506  0.0896
 1333TIP3    H128194   1.992   0.271   9.720 -0.0569 -1.2849 -1.2623
 1333TIP3    H228195   1.928   0.382   9.641 -1.0952 -1.5528 -0.8165
 1334TIP3   OH228196   4.436   6.604   7.344  0.2613  0.5506  0.9167
 1334TIP3    H128197   4.415   6.677   7.286  0.3418  0.7624  1.1511
 1334TIP3    H228198   4.501   6.553   7.296 -0.5913  0.0322  0.2939
 1335TIP3   OH228199   0.395   1.681   7.973  0.0544  0.2724  0.3283
 1335TIP3    H128200   0.332   1.739   7.929 -0.7201 -1.9068 -1.6351
 1335TIP3    H228201   0.480   1.711   7.942 -0.2915  0.7828 -0.1656
 1336TIP3   OH228202   5.202   4.359   7.460 -0.5596 -0.2717 -0.2105
 1336TIP3    H128203   5.205   4.299   7.386  0.8843 -1.1115  0.4970
 1336TIP3    H228204   5.268   4.426   7.441 -1.1009  0.2595 -0.2785
 1337TIP3   OH228205   1.799   1.245   7.187  0.0684  0.1416  0.2872
 1337TIP3    H128206   1.793   1.341   7.190 -0.6200  0.0861  1.0376
 1337TIP3    H228207   1.711   1.217   7.162  0.0660 -0.3228  0.8080
 1338TIP3   OH228208   7.303   5.256   8.697  0.1991 -0.2756 -0.2780
 1338TIP3    H128209   7.316   5.305   8.778  0.5096 -1.1775  0.2345
 1338TIP3    H228210   7.210   5.267   8.677  0.3578  0.9073 -0.4490
 1339TIP3   OH228211   6.017   1.140   9.572  0.1267  0.5372  0.0171
 1339TIP3    H128212   6.086   1.077   9.551  0.1318  0.7358 -0.5991
 1339TIP3    H228213   5.938   1.104   9.532  0.3990  1.5782 -1.6053
 1340TIP3   OH228214   4.667   7.165   8.664 -0.0987  0.0516  0.1425
 1340TIP3    H128215   4.698   7.075   8.669  0.1481 -0.2299 -3.7089
 1340TIP3    H228216   4.574   7.160   8.682 -0.0253 -0.9344  0.2715
 1341TIP3   OH228217   5.109   1.305   7.410 -0.1317 -0.2337  0.1634
 1341TIP3    H128218   5.045   1.234   7.420 -0.5332  0.1638  0.4224
 1341TIP3    H228219   5.189   1.260   7.382 -0.2629 -0.8415  0.7284
 1342TIP3   OH228220   6.754   5.999   9.092 -0.5918 -0.1854 -0.2062
 1342TIP3    H128221   6.764   5.987   9.186  0.0943  0.9046 -0.1226
 1342TIP3    H228222   6.815   5.937   9.053  1.3273  1.3559  0.1658
 1343TIP3   OH228223   2.123   2.313   8.657 -0.3019  0.2258 -0.0960
 1343TIP3    H128224   2.081   2.232   8.628  1.4430 -0.2448 -1.4322
 1343TIP3    H228225   2.062   2.349   8.721 -1.4965 -1.7319 -0.0448
 1344TIP3   OH228226   0.723   0.913   7.212 -0.0981  0.4735 -0.0327
 1344TIP3    H128227   0.644   0.881   7.168  0.8671 -0.1486 -1.3963
 1344TIP3    H228228   0.704   1.004   7.233 -0.8338  0.6334 -1.2656
 1345TIP3   OH228229   3.478   4.369   7.476 -0.8861 -0.5066 -0.2878
 1345TIP3    H128230   3.429   4.444   7.441 -0.4982 -0.9088 -1.8038
 1345TIP3    H228231   3.527   4.404   7.550 -1.8748  0.3752 -0.0250
 1346TIP3   OH228232   5.620   6.222   8.449 -0.9576  0.2208 -0.1384
 1346TIP3    H128233   5.641   6.211   8.356 -0.3426  0.3022 -0.0083
 1346TIP3    H228234   5.609   6.317   8.460 -0.8878  0.2230 -0.0931
 1347TIP3   OH228235   7.467   5.572   8.128 -0.0779 -0.1352 -0.3697
 1347TIP3    H128236   7.535   5.514   8.094  0.1241 -0.2378  0.2098
 1347TIP3    H228237   7.415   5.595   8.051  0.8484  0.2743 -0.8818
 1348TIP3   OH228238   0.490   1.906   8.869  0.4033 -0.4829  0.2395
 1348TIP3    H128239   0.514   1.943   8.954  1.1289 -0.1012 -0.1238
 1348TIP3    H228240   0.564   1.926   8.812 -0.2704 -0.3433 -0.6083
 1349TIP3   OH228241   7.373   1.213   8.154 -0.3758  0.0186 -0.4949
 1349TIP3    H128242   7.431   1.159   8.100 -0.2570  0.7544 -1.1226
 1349TIP3    H228243   7.346   1.155   8.225 -0.1546 -0.8287 -1.0814
 1350TIP3   OH228244   1.486   2.342   8.428  0.3943  0.0690 -0.4963
 1350TIP3    H128245   1.470   2.435   8.410  1.6489  0.4488  0.1934
 1350TIP3    H228246   1.544   2.314   8.357  0.1458 -0.1502 -0.6141
 1351TIP3   OH228247   5.112   2.749   8.406  1.1709  0.6683  0.4136
 1351TIP3    H128248   5.124   2.681   8.473  0.0731  0.2690  0.2217
 1351TIP3    H228249   5.098   2.829   8.455  0.9649  0.4802  0.6671
 1352TIP3   OH228250   7.215   0.621   9.694  0.0348 -0.3430  0.4079
 1352TIP3    H128251   7.221   0.562   9.619  1.4699  0.4074 -0.0849
 1352TIP3    H228252   7.180   0.566   9.764 -2.8081 -0.7095 -1.1470
 1353TIP3   OH228253   2.156   5.454   8.749  0.6437 -0.4988 -0.2772
 1353TIP3    H128254   2.194   5.541   8.761  0.3588 -0.5014  0.7751
 1353TIP3    H228255   2.101   5.462   8.671 -0.8940  0.8365  0.8570
 1354TIP3   OH228256   4.634   5.715   9.647 -0.1694  0.1999  0.1510
 1354TIP3    H128257   4.726   5.707   9.672  0.5635 -1.0180 -2.5357
 1354TIP3    H228258   4.618   5.639   9.591 -2.7780  0.5030  0.3651
 1355TIP3   OH228259   5.992   5.207   7.653 -0.1768 -0.3513 -0.4205
 1355TIP3    H128260   5.901   5.183   7.641 -1.0908  2.2493  0.5365
 1355TIP3    H228261   6.041   5.143   7.602 -2.3959 -2.7743  0.2704
 1356TIP3   OH228262   7.484   1.425   7.583 -0.1981 -0.1952 -0.6514
 1356TIP3    H128263   7.481   1.449   7.675  0.6803 -0.6603 -0.4929
 1356TIP3    H228264   7.482   1.329   7.582 -3.6972 -0.2432 -1.2824
 1357TIP3   OH228265   0.131   1.431   8.541  0.1854  0.0767 -0.0685
 1357TIP3    H128266   0.085   1.501   8.588  0.5407  0.8985 -0.9055
 1357TIP3    H228267   0.215   1.423   8.587  1.4840  2.4447 -1.8244
 1358TIP3   OH228268   0.812   0.386   7.214  0.6511 -0.2541 -0.2521
 1358TIP3    H128269   0.903   0.357   7.202  1.3613  2.0814 -1.0792
 1358TIP3    H228270   0.760   0.307   7.198  2.5022 -1.5119 -0.4107
 1359TIP3   OH228271   3.277   0.946   7.619 -0.4348  0.1103 -0.1604
 1359TIP3    H128272   3.328   0.885   7.567  0.2437  0.9026 -0.4514
 1359TIP3    H228273   3.237   0.892   7.688 -1.8119 -1.0519 -1.7918
 1360TIP3   OH228274   4.331   4.559   9.905 -0.0383 -0.3877  0.7181
 1360TIP3    H128275   4.343   4.510   9.987 -0.9946 -0.0237  1.0801
 1360TIP3    H228276   4.332   4.651   9.931 -1.1768 -0.2898  0.4392
 1361TIP3   OH228277   1.098   2.537   7.792  0.2137 -0.7590  0.0608
 1361TIP3    H128278   1.129   2.626   7.779 -0.0931 -0.4415  1.3866
 1361TIP3    H228279   1.002   2.545   7.796  0.2380 -0.9527  1.4516
 1362TIP3   OH228280   2.802   6.566   9.155  0.6190 -0.0950 -0.0184
 1362TIP3    H128281   2.741   6.494   9.171  0.9398 -0.5630 -0.8202
 1362TIP3    H228282   2.851   6.539   9.078 -0.3442  1.7038 -1.3374
 1363TIP3   OH228283   3.246   5.010   8.637 -0.6235 -0.8404 -0.4806
 1363TIP3    H128284   3.168   4.963   8.608 -1.6817  1.1729 -1.0986
 1363TIP3    H228285   3.213   5.092   8.673  1.1367 -0.4915  0.4732
 1364TIP3   OH228286   6.138   2.472   9.383  0.3151  0.5551 -0.2271
 1364TIP3    H128287   6.133   2.495   9.290 -0.6384  0.0674 -0.3079
 1364TIP3    H228288   6.050   2.488   9.416  0.1475 -1.0622  0.1587
 1365TIP3   OH228289   6.070   6.632   9.556 -0.2176  0.1266 -0.3250
 1365TIP3    H128290   6.044   6.540   9.543  0.8490 -0.0694 -1.2147
 1365TIP3    H228291   6.153   6.627   9.604  0.0800  0.6103 -0.7849
 1366TIP3   OH228292   6.153   1.996   7.829 -0.3508 -0.0046 -0.0486
 1366TIP3    H128293   6.149   2.053   7.752  1.8113  1.4308  0.8109
 1366TIP3    H228294   6.063   1.990   7.859 -0.7351  2.7733 -0.3744
 1367TIP3   OH228295   3.950   6.784   8.581 -0.3666  0.8218  0.8879
 1367TIP3    H128296   3.886   6.840   8.625 -0.8810  0.4783  0.5977
 1367TIP3    H228297   3.993   6.736   8.651 -0.0636  1.4396  1.1221
 1368TIP3   OH228298   0.075   0.936   9.772  0.0076  0.0637  0.1745
 1368TIP3    H128299   0.083   0.842   9.758  0.2414  0.0987  0.0659
 1368TIP3    H228300   0.144   0.957   9.834 -0.6635  0.0050  0.9638
 1369TIP3   OH228301   6.986   4.605   9.038  0.5541  0.9840  0.3376
 1369TIP3    H128302   6.954   4.563   8.958  1.5277  0.8954 -0.0309
 1369TIP3    H228303   7.048   4.541   9.075  1.1618  1.5949  0.3974
 1370TIP3   OH228304   2.405   6.743   7.726 -0.2415  0.4073 -0.0783
 1370TIP3    H128305   2.340   6.677   7.703  1.4708 -0.7579 -1.9370
 1370TIP3    H228306   2.446   6.766   7.643  2.2257  0.5118  1.0823
 1371TIP3   OH228307   5.765   1.687   8.843  0.2710  0.7044  0.3087
 1371TIP3    H128308   5.795   1.754   8.781 -0.0971  0.1269 -0.4930
 1371TIP3    H228309   5.845   1.643   8.871  0.6832  2.3287  1.8704
 1372TIP3   OH228310   4.286   7.389   8.547 -0.7758  0.2556  1.1176
 1372TIP3    H128311   4.289   7.452   8.619 -2.6089  0.6926  0.8535
 1372TIP3    H228312   4.255   7.439   8.472  1.2601 -0.1573 -0.0752
 1373TIP3   OH228313   0.004   2.858   7.411 -0.1585 -0.3593 -0.3346
 1373TIP3    H128314  -0.052   2.924   7.451  0.4554 -0.5983  0.9620
 1373TIP3    H228315  -0.039   2.774   7.430  0.2014 -0.4822 -0.0454
 1374TIP3   OH228316   2.329   3.446   7.655  0.0857  0.2453 -0.1241
 1374TIP3    H128317   2.344   3.372   7.596 -0.4978  0.9463 -1.1854
 1374TIP3    H228318   2.279   3.409   7.727 -1.5002 -0.1426 -1.3638
 1375TIP3   OH228319   2.224   3.330   7.907  0.0725 -0.8164 -0.5641
 1375TIP3    H128320   2.242   3.388   7.981 -0.9558  0.5401 -1.3094
 1375TIP3    H228321   2.141   3.288   7.929 -0.3223 -0.2805 -1.0028
 1376TIP3   OH228322   5.570   5.894   8.476 -0.0862  0.4287  0.6965
 1376TIP3    H128323   5.662   5.919   8.467 -0.4218  2.1552  1.6293
 1376TIP3    H228324   5.563   5.859   8.565 -0.1529 -0.6749  0.2769
 1377TIP3   OH228325   6.583   1.356   9.486 -0.0460  0.0718  0.3745
 1377TIP3    H128326   6.526   1.321   9.554 -0.1327  1.3843  1.0078
 1377TIP3    H228327   6.527   1.413   9.434  0.3558  0.2336  0.1107
 1378TIP3   OH228328   5.627   5.707   8.206  0.3653 -0.4579  0.3226
 1378TIP3    H128329   5.586   5.727   8.290 -1.4845  0.4978 -0.7458
 1378TIP3    H228330   5.563   5.652   8.161 -0.8245  2.5894 -2.1416
 1379TIP3   OH228331   4.639   1.914   8.021 -0.0454 -0.2309  0.0417
 1379TIP3    H128332   4.718   1.894   7.970 -0.0767 -1.0318  0.2872
 1379TIP3    H228333   4.670   1.973   8.090  0.4167 -0.7830  0.3209
 1380TIP3   OH228334   2.182   6.695   8.415 -0.1340 -0.0605  0.8225
 1380TIP3    H128335   2.194   6.641   8.337  1.4558  1.7870 -0.3212
 1380TIP3    H228336   2.267   6.737   8.428 -1.0562  1.5337  2.1043
 1381TIP3   OH228337   4.202   1.296   9.466  0.2686 -0.1715 -0.0185
 1381TIP3    H128338   4.255   1.360   9.419  0.6190 -1.5249 -1.5580
 1381TIP3    H228339   4.266   1.241   9.512  0.0036  0.2084  0.8239
 1382TIP3   OH228340   1.653   6.886   8.278  0.0418  0.7802 -0.0070
 1382TIP3    H128341   1.736   6.903   8.322 -0.6606 -0.5881  1.9966
 1382TIP3    H228342   1.654   6.792   8.260 -0.6384  0.9332 -0.9095
 1383TIP3   OH228343   2.667   6.962   7.293  0.6785 -0.2595  0.0398
 1383TIP3    H128344   2.585   7.004   7.318  0.7296  0.7716 -1.3764
 1383TIP3    H228345   2.656   6.940   7.201  1.8586 -0.3946 -0.0871
 1384TIP3   OH228346   0.230   6.726   9.517  0.1693 -0.2371  0.1301
 1384TIP3    H128347   0.167   6.658   9.495 -0.0067 -0.4327  1.1860
 1384TIP3    H228348   0.181   6.808   9.513  0.0529 -0.3071  0.1326
 1385TIP3   OH228349   7.263   1.433   8.281  0.3492 -0.2412 -0.2902
 1385TIP3    H128350   7.318   1.510   8.272 -0.3730  0.1537 -1.6792
 1385TIP3    H228351   7.313   1.362   8.241  1.3996 -0.7460  1.7852
 1386TIP3   OH228352   2.995   7.119   8.288  0.0668 -0.2123  0.4605
 1386TIP3    H128353   2.946   7.048   8.246 -0.8948  1.1573 -0.8107
 1386TIP3    H228354   3.057   7.149   8.221 -0.7658  1.3100  0.3291
 1387TIP3   OH228355   6.304   4.093   6.697  0.4100  0.3849 -0.0518
 1387TIP3    H128356   6.307   4.002   6.728 -0.7522  0.1489 -0.6155
 1387TIP3    H228357   6.212   4.117   6.700  0.7849  1.8866  1.0017
 1388TIP3   OH228358   2.657   5.470   8.811  0.2454 -0.2670  0.0011
 1388TIP3    H128359   2.706   5.544   8.775  1.0110 -0.5054  0.5425
 1388TIP3    H228360   2.609   5.506   8.885  1.5992 -0.5628  1.0458
 1389TIP3   OH228361   5.098   3.237   7.155  0.1762  0.1387  0.1090
 1389TIP3    H128362   5.113   3.143   7.146  0.9026  0.4444 -2.7615
 1389TIP3    H228363   5.011   3.251   7.119  0.0806  0.5944  0.4973
 1390TIP3   OH228364   6.189   1.470   8.860 -0.3403 -0.4337 -0.0418
 1390TIP3    H128365   6.178   1.485   8.766 -2.0103  1.4896  0.3808
 1390TIP3    H228366   6.101   1.455   8.893  0.4395 -3.9416  0.9046
 1391TIP3   OH228367   5.835   7.606   8.420  0.3451 -0.1907  0.2711
 1391TIP3    H128368   5.769   7.538   8.431  0.5002 -0.8284 -2.1007
 1391TIP3    H228369   5.796   7.666   8.356  0.7924  1.1906  1.2634
 1392TIP3   OH228370   5.119   5.033   8.549  0.3166  0.0729  0.0444
 1392TIP3    H128371   5.108   5.127   8.537 -2.8013 -0.2641 -0.6482
 1392TIP3    H228372   5.119   5.020   8.643 -1.3660  0.6710  0.1706
 1393TIP3   OH228373   0.524   3.882   7.078 -0.3951  0.0552 -0.3426
 1393TIP3    H128374   0.530   3.951   7.144 -0.6786  0.7485 -1.0232
 1393TIP3    H228375   0.612   3.876   7.041 -0.4872  0.4282 -0.6381
 1394TIP3   OH228376   4.747   5.757   7.565  0.4394 -0.0035  0.4335
 1394TIP3    H128377   4.833   5.746   7.604  1.0847  0.0159 -0.9344
 1394TIP3    H228378   4.705   5.671   7.573  0.5215  0.0167  1.1955
 1395TIP3   OH228379   5.522   0.370   8.746 -0.0106  0.1717 -0.3968
 1395TIP3    H128380   5.612   0.356   8.717 -0.1371 -2.1774  0.1691
 1395TIP3    H228381   5.512   0.465   8.749  1.9099  0.4909 -2.0786
 1396TIP3   OH228382   0.613   5.519   8.349 -0.1318 -0.1503 -0.7094
 1396TIP3    H128383   0.587   5.567   8.428  0.0403 -2.6519  0.9979
 1396TIP3    H228384   0.704   5.544   8.335 -0.0408  0.0511  0.1607
 1397TIP3   OH228385   3.960   1.717   8.380  0.6061  0.7409 -0.1202
 1397TIP3    H128386   4.021   1.776   8.424  0.3383  0.5150  0.5590
 1397TIP3    H228387   3.920   1.666   8.450  1.6079 -1.0054 -0.7798
 1398TIP3   OH228388   7.577   2.324   8.437 -0.3418 -0.2188 -0.4513
 1398TIP3    H128389   7.545   2.234   8.440  0.9440 -0.7075 -0.7563
 1398TIP3    H228390   7.498   2.377   8.445 -1.2570 -1.3623 -1.5021
 1399TIP3   OH228391   6.307   6.275   9.732 -0.3406 -0.1823  0.1887
 1399TIP3    H128392   6.382   6.334   9.720 -1.1397  0.8601  0.1984
 1399TIP3    H228393   6.232   6.325   9.700 -1.3122 -0.5187  1.8204
 1400TIP3   OH228394   3.289   2.854   7.607  0.2844 -0.4421 -0.9835
 1400TIP3    H128395   3.258   2.924   7.664  1.2171 -0.2210 -0.7247
 1400TIP3    H228396   3.246   2.776   7.640  0.3276 -0.2137 -0.3608
 1401TIP3   OH228397   4.395   6.273   6.740  0.4465 -0.2421  0.2380
 1401TIP3    H128398   4.476   6.248   6.695  0.1154 -0.8456 -0.0436
 1401TIP3    H228399   4.422   6.338   6.805  1.0756 -0.0454 -0.2058
 1402TIP3   OH228400   1.297   6.160   9.684  0.1595 -0.0076  0.0176
 1402TIP3    H128401   1.240   6.193   9.615 -0.0233  2.6447  1.3038
 1402TIP3    H228402   1.348   6.236   9.712  0.4080 -1.0161  2.5877
 1403TIP3   OH228403   1.257   6.850   8.814 -0.0861 -0.4706 -0.1967
 1403TIP3    H128404   1.182   6.867   8.757  0.0129 -1.2152 -0.5513
 1403TIP3    H228405   1.315   6.925   8.800 -0.6208 -0.0412 -0.1469
 1404TIP3   OH228406   1.539   2.082   7.309  0.2464  0.0385  0.4481
 1404TIP3    H128407   1.592   2.007   7.282 -0.7405 -0.5411  0.0627
 1404TIP3    H228408   1.515   2.126   7.228  0.7790  0.7560  0.6702
 1405TIP3   OH228409   6.373   3.620   8.170 -0.3627 -0.5715  0.2413
 1405TIP3    H128410   6.313   3.566   8.119 -0.1363 -1.2654  0.6831
 1405TIP3    H228411   6.460   3.596   8.138 -0.2745 -0.2375  0.2284
 1406TIP3   OH228412   6.078   1.499   7.178  0.0426  0.0964 -0.4310
 1406TIP3    H128413   6.128   1.468   7.254  0.5883 -1.3162 -1.3349
 1406TIP3    H228414   6.028   1.574   7.212  1.7848  0.7657  0.8217
 1407TIP3   OH228415   0.509   0.460   8.500 -0.1716  0.2147 -0.0462
 1407TIP3    H128416   0.570   0.457   8.574  0.0468  0.1649 -0.2257
 1407TIP3    H228417   0.534   0.538   8.451 -0.0005 -0.0174 -0.3318
 1408TIP3   OH228418   5.437   4.275   9.169  0.3170 -0.2312  0.3869
 1408TIP3    H128419   5.347   4.256   9.142 -0.9521  1.5687  2.9250
 1408TIP3    H228420   5.436   4.368   9.192  3.1119  0.0905 -0.3548
 1409TIP3   OH228421   0.896   3.036   6.833 -0.0203 -0.5277 -0.6728
 1409TIP3    H128422   0.946   2.986   6.768  0.9376  2.5695 -2.5289
 1409TIP3    H228423   0.806   3.030   6.803  0.1438 -0.7560 -1.1416
 1410TIP3   OH228424   5.695   3.576   9.544 -0.3266 -0.1588 -0.3224
 1410TIP3    H128425   5.687   3.668   9.568 -1.4903  0.1889 -1.8780
 1410TIP3    H228426   5.607   3.551   9.515  0.5751 -0.9198 -2.6720
 1411TIP3   OH228427   2.634   0.376   8.348 -0.9337 -0.3851  0.9115
 1411TIP3    H128428   2.585   0.294   8.341 -1.1014 -0.2541  0.5525
 1411TIP3    H228429   2.711   0.363   8.293 -1.9655  0.4310 -0.8179
 1412TIP3   OH228430   2.066   6.788   9.140  0.1120  0.4453 -0.1547
 1412TIP3    H128431   2.129   6.718   9.156  2.0139  1.8999 -0.8483
 1412TIP3    H228432   2.055   6.789   9.045 -1.2113  0.0286 -0.0200
 1413TIP3   OH228433   2.213   5.721   7.555 -0.2840  0.7388 -0.1959
 1413TIP3    H128434   2.157   5.676   7.492 -2.7030  0.0531  2.2457
 1413TIP3    H228435   2.153   5.768   7.612  1.9613  4.1205 -0.3190
 1414TIP3   OH228436   0.440   5.429   7.009 -0.2604  0.5614  0.1619
 1414TIP3    H128437   0.425   5.414   7.103 -0.2412 -1.9531 -0.1548
 1414TIP3    H228438   0.353   5.438   6.972 -0.2937  0.9984  0.3442
 1415TIP3   OH228439   1.213   6.700   7.725  0.2666  0.0156 -0.3051
 1415TIP3    H128440   1.140   6.731   7.778 -0.3666 -0.0080 -1.1448
 1415TIP3    H228441   1.250   6.780   7.687 -0.1167 -0.0746 -0.8795
 1416TIP3   OH228442   5.473   2.072   9.128 -0.2131 -0.1753  0.1338
 1416TIP3    H128443   5.377   2.078   9.131 -0.2008  0.2404 -0.1155
 1416TIP3    H228444   5.493   2.061   9.035  0.0402  1.0114  0.0333
 1417TIP3   OH228445   0.646   7.620   8.343 -0.5118  0.5065  0.0389
 1417TIP3    H128446   0.662   7.550   8.279  3.5443  1.7046 -0.5690
 1417TIP3    H228447   0.599   7.687   8.293  0.0901  0.2621 -0.8814
 1418TIP3   OH228448   5.236   2.956   9.075 -0.0105 -0.7361 -0.1076
 1418TIP3    H128449   5.149   2.992   9.058  0.0565 -0.5244 -0.0055
 1418TIP3    H228450   5.229   2.864   9.051  0.0315 -0.4919 -1.1009
 1419TIP3   OH228451   5.006   3.363   7.970  0.6816 -0.4610  0.2985
 1419TIP3    H128452   5.059   3.430   8.013  0.5999  0.0267 -0.3451
 1419TIP3    H228453   4.924   3.363   8.018  1.3178 -1.3672  1.4374
 1420TIP3   OH228454   1.199   1.151   7.648  0.2162  0.4877  0.2633
 1420TIP3    H128455   1.264   1.144   7.578  0.3780 -0.6865  0.5246
 1420TIP3    H228456   1.174   1.061   7.668 -1.0623  0.8870  0.5766
 1421TIP3   OH228457   5.913   2.313   9.018  0.1454  0.8339  0.1489
 1421TIP3    H128458   5.851   2.260   8.969  0.6967 -0.6797  1.0299
 1421TIP3    H228459   5.943   2.256   9.089  0.2404  2.5722  1.5615
 1422TIP3   OH228460   1.128   5.839   8.073  0.2619  0.0092 -0.0410
 1422TIP3    H128461   1.201   5.810   8.127  2.5713  1.1452 -2.3036
 1422TIP3    H228462   1.160   5.829   7.983 -1.3554  2.9827 -1.0844
 1423TIP3   OH228463   1.976   5.078   7.656 -0.1596  0.2603 -0.4878
 1423TIP3    H128464   2.006   5.160   7.617  2.5733 -1.8715 -3.4872
 1423TIP3    H228465   1.915   5.042   7.592 -0.4497 -0.5637  0.2377
 1424TIP3   OH228466   3.032   3.309   9.107 -0.1337 -0.2498 -0.2748
 1424TIP3    H128467   3.059   3.255   9.033 -1.1573 -0.0980 -0.7837
 1424TIP3    H228468   3.063   3.397   9.086 -0.2300 -0.2505 -0.4221
 1425TIP3   OH228469   2.564   5.080   7.681  0.1576 -0.4520  0.2040
 1425TIP3    H128470   2.471   5.095   7.665  0.0310 -1.2951  0.0937
 1425TIP3    H228471   2.608   5.113   7.602  0.1007  1.2827  0.8515
 1426TIP3   OH228472   0.845   6.305   8.237 -0.0294  0.3686 -0.0317
 1426TIP3    H128473   0.894   6.225   8.256  0.3114  0.3351 -0.9723
 1426TIP3    H228474   0.912   6.373   8.229  0.0385  0.1327 -2.3423
 1427TIP3   OH228475   3.940   4.010   8.945 -0.7646 -0.8067  0.1676
 1427TIP3    H128476   3.999   3.996   8.871 -0.8114  0.2714 -0.0889
 1427TIP3    H228477   3.916   3.922   8.974 -1.5248 -1.2677 -1.7155
 1428TIP3   OH228478   3.715   5.308   9.056  0.1553 -0.0461 -0.3223
 1428TIP3    H128479   3.704   5.230   9.111 -0.7213 -0.6215 -1.2783
 1428TIP3    H228480   3.698   5.277   8.967 -0.5034  1.3123 -0.6853
 1429TIP3   OH228481   1.882   3.002   8.163 -0.4087 -0.1898  0.6054
 1429TIP3    H128482   1.802   2.999   8.111  0.7513 -1.0507 -1.2840
 1429TIP3    H228483   1.898   2.911   8.188  0.8985 -0.3547 -0.6557
 1430TIP3   OH228484   0.157   3.371   7.589  0.1315 -0.0706 -0.2014
 1430TIP3    H128485   0.063   3.369   7.569  0.2309 -0.4216 -0.6314
 1430TIP3    H228486   0.164   3.329   7.675 -0.1509  0.3443  0.0310
 1431TIP3   OH228487   7.037   5.305   7.743  0.6698  0.6927 -0.0997
 1431TIP3    H128488   7.124   5.338   7.765  0.0095  1.3188  1.7072
 1431TIP3    H228489   6.981   5.382   7.740 -0.7574 -0.0016  3.4785
 1432TIP3   OH228490   5.681   1.800   7.067 -0.3191  0.0995  0.2786
 1432TIP3    H128491   5.608   1.863   7.067 -0.1523  0.4767 -2.8136
 1432TIP3    H228492   5.641   1.717   7.043 -0.1160 -0.3774  1.5267
 1433TIP3   OH228493   0.635   7.113   8.219  0.0761  0.4310  0.3319
 1433TIP3    H128494   0.600   7.062   8.292 -0.6459  1.7868  0.9665
 1433TIP3    H228495   0.729   7.093   8.219 -0.3240 -1.7364 -0.1599
 1434TIP3   OH228496   4.103   1.169   9.230  0.0936  0.1734 -0.2857
 1434TIP3    H128497   4.177   1.123   9.192  2.0091  0.9520  2.2589
 1434TIP3    H228498   4.123   1.176   9.323 -3.8332 -0.7768  0.8476
 1435TIP3   OH228499   2.576   0.763   8.746  0.0250 -0.0841 -0.1667
 1435TIP3    H128500   2.592   0.684   8.694  0.8240 -1.4596  1.9889
 1435TIP3    H228501   2.644   0.824   8.719 -0.1430 -0.3958 -1.3498
 1436TIP3   OH228502   2.498   2.087   7.046  0.2596  0.5538 -0.4074
 1436TIP3    H128503   2.477   2.163   7.101 -0.3029  0.2006 -0.1184
 1436TIP3    H228504   2.526   2.020   7.108 -1.9122 -0.3726 -0.3451
 1437TIP3   OH228505   1.377   5.350   7.006  0.0182  0.5264  0.3040
 1437TIP3    H128506   1.410   5.261   7.003  1.2365  0.9196  1.1940
 1437TIP3    H228507   1.354   5.371   6.916  0.0169 -0.5754  0.0463
 1438TIP3   OH228508   5.413   1.863   8.019 -0.1707 -0.0859 -0.0603
 1438TIP3    H128509   5.389   1.814   8.098  0.4709 -1.0110 -0.4205
 1438TIP3    H228510   5.379   1.951   8.035 -1.6734 -0.7210  0.4518
 1439TIP3   OH228511   2.409   5.466   8.652  0.2464 -0.0217 -0.0189
 1439TIP3    H128512   2.459   5.502   8.725  0.4986 -0.6915  0.1423
 1439TIP3    H228513   2.332   5.426   8.694  0.7584 -1.0482 -0.0475
 1440TIP3   OH228514   5.510   7.025   9.317  0.0901 -0.2387 -1.0286
 1440TIP3    H128515   5.473   6.942   9.347 -0.7752  0.1587 -0.9876
 1440TIP3    H228516   5.591   7.000   9.273  1.7607 -0.8179  2.0576
 1441TIP3   OH228517   5.193   7.448   9.333  0.3487 -0.3787  0.0627
 1441TIP3    H128518   5.280   7.453   9.372  0.2098 -0.3144  0.3658
 1441TIP3    H228519   5.179   7.535   9.293  0.0024 -0.0234  0.9233
 1442TIP3   OH228520   3.954   3.274   8.561 -0.1069 -0.0488  0.6931
 1442TIP3    H128521   4.044   3.292   8.589 -0.9019 -0.5536  3.9395
 1442TIP3    H228522   3.901   3.341   8.605 -1.4935 -0.7912  0.2117
 1443TIP3   OH228523   5.627   6.833   7.877  0.1682  0.0314  0.3064
 1443TIP3    H128524   5.722   6.835   7.876  0.1555  2.1885 -0.2139
 1443TIP3    H228525   5.605   6.813   7.968  1.1295  1.5940  0.9111
 1444TIP3   OH228526   0.276   6.909   7.534 -0.1589  0.0110 -0.0075
 1444TIP3    H128527   0.246   6.890   7.445  0.8378  0.3875 -0.4376
 1444TIP3    H228528   0.297   6.823   7.571  2.0314 -0.0009 -1.1082
 1445TIP3   OH228529   6.305   1.338   7.415 -0.5424  0.2321  0.0252
 1445TIP3    H128530   6.375   1.363   7.354  1.2659  3.0738  2.9284
 1445TIP3    H228531   6.327   1.248   7.440  0.2804  0.0054 -1.4095
 1446TIP3   OH228532   5.985   6.215   7.301 -0.4633 -0.2985 -0.0170
 1446TIP3    H128533   6.011   6.159   7.374 -0.3477  0.4490  0.5330
 1446TIP3    H228534   5.901   6.181   7.272 -1.2517  0.2934  1.4531
 1447TIP3   OH228535   0.444   7.505   6.501  0.0026 -0.8101 -0.0429
 1447TIP3    H128536   0.432   7.443   6.573  0.1202  1.3457  1.9399
 1447TIP3    H228537   0.356   7.528   6.474 -0.0763 -2.7449 -1.7517
 1448TIP3   OH228538   7.622   5.489   6.491 -0.2039  0.3702 -0.0252
 1448TIP3    H128539   7.554   5.421   6.486 -0.0987  0.3508 -1.3195
 1448TIP3    H228540   7.701   5.440   6.515  0.0789 -0.1544 -1.8504
 1449TIP3   OH228541   6.625   3.979   6.774 -0.1883 -0.3291  0.1011
 1449TIP3    H128542   6.709   3.989   6.731 -0.0577  1.3301  0.6662
 1449TIP3    H228543   6.562   4.018   6.714 -0.1603  0.9339  0.8564
 1450TIP3   OH228544   1.467   7.098   9.678  0.0577  0.3301 -0.5725
 1450TIP3    H128545   1.449   7.152   9.601  3.1284  2.1611 -0.1324
 1450TIP3    H228546   1.459   7.157   9.752  0.3172 -0.6252  0.2429
 1451TIP3   OH228547   2.888   6.276   8.936  0.1379 -0.5539  0.8630
 1451TIP3    H128548   2.929   6.272   9.023 -0.9729  0.9711  1.5082
 1451TIP3    H228549   2.801   6.238   8.948  0.4871 -1.6435  0.0622
 1452TIP3   OH228550   3.318   5.672   7.122 -0.3526 -0.0874  0.0621
 1452TIP3    H128551   3.397   5.619   7.132  0.4786  1.4245  2.4439
 1452TIP3    H228552   3.275   5.667   7.207 -2.3270 -0.0319 -0.8709
 1453TIP3   OH228553   7.007   4.995   8.092 -0.4953 -0.4209 -0.2186
 1453TIP3    H128554   7.095   4.957   8.090 -0.4521 -0.3570  0.3195
 1453TIP3    H228555   7.021   5.089   8.082 -0.3934 -0.2654  1.1837
 1454TIP3   OH228556   4.016   1.377   8.444  0.4154 -0.1306 -0.5548
 1454TIP3    H128557   3.989   1.447   8.504  2.2345 -1.9417  2.6418
 1454TIP3    H228558   4.102   1.405   8.412 -0.0880  0.3377 -1.5402
 1455TIP3   OH228559   5.789   6.412   6.859  0.6513 -0.1178 -0.2933
 1455TIP3    H128560   5.800   6.458   6.942  0.1149 -1.6961  0.7059
 1455TIP3    H228561   5.715   6.353   6.874  2.0145 -2.1607 -1.0544
 1456TIP3   OH228562   6.338   0.165   7.424 -0.3106  0.1146 -0.1161
 1456TIP3    H128563   6.346   0.072   7.402 -2.3682 -0.1674  0.0932
 1456TIP3    H228564   6.243   0.179   7.433 -0.2283  2.7086 -2.1447
 1457TIP3   OH228565   5.554   4.592   9.591 -0.6520  0.3760  0.1453
 1457TIP3    H128566   5.583   4.582   9.500 -1.4934  0.2732 -0.1168
 1457TIP3    H228567   5.542   4.686   9.602 -0.0845  0.4353  0.3051
 1458TIP3   OH228568   6.685   1.141   9.345  0.5304  0.4813 -0.3575
 1458TIP3    H128569   6.679   1.212   9.410 -0.5939  0.4448 -0.3922
 1458TIP3    H228570   6.630   1.171   9.273 -0.2814 -0.5896 -0.2053
 1459TIP3   OH228571   3.656   6.103   7.464  0.5483  0.6551 -0.0626
 1459TIP3    H128572   3.678   6.056   7.383 -1.2056 -0.5395  0.1044
 1459TIP3    H228573   3.561   6.097   7.470  0.6164  0.9580  1.9533
 1460TIP3   OH228574   0.622   0.903   9.572  0.2392  0.1642 -0.1032
 1460TIP3    H128575   0.704   0.905   9.622 -0.4893  1.2061  1.1253
 1460TIP3    H228576   0.647   0.866   9.487  2.6822  3.4286 -1.0296
 1461TIP3   OH228577   2.930   4.668   7.697 -0.3100  0.1527 -0.0532
 1461TIP3    H128578   3.010   4.714   7.674 -0.3948  0.9591  1.1827
 1461TIP3    H228579   2.863   4.706   7.640  0.3382 -1.3066 -1.8962
 1462TIP3   OH228580   1.569   1.214   8.461 -0.3161  0.1619 -0.0477
 1462TIP3    H128581   1.618   1.190   8.539  0.0164 -1.0929 -0.6269
 1462TIP3    H228582   1.489   1.161   8.465  0.4952 -1.2457 -1.4099
 1463TIP3   OH228583   5.897   7.652   8.083  0.1345 -0.0386 -0.6325
 1463TIP3    H128584   5.868   7.739   8.110  0.8054  0.1061 -0.3486
 1463TIP3    H228585   5.818   7.598   8.087 -0.7987  1.0137 -2.9524
 1464TIP3   OH228586   6.854   7.492   8.575 -0.1080  0.5530 -0.4229
 1464TIP3    H128587   6.825   7.446   8.653 -0.8502  2.3872  0.4459
 1464TIP3    H228588   6.940   7.527   8.598 -0.2058  0.8614 -0.5181
 1465TIP3   OH228589   1.712   0.776   7.910  0.1486 -0.4083  0.0177
 1465TIP3    H128590   1.790   0.820   7.877 -0.6369  0.0715 -1.2696
 1465TIP3    H228591   1.742   0.688   7.934  1.4870  0.3913  1.4869
 1466TIP3   OH228592   0.887   3.012   8.562 -0.3172 -0.0861  0.6123
 1466TIP3    H128593   0.975   3.049   8.562 -0.2610 -0.1517  2.2878
 1466TIP3    H228594   0.830   3.085   8.537  0.1492  0.0838  0.0197
 1467TIP3   OH228595   5.802   1.946   9.703 -0.0948  0.0596  0.0149
 1467TIP3    H128596   5.835   2.033   9.680  0.1788 -0.6343 -2.6044
 1467TIP3    H228597   5.740   1.925   9.633 -1.9014 -0.9731  1.8080
 1468TIP3   OH228598   4.744   4.135   9.015  0.2396 -0.5701  0.1372
 1468TIP3    H128599   4.785   4.221   9.030 -1.5919  0.1109  1.6106
 1468TIP3    H228600   4.727   4.133   8.921  0.1681  0.7756  0.0993
 1469TIP3   OH228601   4.153   7.081   9.233 -0.1695  0.6278 -0.5212
 1469TIP3    H128602   4.149   7.076   9.138 -0.3649 -1.6097 -0.4471
 1469TIP3    H228603   4.078   7.137   9.257  0.3713  1.9075 -1.6798
 1470TIP3   OH228604   3.965   2.764   8.267  0.8197 -0.0516  0.2013
 1470TIP3    H128605   3.893   2.771   8.205 -0.6362 -0.0488  1.8179
 1470TIP3    H228606   3.992   2.855   8.282  0.6385  0.0088  0.1665
 1471TIP3   OH228607   7.210   7.222   8.051  0.5110  0.3502  0.1486
 1471TIP3    H128608   7.178   7.280   8.120  0.4570 -1.6200  1.8636
 1471TIP3    H228609   7.234   7.141   8.096  1.7975 -0.5490 -1.9685
 1472TIP3   OH228610   5.148   1.929   8.079  0.4922  0.3861 -0.3696
 1472TIP3    H128611   5.144   2.022   8.101 -2.1573  0.1808  0.2996
 1472TIP3    H228612   5.194   1.888   8.152  0.5737  1.0079 -0.0723
 1473TIP3   OH228613   4.436   7.423   7.645  0.2838 -0.1101 -0.1339
 1473TIP3    H128614   4.369   7.463   7.590  1.8520  1.6501 -0.8645
 1473TIP3    H228615   4.418   7.456   7.733 -0.6253 -0.7952 -0.0470
 1474TIP3   OH228616   3.904   3.525   8.334 -0.2298  0.2558  0.6334
 1474TIP3    H128617   3.882   3.435   8.360  1.5207 -1.1946 -2.4262
 1474TIP3    H228618   3.825   3.558   8.292  0.3308 -1.5586 -2.1053
 1475TIP3   OH228619   1.533   6.739   8.848 -0.0601  0.4512 -0.1241
 1475TIP3    H128620   1.473   6.814   8.851 -0.2735  0.2615  0.4891
 1475TIP3    H228621   1.562   6.735   8.757 -1.1605  0.4030 -0.4840
 1476TIP3   OH228622   2.302   4.637   8.899  0.0944  0.1918  0.3184
 1476TIP3    H128623   2.263   4.576   8.836  0.1545 -0.0943  0.5553
 1476TIP3    H228624   2.227   4.670   8.949  0.1846 -0.6206  1.0040
 1477TIP3   OH228625   4.506   1.110   8.536  0.0206 -0.0546  0.5787
 1477TIP3    H128626   4.449   1.121   8.612 -0.4791  0.5656  0.1255
 1477TIP3    H228627   4.558   1.191   8.532 -1.1742  0.6998 -0.7204
 1478TIP3   OH228628   6.826   2.249   9.644  0.1062  0.5787  0.3031
 1478TIP3    H128629   6.848   2.168   9.598 -0.9385 -0.4798  1.6087
 1478TIP3    H228630   6.908   2.275   9.686  0.6633  0.6866 -0.7908
 1479TIP3   OH228631   4.934   1.121   7.481  0.0154  0.5890 -0.1128
 1479TIP3    H128632   4.939   1.032   7.515 -0.7685  0.1404 -1.1502
 1479TIP3    H228633   4.857   1.122   7.425 -0.4460  2.1400  0.4964
 1480TIP3   OH228634   2.349   3.679   9.151 -0.8373  0.3756  0.1019
 1480TIP3    H128635   2.439   3.709   9.164 -0.2722 -1.1369 -0.1544
 1480TIP3    H228636   2.295   3.753   9.181  0.4619  1.7423 -0.7691
 1481TIP3   OH228637   1.805   1.719   7.867 -0.1719  0.1211  0.7087
 1481TIP3    H128638   1.893   1.756   7.877  1.1481 -3.1744  2.8801
 1481TIP3    H228639   1.769   1.719   7.956 -0.9505 -1.6153  0.4336
 1482TIP3   OH228640   3.727   1.866   8.362 -0.2957 -0.5421 -0.4224
 1482TIP3    H128641   3.819   1.847   8.381 -0.3069  0.0515  0.2488
 1482TIP3    H228642   3.729   1.949   8.314 -0.4644 -0.7056 -0.7195
 1483TIP3   OH228643   3.948   7.234   7.972 -0.0732 -0.9260  0.5305
 1483TIP3    H128644   3.921   7.303   8.033  0.5634  0.0539 -0.2609
 1483TIP3    H228645   3.981   7.164   8.029 -0.0565 -0.2793  1.3422
 1484TIP3   OH228646   2.844   7.603   8.231  0.6087  0.3452  0.3376
 1484TIP3    H128647   2.813   7.513   8.234 -0.4398  0.5256 -2.2939
 1484TIP3    H228648   2.830   7.637   8.320  0.5894 -1.9007  1.2479
 1485TIP3   OH228649   5.367   3.004   7.560  0.4065 -1.0017  0.1932
 1485TIP3    H128650   5.437   2.979   7.621  2.4023 -1.9103 -2.2943
 1485TIP3    H228651   5.407   3.069   7.502 -1.1433 -0.8003 -0.7151
 1486TIP3   OH228652   1.089   2.606   8.178  0.1644  0.0172 -0.2874
 1486TIP3    H128653   0.993   2.608   8.181  0.1399  2.5118 -0.7427
 1486TIP3    H228654   1.117   2.687   8.221  2.0497 -0.4098 -0.5980
 1487TIP3   OH228655   1.211   0.476   7.562  0.3053  0.6125  0.6005
 1487TIP3    H128656   1.173   0.552   7.518  0.8517  0.7623  0.3772
 1487TIP3    H228657   1.137   0.417   7.575  0.1871  0.3773 -0.8958
 1488TIP3   OH228658   5.381   7.216   8.369  0.2187  0.2250 -0.5305
 1488TIP3    H128659   5.386   7.276   8.295 -0.5844 -0.3868 -1.1072
 1488TIP3    H228660   5.289   7.188   8.371  0.3388 -0.1388  0.3950
 1489TIP3   OH228661   5.426   6.522   9.649 -0.0390  0.0446  0.3687
 1489TIP3    H128662   5.506   6.530   9.702  0.5430  1.3387 -0.6601
 1489TIP3    H228663   5.376   6.601   9.668 -0.3553 -0.0283 -0.1492
 1490TIP3   OH228664   2.580   5.265   7.447  0.2511  0.1898  0.4954
 1490TIP3    H128665   2.536   5.224   7.373 -0.4181  2.9347 -0.7722
 1490TIP3    H228666   2.508   5.292   7.506  0.3211  2.3625 -0.3156
 1491TIP3   OH228667   0.592   4.892   7.396  0.1638 -0.5110 -0.3469
 1491TIP3    H128668   0.607   4.984   7.418 -0.8866 -0.3232 -0.3652
 1491TIP3    H228669   0.533   4.895   7.321 -2.5045 -1.1827  1.5734
 1492TIP3   OH228670   5.652   0.915   9.061  0.0111 -0.2264  0.3719
 1492TIP3    H128671   5.594   0.986   9.035  0.5234 -0.4463 -1.5142
 1492TIP3    H228672   5.603   0.866   9.127 -0.7613  1.2328  0.9232
 1493TIP3   OH228673   2.366   0.784   9.113  0.3227  0.5257  0.6900
 1493TIP3    H128674   2.307   0.847   9.153 -1.0828  0.1554 -0.6824
 1493TIP3    H228675   2.369   0.809   9.021  2.2689  0.4610  0.6839
 1494TIP3   OH228676   7.003   7.624   9.342  0.5259 -0.4587 -0.8027
 1494TIP3    H128677   7.034   7.712   9.319  0.1452 -0.1126  0.0095
 1494TIP3    H228678   7.033   7.611   9.431 -2.4522  0.2856  0.4217
 1495TIP3   OH228679   6.421   3.486   7.568  0.3348  0.0704 -0.0377
 1495TIP3    H128680   6.418   3.526   7.655  0.0705 -1.1015  0.5172
 1495TIP3    H228681   6.446   3.395   7.585  0.3124 -0.1665 -1.2002
 1496TIP3   OH228682   7.038   6.124   9.627 -0.1050  0.2101 -0.1154
 1496TIP3    H128683   6.972   6.130   9.697 -1.3840  2.0171 -1.3889
 1496TIP3    H228684   6.987   6.111   9.547  1.0841  1.2653 -1.0913
 1497TIP3   OH228685   5.708   7.102   8.032 -0.5073 -0.0324 -0.2007
 1497TIP3    H128686   5.774   7.107   7.962 -0.6134  1.6283 -0.2338
 1497TIP3    H228687   5.629   7.139   7.993 -0.7853  0.1981  0.5653
 1498TIP3   OH228688   4.611   4.016   8.370  0.2837 -0.2339 -0.7229
 1498TIP3    H128689   4.603   4.055   8.283 -1.2147 -0.3755 -0.6891
 1498TIP3    H228690   4.561   4.074   8.427 -1.4039 -1.7472 -0.5555
 1499TIP3   OH228691   2.189   1.986   7.645 -0.3655  0.6422 -0.1452
 1499TIP3    H128692   2.113   1.927   7.646  0.2742 -0.1981 -0.0167
 1499TIP3    H228693   2.239   1.959   7.568  1.1365 -0.5801  1.1978
 1500TIP3   OH228694   5.638   4.531   8.360  0.2258 -0.0940  0.3748
 1500TIP3    H128695   5.569   4.551   8.424  0.3856  0.4074  0.3921
 1500TIP3    H228696   5.695   4.469   8.406 -0.0620 -0.3021  0.4581
 1501TIP3   OH228697   3.413   4.865   8.461  0.0929 -0.3884 -0.3927
 1501TIP3    H128698   3.427   4.920   8.538  0.3313 -1.0140  0.0152
 1501TIP3    H228699   3.319   4.845   8.463 -0.3748  1.4057 -1.5134
 1502TIP3   OH228700   4.326   6.193   7.381  0.1781 -0.0747  0.5633
 1502TIP3    H128701   4.383   6.218   7.308 -1.7195  0.5721 -0.7857
 1502TIP3    H228702   4.371   6.119   7.422  1.5544 -0.1441 -0.9632
 1503TIP3   OH228703   4.271   2.043   8.731 -0.2003  0.5278  0.4303
 1503TIP3    H128704   4.263   2.097   8.652 -0.2540 -0.8201 -0.5369
 1503TIP3    H228705   4.360   2.008   8.726 -0.7257 -0.8240  0.0849
 1504TIP3   OH228706   1.311   2.589   7.993  0.1169  0.1690 -0.5217
 1504TIP3    H128707   1.254   2.572   7.919  0.7352 -1.3322 -0.7027
 1504TIP3    H228708   1.254   2.584   8.069 -0.2878  0.3863 -0.8100
 1505TIP3   OH228709   3.304   5.930   8.774 -0.0980 -0.4913  0.3131
 1505TIP3    H128710   3.359   5.992   8.725  0.3651 -0.1578  1.2345
 1505TIP3    H228711   3.352   5.848   8.773 -0.7737 -0.9024 -1.0235
 1506TIP3   OH228712   3.125   4.179   9.797  0.1144  0.3931 -0.9500
 1506TIP3    H128713   3.159   4.115   9.860 -1.2201  0.0155 -0.5903
 1506TIP3    H228714   3.042   4.143   9.767 -1.0258  2.2545 -0.2177
 1507TIP3   OH228715   0.567   0.141   8.673 -0.4119 -0.4247 -0.0905
 1507TIP3    H128716   0.614   0.223   8.685  0.7023 -1.1656  0.7885
 1507TIP3    H228717   0.492   0.164   8.617 -0.0053  1.1269 -0.0345
 1508TIP3   OH228718   6.579   7.171   9.110  0.1649  0.3339 -0.4520
 1508TIP3    H128719   6.567   7.264   9.089 -1.0143  0.2770 -0.0811
 1508TIP3    H228720   6.524   7.125   9.046  0.2742 -0.0794 -0.2507
 1509TIP3   OH228721   4.194   1.350   6.854 -0.6976 -0.0454  0.0297
 1509TIP3    H128722   4.111   1.301   6.856 -0.9480  0.3815  0.9212
 1509TIP3    H228723   4.176   1.427   6.908  0.1117  0.3344 -0.2472
 1510TIP3   OH228724   1.673   7.640   7.867 -0.3890 -0.1900  0.3123
 1510TIP3    H128725   1.722   7.600   7.938 -0.6792 -1.5547 -0.2287
 1510TIP3    H228726   1.734   7.704   7.829 -0.3108  0.7174  1.8937
 1511TIP3   OH228727   2.870   4.103   8.937 -0.6634  0.5882 -0.0382
 1511TIP3    H128728   2.776   4.093   8.922 -1.0637  1.2761  1.7775
 1511TIP3    H228729   2.878   4.185   8.985  0.8808  0.5605 -0.2069
 1512TIP3   OH228730   5.007   2.391   7.061  0.3035 -0.0290  0.4366
 1512TIP3    H128731   4.995   2.481   7.089  0.6734  0.0848  0.2295
 1512TIP3    H228732   4.943   2.378   6.991  0.0702 -0.0083  0.6454
 1513TIP3   OH228733   7.625   7.386   9.548 -0.0598  0.2498  0.4400
 1513TIP3    H128734   7.589   7.457   9.496  0.3098 -1.2974 -2.0675
 1513TIP3    H228735   7.555   7.363   9.609 -1.3888  0.6890 -0.8586
 1514TIP3   OH228736   0.803   3.864   7.332 -0.0741  0.1323  0.1253
 1514TIP3    H128737   0.809   3.785   7.278 -2.0553 -0.0219  0.0453
 1514TIP3    H228738   0.742   3.921   7.285  1.2013  1.6960  0.2465
 1515TIP3   OH228739   6.781   4.542   6.840  0.7909 -0.1811  0.3108
 1515TIP3    H128740   6.852   4.597   6.873  0.6264 -0.4611  1.1392
 1515TIP3    H228741   6.779   4.466   6.899 -0.5574  0.0875  0.6447
 1516TIP3   OH228742   7.541   5.506   7.726 -0.5033 -0.1787 -0.3586
 1516TIP3    H128743   7.495   5.422   7.723  0.5718 -0.7618 -2.3779
 1516TIP3    H228744   7.594   5.501   7.805 -0.4076 -1.4652 -0.4758
 1517TIP3   OH228745   0.457   6.514   7.413  0.4847 -0.6512  0.0625
 1517TIP3    H128746   0.483   6.539   7.501  0.5369 -2.8217  0.7073
 1517TIP3    H228747   0.535   6.528   7.360  1.5331 -2.5022  1.0432
 1518TIP3   OH228748   0.369   5.399   8.325  0.1781  0.5163 -0.0913
 1518TIP3    H128749   0.450   5.449   8.315 -0.6565  2.0202  0.5077
 1518TIP3    H228750   0.315   5.425   8.251  0.6454 -1.3731 -1.1617
 1519TIP3   OH228751   4.147   6.221   8.370 -0.0964 -0.8120  0.7217
 1519TIP3    H128752   4.231   6.266   8.367 -0.4661 -0.1105  0.5472
 1519TIP3    H228753   4.132   6.191   8.281 -0.1629 -0.6710  0.6841
 1520TIP3   OH228754   3.708   1.880   8.845 -0.1512 -0.4297  0.0910
 1520TIP3    H128755   3.779   1.935   8.876 -0.9074  1.1814 -0.9013
 1520TIP3    H228756   3.686   1.824   8.919  0.1986  1.0761  1.3684
 1521TIP3   OH228757   1.601   2.033   8.499  0.3155 -0.1120  0.3550
 1521TIP3    H128758   1.631   2.065   8.414 -0.2615  0.6965  0.4452
 1521TIP3    H228759   1.514   1.997   8.482  0.3757 -0.3489  0.5325
 1522TIP3   OH228760   5.767   3.542   7.781  0.7649  0.0411 -0.6932
 1522TIP3    H128761   5.739   3.545   7.689  0.0028 -2.0891 -0.5645
 1522TIP3    H228762   5.761   3.450   7.805  1.1175  0.5441  1.4662
 1523TIP3   OH228763   5.483   5.038   8.676  0.4584  0.4957 -0.6066
 1523TIP3    H128764   5.551   5.072   8.734  0.8445  1.1650 -1.4389
 1523TIP3    H228765   5.415   5.105   8.676  0.7637  0.8163 -1.4465
 1524TIP3   OH228766   4.098   0.121   8.678  0.0149 -0.5036  0.9085
 1524TIP3    H128767   4.040   0.062   8.725 -2.7430 -0.0206 -1.5680
 1524TIP3    H228768   4.108   0.196   8.735 -1.3761 -0.8502  1.6560
 1525TIP3   OH228769   6.124   0.156   8.897  0.3509 -0.0346  0.0444
 1525TIP3    H128770   6.165   0.231   8.939  0.8990 -1.0753  1.4740
 1525TIP3    H228771   6.031   0.176   8.896  0.5534  0.9411 -0.2251
 1526TIP3   OH228772   1.241   2.306   9.055 -0.1657  0.1670 -0.1556
 1526TIP3    H128773   1.273   2.222   9.024  0.1990  0.2405  0.0195
 1526TIP3    H228774   1.314   2.343   9.104 -0.4960  0.3641  0.1926
 1527TIP3   OH228775   0.335   2.876   6.987 -0.4393  0.1423  0.1628
 1527TIP3    H128776   0.340   2.950   6.926 -2.3112 -0.1841 -0.4467
 1527TIP3    H228777   0.271   2.903   7.053 -2.0991 -1.3568 -0.7538
 1528TIP3   OH228778   4.568   6.822   8.016  0.5763 -0.0022 -0.0136
 1528TIP3    H128779   4.654   6.838   7.977  0.1264  1.3816 -0.4980
 1528TIP3    H228780   4.554   6.894   8.077 -0.5524  0.2345 -0.5111
 1529TIP3   OH228781   2.865   5.215   7.356 -0.0558  0.3234 -0.2245
 1529TIP3    H128782   2.879   5.165   7.436  0.3226 -2.6267 -2.0013
 1529TIP3    H228783   2.770   5.222   7.347 -0.2320 -2.2172 -1.0735
 1530TIP3   OH228784   4.106   4.937   8.120 -0.0406 -0.1537  0.3857
 1530TIP3    H128785   4.113   4.951   8.026 -1.4555  1.3619  0.4387
 1530TIP3    H228786   4.194   4.952   8.154  0.3237  0.0507 -0.6324
 1531TIP3   OH228787   6.429   6.562   9.541 -0.1926  0.3726  0.0642
 1531TIP3    H128788   6.513   6.607   9.530  0.2857 -0.3065  0.7876
 1531TIP3    H228789   6.438   6.482   9.488 -0.4571  0.4030 -0.0230
 1532TIP3   OH228790   6.109   4.698   7.679 -0.3969  0.1273 -0.0629
 1532TIP3    H128791   6.057   4.701   7.759 -1.2838 -1.3026 -0.5359
 1532TIP3    H228792   6.153   4.613   7.683  2.0370  1.3080  0.3477
 1533TIP3   OH228793   6.180   7.362   8.048 -0.1295  0.0596 -0.2418
 1533TIP3    H128794   6.268   7.344   8.015  0.4006  1.9177  0.0271
 1533TIP3    H228795   6.122   7.325   7.982  0.8826  0.9522 -1.7168
 1534TIP3   OH228796   7.107   0.025   7.677 -0.4076 -0.0022  0.1520
 1534TIP3    H128797   7.183  -0.016   7.634 -0.5547 -1.4236  1.1718
 1534TIP3    H228798   7.142   0.105   7.715 -0.1318  0.9776 -2.0266
 1535TIP3   OH228799   4.699   0.077   9.104  0.2068 -0.0451 -0.5050
 1535TIP3    H128800   4.642   0.027   9.162  0.0871  0.4893 -0.1557
 1535TIP3    H228801   4.672   0.050   9.016 -0.5225  0.1251 -0.3403
 1536TIP3   OH228802   0.647   6.394   7.678  0.1004 -0.3866  0.0277
 1536TIP3    H128803   0.630   6.312   7.726  0.1706  0.0590  0.8404
 1536TIP3    H228804   0.741   6.407   7.686  0.0877 -0.2197 -0.0864
 1537TIP3   OH228805   1.290   2.815   7.237  0.0490 -0.1717  0.3043
 1537TIP3    H128806   1.353   2.804   7.308  0.5483 -0.4987 -0.1782
 1537TIP3    H228807   1.281   2.727   7.200  2.6885  0.5483 -2.4582
 1538TIP3   OH228808   2.756   1.752   8.148 -0.8392  0.4414  0.6531
 1538TIP3    H128809   2.748   1.759   8.243 -1.7737  0.4120  0.5836
 1538TIP3    H228810   2.732   1.838   8.115 -1.9868  0.0349  0.3744
 1539TIP3   OH228811   1.857   2.535   9.325  0.1814  0.1586 -0.1088
 1539TIP3    H128812   1.919   2.608   9.328 -1.4724  1.7400 -1.9862
 1539TIP3    H228813   1.777   2.570   9.363 -0.7018 -0.6019 -1.2098
 1540TIP3   OH228814   7.298   7.311   9.505 -0.5772  0.6537  0.3486
 1540TIP3    H128815   7.217   7.277   9.543 -0.6873 -0.7106 -1.0142
 1540TIP3    H228816   7.272   7.392   9.461 -1.2914  0.0528 -0.3692
 1541TIP3   OH228817   1.506   0.914   6.967 -0.1303  0.2468 -0.3204
 1541TIP3    H128818   1.596   0.881   6.964 -0.1522  0.1696 -0.1483
 1541TIP3    H228819   1.460   0.862   6.901 -0.0386  0.3185 -0.4423
 1542TIP3   OH228820   2.585   1.565   7.994 -0.0774  0.1253 -0.0659
 1542TIP3    H128821   2.643   1.577   8.068  0.4985  0.9716 -0.6435
 1542TIP3    H228822   2.634   1.509   7.934 -0.5020 -0.4761  0.1367
 1543TIP3   OH228823   1.621   4.406   8.172 -0.1091 -0.1056  0.3673
 1543TIP3    H128824   1.676   4.417   8.095  0.3671 -0.3327  0.6718
 1543TIP3    H228825   1.678   4.426   8.246 -0.5650  0.1275  0.6647
 1544TIP3   OH228826   5.981   6.276   6.699 -0.1828 -0.0420 -0.1814
 1544TIP3    H128827   5.913   6.209   6.704  0.1481 -0.5158 -1.4677
 1544TIP3    H228828   5.935   6.358   6.712 -0.4053 -0.5457  2.6755
 1545TIP3   OH228829   2.651   5.121   9.579  0.0834 -0.0526  0.0810
 1545TIP3    H128830   2.654   5.212   9.608  0.2684 -0.1132  0.2618
 1545TIP3    H228831   2.573   5.115   9.524  0.8761  0.5668 -1.1336
 1546TIP3   OH228832   5.734   4.748   8.253  0.0889 -0.2364  0.1607
 1546TIP3    H128833   5.824   4.717   8.241  0.1318  0.1113 -0.4611
 1546TIP3    H228834   5.686   4.670   8.280  0.5058 -0.5016  0.1547
 1547TIP3   OH228835   5.010   1.515   8.659 -0.1776  0.1596 -0.0401
 1547TIP3    H128836   5.069   1.460   8.608 -1.6462 -0.2607 -1.3920
 1547TIP3    H228837   4.948   1.550   8.594 -2.8150 -1.2751  1.5272
 1548TIP3   OH228838   4.882   2.261   8.967 -0.2069 -0.1103  0.2405
 1548TIP3    H128839   4.918   2.268   9.056  0.1882  0.4021  0.0434
 1548TIP3    H228840   4.907   2.173   8.938 -0.1334 -0.1914  0.5468
 1549TIP3   OH228841   2.751   5.265   9.364 -0.5772 -0.1351 -0.0773
 1549TIP3    H128842   2.769   5.178   9.401  1.6922  0.4337  0.3198
 1549TIP3    H228843   2.680   5.300   9.417 -0.0002 -0.8755  1.2269
 1550TIP3   OH228844   5.214   4.742   9.727 -0.0560  0.1632  0.7173
 1550TIP3    H128845   5.126   4.742   9.764  0.6502 -1.1215  2.5466
 1550TIP3    H228846   5.219   4.659   9.679 -0.1765  0.7316 -0.2977
 1551TIP3   OH228847   7.494   5.726   7.000 -0.3076  0.1442 -0.0129
 1551TIP3    H128848   7.587   5.718   7.021 -0.1247  0.5625 -0.6647
 1551TIP3    H228849   7.491   5.768   6.914 -1.1056  0.6159  0.2288
 1552TIP3   OH228850   5.698   5.555   7.618  0.3243 -0.3754  0.0545
 1552TIP3    H128851   5.696   5.638   7.569 -0.1332 -1.0385 -1.1003
 1552TIP3    H228852   5.637   5.569   7.691 -1.6838 -0.4620 -1.4906
 1553TIP3   OH228853   4.487   2.435   9.652 -0.1707  0.3626 -0.0456
 1553TIP3    H128854   4.484   2.375   9.726 -1.2997 -1.1920 -1.2629
 1553TIP3    H228855   4.421   2.501   9.672  0.4454  0.7039  0.9017
 1554TIP3   OH228856   0.711   5.132   8.568 -0.2577  0.0231  0.2753
 1554TIP3    H128857   0.763   5.150   8.646 -0.9711  0.0629  0.7532
 1554TIP3    H228858   0.621   5.153   8.594 -0.4095  0.7737 -0.7870
 1555TIP3   OH228859   5.697   7.638   9.529  0.0381  0.2714  0.6098
 1555TIP3    H128860   5.628   7.705   9.536  0.3944  0.7770 -0.5259
 1555TIP3    H228861   5.689   7.605   9.440 -0.5595 -1.7005  1.3456
 1556TIP3   OH228862   3.656   3.325   8.436  0.0949 -0.5035 -0.0808
 1556TIP3    H128863   3.692   3.250   8.390 -0.8586 -0.3166 -1.1638
 1556TIP3    H228864   3.720   3.343   8.505  0.7697 -1.7540 -0.3492
 1557TIP3   OH228865   6.243   2.801   7.648 -0.7734 -0.1922 -0.0887
 1557TIP3    H128866   6.290   2.730   7.606  0.1902  0.0772  0.4997
 1557TIP3    H228867   6.233   2.868   7.580 -1.3570 -0.7229 -0.5365
 1558TIP3   OH228868   4.292   7.033   8.000  0.2500  0.1092  0.0524
 1558TIP3    H128869   4.300   7.092   7.925  0.1372 -0.4038 -0.3694
 1558TIP3    H228870   4.371   7.048   8.051  0.9734 -0.4973 -0.8679
 1559TIP3   OH228871   2.643   1.507   9.479  0.0112 -0.2318  0.2470
 1559TIP3    H128872   2.613   1.578   9.536  1.3111  2.0494 -1.7698
 1559TIP3    H228873   2.563   1.467   9.446 -0.7437  0.5542  1.0750
 1560TIP3   OH228874   3.986   5.274   6.461 -0.3686  0.0487  0.3176
 1560TIP3    H128875   3.995   5.206   6.527 -0.4055  0.4257  0.7176
 1560TIP3    H228876   3.985   5.227   6.377 -2.9748 -0.7121  0.6771
 1561TIP3   OH228877   2.705   1.559   8.744 -0.0874 -0.6425  0.8408
 1561TIP3    H128878   2.659   1.520   8.670  0.9420 -1.0783  0.4153
 1561TIP3    H228879   2.735   1.644   8.712  2.9089 -1.9915 -0.3113
 1562TIP3   OH228880   4.471   5.365   7.309  0.3513  0.3086 -0.2647
 1562TIP3    H128881   4.460   5.270   7.315  1.1548  0.2978  2.0056
 1562TIP3    H228882   4.454   5.385   7.217  1.4056 -2.1884 -1.0871
 1563TIP3   OH228883   4.940   4.842   9.836 -0.0049 -1.0553  0.2007
 1563TIP3    H128884   4.932   4.905   9.908  0.3667 -1.4141  0.5627
 1563TIP3    H228885   4.858   4.849   9.788  0.7803  1.1665 -0.9728
 1564TIP3   OH228886   0.761   7.619   8.759  0.4235  0.1833 -0.1654
 1564TIP3    H128887   0.807   7.567   8.693  1.4066 -0.1069  0.7151
 1564TIP3    H228888   0.703   7.676   8.708 -1.8172 -2.7058 -1.1490
 1565TIP3   OH228889   2.645   2.176   7.734 -0.2513 -0.2336  0.7526
 1565TIP3    H128890   2.590   2.187   7.656  1.1645  0.8322 -0.1550
 1565TIP3    H228891   2.590   2.127   7.796 -1.0251 -2.1484 -1.3145
 1566TIP3   OH228892   1.915   3.776   8.117 -0.8008  0.6602  0.1814
 1566TIP3    H128893   1.933   3.870   8.113  0.0276  0.4622 -1.6773
 1566TIP3    H228894   1.819   3.769   8.114 -0.9342  1.4504  1.6075
 1567TIP3   OH228895   3.447   5.363   9.137  0.5037 -0.2487 -0.0689
 1567TIP3    H128896   3.542   5.356   9.128  0.7432  3.4627 -2.4405
 1567TIP3    H228897   3.432   5.454   9.163 -2.4473  0.0343 -2.2660
 1568TIP3   OH228898   0.957   2.770   8.395 -0.7184 -0.0531  0.1007
 1568TIP3    H128899   0.909   2.843   8.434  0.7858  1.1093 -0.1437
 1568TIP3    H228900   0.905   2.744   8.319 -0.4852  1.8513 -0.7649
 1569TIP3   OH228901   5.302   7.392   7.648  0.4522  0.1573 -0.1249
 1569TIP3    H128902   5.286   7.448   7.572  0.8566  0.8953  0.3226
 1569TIP3    H228903   5.372   7.436   7.696 -0.4339  0.2010  1.1800
 1570TIP3   OH228904   1.602   6.758   8.579 -0.1432 -0.2315  0.0334
 1570TIP3    H128905   1.634   6.688   8.522 -0.1625  0.7667 -1.2524
 1570TIP3    H228906   1.536   6.804   8.526 -0.9636  0.0688  1.2652
 1571TIP3   OH228907   6.640   1.070   8.365 -0.5216 -0.0614  0.7562
 1571TIP3    H128908   6.713   1.059   8.304  0.6631 -1.9927  2.4178
 1571TIP3    H228909   6.586   1.138   8.324 -0.4050 -1.9496 -2.9759
 1572TIP3   OH228910   4.022   6.187   7.265 -0.2621 -0.1201  0.1211
 1572TIP3    H128911   3.930   6.166   7.252  0.0407 -1.7712  0.4314
 1572TIP3    H228912   4.068   6.134   7.201  0.7163 -2.4828  2.5957
 1573TIP3   OH228913   5.232   2.362   9.583 -0.0388  0.4045  0.1565
 1573TIP3    H128914   5.193   2.288   9.538 -0.4072 -0.1378  1.3239
 1573TIP3    H228915   5.269   2.325   9.663 -1.4940  1.6529  1.4864
 1574TIP3   OH228916   1.688   1.517   7.105  0.2094 -0.0918 -0.1563
 1574TIP3    H128917   1.737   1.568   7.041 -1.4262  0.3996 -1.0763
 1574TIP3    H228918   1.720   1.548   7.190  1.0698  0.6156 -0.7205
 1575TIP3   OH228919   0.638   0.866   9.877 -0.8401 -0.0950 -0.2442
 1575TIP3    H128920   0.649   0.961   9.877  0.6346 -0.2039 -1.9269
 1575TIP3    H228921   0.696   0.835   9.947  0.3584  0.1495 -1.0893
 1576TIP3   OH228922   6.954   1.365   8.948 -0.1538 -0.1808  0.0993
 1576TIP3    H128923   6.871   1.409   8.966  0.5464  1.0586  0.4936
 1576TIP3    H228924   7.004   1.429   8.896  1.1775 -0.1690  1.3109
 1577TIP3   OH228925   7.145   6.360   8.790  0.1970 -0.7881  0.8288
 1577TIP3    H128926   7.100   6.304   8.727  0.3670 -0.7239  0.6508
 1577TIP3    H228927   7.152   6.306   8.869 -0.1967 -0.7958  0.8612
 1578TIP3   OH228928   7.527   7.542   9.347  0.0023  0.2478 -0.2858
 1578TIP3    H128929   7.439   7.506   9.353  0.3536 -0.5447  0.3641
 1578TIP3    H228930   7.534   7.574   9.257 -1.4930  1.7909  0.0976
 1579TIP3   OH228931   4.040   4.621   9.224 -0.1132  0.2286 -0.3282
 1579TIP3    H128932   4.114   4.584   9.272 -0.1104 -2.6951 -2.3419
 1579TIP3    H228933   4.040   4.714   9.248  2.5265 -0.1975  1.7938
 1580TIP3   OH228934   1.459   7.674   8.069  0.0044  0.1470 -0.0601
 1580TIP3    H128935   1.516   7.651   7.997 -1.3589 -0.5388 -0.9630
 1580TIP3    H228936   1.513   7.730   8.126  1.4681 -0.3018 -0.9634
 1581TIP3   OH228937   5.050   0.391   9.631 -0.7786 -0.1261 -0.1968
 1581TIP3    H128938   4.976   0.437   9.592  0.4238  0.9533 -1.2846
 1581TIP3    H228939   5.102   0.459   9.673 -0.5902 -0.9209  0.9045
 1582TIP3   OH228940   1.367   2.475   8.705 -0.4542  0.0667  0.1447
 1582TIP3    H128941   1.362   2.488   8.610 -0.8140  0.0443  0.1591
 1582TIP3    H228942   1.417   2.551   8.737 -1.1084  0.5429  0.0389
 1583TIP3   OH228943   7.099   5.640   8.723  0.3245  0.4957  0.0499
 1583TIP3    H128944   7.070   5.556   8.687  1.5231 -0.0030  0.1884
 1583TIP3    H228945   7.161   5.673   8.658  1.0462  0.5081  0.7307
 1584TIP3   OH228946   6.388   6.232   7.324 -0.1673  0.2966 -0.0878
 1584TIP3    H128947   6.331   6.307   7.305 -1.3435 -0.1988  1.3147
 1584TIP3    H228948   6.353   6.161   7.269  0.5938  0.5987 -0.9891
 1585TIP3   OH228949   2.946   5.956   7.499  0.1698 -0.2298 -0.2034
 1585TIP3    H128950   3.011   5.922   7.560 -0.6846 -0.1503  0.7846
 1585TIP3    H228951   2.894   5.879   7.474  0.1736 -0.1664 -0.4139
 1586TIP3   OH228952   4.403   6.443   8.822 -0.2263  0.3230  0.1645
 1586TIP3    H128953   4.430   6.399   8.902 -0.8118 -0.0796  0.1409
 1586TIP3    H228954   4.434   6.386   8.751 -0.3027  0.3432  0.1149
 1587TIP3   OH228955   1.492   4.740   7.261 -0.3937 -0.0412  0.1914
 1587TIP3    H128956   1.479   4.775   7.173 -1.8991  0.2868  0.5097
 1587TIP3    H228957   1.548   4.803   7.305 -0.6886  0.4566 -0.1442
 1588TIP3   OH228958   4.578   2.744   9.697 -0.1299 -0.0742  0.0611
 1588TIP3    H128959   4.608   2.681   9.763 -1.2096  0.2668  0.9050
 1588TIP3    H228960   4.487   2.718   9.680 -0.2521  0.6203 -0.3610
 1589TIP3   OH228961   6.412   1.099   9.473 -0.5820  0.2476  0.6075
 1589TIP3    H128962   6.354   1.023   9.483 -3.0209  2.0919  1.4764
 1589TIP3    H228963   6.410   1.120   9.380  0.6850 -1.1064  0.2373
 1590TIP3   OH228964   1.844   0.545   8.005 -0.5511  0.6542 -0.2420
 1590TIP3    H128965   1.802   0.475   7.955 -1.3355 -1.1513  2.7154
 1590TIP3    H228966   1.791   0.553   8.084  1.2207  2.5924  0.8531
 1591TIP3   OH228967   5.765   6.491   8.565  0.1674 -0.2687  0.1226
 1591TIP3    H128968   5.827   6.424   8.591  1.2377  0.5721 -0.1730
 1591TIP3    H228969   5.744   6.538   8.646 -0.0520 -0.5242  0.2146
 1592TIP3   OH228970   3.114   0.659   8.003  0.1904  0.0419 -0.4123
 1592TIP3    H128971   3.167   0.642   8.081 -1.3391 -2.8870  0.1275
 1592TIP3    H228972   3.027   0.627   8.026 -0.9200  1.2684 -2.5593
 1593TIP3   OH228973   2.427   0.871   7.685  0.6153 -0.3356 -0.3146
 1593TIP3    H128974   2.431   0.888   7.779  1.7007 -0.5234 -0.3175
 1593TIP3    H228975   2.359   0.804   7.676 -1.6835  1.7786 -0.0027
 1594TIP3   OH228976   3.489   5.596   9.231 -0.0333 -0.1293  0.3742
 1594TIP3    H128977   3.538   5.657   9.286 -1.6181  0.8422  0.7607
 1594TIP3    H228978   3.425   5.651   9.185 -0.3087 -1.2566 -0.6392
 1595TIP3   OH228979   4.334   5.686   8.242 -0.2070 -0.3002 -0.8121
 1595TIP3    H128980   4.255   5.695   8.295 -0.0954  0.0507 -0.7036
 1595TIP3    H228981   4.323   5.602   8.196 -0.5212 -0.3758 -0.6010
 1596TIP3   OH228982   1.945   3.954   8.471  0.1880  0.1644 -0.3806
 1596TIP3    H128983   1.908   3.868   8.452  0.3685 -0.1635  0.6807
 1596TIP3    H228984   1.870   4.013   8.471 -0.1615 -0.2745  0.5048
 1597TIP3   OH228985   3.396   3.598   8.234 -0.2798 -0.1915  0.2488
 1597TIP3    H128986   3.414   3.508   8.204 -1.1176 -0.1864 -0.3001
 1597TIP3    H228987   3.331   3.588   8.304  0.2276 -0.0644  0.7431
 1598TIP3   OH228988   3.646   4.613   9.969 -0.5303 -0.0092 -0.0529
 1598TIP3    H128989   3.682   4.553  10.035  0.1202  0.2126 -0.2022
 1598TIP3    H228990   3.561   4.575   9.946  0.0892 -1.1632 -0.5210
 1599TIP3   OH228991   5.110   4.982   8.805  0.3122 -0.1197 -0.4402
 1599TIP3    H128992   5.144   4.893   8.796  0.1057 -0.1236 -1.2781
 1599TIP3    H228993   5.180   5.030   8.849  0.4670 -0.6661 -0.0787
 1600TIP3   OH228994   2.549   7.283   9.221 -0.5292  0.1768 -0.0230
 1600TIP3    H128995   2.551   7.250   9.310  1.0253 -0.2221 -0.1707
 1600TIP3    H228996   2.547   7.379   9.230  2.2219  0.2675  0.5290
 1601TIP3   OH228997   2.379   7.370   8.569 -0.2818  0.2604 -0.6704
 1601TIP3    H128998   2.414   7.385   8.657 -1.0914  2.8849 -0.7027
 1601TIP3    H228999   2.456   7.372   8.512  0.2225 -1.2383 -0.0987
 1602TIP3   OH229000   0.936   2.154   8.531  0.2769  0.1528  0.0972
 1602TIP3    H129001   0.919   2.135   8.623  0.3277  1.0955  0.3094
 1602TIP3    H229002   0.871   2.103   8.483  0.2489 -0.3385  0.6493
 1603TIP3   OH229003   1.719   1.889   7.617 -0.0033  0.0971  0.0675
 1603TIP3    H129004   1.682   1.829   7.681 -3.2883  1.1170 -0.6960
 1603TIP3    H229005   1.730   1.971   7.665  1.2817 -0.1621  0.2546
 1604TIP3   OH229006   5.325   3.033   8.740  0.1195  0.7714  0.0542
 1604TIP3    H129007   5.331   3.010   8.647 -0.2559 -0.9008  0.4199
 1604TIP3    H229008   5.416   3.034   8.770  0.2682  1.6056 -0.3650
 1605TIP3   OH229009   0.120   7.638   9.563  0.2034 -0.0613  0.2050
 1605TIP3    H129010   0.186   7.569   9.564 -1.8351 -2.2204 -1.5432
 1605TIP3    H229011   0.050   7.605   9.620 -1.1920  0.0530 -1.3495
 1606TIP3   OH229012   0.985   3.407   7.546 -0.3667  0.1582 -0.2625
 1606TIP3    H129013   0.999   3.498   7.521  0.0212  0.1487 -0.0900
 1606TIP3    H229014   1.031   3.356   7.480  0.6044  0.1320  0.4195
 1607TIP3   OH229015   4.300   2.456   7.915 -0.0661  0.4792  0.1704
 1607TIP3    H129016   4.249   2.416   7.845 -0.2954 -0.0823  0.6459
 1607TIP3    H229017   4.322   2.543   7.882 -1.0089  0.5873 -0.1952
 1608TIP3   OH229018   3.127   4.725   9.168 -0.0626 -0.3078 -1.0468
 1608TIP3    H129019   3.189   4.760   9.232 -0.2171  1.1020 -1.6229
 1608TIP3    H229020   3.100   4.801   9.116 -0.8658 -1.2026 -2.0061
 1609TIP3   OH229021   6.818   0.648   6.810 -0.4867  0.3566 -0.0066
 1609TIP3    H129022   6.855   0.559   6.807 -1.0743  0.1401 -1.4040
 1609TIP3    H229023   6.734   0.637   6.855 -0.7249  0.1291 -0.4963
 1610TIP3   OH229024   2.798   1.945   7.729  0.5363  0.3835  0.2025
 1610TIP3    H129025   2.763   2.030   7.757 -0.0671 -0.2085  1.3408
 1610TIP3    H229026   2.722   1.887   7.728  0.8971 -0.0975 -0.8209
 1611TIP3   OH229027   2.779   5.322   9.019  0.5604  0.3894 -0.1073
 1611TIP3    H129028   2.837   5.358   9.086 -0.5612  2.6394 -0.2685
 1611TIP3    H229029   2.789   5.379   8.944 -0.3589 -0.3927 -0.8571
 1612TIP3   OH229030   1.267   6.201   8.925  0.6053 -0.1050 -0.0829
 1612TIP3    H129031   1.282   6.201   8.830  0.6866  0.2237 -0.0731
 1612TIP3    H229032   1.354   6.220   8.962  0.1991  1.9417 -0.0253
 1613TIP3   OH229033   7.605   7.452   7.635 -0.2237 -0.3154 -0.0299
 1613TIP3    H129034   7.517   7.433   7.669 -1.2203  1.0010 -1.7280
 1613TIP3    H229035   7.646   7.505   7.703 -1.2453  0.1841  0.2186
 1614TIP3   OH229036   2.663   4.685   8.204  0.7438  0.5119  0.1063
 1614TIP3    H129037   2.601   4.653   8.138  1.4243 -1.6158  0.4079
 1614TIP3    H229038   2.610   4.741   8.261 -0.9797 -1.3221  0.4174
 1615TIP3   OH229039   5.109   6.322   7.345 -0.5057 -0.3054  0.0595
 1615TIP3    H129040   5.143   6.236   7.367 -0.1420 -0.8120 -2.2325
 1615TIP3    H229041   5.076   6.313   7.256 -2.7526  1.2981  0.6249
 1616TIP3   OH229042   7.624   6.576   7.885 -0.0990  0.6861  0.7085
 1616TIP3    H129043   7.576   6.653   7.917 -0.5316  1.0361 -0.6769
 1616TIP3    H229044   7.563   6.503   7.897  0.4472  0.4536  2.3634
 1617TIP3   OH229045   4.748   6.403   9.288  0.0952  0.7150 -0.1839
 1617TIP3    H129046   4.772   6.316   9.319  2.6729  0.4373 -2.5629
 1617TIP3    H229047   4.674   6.387   9.228 -2.5532  0.8610  2.7914
 1618TIP3   OH229048   0.512   5.987   9.111  0.0211 -0.2186  0.3915
 1618TIP3    H129049   0.505   5.947   9.024 -2.4134  0.8252  0.0305
 1618TIP3    H229050   0.446   5.943   9.163  1.4076 -0.7809  1.7696
 1619TIP3   OH229051   4.523   0.268   9.674  0.1055 -0.5009 -0.2145
 1619TIP3    H129052   4.600   0.231   9.632  0.6634  0.6881 -0.2728
 1619TIP3    H229053   4.493   0.337   9.614 -0.7025 -0.6200  0.0428
 1620TIP3   OH229054   2.272   4.989   9.817 -0.3598 -0.0421  0.4853
 1620TIP3    H129055   2.235   4.901   9.803  0.5184 -0.1647 -1.2094
 1620TIP3    H229056   2.349   4.974   9.872  0.6425 -0.5420 -1.0160
 1621TIP3   OH229057   7.073   0.792   7.892  0.1846  0.2787  0.3508
 1621TIP3    H129058   7.078   0.859   7.824 -0.2789 -0.4831 -0.4527
 1621TIP3    H229059   6.981   0.793   7.921  0.2120  0.0918  0.4474
 1622TIP3   OH229060   4.221   4.174   9.540  0.0712  0.1072  0.1321
 1622TIP3    H129061   4.267   4.227   9.605  0.2020 -1.9999  1.8540
 1622TIP3    H229062   4.291   4.127   9.493  0.0673  2.3719 -2.3948
 1623TIP3   OH229063   5.923   0.925   7.717 -0.0921  0.7808 -0.2983
 1623TIP3    H129064   5.959   0.893   7.634  1.7262  0.0997  0.6972
 1623TIP3    H229065   5.849   0.867   7.735  0.7501 -0.3663 -0.4569
 1624TIP3   OH229066   3.644   1.451   8.908 -0.0635  0.2988 -0.1554
 1624TIP3    H129067   3.627   1.465   8.814  1.4680 -3.0901 -1.0782
 1624TIP3    H229068   3.737   1.469   8.918 -0.3423  1.2839  0.9373
 1625TIP3   OH229069   0.729   6.785   9.028 -0.1934 -0.5388 -0.3632
 1625TIP3    H129070   0.750   6.868   9.071 -2.0150  0.4501 -1.2645
 1625TIP3    H229071   0.740   6.803   8.935 -3.2762 -0.3760 -0.8036
 1626TIP3   OH229072   1.183   3.614   9.399 -0.2106  0.0095  0.4917
 1626TIP3    H129073   1.264   3.565   9.415 -1.4190 -1.7157  1.7199
 1626TIP3    H229074   1.154   3.585   9.313  0.2449  0.2994  0.2380
 1627TIP3   OH229075   0.730   6.961   7.593 -0.2607 -0.4404 -0.0992
 1627TIP3    H129076   0.635   6.976   7.592 -0.2766 -0.2130  1.4163
 1627TIP3    H229077   0.744   6.891   7.529 -1.5882 -1.1098  0.3026
 1628TIP3   OH229078   1.619   6.121   7.044  0.0430 -0.0455  0.0558
 1628TIP3    H129079   1.703   6.164   7.027  0.8302 -0.8748  1.6827
 1628TIP3    H229080   1.630   6.032   7.011 -0.3335 -0.0640 -0.0312
 1629TIP3   OH229081   5.212   4.455   8.596  0.0920 -0.0126 -0.0656
 1629TIP3    H129082   5.228   4.376   8.544 -0.1112  0.3802 -0.7496
 1629TIP3    H229083   5.299   4.490   8.615  0.1520  0.6018 -1.3660
 1630TIP3   OH229084   6.233   6.380   8.094 -0.7059 -0.6960  0.6277
 1630TIP3    H129085   6.177   6.305   8.077 -0.0376 -0.8411 -1.1795
 1630TIP3    H229086   6.315   6.360   8.047 -0.2892  0.8737  0.6223
 1631TIP3   OH229087   4.000   2.449   8.096  0.2781 -0.1023 -0.4409
 1631TIP3    H129088   4.047   2.366   8.092  1.7361  0.6510  0.2680
 1631TIP3    H229089   4.016   2.481   8.185  2.1271  2.2495 -1.4920
 1632TIP3   OH229090   1.656   5.828   8.096  0.0225  0.9292  0.0148
 1632TIP3    H129091   1.699   5.909   8.067  0.5396  0.4603 -0.5837
 1632TIP3    H229092   1.646   5.777   8.016  0.8562 -0.1216  0.5514
 1633TIP3   OH229093   7.668   3.074   8.661  0.0731 -0.2169  0.3091
 1633TIP3    H129094   7.586   3.034   8.688 -0.0949  0.5910  1.0260
 1633TIP3    H229095   7.730   3.001   8.658 -0.1452 -0.5021  1.9072
 1634TIP3   OH229096   4.544   3.400   8.892  0.2045 -0.4890  0.5316
 1634TIP3    H129097   4.554   3.462   8.820 -2.7844  1.1737  1.3820
 1634TIP3    H229098   4.569   3.315   8.854 -1.8948  0.1843 -2.7115
 1635TIP3   OH229099   2.111   1.410   7.058 -0.2415 -0.0142 -0.2567
 1635TIP3    H129100   2.028   1.456   7.051 -0.2564  0.4519  2.0918
 1635TIP3    H229101   2.134   1.388   6.967 -3.2170 -0.7882 -0.9372
 1636TIP3   OH229102   1.579   6.505   9.372  0.1558  0.0798 -0.2724
 1636TIP3    H129103   1.666   6.533   9.343 -0.1345  0.2814 -0.9566
 1636TIP3    H229104   1.519   6.567   9.330 -0.3344 -0.1915  0.0265
 1637TIP3   OH229105   2.892   0.649   9.261 -0.7235 -0.0390  0.3550
 1637TIP3    H129106   2.868   0.559   9.283 -0.4470 -0.7326 -1.9159
 1637TIP3    H229107   2.808   0.696   9.260 -1.0482 -0.6130  0.1785
 1638TIP3   OH229108   3.253   7.653   8.679 -0.4046 -0.5565  0.0867
 1638TIP3    H129109   3.279   7.742   8.702 -0.9009  0.2601 -2.2136
 1638TIP3    H229110   3.335   7.611   8.653 -0.4842  0.0404 -1.1918
 1639TIP3   OH229111   1.963   3.246   8.015 -0.1700  0.0489 -0.6720
 1639TIP3    H129112   1.938   3.198   8.094  0.1273  0.3071 -0.4177
 1639TIP3    H229113   1.950   3.338   8.038 -1.0145  0.0895 -1.2534
 1640TIP3   OH229114   7.013   7.132   7.851  0.1594  0.1295 -0.4916
 1640TIP3    H129115   7.089   7.177   7.890 -1.0939  2.4942 -0.6242
 1640TIP3    H229116   6.990   7.186   7.775  1.5332 -3.4386 -3.8240
 1641TIP3   OH229117   3.035   4.621   9.593  0.5464  0.1694  0.4388
 1641TIP3    H129118   3.123   4.612   9.556  0.1177  0.7369 -0.7825
 1641TIP3    H229119   3.031   4.555   9.662  1.3976 -0.9664 -0.5423
 1642TIP3   OH229120   6.109   1.771   8.074 -0.0310  0.0277 -0.4133
 1642TIP3    H129121   6.041   1.705   8.060 -0.5166  0.2879  0.6189
 1642TIP3    H229122   6.163   1.767   7.995 -0.9308 -0.5513 -1.0178
 1643TIP3   OH229123   7.212   2.737   8.291 -0.5048  0.1822  0.0253
 1643TIP3    H129124   7.181   2.726   8.380  3.1225  1.0967  1.5660
 1643TIP3    H229125   7.222   2.831   8.280  3.4533 -0.0152  0.5116
 1644TIP3   OH229126   6.319   6.718   6.845 -0.1674  0.1056  0.7076
 1644TIP3    H129127   6.262   6.789   6.813 -1.0338 -0.7164  0.4004
 1644TIP3    H229128   6.345   6.747   6.933  0.0432  1.1146  0.3319
 1645TIP3   OH229129   4.636   6.613   6.864  0.3172  0.1365  0.0051
 1645TIP3    H129130   4.600   6.538   6.912  1.5283  0.0090  0.7526
 1645TIP3    H229131   4.633   6.586   6.772  0.8168 -0.8790  0.2716
 1646TIP3   OH229132   0.056   2.271   7.844 -0.0161 -0.7992 -0.2006
 1646TIP3    H129133   0.094   2.279   7.756  0.6976 -0.3700  0.1286
 1646TIP3    H229134   0.125   2.230   7.896  0.0604  0.0960  0.4408
 1647TIP3   OH229135   3.059   1.919   7.810  0.0929  0.6253  0.4319
 1647TIP3    H129136   2.972   1.954   7.791 -1.6366 -2.7071  1.3698
 1647TIP3    H229137   3.076   1.857   7.739  0.9813  0.1154  1.0603
 1648TIP3   OH229138   1.911   2.307   7.501  0.4647  0.0785  0.1691
 1648TIP3    H129139   1.929   2.216   7.479  4.0480  1.6575 -5.5777
 1648TIP3    H229140   1.818   2.318   7.479  0.5010 -1.8037 -1.2522
 1649TIP3   OH229141   3.960   6.031   8.461 -0.4687 -0.2845  0.6161
 1649TIP3    H129142   4.034   6.092   8.460 -2.2139  2.0902  2.6322
 1649TIP3    H229143   3.891   6.077   8.413 -1.0654 -1.8606 -0.0865
 1650TIP3   OH229144   3.678   0.999   8.673 -0.1059  0.2745 -0.2083
 1650TIP3    H129145   3.650   0.918   8.632  1.6931  0.4512 -1.8893
 1650TIP3    H229146   3.640   1.068   8.619  0.0350  0.5477  0.0359
 1651TIP3   OH229147   2.979   6.055   8.776 -0.2985 -0.0935  0.2674
 1651TIP3    H129148   3.024   5.972   8.793  1.2932  0.6137 -0.2129
 1651TIP3    H229149   2.959   6.090   8.862 -0.5862 -0.7690  0.4794
 1652TIP3   OH229150   1.057   5.466   9.298  0.3187  0.8359 -0.5814
 1652TIP3    H129151   1.049   5.554   9.260  1.0329  2.1297  1.9570
 1652TIP3    H229152   1.148   5.462   9.327 -0.1745  0.0110  0.9536
 1653TIP3   OH229153   4.368   5.967   7.622  0.1504  0.8057  0.2684
 1653TIP3    H129154   4.446   5.938   7.575  0.4081 -0.8691  1.6568
 1653TIP3    H229155   4.402   6.022   7.693  0.2090 -0.9521  1.6413
 1654TIP3   OH229156   2.554   1.266   9.032 -0.3103 -0.3195  0.5339
 1654TIP3    H129157   2.556   1.361   9.019 -0.0287 -0.3151  0.6016
 1654TIP3    H229158   2.640   1.245   9.069  0.1779 -0.8074 -0.8311
 1655TIP3   OH229159   1.020   1.234   6.618 -0.0484  0.0172 -0.1781
 1655TIP3    H129160   0.958   1.228   6.546  1.7070 -2.9998 -1.6486
 1655TIP3    H229161   1.012   1.151   6.664  0.3757  1.0403  1.8819
 1656TIP3   OH229162   4.516   5.870   9.277  0.3690 -0.1745 -0.3838
 1656TIP3    H129163   4.505   5.809   9.204  0.0542  1.4989 -1.7909
 1656TIP3    H229164   4.432   5.869   9.323  0.5241 -1.1364 -0.1054
 1657TIP3   OH229165   3.919   1.536   8.934  0.6825 -0.1229  0.5133
 1657TIP3    H129166   3.910   1.597   9.006  0.1786 -1.6729  1.8094
 1657TIP3    H229167   3.978   1.468   8.967  2.6492  0.4826 -1.4880
 1658TIP3   OH229168   6.524   6.055   8.928 -0.1814 -0.0385 -0.1497
 1658TIP3    H129169   6.493   5.983   8.874  0.0960 -0.0992 -0.2315
 1658TIP3    H229170   6.609   6.025   8.961 -0.5573 -0.1986  0.6992
 1659TIP3   OH229171   0.080   2.088   9.277  0.3351 -0.1567  0.0834
 1659TIP3    H129172   0.045   2.176   9.259 -0.3528 -0.6759 -1.2627
 1659TIP3    H229173   0.008   2.029   9.255  0.2592 -1.0267  2.4228
 1660TIP3   OH229174   4.921   4.259   8.079 -0.1788 -0.3703  0.2595
 1660TIP3    H129175   4.866   4.297   8.010 -1.0034  1.2886  1.7717
 1660TIP3    H229176   4.895   4.167   8.082 -2.4166  0.2175  0.4677
 1661TIP3   OH229177   6.557   2.513   8.912 -0.0969 -0.7869  0.0188
 1661TIP3    H129178   6.644   2.474   8.906  0.0755 -0.4784  0.4605
 1661TIP3    H229179   6.496   2.441   8.895  0.2162 -1.2241  0.7067
 1662TIP3   OH229180   3.504   5.802   7.759  0.3356 -0.7677  0.9813
 1662TIP3    H129181   3.566   5.734   7.733  3.1624  2.3686 -1.3492
 1662TIP3    H229182   3.438   5.801   7.689  0.9815 -0.4627  0.3497
 1663TIP3   OH229183   0.809   0.124   7.937  0.8334  0.2905  0.1367
 1663TIP3    H129184   0.799   0.209   7.894  1.3693 -0.0105 -0.6025
 1663TIP3    H229185   0.754   0.065   7.887  0.6690  0.1420  0.4894
 1664TIP3   OH229186   2.246   4.826   9.247  0.0968 -0.3741  0.1832
 1664TIP3    H129187   2.234   4.825   9.152  1.3198 -1.9319  0.0056
 1664TIP3    H229188   2.212   4.911   9.274  0.4783  0.4657 -1.7519
 1665TIP3   OH229189   4.705   5.196   7.204  0.3968 -0.3711 -0.0291
 1665TIP3    H129190   4.693   5.255   7.129  1.8904 -0.9353 -0.7518
 1665TIP3    H229191   4.617   5.180   7.236 -0.3151 -0.4025 -1.9030
 1666TIP3   OH229192   5.693   4.258   6.515 -0.0473  0.7710 -0.3984
 1666TIP3    H129193   5.603   4.267   6.483  0.3833  0.8725 -1.6499
 1666TIP3    H229194   5.720   4.347   6.535 -0.2861  0.7193  0.1627
 1667TIP3   OH229195   3.377   6.179   7.460 -1.0428  0.4109 -0.0815
 1667TIP3    H129196   3.391   6.267   7.425 -1.5656  0.2464 -0.7354
 1667TIP3    H229197   3.291   6.154   7.427 -0.4700 -0.7513 -0.7772
 1668TIP3   OH229198   0.521   2.278   7.015 -0.5584  0.2109  0.0059
 1668TIP3    H129199   0.563   2.363   6.995 -0.7042  0.2029 -0.3466
 1668TIP3    H229200   0.466   2.260   6.938  1.4390 -1.4519 -1.1393
 1669TIP3   OH229201   5.330   7.057   7.361 -0.2974  0.6230 -0.0616
 1669TIP3    H129202   5.264   7.116   7.395 -0.8866 -0.7271  1.2483
 1669TIP3    H229203   5.293   7.025   7.278 -1.3732 -0.1809  0.6942
 1670TIP3   OH229204   3.142   6.864   7.395 -0.1504 -0.2684  0.0334
 1670TIP3    H129205   3.185   6.797   7.341  0.4922 -0.5081  0.8209
 1670TIP3    H229206   3.214   6.917   7.430 -0.6996  1.7410 -1.6769
 1671TIP3   OH229207   3.394   4.254   7.983 -0.1454  0.5587 -0.3491
 1671TIP3    H129208   3.452   4.199   8.036  0.2441 -0.5165 -1.8454
 1671TIP3    H229209   3.336   4.193   7.938 -1.3106  1.5302 -0.2231
 1672TIP3   OH229210   4.463   4.970   9.578 -0.1698  0.1451  0.1641
 1672TIP3    H129211   4.389   4.969   9.638 -1.3711  1.3445 -1.2312
 1672TIP3    H229212   4.463   5.058   9.540  1.1149 -0.2747 -0.9132
 1673TIP3   OH229213   3.866   2.304   7.228 -0.4233  0.4073 -0.1366
 1673TIP3    H129214   3.833   2.214   7.223 -0.9187  0.5953 -0.3432
 1673TIP3    H229215   3.951   2.301   7.186 -1.0917  0.3409 -1.5350
 1674TIP3   OH229216   4.025   5.320   7.906 -0.0546  0.3293  0.2407
 1674TIP3    H129217   4.055   5.350   7.820  2.2256  1.7386  1.4391
 1674TIP3    H229218   3.968   5.390   7.937  0.8369  0.8572  0.7303
 1675TIP3   OH229219   0.261   3.668   8.895  0.2331  0.0044  0.9820
 1675TIP3    H129220   0.322   3.726   8.940 -0.5917  0.8407  1.0661
 1675TIP3    H229221   0.312   3.590   8.874  0.5047 -0.6672  3.8255
 1676TIP3   OH229222   5.837   1.032   8.116 -0.8051  0.3042  0.2493
 1676TIP3    H129223   5.840   1.082   8.035 -1.7313  2.5146  1.4902
 1676TIP3    H229224   5.786   0.954   8.094 -0.7442  0.6948 -1.3696
 1677TIP3   OH229225   6.201   4.627   9.153  0.4197 -0.3723 -0.8211
 1677TIP3    H129226   6.231   4.699   9.209  1.3509 -0.8021 -0.7611
 1677TIP3    H229227   6.246   4.549   9.186 -0.1380 -0.8887 -1.2473
 1678TIP3   OH229228   0.673   0.700   9.296 -0.0081 -0.5263 -0.4826
 1678TIP3    H129229   0.633   0.777   9.255  0.3297  1.0681  1.9447
 1678TIP3    H229230   0.719   0.655   9.225  2.1234  3.0292 -1.6049
 1679TIP3   OH229231   4.286   4.988   8.411  0.3870 -0.0738  0.9149
 1679TIP3    H129232   4.298   5.045   8.334 -1.8563 -0.9378 -0.1544
 1679TIP3    H229233   4.353   4.921   8.401 -0.8206 -1.0765 -1.2347
 1680TIP3   OH229234   2.128   5.933   8.376  0.3133 -0.1873 -0.2154
 1680TIP3    H129235   2.152   5.848   8.341 -0.4079  0.0388 -1.3014
 1680TIP3    H229236   2.039   5.922   8.409  0.5582 -0.0908  0.4940
 1681TIP3   OH229237   5.943   2.376   9.957  0.0601 -0.5369 -0.3879
 1681TIP3    H129238   5.993   2.366   9.876  1.2596  0.0729  0.2480
 1681TIP3    H229239   6.008   2.403  10.022 -0.0294 -4.5850  1.7361
 1682TIP3   OH229240   7.215   2.633   8.710  0.2035  0.0356  0.2353
 1682TIP3    H129241   7.290   2.641   8.651  0.9968  2.7186  1.4413
 1682TIP3    H229242   7.242   2.679   8.790 -2.9181  1.7902  0.4606
 1683TIP3   OH229243   6.659   6.086   7.460 -0.1961  0.8000  0.2295
 1683TIP3    H129244   6.677   6.098   7.553 -0.8852 -1.4718  0.7123
 1683TIP3    H229245   6.564   6.083   7.453 -0.1578  0.9749 -0.5774
 1684TIP3   OH229246   3.044   5.781   8.754 -0.1560 -0.0262  0.5995
 1684TIP3    H129247   3.068   5.725   8.828  1.6241 -0.3410 -0.1536
 1684TIP3    H229248   3.120   5.838   8.741 -0.5275  0.2067 -0.8162
 1685TIP3   OH229249   0.820   1.127   8.853 -0.7705  0.2304  0.1561
 1685TIP3    H129250   0.861   1.101   8.772 -0.5804  1.4419 -0.1566
 1685TIP3    H229251   0.726   1.130   8.833 -0.8388 -0.6158  0.3211
 1686TIP3   OH229252   2.877   4.481   7.881  0.5930 -0.0199  0.0427
 1686TIP3    H129253   2.782   4.491   7.886  0.7714  1.2150  2.3858
 1686TIP3    H229254   2.904   4.543   7.814 -0.2895 -1.0388 -1.3110
 1687TIP3   OH229255   6.942   2.106   8.941 -0.3651  0.3509  0.0176
 1687TIP3    H129256   7.014   2.153   8.983 -0.9123  0.3349  1.0320
 1687TIP3    H229257   6.921   2.035   9.002 -1.3027  0.4237 -0.2026
 1688TIP3   OH229258   6.917   5.330   8.805 -0.4882  0.0720  0.1662
 1688TIP3    H129259   6.917   5.309   8.898  3.1342  0.6229  0.4407
 1688TIP3    H229260   6.937   5.248   8.761  1.6087  0.4842  0.2576
 1689TIP3   OH229261   4.255   4.419   9.373 -0.2645 -0.0562 -0.1585
 1689TIP3    H129262   4.227   4.375   9.452  0.0118  1.8933  1.1090
 1689TIP3    H229263   4.347   4.393   9.362 -0.0420  0.3294  0.6884
 1690TIP3   OH229264   6.154   7.007   8.246  0.7315 -0.3733  0.5262
 1690TIP3    H129265   6.070   7.017   8.291 -0.0500 -1.5381 -0.6229
 1690TIP3    H229266   6.189   7.096   8.240 -0.1309  0.0480  1.5342
 1691TIP3   OH229267   5.273   2.591   9.432 -0.3724 -0.2828 -0.0350
 1691TIP3    H129268   5.367   2.575   9.421 -0.6293 -0.3551 -2.5747
 1691TIP3    H229269   5.241   2.514   9.479  0.9606  0.2381  1.8785
 1692TIP3   OH229270   6.438   2.257   7.491  0.6692  0.4344  0.1229
 1692TIP3    H129271   6.480   2.172   7.505  0.5456  0.2035 -0.8300
 1692TIP3    H229272   6.493   2.301   7.427  1.7076  1.8186  1.8804
 1693TIP3   OH229273   1.545   1.014   7.786  0.2057 -0.2910  0.4352
 1693TIP3    H129274   1.483   0.976   7.847 -1.2263 -1.0717 -1.4296
 1693TIP3    H229275   1.584   0.940   7.740  0.8257  0.2919 -0.0182
 1694TIP3   OH229276   0.145   5.219   7.351  0.3443 -0.2462  0.0520
 1694TIP3    H129277   0.095   5.272   7.412  1.2550 -0.8978  1.4265
 1694TIP3    H229278   0.133   5.129   7.382  0.9383 -0.5746 -0.6352
 1695TIP3   OH229279   5.864   6.104   6.975 -0.2580  0.1868  0.2747
 1695TIP3    H129280   5.956   6.075   6.975 -0.5391 -0.8080  1.5618
 1695TIP3    H229281   5.816   6.032   7.015 -1.5564  0.8784  0.0236
 1696TIP3   OH229282   6.614   4.713   7.966  0.0954  0.2331 -0.4759
 1696TIP3    H129283   6.679   4.774   8.001 -1.3685  2.0610 -0.7654
 1696TIP3    H229284   6.663   4.655   7.908  1.5815  1.0348 -0.0509
 1697TIP3   OH229285   2.540   2.440   8.388 -0.3617 -0.1413 -0.1522
 1697TIP3    H129286   2.580   2.449   8.302 -0.0214  1.9701  0.1856
 1697TIP3    H229287   2.450   2.413   8.370  0.4496 -2.6022 -0.9982
 1698TIP3   OH229288   4.677   3.837   8.979 -0.2558  0.3644  0.1534
 1698TIP3    H129289   4.694   3.760   8.925  0.8621  0.3364  0.5183
 1698TIP3    H229290   4.685   3.911   8.919 -0.4387  0.2563 -0.0080
 1699TIP3   OH229291   3.848   2.124   8.701 -0.9599  0.1091 -0.0092
 1699TIP3    H129292   3.878   2.034   8.684 -1.3359  0.1411 -0.8979
 1699TIP3    H229293   3.922   2.166   8.745 -1.1053 -0.8854  1.2607
 1700TIP3   OH229294   7.033   1.805   7.876  0.3622  0.2881  0.1959
 1700TIP3    H129295   6.951   1.853   7.883  0.3342  0.2069  0.4537
 1700TIP3    H229296   7.055   1.808   7.783  0.1999  0.5283  0.1635
 1701TIP3   OH229297   4.524   5.890   6.693 -0.3766  0.3645 -0.3295
 1701TIP3    H129298   4.480   5.821   6.643 -0.5042  0.0618  0.1975
 1701TIP3    H229299   4.611   5.854   6.711 -0.7868 -0.0878  0.8252
 1702TIP3   OH229300   4.124   3.092   8.193 -0.7897  0.2783 -0.2290
 1702TIP3    H129301   4.062   3.087   8.120 -0.5766 -1.3516 -0.3342
 1702TIP3    H229302   4.069   3.084   8.271 -0.8481  0.1627 -0.2799
 1703TIP3   OH229303   5.845   5.313   9.743  0.1570  0.1993 -0.3206
 1703TIP3    H129304   5.781   5.300   9.673 -0.7416  0.8733  0.3620
 1703TIP3    H229305   5.868   5.224   9.771  0.1959 -0.0657 -1.1638
 1704TIP3   OH229306   5.505   3.805   7.064 -0.6067  0.1302  0.0687
 1704TIP3    H129307   5.445   3.732   7.051 -0.4881  0.1444 -0.6183
 1704TIP3    H229308   5.459   3.864   7.124 -0.1387 -1.1361  1.7323
 1705TIP3   OH229309   6.661   4.294   8.197  0.0538  0.1618 -0.3303
 1705TIP3    H129310   6.697   4.244   8.271 -1.6218 -0.7073 -0.0535
 1705TIP3    H229311   6.595   4.236   8.159 -1.0454  1.6913 -0.8136
 1706TIP3   OH229312   6.979   7.564   9.632  0.2317 -0.4921  0.4015
 1706TIP3    H129313   7.069   7.592   9.611 -0.2723  0.3435 -0.7808
 1706TIP3    H229314   6.970   7.479   9.588  0.3399 -0.4205  0.2396
 1707TIP3   OH229315   3.981   0.723   7.853 -0.4483 -0.0733  0.4521
 1707TIP3    H129316   4.002   0.630   7.849  1.3058  0.2628  0.8308
 1707TIP3    H229317   3.962   0.739   7.946 -0.4275  0.0189  0.4407
 1708TIP3   OH229318   4.159   6.246   7.577 -0.4218  0.2787 -0.0353
 1708TIP3    H129319   4.199   6.222   7.494 -0.3081  0.4713 -0.0384
 1708TIP3    H229320   4.178   6.340   7.586 -2.7300  0.9307 -1.1098
 1709TIP3   OH229321   0.740   2.967   9.397 -0.3590  0.1518  0.2684
 1709TIP3    H129322   0.811   2.956   9.460 -0.8162  0.7384  0.9066
 1709TIP3    H229323   0.738   3.061   9.378 -0.5756  0.0581 -0.2097
 1710TIP3   OH229324   3.188   0.964   8.775 -0.3785 -0.1838 -0.2116
 1710TIP3    H129325   3.143   1.048   8.765 -0.4582 -0.3334 -1.2840
 1710TIP3    H229326   3.221   0.965   8.865 -0.0711  1.1581 -0.3080
 1711TIP3   OH229327   1.337   4.210   7.071  0.1434 -0.6547  0.4559
 1711TIP3    H129328   1.410   4.159   7.037  0.1012 -0.3268 -0.1303
 1711TIP3    H229329   1.313   4.165   7.152  0.3593 -1.3347  0.1516
 1712TIP3   OH229330   3.485   6.706   7.726 -0.1148 -0.9062  0.3182
 1712TIP3    H129331   3.483   6.666   7.639  0.1156 -0.8454  0.2864
 1712TIP3    H229332   3.528   6.790   7.714  0.3278 -1.0926  0.5710
 1713TIP3   OH229333   6.730   4.763   7.606 -0.0510  0.4087 -0.0171
 1713TIP3    H129334   6.818   4.799   7.597 -0.0253  0.2412 -0.4422
 1713TIP3    H229335   6.738   4.695   7.673  0.1940  0.2155 -0.2430
 1714TIP3   OH229336   5.838   0.697   9.411 -0.5184  0.1565  0.5575
 1714TIP3    H129337   5.925   0.676   9.378 -0.5171 -0.6054  1.0340
 1714TIP3    H229338   5.824   0.788   9.384  0.8356  0.6311  1.3384
 1715TIP3   OH229339   6.608   3.841   8.182  0.1577 -0.5543 -0.2075
 1715TIP3    H129340   6.540   3.836   8.250 -0.2059 -0.9265 -0.5970
 1715TIP3    H229341   6.559   3.855   8.101  0.4580 -2.0163 -0.6675
 1716TIP3   OH229342   0.901   7.520   6.818 -0.7269  0.0743  0.0720
 1716TIP3    H129343   0.964   7.448   6.815 -1.1697 -0.3026 -0.3837
 1716TIP3    H229344   0.842   7.504   6.743 -0.7065  1.0187 -0.1653
 1717TIP3   OH229345   3.667   0.078   8.679  0.5630  0.0447 -0.4293
 1717TIP3    H129346   3.725   0.023   8.627  1.5481 -0.3016  0.9520
 1717TIP3    H229347   3.727   0.130   8.734 -0.4016 -0.8566  1.5737
 1718TIP3   OH229348   0.156   7.495   9.120 -0.3529  0.1846 -0.0028
 1718TIP3    H129349   0.109   7.447   9.188 -1.5990  1.8033  0.3754
 1718TIP3    H229350   0.110   7.473   9.039 -1.3349  1.1375  0.2571
 1719TIP3   OH229351   5.974   5.479   7.631  0.6772 -0.4217 -0.6738
 1719TIP3    H129352   5.885   5.512   7.617  1.7336  2.3042 -1.7382
 1719TIP3    H229353   5.962   5.386   7.651 -2.4300 -0.0104 -0.0055
 1720TIP3   OH229354   0.722   4.703   7.744  0.3036 -0.0727  0.1963
 1720TIP3    H129355   0.745   4.795   7.742 -0.3351  0.1004  0.3912
 1720TIP3    H229356   0.644   4.696   7.689  1.2577 -0.7781 -1.1103
 1721TIP3   OH229357   3.406   0.196   8.686 -0.1573  0.0842  0.1094
 1721TIP3    H129358   3.493   0.166   8.660 -0.8350 -1.8136 -0.0923
 1721TIP3    H229359   3.359   0.209   8.604 -0.1181  1.0166  0.2220
 1722TIP3   OH229360   6.830   4.250   9.082  0.2265 -0.1766  0.0276
 1722TIP3    H129361   6.877   4.274   9.162  1.9974  0.2129 -1.0489
 1722TIP3    H229362   6.883   4.179   9.044  0.9414  1.3472 -2.0359
 1723TIP3   OH229363   5.259   5.710   8.606 -0.0731  0.3787 -0.0264
 1723TIP3    H129364   5.241   5.690   8.698  2.8485  0.1233  0.5886
 1723TIP3    H229365   5.342   5.758   8.608  0.5232 -0.3993 -2.5966
 1724TIP3   OH229366   2.502   3.827   7.036 -0.0628  0.4435  0.3463
 1724TIP3    H129367   2.434   3.892   7.020 -0.7237 -0.1859  0.5223
 1724TIP3    H229368   2.538   3.808   6.950 -2.8126 -2.0935 -0.4060
 1725TIP3   OH229369   2.755   1.636   9.263  0.4100 -0.7721  0.0441
 1725TIP3    H129370   2.780   1.717   9.308 -1.9452  1.0530 -1.6447
 1725TIP3    H229371   2.709   1.585   9.330  0.4885  0.0298  0.7262
 1726TIP3   OH229372   4.936   0.464   8.834  0.4292 -0.3408  0.1274
 1726TIP3    H129373   4.999   0.489   8.766 -0.1264 -0.4815 -0.4449
 1726TIP3    H229374   4.931   0.369   8.828  0.4015 -0.3588  0.3991
 1727TIP3   OH229375   6.692   3.899   8.630  0.8650  0.0331  0.2280
 1727TIP3    H129376   6.730   3.948   8.703  1.7427  0.2677 -0.3768
 1727TIP3    H229377   6.766   3.876   8.575  0.5720 -2.5606  0.8151
 1728TIP3   OH229378   5.184   5.265   8.055  0.3033 -0.4140  0.8574
 1728TIP3    H129379   5.256   5.266   7.991 -1.1371  0.6521 -0.8337
 1728TIP3    H229380   5.126   5.195   8.024 -0.2634 -0.0816  1.1738
 1729TIP3   OH229381   6.884   2.488   9.372  0.5589  0.4596 -0.2086
 1729TIP3    H129382   6.892   2.480   9.467  1.3563  3.4316  0.0732
 1729TIP3    H229383   6.792   2.509   9.357  0.5786  0.6617 -0.0383
 1730TIP3   OH229384   3.630   4.188   9.832  0.2731 -0.0777 -0.1807
 1730TIP3    H129385   3.711   4.179   9.781 -0.4003  0.6989 -1.4270
 1730TIP3    H229386   3.591   4.101   9.832 -0.5734  0.2360 -2.5139
 1731TIP3   OH229387   2.225   6.171   8.150  0.0842  0.1570 -0.3547
 1731TIP3    H129388   2.279   6.094   8.167 -1.1155 -0.5120  0.5722
 1731TIP3    H229389   2.154   6.165   8.214 -1.0342  1.0676 -1.4616
 1732TIP3   OH229390   1.011   4.635   7.759 -1.1053  0.3171  0.4382
 1732TIP3    H129391   1.022   4.591   7.844 -0.5662  0.2708  0.3510
 1732TIP3    H229392   0.919   4.623   7.737 -1.2591  0.3751  1.0437
 1733TIP3   OH229393   5.385   5.435   9.875 -0.3373 -0.2785 -0.0752
 1733TIP3    H129394   5.341   5.520   9.876  0.0537 -0.0827  1.1115
 1733TIP3    H229395   5.405   5.421   9.782 -1.3698  0.4112 -0.4269
 1734TIP3   OH229396   0.866   2.252   7.268 -0.3281 -0.0455 -0.2786
 1734TIP3    H129397   0.833   2.317   7.207  0.2048 -1.2938 -1.9941
 1734TIP3    H229398   0.791   2.195   7.286 -0.2755 -0.1761 -0.4674
 1735TIP3   OH229399   7.406   0.706   9.511 -0.5510  0.1701  0.4193
 1735TIP3    H129400   7.337   0.692   9.576 -2.3055  1.5041 -1.0350
 1735TIP3    H229401   7.459   0.777   9.547 -0.0230 -0.7419  1.4729
 1736TIP3   OH229402   0.566   1.126   9.433  0.1381 -0.0100 -0.0070
 1736TIP3    H129403   0.625   1.197   9.456  2.6222 -1.7110 -0.7453
 1736TIP3    H229404   0.597   1.051   9.484 -1.7842 -0.8431  0.0263
 1737TIP3   OH229405   4.266   3.417   8.938 -0.4987  0.0782 -0.2550
 1737TIP3    H129406   4.355   3.395   8.910 -0.2882 -0.4303  0.7798
 1737TIP3    H229407   4.274   3.504   8.977 -0.2374 -0.4232  0.8300
 1738TIP3   OH229408   2.928   6.755   7.137 -0.0143 -0.3109 -0.1830
 1738TIP3    H129409   2.945   6.726   7.227 -0.5262 -1.4215 -0.4338
 1738TIP3    H229410   3.009   6.800   7.111 -0.0375  0.4634  0.9857
 1739TIP3   OH229411   5.463   7.061   9.766  0.0187  0.6611  0.2516
 1739TIP3    H129412   5.521   6.988   9.744  1.3285  1.5195  0.6898
 1739TIP3    H229413   5.378   7.021   9.781  1.0802 -1.0390  2.2392
 1740TIP3   OH229414   1.431   2.154   6.811 -0.1091  0.3079 -0.2772
 1740TIP3    H129415   1.344   2.194   6.805 -0.3593 -0.0924  0.6015
 1740TIP3    H229416   1.415   2.060   6.807  0.2283  0.2118  0.5090
 1741TIP3   OH229417   4.489   5.974   7.940 -0.5459 -0.8804  0.0751
 1741TIP3    H129418   4.420   6.022   7.895  1.0243  1.9078  0.4138
 1741TIP3    H229419   4.459   5.966   8.030 -0.8566 -0.5634  0.0021
 1742TIP3   OH229420   2.023   7.347   8.113  0.0044  0.1545 -0.1981
 1742TIP3    H129421   2.016   7.297   8.194 -0.4401  0.8365  0.1939
 1742TIP3    H229422   1.944   7.401   8.110  0.7859  1.3535 -0.2471
 1743TIP3   OH229423   4.753   1.034   9.223 -0.2407 -0.2921  0.1643
 1743TIP3    H129424   4.805   0.958   9.196  0.1093  0.0316 -0.0760
 1743TIP3    H229425   4.686   0.997   9.282 -0.5115 -0.8786 -0.4969
 1744TIP3   OH229426   6.318   3.527   8.535 -0.0845 -0.1972 -0.0440
 1744TIP3    H129427   6.320   3.433   8.549  1.8281 -0.3487 -1.0133
 1744TIP3    H229428   6.380   3.562   8.599  0.5844  0.1948 -0.8845
 1745TIP3   OH229429   4.626   2.590   8.495 -0.6343 -0.3168 -0.4320
 1745TIP3    H129430   4.567   2.515   8.499 -1.4268  0.1558 -2.3535
 1745TIP3    H229431   4.699   2.562   8.440 -0.3393 -0.0546 -0.1841
 1746TIP3   OH229432   2.097   4.392   8.936 -0.1022  0.5364  0.0670
 1746TIP3    H129433   2.039   4.411   9.009 -0.3635 -1.6724  0.4853
 1746TIP3    H229434   2.042   4.349   8.871  0.8066 -0.5674 -0.0094
 1747TIP3   OH229435   7.630   7.082   8.285 -0.3707 -0.5711  0.1078
 1747TIP3    H129436   7.573   7.034   8.344 -2.3322  0.8065 -0.5809
 1747TIP3    H229437   7.695   7.123   8.343 -0.8450 -1.1258  1.0561
 1748TIP3   OH229438   5.220   0.641   9.642 -0.2288  0.2293  0.8021
 1748TIP3    H129439   5.147   0.690   9.603 -1.3774 -1.6160  0.5283
 1748TIP3    H229440   5.294   0.702   9.637 -1.2893  1.5102 -0.6055
 1749TIP3   OH229441   4.744   7.038   9.207 -0.6850  0.2619  0.0655
 1749TIP3    H129442   4.752   6.993   9.291  0.5619  0.8546  0.2957
 1749TIP3    H229443   4.665   7.003   9.167 -1.2641 -0.0601  1.4671
 1750TIP3   OH229444   3.090   7.225   7.874  0.3202 -0.2234 -0.0371
 1750TIP3    H129445   3.106   7.208   7.966  1.2533 -1.7679 -0.4552
 1750TIP3    H229446   3.174   7.257   7.840  0.2254 -0.4977 -0.5354
 1751TIP3   OH229447   1.296   2.865   8.687  0.0483  0.1167 -0.2220
 1751TIP3    H129448   1.378   2.820   8.709  0.1305  0.3045 -0.1414
 1751TIP3    H229449   1.228   2.810   8.725  0.1944  0.4849  0.5769
 1752TIP3   OH229450   7.109   0.072   6.981  0.0944  0.7167  0.1292
 1752TIP3    H129451   7.108  -0.008   6.929  2.0878 -0.2394  1.4064
 1752TIP3    H229452   7.185   0.062   7.039 -1.5340  2.0315  2.6970
 1753TIP3   OH229453   7.102   2.181   9.674 -0.4440 -0.3690  0.7193
 1753TIP3    H129454   7.058   2.114   9.621 -0.2530  0.3726 -0.4161
 1753TIP3    H229455   7.186   2.141   9.696 -0.0718 -0.3032 -0.4769
 1754TIP3   OH229456   7.641   4.536   8.826 -0.6619  0.2983  0.6842
 1754TIP3    H129457   7.693   4.614   8.841  0.8594 -0.5978  0.2718
 1754TIP3    H229458   7.578   4.562   8.758  0.2397  1.0008  0.0831
 1755TIP3   OH229459   5.318   0.942   8.290 -0.5764  0.1749  0.1206
 1755TIP3    H129460   5.352   1.025   8.255  0.8173 -0.7293 -0.7918
 1755TIP3    H229461   5.238   0.927   8.241 -0.7732  0.9180  0.2010
 1756TIP3   OH229462   1.079   7.324   8.731 -0.8588  0.1274  0.3162
 1756TIP3    H129463   1.097   7.357   8.644 -1.8740  0.5571  0.2608
 1756TIP3    H229464   1.161   7.338   8.779 -1.3448  3.2070  0.4463
 1757TIP3   OH229465   5.186   4.672   9.450 -0.2471  0.1363 -0.0587
 1757TIP3    H129466   5.255   4.734   9.472  1.0951 -1.4796  0.4866
 1757TIP3    H229467   5.107   4.725   9.444  0.9806  2.0081 -0.4358
 1758TIP3   OH229468   6.420   4.558   6.807  0.0363 -0.4614 -0.0419
 1758TIP3    H129469   6.359   4.525   6.873 -0.6463  1.9384  0.6257
 1758TIP3    H229470   6.492   4.494   6.807  0.2925 -0.3662  3.4022
 1759TIP3   OH229471   4.033   7.576   8.447 -0.1967 -1.0462  0.0084
 1759TIP3    H129472   3.986   7.513   8.501  0.8128 -1.5955  0.2721
 1759TIP3    H229473   4.035   7.656   8.499 -1.6111 -0.7298 -0.3896
 1760TIP3   OH229474   2.188   1.323   9.681 -0.7465  0.1217  0.5179
 1760TIP3    H129475   2.147   1.279   9.606 -1.6175 -0.3707  1.2597
 1760TIP3    H229476   2.273   1.280   9.690 -0.5858  0.2671 -0.2645
 1761TIP3   OH229477   1.212   4.167   9.103  0.2615 -0.0817 -0.3511
 1761TIP3    H129478   1.277   4.113   9.058 -0.3059 -1.1480  0.0547
 1761TIP3    H229479   1.152   4.103   9.142 -0.2722  0.8541  0.3905
 1762TIP3   OH229480   0.984   5.023   8.136  0.4152 -0.2718 -0.4487
 1762TIP3    H129481   0.936   5.087   8.083  0.8576 -0.0023 -0.5280
 1762TIP3    H229482   1.073   5.057   8.140  0.2646  0.0038  0.9459
 1763TIP3   OH229483   6.364   1.895   8.303 -0.2177  0.1467 -0.6501
 1763TIP3    H129484   6.294   1.842   8.340  0.0329 -0.3357 -0.8687
 1763TIP3    H229485   6.389   1.850   8.223  1.1095 -0.3029 -0.0092
 1764TIP3   OH229486   3.236   0.762   8.598  0.1414 -0.3199  0.3226
 1764TIP3    H129487   3.205   0.688   8.650  0.2027 -0.6272 -0.0803
 1764TIP3    H229488   3.262   0.827   8.663 -2.1549  0.3092  0.6977
 1765TIP3   OH229489   7.280   5.134   9.264  0.3285 -0.1141 -0.1435
 1765TIP3    H129490   7.229   5.075   9.209  0.1951  0.6379 -0.8519
 1765TIP3    H229491   7.215   5.186   9.311  0.4429 -0.6809  0.6452
 1766TIP3   OH229492   6.507   6.282   8.772 -0.3848  0.4304 -0.1461
 1766TIP3    H129493   6.508   6.202   8.824 -0.0470  0.0139 -0.7972
 1766TIP3    H229494   6.417   6.312   8.777 -0.9700 -1.0158 -1.4722
 1767TIP3   OH229495   7.403   7.351   6.729  0.0106  0.2317 -0.3222
 1767TIP3    H129496   7.413   7.323   6.638  0.1700  1.1364 -0.5891
 1767TIP3    H229497   7.371   7.441   6.724 -1.1291 -0.0966  0.5273
 1768TIP3   OH229498   0.562   2.786   9.480  0.1222 -0.1636 -0.2404
 1768TIP3    H129499   0.636   2.842   9.457 -0.1826  0.8033  0.9706
 1768TIP3    H229500   0.526   2.826   9.559 -1.5331 -0.7521 -0.6454
 1769TIP3   OH229501   5.056   6.099   9.248 -0.5361 -0.4162  0.8469
 1769TIP3    H129502   5.023   6.092   9.338 -1.6544  1.2587  0.6224
 1769TIP3    H229503   4.979   6.081   9.194 -0.0854 -0.5006  0.2315
 1770TIP3   OH229504   1.909   2.028   7.438  0.8203 -0.5993 -0.3218
 1770TIP3    H129505   1.968   1.967   7.394  0.9168 -0.0205 -1.0081
 1770TIP3    H229506   1.840   1.972   7.474  0.6515 -1.0743 -1.3384
 1771TIP3   OH229507   2.767   2.648   8.665  0.0716  0.2398 -0.4697
 1771TIP3    H129508   2.829   2.581   8.696 -0.3542 -0.3975 -0.9746
 1771TIP3    H229509   2.799   2.729   8.704  0.6120 -0.2498  0.1423
 1772TIP3   OH229510   1.166   5.106   6.886  0.0713  0.7060 -0.2485
 1772TIP3    H129511   1.160   5.125   6.979  1.3513  2.2467 -0.4323
 1772TIP3    H229512   1.140   5.014   6.878 -0.9622  0.8039  1.4802
 1773TIP3   OH229513   2.544   3.853   9.699 -0.3488 -0.5546 -0.0470
 1773TIP3    H129514   2.612   3.898   9.649 -0.2340 -0.7904 -0.1052
 1773TIP3    H229515   2.568   3.867   9.791 -0.4351 -0.3144 -0.0591
 1774TIP3   OH229516   3.576   1.251   9.513 -0.3461 -0.0420 -0.0949
 1774TIP3    H129517   3.613   1.163   9.515 -1.2611 -0.4573 -0.8161
 1774TIP3    H229518   3.490   1.240   9.473 -0.5748  1.1448  0.0415
 1775TIP3   OH229519   2.553   0.551   8.535 -0.1209 -0.2369  0.4665
 1775TIP3    H129520   2.562   0.495   8.458 -1.1052  0.6859 -0.3536
 1775TIP3    H229521   2.513   0.496   8.602  0.8211 -1.0708  0.3697
 1776TIP3   OH229522   5.207   4.685   7.553 -0.1050  0.1562  0.1406
 1776TIP3    H129523   5.122   4.693   7.510 -0.3084  0.1424  0.5368
 1776TIP3    H229524   5.206   4.599   7.594  0.2872 -0.0383 -0.2419
 1777TIP3   OH229525   5.714   2.978   7.940  0.5168  0.5252 -0.1753
 1777TIP3    H129526   5.737   2.896   7.984  0.3335  0.6373  0.1316
 1777TIP3    H229527   5.740   3.047   8.001 -1.6351  0.6465  0.7191
 1778TIP3   OH229528   2.136   0.541   9.318  0.2688 -0.4166 -0.3372
 1778TIP3    H129529   2.130   0.456   9.361 -0.4820 -0.1419  0.1180
 1778TIP3    H229530   2.214   0.582   9.355  0.6714 -0.9266 -0.6095
 1779TIP3   OH229531   3.733   0.543   7.549  0.2076 -0.0694 -0.0378
 1779TIP3    H129532   3.736   0.612   7.483  0.2993 -1.8800 -2.0280
 1779TIP3    H229533   3.645   0.548   7.586 -0.6584 -0.4312 -1.9510
 1780TIP3   OH229534   5.877   7.242   7.461  0.3426 -0.0566  0.2925
 1780TIP3    H129535   5.964   7.224   7.424  1.0431 -2.4641  2.7640
 1780TIP3    H229536   5.879   7.336   7.483  1.3722  0.4707 -1.8258
 1781TIP3   OH229537   0.393   4.136   8.369  0.0477 -0.1253 -0.0794
 1781TIP3    H129538   0.345   4.189   8.432  0.0583  0.7253 -0.7556
 1781TIP3    H229539   0.327   4.077   8.332 -0.0533 -0.3129  0.3979
 1782TIP3   OH229540   2.178   4.719   7.182 -0.0076 -0.2258 -0.4127
 1782TIP3    H129541   2.219   4.682   7.260 -2.6505  0.4549  1.4248
 1782TIP3    H229542   2.161   4.643   7.126 -0.1350 -1.0510  0.7154
 1783TIP3   OH229543   4.010   5.136   7.063  0.4346 -0.0038 -0.7729
 1783TIP3    H129544   4.061   5.093   7.133 -0.7165 -1.0762 -0.5569
 1783TIP3    H229545   4.020   5.078   6.988  0.9903  0.7247 -1.2758
 1784TIP3   OH229546   1.067   5.734   9.228  0.1212 -0.3845  0.6221
 1784TIP3    H129547   1.146   5.704   9.183 -1.4680 -1.6880 -1.4608
 1784TIP3    H229548   1.092   5.818   9.268  1.9748  0.2516 -1.6920
 1785TIP3   OH229549   3.444   4.378   7.068  0.1300  0.5338 -0.2506
 1785TIP3    H129550   3.493   4.343   7.143  1.5828  0.7959 -1.0466
 1785TIP3    H229551   3.365   4.324   7.065  1.3796 -1.4031 -0.2461
 1786TIP3   OH229552   7.453   7.244   9.039 -0.3415 -0.3401  0.0909
 1786TIP3    H129553   7.412   7.330   9.028  0.4704  0.0030 -0.3462
 1786TIP3    H229554   7.461   7.233   9.134  1.6400  1.1156  0.1517
 1787TIP3   OH229555   3.060   0.625   6.925  0.0020 -0.3109 -0.2522
 1787TIP3    H129556   3.036   0.677   6.848  0.4623 -0.3066 -0.3969
 1787TIP3    H229557   3.118   0.682   6.976  0.3842 -0.6214 -0.3335
 1788TIP3   OH229558   0.685   1.396   8.012  0.2053  0.4987  0.3334
 1788TIP3    H129559   0.752   1.386   8.079  0.3415 -0.1138  0.1142
 1788TIP3    H229560   0.604   1.412   8.060  0.0622 -1.2008  0.7092
 1789TIP3   OH229561   7.536   7.544   8.734  0.0283 -0.7841 -0.0254
 1789TIP3    H129562   7.481   7.479   8.691 -2.1774  0.7029  0.3743
 1789TIP3    H229563   7.584   7.586   8.663 -0.5012 -1.0911 -0.5699
 1790TIP3   OH229564   4.715   1.745   9.464  0.0887  0.3438 -0.2373
 1790TIP3    H129565   4.747   1.723   9.552  0.1308  0.8141 -0.1342
 1790TIP3    H229566   4.737   1.669   9.411  0.0251  0.0356  0.1696
 1791TIP3   OH229567   4.418   4.718   6.951 -0.8170  0.8499  0.3369
 1791TIP3    H129568   4.489   4.768   6.909  0.1195  1.7289  2.7871
 1791TIP3    H229569   4.409   4.757   7.038 -3.0662 -0.4850  0.7839
 1792TIP3   OH229570   6.599   4.534   7.116 -0.2816  0.1841 -0.2086
 1792TIP3    H129571   6.674   4.478   7.137 -0.8635 -0.4612  0.1616
 1792TIP3    H229572   6.592   4.529   7.021  0.7037  0.9848 -0.3461
 1793TIP3   OH229573   1.223   5.327   8.587 -0.6190 -0.2281 -0.4600
 1793TIP3    H129574   1.176   5.264   8.641  0.2405 -0.3193  0.1907
 1793TIP3    H229575   1.307   5.285   8.567 -0.1706  0.5611 -0.2901
 1794TIP3   OH229576   7.598   5.591   8.387  0.3484 -0.0763 -0.2074
 1794TIP3    H129577   7.636   5.666   8.340 -1.6798  0.9846 -0.2828
 1794TIP3    H229578   7.526   5.562   8.331 -0.8334 -0.0981  1.2506
 1795TIP3   OH229579   3.848   2.236   9.465 -0.5250 -0.4077 -0.5712
 1795TIP3    H129580   3.813   2.175   9.530  0.7587 -2.6582 -1.8529
 1795TIP3    H229581   3.772   2.260   9.411 -1.2705  0.1191  0.6862
 1796TIP3   OH229582   6.607   5.294   8.696  0.6542  0.0777  0.2807
 1796TIP3    H129583   6.610   5.376   8.745  1.3323 -0.4576  1.1501
 1796TIP3    H229584   6.628   5.226   8.760  1.2266 -0.6716 -0.6758
 1797TIP3   OH229585   4.873   1.581   8.395 -0.1057 -0.6956 -0.0002
 1797TIP3    H129586   4.903   1.624   8.315 -1.0405  0.5195  0.2873
 1797TIP3    H229587   4.778   1.578   8.387 -0.1950 -0.7628  0.9617
 1798TIP3   OH229588   3.260   5.982   7.163 -0.5864  0.3105  0.6421
 1798TIP3    H129589   3.340   5.955   7.206 -0.1071 -1.2667 -1.0860
 1798TIP3    H229590   3.285   5.995   7.071 -2.0612  0.9191  0.2878
 1799TIP3   OH229591   6.139   3.574   8.344  0.0449  0.2490 -0.1243
 1799TIP3    H129592   6.198   3.620   8.284  0.1342 -0.0837 -0.2916
 1799TIP3    H229593   6.196   3.536   8.410  0.2886 -2.0665 -1.5646
 1800TIP3   OH229594   3.132   4.119   8.690 -0.3011 -0.1942 -0.4597
 1800TIP3    H129595   3.081   4.113   8.609  1.5643  1.2333 -1.8492
 1800TIP3    H229596   3.085   4.183   8.743 -0.2565  0.7767 -1.5352
 1801TIP3   OH229597   3.301   2.542   8.848 -0.1723  0.7145 -0.2112
 1801TIP3    H129598   3.370   2.593   8.805  0.9825 -0.2553  0.4469
 1801TIP3    H229599   3.243   2.609   8.885  0.1843  1.5515 -1.1063
 1802TIP3   OH229600   3.015   2.197   8.859  0.3186 -0.7691 -0.1151
 1802TIP3    H129601   3.066   2.219   8.937  1.6925 -2.1917 -0.5544
 1802TIP3    H229602   2.925   2.191   8.890  0.5590  0.5671  0.9531
 1803TIP3   OH229603   1.221   1.076   9.628  0.1709 -0.3999  0.1914
 1803TIP3    H129604   1.187   0.987   9.629  0.2359 -0.4696 -1.4082
 1803TIP3    H229605   1.310   1.068   9.594 -0.6440  0.4770 -2.3593
 1804TIP3   OH229606   4.446   1.479   8.629  0.2578 -0.7049  0.5931
 1804TIP3    H129607   4.390   1.415   8.673 -2.1488  0.5248 -0.5244
 1804TIP3    H229608   4.412   1.484   8.540  1.8561  0.4655 -0.0008
 1805TIP3   OH229609   1.099   3.610   9.134  0.3517  0.4405  0.8933
 1805TIP3    H129610   1.149   3.590   9.055  0.0079  0.6550  0.6172
 1805TIP3    H229611   1.047   3.687   9.110  0.7287  0.9086  1.5383
 1806TIP3   OH229612   2.304   6.900   7.371 -0.1090 -0.1111  0.2204
 1806TIP3    H129613   2.379   6.878   7.426  0.1070  0.7464  0.2720
 1806TIP3    H229614   2.268   6.815   7.346  1.1694 -0.5461 -0.2142
 1807TIP3   OH229615   3.775   0.718   7.046  0.1630 -0.1688  0.0268
 1807TIP3    H129616   3.860   0.704   7.004  0.2491  0.4068  0.0046
 1807TIP3    H229617   3.727   0.772   6.984 -0.7365 -1.6130 -0.6028
 1808TIP3   OH229618   6.156   1.697   8.392 -0.7315 -0.6287 -0.5100
 1808TIP3    H129619   6.209   1.633   8.346 -0.3660  0.6300 -1.9211
 1808TIP3    H229620   6.077   1.650   8.417  0.5485 -2.2633  0.7037
 1809TIP3   OH229621   7.400   1.852   7.989  0.2172 -0.3054 -0.0372
 1809TIP3    H129622   7.332   1.920   7.983 -0.5850 -0.6303  3.2502
 1809TIP3    H229623   7.482   1.901   7.997  0.1945  0.1266 -1.9611
 1810TIP3   OH229624   2.290   5.154   8.510  0.0101  0.1244 -0.2164
 1810TIP3    H129625   2.382   5.176   8.493  0.7908 -2.8793 -0.4980
 1810TIP3    H229626   2.253   5.136   8.423  0.0711 -1.6839  0.1011
 1811TIP3   OH229627   6.775   7.262   9.705  0.0815  0.0569  0.0757
 1811TIP3    H129628   6.728   7.215   9.637 -0.5107 -0.0837  0.5659
 1811TIP3    H229629   6.772   7.203   9.781 -0.5963  0.8306  0.6726
 1812TIP3   OH229630   1.388   1.645   6.690  0.3459  0.0668 -0.3127
 1812TIP3    H129631   1.318   1.580   6.700 -0.8900  1.3762 -0.0851
 1812TIP3    H229632   1.369   1.688   6.607  0.3315  1.0606  0.1907
 1813TIP3   OH229633   2.403   1.976   8.764 -0.0075 -0.3536 -0.4940
 1813TIP3    H129634   2.446   2.000   8.847 -1.6851 -0.0924  0.3445
 1813TIP3    H229635   2.367   2.059   8.731  1.4086 -0.2971 -1.9732
 1814TIP3   OH229636   3.587   3.913   8.746 -0.3369  0.3485  0.1028
 1814TIP3    H129637   3.521   3.925   8.677 -0.3882  0.0272  0.0914
 1814TIP3    H229638   3.633   3.996   8.750  0.2016  0.1158 -0.8835
 1815TIP3   OH229639   3.824   5.121   7.958 -1.1334  0.2673 -0.1251
 1815TIP3    H129640   3.890   5.169   7.908  1.3267 -0.4154  2.2734
 1815TIP3    H229641   3.860   5.033   7.968 -3.0774 -0.5628  0.1344
 1816TIP3   OH229642   6.060   6.452   9.236  0.6434 -0.3208 -0.5943
 1816TIP3    H129643   6.143   6.438   9.191  0.3733  0.0351 -1.2101
 1816TIP3    H229644   5.997   6.398   9.188  0.6296 -1.1133  0.2724
 1817TIP3   OH229645   1.821   1.015   9.181 -0.2218 -0.1019  0.3285
 1817TIP3    H129646   1.893   1.052   9.130  0.0314  0.3162  0.9911
 1817TIP3    H229647   1.826   1.058   9.266 -0.9681 -0.4129  0.5398
 1818TIP3   OH229648   2.439   7.616   9.275  0.2094  0.2389  0.2508
 1818TIP3    H129649   2.440   7.711   9.277 -0.7350  0.3104 -0.9890
 1818TIP3    H229650   2.372   7.591   9.338  0.6454  0.3838  0.7708
 1819TIP3   OH229651   5.542   5.557   9.518  0.2256  0.1033  0.5092
 1819TIP3    H129652   5.606   5.614   9.559  0.3704 -0.9515  1.8194
 1819TIP3    H229653   5.574   5.545   9.428  0.4680  1.6133  0.3706
 1820TIP3   OH229654   6.644   7.268   7.732 -0.2120  0.0874 -0.2823
 1820TIP3    H129655   6.695   7.347   7.714 -1.6417  0.9260 -0.8346
 1820TIP3    H229656   6.623   7.234   7.646 -2.2881  0.9199 -0.1509
 1821TIP3   OH229657   4.095   4.719   8.911 -0.0372  0.1751 -0.5984
 1821TIP3    H129658   4.011   4.733   8.955  0.3272 -1.1413  0.5858
 1821TIP3    H229659   4.124   4.633   8.941  1.3500  0.2418 -1.6379
 1822TIP3   OH229660   3.115   2.709   8.987  0.0463 -0.1231 -0.1265
 1822TIP3    H129661   3.108   2.729   9.080 -0.6639  0.1565 -0.2345
 1822TIP3    H229662   3.035   2.743   8.949 -0.2013 -1.2637 -0.6657
 1823TIP3   OH229663   5.153   6.227   7.766  0.5227  0.1029 -0.5649
 1823TIP3    H129664   5.226   6.167   7.777  0.0704 -0.6907 -1.6741
 1823TIP3    H229665   5.184   6.310   7.804  1.7661 -0.3790 -0.4758
 1824TIP3   OH229666   4.368   4.864   9.878 -0.0142  0.2868  0.3074
 1824TIP3    H129667   4.304   4.865   9.949  0.3080 -1.0523  0.6537
 1824TIP3    H229668   4.386   4.957   9.860 -0.8952  0.6578  1.2441
 1825TIP3   OH229669   6.386   6.492   8.286 -0.9602  0.0023  0.0962
 1825TIP3    H129670   6.323   6.452   8.226  0.2635  0.0451 -1.2589
 1825TIP3    H229671   6.407   6.422   8.348  0.5936 -1.3265 -1.8007
 1826TIP3   OH229672   1.734   3.442   8.090 -0.2886 -0.0073  0.0975
 1826TIP3    H129673   1.790   3.401   8.156  0.4513  1.6559  0.5589
 1826TIP3    H229674   1.795   3.468   8.020 -0.6612  0.7223  0.0398
 1827TIP3   OH229675   0.729   6.941   8.462  0.0496 -0.5356 -0.1926
 1827TIP3    H129676   0.798   7.007   8.473 -0.7446  0.6667 -1.9111
 1827TIP3    H229677   0.692   6.930   8.550  2.2582 -1.0717  0.7294
 1828TIP3   OH229678   7.209   5.802   9.487  0.3800  0.1156 -0.1963
 1828TIP3    H129679   7.190   5.767   9.400 -0.0345 -1.3567  0.4543
 1828TIP3    H229680   7.262   5.733   9.528 -3.0457 -1.3288  2.2497
 1829TIP3   OH229681   3.004   6.900   8.563  0.1475  0.3321 -0.0168
 1829TIP3    H129682   3.024   6.989   8.595  1.3884 -0.1339  0.5743
 1829TIP3    H229683   3.075   6.881   8.501 -0.3457 -0.1008 -0.4525
 1830TIP3   OH229684   5.838   3.527   8.295 -0.4092  0.1272  0.2888
 1830TIP3    H129685   5.844   3.552   8.203 -0.3663 -1.3943 -0.1369
 1830TIP3    H229686   5.911   3.573   8.337  1.0100 -0.9887 -0.8715
 1831TIP3   OH229687   5.255   7.287   9.729  0.3683 -0.1063  0.0515
 1831TIP3    H129688   5.286   7.374   9.703  0.1717 -0.2606 -0.7405
 1831TIP3    H229689   5.324   7.254   9.787  1.0423  0.1084 -0.5941
 1832TIP3   OH229690   1.081   6.882   8.516 -0.0984 -0.0513 -0.1886
 1832TIP3    H129691   1.038   6.961   8.550  2.4670  1.9314 -1.2232
 1832TIP3    H229692   1.052   6.876   8.425  0.4129  0.2692 -0.3780
 1833TIP3   OH229693   6.806   3.655   8.131 -0.2404  0.0851 -0.1716
 1833TIP3    H129694   6.770   3.721   8.191 -0.0844 -0.1003  0.1251
 1833TIP3    H229695   6.847   3.707   8.062 -0.4769  0.3003 -0.1542
 1834TIP3   OH229696   3.897   6.515   8.769  0.1669  0.1805 -0.6382
 1834TIP3    H129697   3.809   6.484   8.751  0.4641 -0.0868 -1.7150
 1834TIP3    H229698   3.952   6.472   8.704  1.1522  0.0772  0.2255
 1835TIP3   OH229699   0.541   6.941   7.212  0.1137 -0.8456  0.4388
 1835TIP3    H129700   0.601   6.866   7.215  1.1371 -0.0676 -0.0310
 1835TIP3    H229701   0.592   7.014   7.247 -0.0962  0.1341 -1.2044
 1836TIP3   OH229702   6.165   5.889   7.937  0.5253  0.4116  0.3020
 1836TIP3    H129703   6.171   5.902   8.032  0.1596  1.3489  0.2128
 1836TIP3    H229704   6.247   5.846   7.913  1.5812  2.0650  0.7613
 1837TIP3   OH229705   1.320   3.771   6.901  0.1998  0.5820  0.2170
 1837TIP3    H129706   1.329   3.813   6.986  2.4116 -2.2050  1.5349
 1837TIP3    H229707   1.396   3.712   6.895 -2.0250 -2.3616 -1.8746
 1838TIP3   OH229708   0.811   0.454   8.207 -0.0120 -0.2182  0.1143
 1838TIP3    H129709   0.813   0.359   8.190  2.7831 -0.3257  0.5720
 1838TIP3    H229710   0.801   0.461   8.302 -0.7520 -0.0059  0.0292
 1839TIP3   OH229711   5.743   3.025   9.119  0.4803 -0.1776 -0.3286
 1839TIP3    H129712   5.808   3.031   9.189 -0.4423 -1.2733  0.6676
 1839TIP3    H229713   5.658   3.032   9.164 -0.1413  1.6987 -1.6380
 1840TIP3   OH229714   2.037   7.054   8.572 -0.2274 -0.8274 -0.0457
 1840TIP3    H129715   2.124   7.042   8.534  0.2343 -2.4117  1.3673
 1840TIP3    H229716   1.976   7.043   8.499  0.7401  1.1683 -1.2199
 1841TIP3   OH229717   4.048   2.020   9.400 -0.6190 -0.9378  0.3059
 1841TIP3    H129718   4.013   2.039   9.313 -2.0906  1.6209  1.3438
 1841TIP3    H229719   4.133   2.064   9.403  0.3591 -2.6719 -0.4194
 1842TIP3   OH229720   4.011   3.822   8.763 -0.0793  0.1697  0.1764
 1842TIP3    H129721   4.078   3.755   8.779  0.0233  0.5859  1.6148
 1842TIP3    H229722   3.961   3.789   8.689  1.8676 -0.0357 -1.1067
 1843TIP3   OH229723   5.178   6.166   8.686  0.0133 -0.0022 -0.2892
 1843TIP3    H129724   5.130   6.241   8.651 -1.6082 -1.9445 -2.5406
 1843TIP3    H229725   5.217   6.124   8.609 -1.3157 -2.8923  0.4803
 1844TIP3   OH229726   7.220   2.303   8.114  0.2069 -0.7969  0.6752
 1844TIP3    H129727   7.275   2.382   8.106  1.4531 -1.7679 -0.8654
 1844TIP3    H229728   7.164   2.305   8.037 -0.3255 -1.0231  1.0525
 1845TIP3   OH229729   0.240   2.095   7.881 -0.2670  0.2958 -0.2176
 1845TIP3    H129730   0.331   2.120   7.865  0.4665 -2.5669 -0.9985
 1845TIP3    H229731   0.241   2.051   7.966 -1.1114  1.0165  0.1806
 1846TIP3   OH229732   4.598   7.484   9.610  0.2396  0.0020  0.1910
 1846TIP3    H129733   4.653   7.425   9.662 -0.0652  1.7631  2.6961
 1846TIP3    H229734   4.658   7.523   9.547  1.0205 -0.8933  0.3576
 1847TIP3   OH229735   4.639   1.328   7.890  0.4811  0.5720 -0.4202
 1847TIP3    H129736   4.683   1.345   7.974  1.0348  0.7418 -0.7371
 1847TIP3    H229737   4.651   1.408   7.840 -1.1833  1.0564 -0.1132
 1848TIP3   OH229738   5.578   7.325   8.612  0.8830 -0.4863  0.2833
 1848TIP3    H129739   5.668   7.354   8.594 -0.0370  1.1072 -2.1922
 1848TIP3    H229740   5.535   7.326   8.527 -0.8184 -3.9027  0.9542
 1849TIP3   OH229741   5.874   6.935   8.861 -0.5814  0.3339 -0.6470
 1849TIP3    H129742   5.892   7.010   8.804  2.6157  0.4660  0.3124
 1849TIP3    H229743   5.853   6.974   8.946 -1.0112  0.1313 -0.6566
 1850TIP3   OH229744   0.386   7.109   6.659 -0.2269 -0.6692  0.1323
 1850TIP3    H129745   0.379   7.014   6.671 -1.1418 -0.7374 -0.7354
 1850TIP3    H229746   0.301   7.134   6.622  0.0750  0.4604  0.1766
 1851TIP3   OH229747   2.326   4.716   7.689 -0.1059 -0.1422  0.5003
 1851TIP3    H129748   2.298   4.667   7.766 -0.7123  0.0760  0.4262
 1851TIP3    H229749   2.306   4.659   7.615 -4.6467  1.6282  0.0092
 1852TIP3   OH229750   1.937   1.518   9.215  0.6186  0.3529 -0.0502
 1852TIP3    H129751   1.883   1.589   9.181 -0.1387  0.5652  1.5215
 1852TIP3    H229752   1.878   1.442   9.218  0.9317  0.1051 -0.0565
 1853TIP3   OH229753   5.727   0.805   8.047  0.0743  0.7066  0.2763
 1853TIP3    H129754   5.755   0.804   7.956  0.3193 -0.4791  0.3499
 1853TIP3    H229755   5.631   0.809   8.043 -0.0231 -1.2840 -0.0837
 1854TIP3   OH229756   3.855   4.791  10.008 -0.4038 -0.8971  0.3656
 1854TIP3    H129757   3.892   4.823   9.925 -1.7806 -1.9887 -0.7153
 1854TIP3    H229758   3.764   4.773   9.988 -1.5011  1.3414  2.8565
 1855TIP3   OH229759   4.400   1.394   9.086 -0.0117  0.2865 -0.1848
 1855TIP3    H129760   4.455   1.317   9.098 -0.9692 -0.3648  0.0768
 1855TIP3    H229761   4.431   1.432   9.004 -0.4209 -1.1409 -1.0348
 1856TIP3   OH229762   0.583   1.616   6.971  0.1326  0.7493 -1.0841
 1856TIP3    H129763   0.606   1.530   7.008 -2.9250  0.0296 -0.5452
 1856TIP3    H229764   0.545   1.596   6.886 -2.0606  1.3271 -0.3031
 1857TIP3   OH229765   5.278   6.938   7.895  0.1490  0.2088 -0.2614
 1857TIP3    H129766   5.247   6.963   7.807 -1.6215 -0.7626  0.0471
 1857TIP3    H229767   5.372   6.959   7.894 -0.1573  1.7380 -1.8211
 1858TIP3   OH229768   6.991   0.868   6.750  0.3045 -0.5618  0.3221
 1858TIP3    H129769   6.948   0.782   6.744  1.3322 -1.1320  0.8158
 1858TIP3    H229770   6.973   0.897   6.839  0.3662 -0.4915  0.3112
 1859TIP3   OH229771   4.877   0.798   8.281  0.7931  0.3234 -0.8295
 1859TIP3    H129772   4.831   0.721   8.247  0.6120  0.3829 -0.7246
 1859TIP3    H229773   4.863   0.793   8.376 -1.4439  1.8631 -0.9774
 1860TIP3   OH229774   0.995   3.020   7.565 -0.0041  0.1934 -0.1923
 1860TIP3    H129775   0.995   3.010   7.660 -1.4267 -0.5762 -0.2474
 1860TIP3    H229776   1.085   3.001   7.539  1.5699  4.3972  1.3210
 1861TIP3   OH229777   5.237   6.065   7.239  0.1504  0.6456 -0.1023
 1861TIP3    H129778   5.151   6.023   7.231 -0.1987  0.3889  3.2940
 1861TIP3    H229779   5.260   6.092   7.150 -2.8138 -0.4780 -1.3224
 1862TIP3   OH229780   4.662   1.648   7.261 -0.3281 -0.3290  0.1533
 1862TIP3    H129781   4.747   1.678   7.293  0.9892 -2.4730 -1.0600
 1862TIP3    H229782   4.661   1.673   7.168 -1.4218  0.4314  0.3558
 1863TIP3   OH229783   2.304   5.145   7.517 -0.4287 -0.5071 -0.6492
 1863TIP3    H129784   2.252   5.085   7.463  0.8544 -0.9767 -1.4176
 1863TIP3    H229785   2.272   5.232   7.494 -1.3527 -0.8147 -0.5703
 1864TIP3   OH229786   3.218   3.244   9.560  0.3073  0.2488  0.0480
 1864TIP3    H129787   3.290   3.307   9.557 -0.3810  1.0336 -0.3624
 1864TIP3    H229788   3.139   3.298   9.565 -0.2979 -0.5843 -0.2852
 1865TIP3   OH229789   1.344   2.608   6.754 -0.1269 -0.6705 -0.7001
 1865TIP3    H129790   1.285   2.683   6.756 -0.1768 -0.7021 -1.0120
 1865TIP3    H229791   1.290   2.535   6.725  0.1437 -0.6299 -1.3139
 1866TIP3   OH229792   0.006   2.031   6.795 -0.0839 -0.4563 -1.0585
 1866TIP3    H129793  -0.088   2.042   6.784 -0.3557 -0.4239  0.9642
 1866TIP3    H229794   0.022   1.939   6.774 -0.3084 -0.1639 -2.6896
 1867TIP3   OH229795   0.493   3.022   8.412 -0.3963  0.0628  0.1821
 1867TIP3    H129796   0.495   3.076   8.333  0.5337 -1.0926 -0.6227
 1867TIP3    H229797   0.471   2.934   8.380  1.2258 -0.6864  1.0299
 1868TIP3   OH229798   0.573   0.539   7.538  0.3139 -0.0296  0.1300
 1868TIP3    H129799   0.544   0.449   7.552 -2.5938  0.7702  0.0958
 1868TIP3    H229800   0.573   0.550   7.443  2.1512 -0.3784  0.0679
 1869TIP3   OH229801   4.532   3.107   9.084  0.2346 -0.4725  0.0022
 1869TIP3    H129802   4.613   3.128   9.129 -0.2949  1.8297 -0.0206
 1869TIP3    H229803   4.553   3.112   8.991  0.8202 -3.2131 -0.1037
 1870TIP3   OH229804   6.847   4.332   7.996 -0.0317  0.1761  0.1164
 1870TIP3    H129805   6.799   4.310   8.075 -0.8563  1.4345 -0.0179
 1870TIP3    H229806   6.842   4.253   7.942  1.7716 -1.2239  1.8634
 1871TIP3   OH229807   2.907   3.540   8.362 -0.8472  0.1618 -0.1959
 1871TIP3    H129808   2.904   3.563   8.454 -0.7564  0.7824 -0.3410
 1871TIP3    H229809   2.826   3.492   8.346 -0.9813  0.2711  0.1545
 1872TIP3   OH229810   0.292   0.252   8.080 -0.0372  0.3782  0.1227
 1872TIP3    H129811   0.214   0.278   8.031  0.8453  0.6528 -1.2029
 1872TIP3    H229812   0.286   0.301   8.162  0.8831  3.8935 -1.7184
 1873TIP3   OH229813   5.882   1.097   8.879  0.2115 -0.0877  0.2627
 1873TIP3    H129814   5.864   1.174   8.932 -1.0688  0.5625 -1.0628
 1873TIP3    H229815   5.945   1.126   8.813  0.7163 -0.5308  0.5326
 1874TIP3   OH229816   5.433   4.788   9.414  0.1031  0.0277 -0.3795
 1874TIP3    H129817   5.430   4.877   9.377  3.1868  0.6813  0.6857
 1874TIP3    H229818   5.498   4.742   9.361  0.1312 -0.9055  0.4413
 1875TIP3   OH229819   6.709   1.515   8.967  0.6907 -0.2355 -0.0617
 1875TIP3    H129820   6.749   1.586   8.916  1.1237 -0.5392 -0.1473
 1875TIP3    H229821   6.615   1.524   8.950  0.4548  1.8547  1.8437
 1876TIP3   OH229822   2.805   2.984   9.446  0.0112  0.4803  0.7519
 1876TIP3    H129823   2.751   2.979   9.525 -1.0058  0.9621  0.1089
 1876TIP3    H229824   2.793   3.073   9.414 -1.1057 -0.2355 -0.9711
 1877TIP3   OH229825   6.383   3.153   7.718 -0.3479 -0.0886  0.0189
 1877TIP3    H129826   6.321   3.082   7.701 -1.6480  0.7705  0.9525
 1877TIP3    H229827   6.469   3.115   7.700 -1.1648 -1.1010 -2.0253
 1878TIP3   OH229828   3.568   5.327   8.770  0.2426 -0.2106  0.1088
 1878TIP3    H129829   3.537   5.321   8.680 -0.6302 -2.0105  0.4837
 1878TIP3    H229830   3.600   5.239   8.790 -2.3654 -0.7537  2.4909
 1879TIP3   OH229831   0.754   0.595   7.968  0.4614  0.1493 -0.2863
 1879TIP3    H129832   0.770   0.551   8.052 -2.8014  0.4047  0.6107
 1879TIP3    H229833   0.808   0.674   7.972 -0.6159  0.8512  2.2327
 1880TIP3   OH229834   3.607   3.207   7.032 -0.4199 -0.3560 -0.1706
 1880TIP3    H129835   3.597   3.293   6.991  1.1288 -1.1322 -2.4333
 1880TIP3    H229836   3.548   3.150   6.982  0.0285 -0.9715 -0.0093
 1881TIP3   OH229837   3.643   7.076   9.332 -0.0911  0.5750 -0.8499
 1881TIP3    H129838   3.687   7.150   9.290 -1.2486  0.7501 -1.7991
 1881TIP3    H229839   3.682   6.999   9.290  1.7783  0.5543  0.7862
 1882TIP3   OH229840   2.345   4.137   7.762  0.0531 -0.0346  0.3953
 1882TIP3    H129841   2.386   4.183   7.835 -0.0871  3.0515 -1.3297
 1882TIP3    H229842   2.406   4.148   7.689 -0.1562 -2.3829 -0.2172
 1883TIP3   OH229843   2.030   2.743   9.300 -0.4239  0.6408 -0.0202
 1883TIP3    H129844   2.098   2.809   9.310 -0.6040  0.8844 -0.3942
 1883TIP3    H229845   1.960   2.787   9.253 -1.3847  0.7900  1.4592
 1884TIP3   OH229846   0.250   2.378   8.181 -0.2814 -0.0148  0.2523
 1884TIP3    H129847   0.327   2.321   8.186 -0.4270 -0.1688  0.8048
 1884TIP3    H229848   0.175   2.318   8.189 -0.4365  0.2435  0.8013
 1885TIP3   OH229849   0.050   5.788   8.250 -0.2272 -0.1624  0.3743
 1885TIP3    H129850   0.054   5.779   8.155  3.3781 -0.4452  0.3935
 1885TIP3    H229851   0.142   5.795   8.276 -1.1575  2.2630  3.6331
 1886TIP3   OH229852   1.701   2.217   6.848 -0.1007 -0.1008 -0.2548
 1886TIP3    H129853   1.721   2.142   6.792 -2.1049 -2.1582  1.5691
 1886TIP3    H229854   1.606   2.212   6.861  0.2015  0.4858  2.9667
 1887TIP3   OH229855   4.950   2.709   9.129  0.6082  0.1679  0.2853
 1887TIP3    H129856   4.856   2.705   9.148  0.4031  1.7714 -0.2765
 1887TIP3    H229857   4.991   2.731   9.213  0.5479 -0.8806  0.6120
 1888TIP3   OH229858   2.079   0.289   7.063  0.0568 -0.5329  0.2625
 1888TIP3    H129859   2.010   0.229   7.091  0.4065 -0.8589  0.4385
 1888TIP3    H229860   2.160   0.239   7.075  0.4202  0.2537  1.1982
 1889TIP3   OH229861   6.003   6.080   9.678 -0.1647 -0.3985 -0.4531
 1889TIP3    H129862   6.071   6.052   9.740 -0.3256  1.9861  0.9131
 1889TIP3    H229863   6.037   6.054   9.593  2.8808  1.2581  0.0886
 1890TIP3   OH229864   0.647   6.060   8.342  0.0133 -0.0600  0.0192
 1890TIP3    H129865   0.727   6.100   8.376 -0.8484  2.3312 -0.5710
 1890TIP3    H229866   0.678   5.991   8.283  1.5923 -0.1918  0.9399
 1891TIP3   OH229867   5.430   4.702   8.014 -0.4267 -0.1041  0.1689
 1891TIP3    H129868   5.426   4.769   8.082 -0.2540 -0.5313  0.6129
 1891TIP3    H229869   5.377   4.630   8.048  0.6780 -0.8231  0.4363
 1892TIP3   OH229870   0.742   4.148   7.528 -0.2294  0.4858 -0.5960
 1892TIP3    H129871   0.693   4.072   7.561  0.0506  0.1602 -0.9189
 1892TIP3    H229872   0.675   4.207   7.494 -0.4935  0.6693  0.2410
 1893TIP3   OH229873   7.276   5.035   8.356 -0.0639  0.4699 -0.2374
 1893TIP3    H129874   7.183   5.021   8.374 -0.5638  2.9841 -0.5553
 1893TIP3    H229875   7.292   4.985   8.276 -1.1571  0.0401 -0.2097
 1894TIP3   OH229876   4.965   4.485   8.195  0.1960 -0.0067  0.0911
 1894TIP3    H129877   4.901   4.467   8.264 -0.9191  1.0007 -0.6396
 1894TIP3    H229878   4.960   4.408   8.138  0.7640 -0.6172  0.8413
 1895TIP3   OH229879   2.385   5.003   8.844 -0.3144  0.3775  0.7806
 1895TIP3    H129880   2.337   4.959   8.775  0.3655  3.0961 -1.6474
 1895TIP3    H229881   2.467   5.031   8.803  0.1172  2.1498  2.6316
 1896TIP3   OH229882   1.838   6.015   8.417 -0.0432 -0.4112 -0.7014
 1896TIP3    H129883   1.743   6.016   8.426 -0.0421 -3.3393  0.5210
 1896TIP3    H229884   1.871   6.005   8.506  1.1986 -3.1711 -1.3700
 1897TIP3   OH229885   1.587   1.568   8.386 -0.6424 -0.2163  0.2791
 1897TIP3    H129886   1.636   1.525   8.456 -0.4323 -0.3792  0.0323
 1897TIP3    H229887   1.608   1.661   8.395 -0.2495 -0.2897  0.1457
 1898TIP3   OH229888   7.308   3.333   8.056 -0.6203  0.6092  0.4251
 1898TIP3    H129889   7.272   3.325   8.144  1.4138  1.0647  1.3635
 1898TIP3    H229890   7.339   3.245   8.034 -0.1511  0.7201  0.6296
 1899TIP3   OH229891   1.924   4.863   9.398 -0.1889 -0.2011  0.0211
 1899TIP3    H129892   1.859   4.879   9.329  0.0584  1.0732  0.0546
 1899TIP3    H229893   1.934   4.768   9.399  0.7118 -0.2311 -2.5932
 1900TIP3   OH229894   3.898   1.195   8.006  0.4076  0.1071  0.1458
 1900TIP3    H129895   3.877   1.286   8.026  2.1327  0.2606  1.4953
 1900TIP3    H229896   3.820   1.145   8.030 -0.6142  1.2339 -0.7747
 1901TIP3   OH229897   7.196   2.552   9.100 -0.5818  0.2879 -0.2071
 1901TIP3    H129898   7.108   2.523   9.075 -0.3528 -0.3617 -0.2941
 1901TIP3    H229899   7.215   2.504   9.181  0.2347 -0.6929 -0.9325
 1902TIP3   OH229900   1.479   0.128   7.761  0.4399 -0.4578 -0.4715
 1902TIP3    H129901   1.400   0.084   7.732  0.0928  0.3199 -0.7544
 1902TIP3    H229902   1.543   0.058   7.775 -0.5305 -1.1614  0.5308
 1903TIP3   OH229903   3.750   0.940   8.353 -0.2924  0.2169 -0.1504
 1903TIP3    H129904   3.781   1.029   8.371 -1.1769  0.2955  1.2064
 1903TIP3    H229905   3.711   0.945   8.266 -1.1502  1.4189  0.2756
 1904TIP3   OH229906   5.166   1.619   8.958  0.1317  0.4391  0.5635
 1904TIP3    H129907   5.221   1.644   9.032 -0.7494  0.5719  1.1811
 1904TIP3    H229908   5.157   1.700   8.907  0.5984  0.3884  0.3989
 1905TIP3   OH229909   1.343   3.864   8.922 -0.0842 -0.1385  0.4675
 1905TIP3    H129910   1.392   3.828   8.847  2.7712  0.0965  2.0584
 1905TIP3    H229911   1.317   3.952   8.894  2.0262  0.4286  0.0766
 1906TIP3   OH229912   1.589   0.085   9.493  0.0523  0.2887  0.3210
 1906TIP3    H129913   1.530   0.153   9.461 -1.3495 -2.0274 -2.4543
 1906TIP3    H229914   1.664   0.089   9.433  0.4122  0.0181  0.7521
 1907TIP3   OH229915   5.491   5.841   8.728  0.3921  0.0803 -0.2102
 1907TIP3    H129916   5.463   5.868   8.815  1.6148 -0.0279  0.2481
 1907TIP3    H229917   5.563   5.780   8.745  0.0398 -0.6608 -1.2856
 1908TIP3   OH229918   3.294   3.661   9.073 -0.0330 -0.0296  0.0139
 1908TIP3    H129919   3.256   3.748   9.086 -1.0086 -0.7141  2.1675
 1908TIP3    H229920   3.223   3.600   9.093  1.3632 -1.3388  1.2229
 1909TIP3   OH229921   0.322   5.973   7.581 -0.4064  0.0258 -0.9159
 1909TIP3    H129922   0.275   6.055   7.594  0.8198  0.5434  0.6280
 1909TIP3    H229923   0.410   5.990   7.616 -0.1909 -2.0076 -0.3435
 1910TIP3   OH229924   6.624   7.189   7.477  0.2610 -0.2399 -0.2442
 1910TIP3    H129925   6.598   7.133   7.403 -1.8480 -0.8278  0.8491
 1910TIP3    H229926   6.683   7.253   7.439 -0.9794 -0.3428 -2.5297
 1911TIP3   OH229927   1.463   2.246   7.095  0.6111 -0.4349 -0.4628
 1911TIP3    H129928   1.471   2.325   7.042  0.1845  0.7832  1.1924
 1911TIP3    H229929   1.370   2.226   7.095  0.5648 -0.2234  0.1073
 1912TIP3   OH229930   6.579   7.129   8.724  0.4372  0.5375 -0.6077
 1912TIP3    H129931   6.556   7.204   8.668  0.3093  0.8262 -0.1725
 1912TIP3    H229932   6.629   7.071   8.666 -1.1226  0.0228 -1.4912
 1913TIP3   OH229933   1.602   5.648   9.195  0.1043 -0.1450  0.3422
 1913TIP3    H129934   1.607   5.696   9.278  1.3596  0.8028 -0.2567
 1913TIP3    H229935   1.559   5.709   9.135  1.3167  0.0755 -0.3135
 1914TIP3   OH229936   1.152   7.175   8.294  0.2745 -0.1037  0.5038
 1914TIP3    H129937   1.243   7.146   8.291  0.5767  0.7566  0.8989
 1914TIP3    H229938   1.158   7.271   8.295 -0.7232  0.1120 -2.9315
 1915TIP3   OH229939   1.466   7.278   9.471 -0.1396 -0.5596 -0.1786
 1915TIP3    H129940   1.404   7.294   9.401  0.7841  3.2165 -0.3333
 1915TIP3    H229941   1.545   7.247   9.426 -0.5191 -1.2408 -0.4022
 1916TIP3   OH229942   7.125   0.242   8.879 -0.2612  0.7826  0.6436
 1916TIP3    H129943   7.099   0.312   8.938  0.0456  1.2215  0.2658
 1916TIP3    H229944   7.211   0.268   8.847  0.9811 -0.9331  2.3587
 1917TIP3   OH229945   0.305   7.302   8.865  0.3754 -0.8101 -0.9246
 1917TIP3    H129946   0.227   7.351   8.889  0.7658 -1.2724  1.5515
 1917TIP3    H229947   0.367   7.369   8.836 -0.6035 -0.3600 -2.0613
 1918TIP3   OH229948   1.829   2.733   7.978  0.5699  0.1428 -0.0233
 1918TIP3    H129949   1.840   2.696   8.066  0.7933  2.3025  0.9086
 1918TIP3    H229950   1.761   2.800   7.988 -0.4526 -0.5517 -1.8367
 1919TIP3   OH229951   0.315   4.981   7.784 -0.3274  0.2140 -0.5006
 1919TIP3    H129952   0.353   4.895   7.803  3.5145  1.0967 -3.0346
 1919TIP3    H229953   0.327   5.030   7.865  1.2994 -0.4645 -0.2968
 1920TIP3   OH229954   7.047   0.564   9.430 -0.4429  0.0997 -0.0729
 1920TIP3    H129955   6.986   0.630   9.461  0.6840  1.8469 -1.3928
 1920TIP3    H229956   6.995   0.508   9.372 -1.5240 -0.5404  1.4592
 1921TIP3   OH229957   1.846   0.946   8.323 -0.0863  0.4236  0.1512
 1921TIP3    H129958   1.940   0.931   8.330 -0.2827 -1.4117 -0.6333
 1921TIP3    H229959   1.837   1.007   8.249  0.3610 -2.6128 -2.6614
 1922TIP3   OH229960   3.429   1.027   8.363  0.7670  0.2398  0.4261
 1922TIP3    H129961   3.465   1.092   8.304  0.7908 -0.4169 -0.2926
 1922TIP3    H229962   3.502   1.002   8.419  0.9384  0.3086  0.2324
 1923TIP3   OH229963   5.411   2.006   9.594  0.4237 -0.3444  0.0615
 1923TIP3    H129964   5.484   1.950   9.567  0.0043 -1.2088  0.6949
 1923TIP3    H229965   5.427   2.024   9.686  0.1972  0.0464  0.0307
 1924TIP3   OH229966   2.591   4.172   8.884 -0.4609 -0.3473  0.6255
 1924TIP3    H129967   2.603   4.161   8.790 -1.2039 -1.4536  0.6398
 1924TIP3    H229968   2.497   4.184   8.895 -0.3898 -0.3014  1.2343
 1925TIP3   OH229969   1.826   6.180   9.383 -0.3991 -0.3115  0.2305
 1925TIP3    H129970   1.849   6.190   9.290  2.0319  0.8359  0.8734
 1925TIP3    H229971   1.870   6.099   9.410 -1.3050 -0.7741  0.3423
 1926TIP3   OH229972   7.137   6.521   7.966 -0.4879 -0.2205  0.0899
 1926TIP3    H129973   7.070   6.509   7.899  1.2362 -0.0038 -1.7698
 1926TIP3    H229974   7.136   6.615   7.984  0.2873  0.0353 -1.0712
 1927TIP3   OH229975   4.765   7.283   9.713  0.2235  0.3610  0.0261
 1927TIP3    H129976   4.847   7.325   9.741 -0.4578  0.4498  2.0516
 1927TIP3    H229977   4.785   7.189   9.715  1.3405  0.3981 -3.2017
 1928TIP3   OH229978   6.579   5.042   7.281 -0.4145 -0.6638 -0.5924
 1928TIP3    H129979   6.597   4.949   7.266 -2.4004 -1.5124  1.6611
 1928TIP3    H229980   6.567   5.049   7.375  0.9204  2.1797 -0.5395
 1929TIP3   OH229981   0.021   2.995   9.470  0.6390 -0.5830  0.2344
 1929TIP3    H129982   0.085   2.960   9.532  1.0362 -2.0623 -0.9283
 1929TIP3    H229983  -0.062   2.993   9.517  1.2770  0.5246  1.4697
 1930TIP3   OH229984   4.744   7.592   9.384 -0.1441 -0.0882 -0.4868
 1930TIP3    H129985   4.670   7.577   9.325  0.0525  0.5000 -0.8927
 1930TIP3    H229986   4.815   7.538   9.348  0.0218  0.3882 -0.8863
 1931TIP3   OH229987   5.584   4.757   7.586 -0.2492  0.4091  0.7957
 1931TIP3    H129988   5.559   4.712   7.667  0.1733  1.0330  1.2791
 1931TIP3    H229989   5.504   4.802   7.558 -0.9623 -1.3849 -0.2219
 1932TIP3   OH229990   0.920   5.666   7.055 -0.0219 -0.4555  0.5279
 1932TIP3    H129991   0.865   5.613   6.998 -0.7512 -0.0996  0.8818
 1932TIP3    H229992   1.007   5.662   7.015 -0.1731 -1.5038  0.2855
 1933TIP3   OH229993   5.129   7.226   8.845 -0.3299  0.1107  0.6578
 1933TIP3    H129994   5.188   7.270   8.785 -0.3079  0.5347  0.9837
 1933TIP3    H229995   5.170   7.235   8.931 -0.7884  0.2799  0.8667
 1934TIP3   OH229996   5.922   7.635   7.754 -0.3789  0.5840  0.1956
 1934TIP3    H129997   5.885   7.612   7.840 -0.6234  2.7276  0.7272
 1934TIP3    H229998   5.930   7.731   7.757  2.3796  0.4806 -1.0647
 1935TIP3   OH229999   4.452   5.148   9.865 -0.2208  0.0124  0.1531
 1935TIP3    H130000   4.528   5.160   9.808 -0.0393 -1.5331  0.0221
 1935TIP3    H230001   4.423   5.237   9.885  0.1987  0.6134 -1.6952
 1936TIP3   OH230002   4.407   3.630   9.366 -0.1751  0.2372 -0.6178
 1936TIP3    H130003   4.385   3.718   9.395  0.4677  0.3798 -0.5671
 1936TIP3    H230004   4.502   3.625   9.373 -0.1496 -0.2369 -1.2634
 1937TIP3   OH230005   5.097   7.208   9.167 -0.0876 -0.4871 -0.8025
 1937TIP3    H130006   5.108   7.297   9.199 -0.5751 -1.0343  1.0488
 1937TIP3    H230007   5.186   7.175   9.155  0.2079 -0.7408  1.5985
 1938TIP3   OH230008   0.610   1.137   9.174 -0.0446  0.0345 -0.0422
 1938TIP3    H130009   0.599   1.150   9.268 -1.1275 -1.9644  0.1678
 1938TIP3    H230010   0.548   1.199   9.134 -1.0885 -0.5338  0.6506
 1939TIP3   OH230011   1.272   2.312   9.786 -0.0294  0.6751  0.5609
 1939TIP3    H130012   1.297   2.250   9.855 -0.7494  0.0115  0.2487
 1939TIP3    H230013   1.275   2.260   9.705 -1.0838  0.9145  0.3497
 1940TIP3   OH230014   6.498   5.717   9.082 -0.1324 -0.4627 -0.2402
 1940TIP3    H130015   6.488   5.799   9.131 -0.8593  0.4963 -1.8892
 1940TIP3    H230016   6.488   5.648   9.147  0.0791  0.7524  1.1279
 1941TIP3   OH230017   0.561   0.719   8.401 -0.4213  0.2988 -0.7797
 1941TIP3    H130018   0.643   0.768   8.400 -1.0894  1.4570 -0.5355
 1941TIP3    H230019   0.550   0.688   8.311  0.4599 -0.2122 -0.7308
 1942TIP3   OH230020   0.179   2.623   8.863  0.1656  0.2029  0.6970
 1942TIP3    H130021   0.166   2.618   8.958 -2.4866  0.5884  0.4247
 1942TIP3    H230022   0.096   2.596   8.825 -0.1559  3.5341 -1.4401
 1943TIP3   OH230023   4.848   1.016   9.533  0.2545 -0.1643  0.0637
 1943TIP3    H130024   4.771   0.966   9.506  0.5007  0.0235 -1.0070
 1943TIP3    H230025   4.827   1.106   9.511  0.6050 -0.0516  0.1850
 1944TIP3   OH230026   3.882   5.370   9.596 -0.3866 -0.5683 -0.0128
 1944TIP3    H130027   3.795   5.334   9.583 -0.3332  0.0133 -2.5087
 1944TIP3    H230028   3.874   5.426   9.673 -2.6097  0.5159 -0.9327
 1945TIP3   OH230029   1.423   3.144   9.069  0.8324  0.1553 -0.1000
 1945TIP3    H130030   1.362   3.193   9.014  0.3811 -0.1129  0.1547
 1945TIP3    H230031   1.378   3.061   9.086  0.4926  0.6549  1.5641
 1946TIP3   OH230032   3.645   3.686   7.932  0.7257  0.3405 -0.1888
 1946TIP3    H130033   3.631   3.627   7.858 -0.0002  0.8800 -0.4972
 1946TIP3    H230034   3.720   3.740   7.906  0.7282  0.2577 -0.3530
 1947TIP3   OH230035   0.678   5.775   8.880 -0.4837  0.2114  0.4109
 1947TIP3    H130036   0.666   5.710   8.811 -0.4696  1.8830 -1.2733
 1947TIP3    H230037   0.604   5.835   8.870  0.2661  1.2697  0.9275
 1948TIP3   OH230038   2.759   4.877   8.978  0.5764  0.1738  0.0506
 1948TIP3    H130039   2.710   4.820   8.919  0.1985  0.6553 -0.1109
 1948TIP3    H230040   2.706   4.957   8.983  1.5788  0.8931 -0.4958
 1949TIP3   OH230041   6.826   2.547   8.384  0.0520 -0.5024  0.0911
 1949TIP3    H130042   6.741   2.509   8.359 -1.4313  1.7157  1.3844
 1949TIP3    H230043   6.805   2.602   8.460  2.1030  2.3893 -1.2709
 1950TIP3   OH230044   0.133   3.990   8.142 -0.0527 -0.3446 -0.0411
 1950TIP3    H130045   0.202   3.924   8.149 -0.7988 -1.0264  1.2585
 1950TIP3    H230046   0.085   3.967   8.062  0.9325 -0.1372 -0.6980
 1951TIP3   OH230047   2.077   3.150   7.635  0.5079  0.8809 -0.0789
 1951TIP3    H130048   2.006   3.162   7.698 -2.2266 -1.9649 -2.3529
 1951TIP3    H230049   2.058   3.214   7.565  1.4020  1.4844  0.2110
 1952TIP3   OH230050   2.300   5.667   8.495 -0.5018  0.5670 -0.0863
 1952TIP3    H130051   2.305   5.677   8.400 -1.3869  0.3484 -0.1732
 1952TIP3    H230052   2.369   5.604   8.516 -0.8693 -0.0664 -0.7127
 1953TIP3   OH230053   0.516   3.032   7.931 -0.1049  0.2238  0.3370
 1953TIP3    H130054   0.481   2.957   7.884 -0.8809  0.8175 -0.0669
 1953TIP3    H230055   0.460   3.040   8.009 -0.7532  1.0389 -0.1941
 1954TIP3   OH230056   2.136   2.764   7.880  0.6357  0.4247 -0.8048
 1954TIP3    H130057   2.066   2.793   7.939  0.4362 -2.1368  0.3702
 1954TIP3    H230058   2.101   2.778   7.792 -0.2507  1.6648 -0.2723
 1955TIP3   OH230059   5.469   6.249   7.892 -0.3138 -0.3578 -0.0284
 1955TIP3    H130060   5.381   6.263   7.927 -0.6449  0.5111 -1.1404
 1955TIP3    H230061   5.455   6.191   7.817  0.1066 -0.4765 -0.0164
 1956TIP3   OH230062   4.615   4.201   7.176  0.5352 -0.1623 -0.0207
 1956TIP3    H130063   4.686   4.250   7.134  0.7211 -0.5316 -0.1414
 1956TIP3    H230064   4.539   4.216   7.119  0.7736 -0.6234 -0.4698
 1957TIP3   OH230065   1.985   5.309   7.527 -0.0745  0.2337 -0.1099
 1957TIP3    H130066   1.910   5.267   7.484  0.4264 -0.4580 -0.3231
 1957TIP3    H230067   2.056   5.301   7.464  0.3014  0.4712  0.2810
 1958TIP3   OH230068   1.473   6.972   7.948 -0.9092 -0.2792 -0.1125
 1958TIP3    H130069   1.524   7.036   7.898 -0.6981 -1.1174 -1.0181
 1958TIP3    H230070   1.386   6.973   7.907 -0.3140 -2.0426 -1.5512
 1959TIP3   OH230071   0.854   6.845   9.466  0.0887 -0.9831  0.1956
 1959TIP3    H130072   0.792   6.803   9.406 -0.0699  2.9113 -2.7289
 1959TIP3    H230073   0.938   6.804   9.446 -0.4271 -1.5915 -0.7984
 1960TIP3   OH230074   0.336   2.611   8.070 -0.6287 -0.0993  0.3899
 1960TIP3    H130075   0.269   2.670   8.103 -1.8326 -0.5808 -1.1068
 1960TIP3    H230076   0.304   2.523   8.090 -0.2372 -0.3257  0.0592
 1961TIP3   OH230077   4.555   4.402   8.116 -0.1732  0.6540 -0.0711
 1961TIP3    H130078   4.605   4.411   8.197 -1.1833  0.9657  0.5219
 1961TIP3    H230079   4.527   4.490   8.095 -2.5509  0.2109  0.9446
 1962TIP3   OH230080   2.789   5.724   7.902 -0.0800  0.0562 -0.0597
 1962TIP3    H130081   2.870   5.764   7.936  0.0098 -0.5893  0.5108
 1962TIP3    H230082   2.810   5.631   7.895 -0.4411  0.0311 -0.9264
 1963TIP3   OH230083   3.765   4.634   9.499 -0.4035 -0.1091 -0.1691
 1963TIP3    H130084   3.823   4.623   9.424 -1.1175  2.2757 -1.1731
 1963TIP3    H230085   3.678   4.613   9.466 -0.6035  0.0464  0.2520
 1964TIP3   OH230086   3.769   1.401   9.369 -0.0840 -0.0434  0.2927
 1964TIP3    H130087   3.783   1.485   9.412 -1.2910  0.6634 -0.6436
 1964TIP3    H230088   3.726   1.347   9.435 -0.9386  0.6703  0.3210
 1965TIP3   OH230089   3.213   5.925   8.469  0.0218  0.3131 -0.3350
 1965TIP3    H130090   3.238   5.880   8.388  3.0395  2.3463 -0.7090
 1965TIP3    H230091   3.277   5.896   8.533 -2.3304 -1.2648  1.4644
 1966TIP3   OH230092   5.709   0.796   7.785 -0.1781 -0.2958  0.0962
 1966TIP3    H130093   5.655   0.832   7.715  1.8339 -1.4182 -2.1995
 1966TIP3    H230094   5.674   0.708   7.799 -0.7319  0.0159  0.6803
 1967TIP3   OH230095   3.463   1.975   8.057  0.2014  0.1438  0.1787
 1967TIP3    H130096   3.390   2.029   8.028  2.4759  1.5983 -3.5829
 1967TIP3    H230097   3.525   2.036   8.096  1.2390 -0.2784 -0.7508
 1968TIP3   OH230098   3.022   2.241   9.437 -0.0374  0.2977  0.4656
 1968TIP3    H130099   3.066   2.176   9.492  1.8996 -1.0903 -2.4790
 1968TIP3    H230100   3.037   2.324   9.482  0.9510 -0.7930  2.2739
 1969TIP3   OH230101   1.592   3.053   7.014  0.0119 -0.2651 -0.0559
 1969TIP3    H130102   1.656   2.984   7.032 -2.0541 -2.2958  0.0908
 1969TIP3    H230103   1.542   3.020   6.940 -3.5287 -0.9124  2.3452
 1970TIP3   OH230104   1.626   1.546   9.382  0.0759  0.7341  0.0713
 1970TIP3    H130105   1.544   1.590   9.359  0.0241  0.5734 -0.0526
 1970TIP3    H230106   1.693   1.589   9.328  0.0879  0.9254  0.2381
 1971TIP3   OH230107   6.312   1.150   9.152 -0.5314 -0.0783  0.4328
 1971TIP3    H130108   6.224   1.157   9.190 -0.9277  0.3087 -0.5385
 1971TIP3    H230109   6.298   1.158   9.058  0.5863  0.2896  0.2896
 1972TIP3   OH230110   0.712   6.328   9.393  0.0600 -0.4533 -0.0226
 1972TIP3    H130111   0.751   6.252   9.436 -1.2792 -1.1763 -0.0551
 1972TIP3    H230112   0.709   6.303   9.300 -0.0918 -0.2220 -0.0790
 1973TIP3   OH230113   6.464   5.194   7.785 -0.6598 -0.6878  0.0763
 1973TIP3    H130114   6.424   5.220   7.702  0.2586 -0.1101 -0.1892
 1973TIP3    H230115   6.389   5.173   7.841 -1.4573  1.9691  0.1347
 1974TIP3   OH230116   5.420   4.552   7.360 -0.3205 -0.2842 -0.1276
 1974TIP3    H130117   5.415   4.634   7.409  1.7226  0.3350 -0.8588
 1974TIP3    H230118   5.420   4.579   7.268 -0.4195 -1.1577 -0.3910
 1975TIP3   OH230119   2.827   0.272   8.187 -0.0847 -0.1718  0.5575
 1975TIP3    H130120   2.826   0.192   8.239 -1.7622 -0.3769  0.2523
 1975TIP3    H230121   2.892   0.256   8.119  1.8495 -0.0631  2.2494
 1976TIP3   OH230122   2.887   3.720   8.954 -0.3822 -0.1076 -0.3189
 1976TIP3    H130123   2.926   3.765   9.029 -1.3989 -1.0914  0.8644
 1976TIP3    H230124   2.878   3.788   8.887  0.3623  0.8546  0.5185
 1977TIP3   OH230125   1.592   6.549   7.171 -0.0124 -0.2774  0.2966
 1977TIP3    H130126   1.651   6.588   7.107 -1.4033  0.6499 -0.4820
 1977TIP3    H230127   1.507   6.544   7.126 -0.4980 -1.7583  1.2954
 1978TIP3   OH230128   3.391   2.311   8.364  0.0172 -0.8155 -0.6057
 1978TIP3    H130129   3.374   2.361   8.284 -0.3034 -0.9821 -0.6430
 1978TIP3    H230130   3.322   2.245   8.366 -0.7710  0.0107  0.4827
 1979TIP3   OH230131   6.800   4.820   7.261 -0.2093  0.1406  0.3150
 1979TIP3    H130132   6.847   4.740   7.238  0.9020  0.8504  0.0536
 1979TIP3    H230133   6.719   4.815   7.210  0.4575 -0.1745 -0.7393
 1980TIP3   OH230134   6.392   5.773   7.868 -0.1071 -0.7643 -0.5499
 1980TIP3    H130135   6.385   5.679   7.853 -2.5931 -0.7062 -0.0055
 1980TIP3    H230136   6.448   5.781   7.945 -0.2993 -1.8222 -0.2867
 1981TIP3   OH230137   2.890   0.072   7.495 -0.3378 -0.5575 -0.0803
 1981TIP3    H130138   2.897  -0.021   7.512  1.7121 -0.5616 -0.5976
 1981TIP3    H230139   2.975   0.107   7.521 -1.4254  1.3561  1.1196
 1982TIP3   OH230140   1.170   2.025   9.425 -0.3184 -0.8315 -0.1378
 1982TIP3    H130141   1.167   2.044   9.331  0.7006 -1.3188 -0.2756
 1982TIP3    H230142   1.205   1.936   9.430  0.6257 -0.4238  0.7407
 1983TIP3   OH230143   4.677   6.679   9.070  0.1588  0.6163 -0.7541
 1983TIP3    H130144   4.754   6.725   9.036  0.0713  1.7620  0.5539
 1983TIP3    H230145   4.612   6.686   9.000  1.8226 -2.1930 -2.8130
 1984TIP3   OH230146   2.015   3.356   8.833  0.6247  0.4065  0.0627
 1984TIP3    H130147   1.931   3.328   8.871  0.2973 -0.0018 -0.9133
 1984TIP3    H230148   2.080   3.331   8.898 -0.0617  1.4312  1.1851
 1985TIP3   OH230149   4.167   3.969   8.565  0.1502  0.2933  0.3710
 1985TIP3    H130150   4.114   3.931   8.635 -1.2898 -0.6330 -1.1540
 1985TIP3    H230151   4.157   4.064   8.576 -1.8273  0.1483  0.1624
 1986TIP3   OH230152   0.085   1.908   8.979  0.1413 -0.1369 -0.0159
 1986TIP3    H130153   0.074   1.936   9.070  1.4534  0.2833  0.0256
 1986TIP3    H230154   0.045   1.820   8.977 -2.3272  0.8791  0.2907
 1987TIP3   OH230155   4.152   3.613   8.259 -0.4248  0.0427  0.2896
 1987TIP3    H130156   4.065   3.575   8.270  0.0951 -1.1382  0.5487
 1987TIP3    H230157   4.195   3.555   8.195 -0.2154  1.2986 -0.7616
 1988TIP3   OH230158   4.781   1.874   7.085 -0.0708 -0.1613 -0.1825
 1988TIP3    H130159   4.692   1.904   7.102 -0.1778 -0.7702  0.3753
 1988TIP3    H230160   4.769   1.792   7.035  0.2141  0.8240 -1.9530
 1989TIP3   OH230161   4.602   5.984   7.524  0.1853 -0.1680  0.0337
 1989TIP3    H130162   4.577   5.987   7.431  0.8572 -1.1418 -0.1968
 1989TIP3    H230163   4.650   5.902   7.533  0.1416 -0.0778  1.2528
 1990TIP3   OH230164   0.829   3.964   8.269  0.2937 -0.6447 -0.5011
 1990TIP3    H130165   0.832   4.042   8.325  0.5198 -0.0704 -1.3066
 1990TIP3    H230166   0.920   3.940   8.256  0.1940 -2.2217  1.3349
 1991TIP3   OH230167   0.647   1.438   7.525  0.3439 -0.0326 -0.4772
 1991TIP3    H130168   0.578   1.373   7.535 -1.7985  2.0729 -0.7328
 1991TIP3    H230169   0.667   1.466   7.614  1.4647 -1.1734 -0.3462
 1992TIP3   OH230170   1.497   7.261   7.502  0.0547 -0.1942  0.5495
 1992TIP3    H130171   1.499   7.341   7.555  0.6271 -1.1071  1.9357
 1992TIP3    H230172   1.533   7.289   7.417  0.7842  0.8982  1.1880
 1993TIP3   OH230173   0.176   4.138   7.651  0.2085  0.1074 -0.8583
 1993TIP3    H130174   0.238   4.204   7.683 -0.5711 -0.9840  3.6663
 1993TIP3    H230175   0.196   4.060   7.702  0.2357 -2.9460 -5.0666
 1994TIP3   OH230176   6.479   4.701   7.510 -0.6513  0.3700 -0.7530
 1994TIP3    H130177   6.573   4.714   7.522 -0.3491 -1.1982 -1.1558
 1994TIP3    H230178   6.443   4.789   7.501  0.7926  0.9849 -0.7220
 1995TIP3   OH230179   6.986   5.800   9.644 -0.5831 -0.5694  0.3904
 1995TIP3    H130180   7.000   5.881   9.693 -0.6099 -0.6522  0.5327
 1995TIP3    H230181   7.066   5.790   9.591 -0.3949 -0.6765  0.6929
 1996TIP3   OH230182   3.452   1.738   6.869 -0.4504 -0.6292 -0.3112
 1996TIP3    H130183   3.427   1.646   6.879 -0.8306 -0.4530  0.4092
 1996TIP3    H230184   3.537   1.735   6.824 -0.1464 -1.3529  0.2968
 1997TIP3   OH230185   1.793   1.800   8.755 -0.5886  0.0461 -1.0481
 1997TIP3    H130186   1.714   1.805   8.809 -0.4668  1.0134 -0.9393
 1997TIP3    H230187   1.865   1.818   8.816 -0.1294 -2.1880 -0.8522
 1998TIP3   OH230188   5.682   6.487   9.759 -0.0827  0.2023 -0.2180
 1998TIP3    H130189   5.715   6.576   9.746  1.0681 -0.1816 -0.0152
 1998TIP3    H230190   5.759   6.431   9.748 -0.1063 -0.5566  2.7298
 1999TIP3   OH230191   1.161   0.115   9.554  0.4288 -0.1869 -0.0953
 1999TIP3    H130192   1.206   0.071   9.626 -0.7859 -0.0002  0.8062
 1999TIP3    H230193   1.232   0.153   9.501  1.3173  0.4389  1.4811
 2000TIP3   OH230194   4.854   3.222   9.740 -0.3122 -0.0505  0.6009
 2000TIP3    H130195   4.852   3.226   9.645 -0.9398 -0.3016  0.5964
 2000TIP3    H230196   4.815   3.137   9.761  1.4257 -0.7653  1.0267
 2001TIP3   OH230197   2.145   2.463   7.573 -0.3155  0.1351 -0.2351
 2001TIP3    H130198   2.208   2.436   7.507  1.0078  1.6500  0.3466
 2001TIP3    H230199   2.061   2.461   7.528  0.4033  0.0716 -1.6363
 2002TIP3   OH230200   5.452   3.302   9.492 -0.2295  0.6078 -0.6496
 2002TIP3    H130201   5.374   3.340   9.533  1.4650  1.9191  1.5768
 2002TIP3    H230202   5.465   3.356   9.414 -1.5762  0.3182 -1.1021
 2003TIP3   OH230203   2.570   0.261   8.049  0.2613  0.4996 -0.2615
 2003TIP3    H130204   2.658   0.239   8.080  0.5178  0.3227 -1.1071
 2003TIP3    H230205   2.567   0.230   7.959 -0.0995  1.9835 -0.8005
 2004TIP3   OH230206   1.360   1.683   7.383  0.1063 -0.2366 -0.4777
 2004TIP3    H130207   1.275   1.710   7.417  0.4440  0.9917 -0.5748
 2004TIP3    H230208   1.355   1.699   7.289 -0.0460 -1.5297 -0.7049
 2005TIP3   OH230209   0.116   4.490   7.410  0.2221 -0.1253  0.5955
 2005TIP3    H130210   0.104   4.396   7.404  0.9999 -0.1872 -0.2122
 2005TIP3    H230211   0.210   4.502   7.418  0.0342  0.5223  2.3213
 2006TIP3   OH230212   4.008   2.468   7.412 -0.3956  0.3402 -0.1087
 2006TIP3    H130213   4.011   2.547   7.358  1.5414  0.0795 -0.4632
 2006TIP3    H230214   3.947   2.410   7.368  0.5163  0.4555 -1.5683
 2007TIP3   OH230215   6.646   0.437   8.961  0.6550 -0.8833 -0.3419
 2007TIP3    H130216   6.716   0.371   8.962  1.5210 -0.0043  0.1595
 2007TIP3    H230217   6.568   0.389   8.987  1.0885 -1.8775 -0.7880
 2008TIP3   OH230218   1.790   2.602   9.034  0.3727  0.1834  0.2539
 2008TIP3    H130219   1.834   2.581   9.116  2.1336  0.6180 -0.5327
 2008TIP3    H230220   1.783   2.698   9.034 -0.4383  0.1358  0.2732
 2009TIP3   OH230221   2.383   5.034   7.982  0.4169 -0.3108  0.0489
 2009TIP3    H130222   2.443   5.102   7.951 -1.4066  1.1850 -0.3650
 2009TIP3    H230223   2.330   5.012   7.906 -1.0288  0.0320  0.9225
 2010TIP3   OH230224   1.731   1.103   8.667 -0.5121 -0.0258  0.4351
 2010TIP3    H130225   1.801   1.165   8.685  0.1802 -0.7889  0.4013
 2010TIP3    H230226   1.770   1.017   8.682 -1.0775 -0.5157 -0.7443
 2011TIP3   OH230227   3.322   5.126   9.224  0.3626 -0.1955  0.0326
 2011TIP3    H130228   3.242   5.173   9.201  0.1122 -1.0417 -0.9091
 2011TIP3    H230229   3.393   5.181   9.190  0.1339  0.0622 -0.0311
 2012TIP3   OH230230   1.296   0.239   7.941 -0.0009 -0.4932  0.1750
 2012TIP3    H130231   1.371   0.218   7.885 -0.1758 -1.0773  0.1611
 2012TIP3    H230232   1.332   0.301   8.005  0.0240  0.7683 -1.0253
 2013TIP3   OH230233   6.911   5.220   7.262 -0.0461 -0.3091 -0.2262
 2013TIP3    H130234   6.931   5.227   7.169 -0.6271  1.2577 -0.2693
 2013TIP3    H230235   6.827   5.266   7.272 -0.4653 -1.2653  0.9271
 2014TIP3   OH230236   5.842   7.390   8.645 -0.0216  0.4116 -0.4928
 2014TIP3    H130237   5.871   7.299   8.649 -0.3856  0.3132  0.2973
 2014TIP3    H230238   5.921   7.440   8.625  0.7902  0.1733  1.7668
 2015TIP3   OH230239   3.748   3.601   7.564  0.5515 -0.1594 -0.1820
 2015TIP3    H130240   3.718   3.598   7.474  0.7443  0.5222 -0.2785
 2015TIP3    H230241   3.787   3.688   7.573  0.1300 -0.0452  0.6781
 2016TIP3   OH230242   0.863   5.976   8.833  0.0404  0.1097  0.5454
 2016TIP3    H130243   0.895   5.991   8.922 -1.7317 -0.9376  1.4245
 2016TIP3    H230244   0.803   5.902   8.841 -0.3257  0.1191 -1.5010
 2017TIP3   OH230245   4.717   1.297   8.649  0.1815  0.0924 -0.3590
 2017TIP3    H130246   4.669   1.379   8.636 -0.1535 -0.2312 -1.2817
 2017TIP3    H230247   4.740   1.297   8.742  2.6278  2.5647 -0.8143
 2018TIP3   OH230248   5.414   0.492   7.484  0.4134  0.0254  0.2452
 2018TIP3    H130249   5.395   0.417   7.428  0.2087  0.0258  0.3121
 2018TIP3    H230250   5.400   0.569   7.428  0.8362  0.0084  0.1144
 2019TIP3   OH230251   5.314   7.565   9.673 -0.0000 -0.3147  0.0472
 2019TIP3    H130252   5.404   7.596   9.685 -0.0311 -0.6683  1.3089
 2019TIP3    H230253   5.262   7.645   9.665 -0.0075  0.0274  2.7088
 2020TIP3   OH230254   7.101   7.643   8.930  0.3079  0.2263 -0.3348
 2020TIP3    H130255   7.185   7.626   8.972 -0.3831 -1.6508  0.4089
 2020TIP3    H230256   7.100   7.738   8.916  2.6159  0.2824 -0.5767
 2021TIP3   OH230257   5.633   3.555   7.551 -0.3143  0.1025  0.1040
 2021TIP3    H130258   5.711   3.556   7.496  0.3240  0.8678  0.9837
 2021TIP3    H230259   5.569   3.502   7.503  1.0842 -1.3990 -0.1682
 2022TIP3   OH230260   6.105   2.097   8.806 -0.3846  0.4539  0.0836
 2022TIP3    H130261   6.076   2.088   8.715  0.6756 -0.2879 -0.1951
 2022TIP3    H230262   6.043   2.043   8.856  0.5228 -1.1952 -0.5137
 2023TIP3   OH230263   4.005   3.992   9.212  0.7265  0.3085  0.0281
 2023TIP3    H130264   3.995   4.035   9.126  0.0722 -0.2959 -0.2068
 2023TIP3    H230265   3.937   3.924   9.213 -0.0318  1.0378  1.4849
 2024TIP3   OH230266   2.231   0.672   8.420 -0.2822  0.4582  0.5784
 2024TIP3    H130267   2.297   0.718   8.472  0.4171  0.6283 -0.4202
 2024TIP3    H230268   2.224   0.724   8.339 -0.4789 -0.4379  0.0054
 2025TIP3   OH230269   2.116   3.489   7.054 -0.3913 -0.0363 -0.1889
 2025TIP3    H130270   2.181   3.463   6.989  0.7891  2.3449 -0.0752
 2025TIP3    H230271   2.156   3.467   7.138 -1.4165 -2.0310 -0.1656
 2026TIP3   OH230272   0.293   0.437   7.101  0.2918 -0.4607  0.2108
 2026TIP3    H130273   0.357   0.371   7.124  1.5887  1.4299  2.5363
 2026TIP3    H230274   0.341   0.500   7.048 -0.8443 -1.1768 -1.7425
 2027TIP3   OH230275   6.674   0.006   9.099 -0.0016  0.6143  0.4102
 2027TIP3    H130276   6.758  -0.035   9.080 -0.5511 -0.8778  1.0712
 2027TIP3    H230277   6.649  -0.028   9.185 -0.9551  1.5916  0.5433
 2028TIP3   OH230278   4.317   1.082   9.085  0.1716  0.4077 -0.1415
 2028TIP3    H130279   4.252   1.024   9.044 -0.2019  0.0433  0.9386
 2028TIP3    H230280   4.370   1.024   9.139  1.4140  0.7107 -0.9899
 2029TIP3   OH230281   4.470   6.700   8.887 -0.3047 -0.3055  0.0085
 2029TIP3    H130282   4.397   6.752   8.852 -1.5065 -0.2199  2.4650
 2029TIP3    H230283   4.450   6.610   8.860 -1.1879 -0.2440  0.4273
 2030TIP3   OH230284   1.639   1.301   8.850  0.1796  0.5042  0.2100
 2030TIP3    H130285   1.672   1.235   8.790 -1.0393  1.1308 -1.2175
 2030TIP3    H230286   1.550   1.273   8.871 -0.8592  2.2706 -1.4621
 2031TIP3   OH230287   6.967   5.242   8.334 -0.4876 -0.7969  0.5961
 2031TIP3    H130288   7.054   5.231   8.295 -0.4559  1.0854  0.0082
 2031TIP3    H230289   6.907   5.248   8.260 -0.8505 -0.2626  0.9224
 2032TIP3   OH230290   3.688   3.989   7.705 -0.9716 -0.3190 -0.2187
 2032TIP3    H130291   3.729   3.955   7.625  0.2764 -0.2089  0.3473
 2032TIP3    H230292   3.648   4.071   7.679  0.5464  0.3763 -0.4854
 2033TIP3   OH230293   3.681   3.591   8.178 -0.4423  0.3382  0.2947
 2033TIP3    H130294   3.619   3.518   8.171 -1.9154  1.5121  0.5183
 2033TIP3    H230295   3.673   3.638   8.095 -2.2850  2.2944  1.4646
 2034TIP3   OH230296   3.461   1.084   7.765 -0.4370  0.7386 -0.0027
 2034TIP3    H130297   3.380   1.048   7.730 -1.6309  1.7121  1.6105
 2034TIP3    H230298   3.508   1.009   7.801 -1.1770  0.2944  0.0543
 2035TIP3   OH230299   0.840   5.310   7.817  0.0308 -0.7551 -0.6036
 2035TIP3    H130300   0.749   5.291   7.792 -0.3420 -0.5509  0.5340
 2035TIP3    H230301   0.849   5.272   7.904  1.0730 -0.8555 -0.7503
 2036TIP3   OH230302   6.584   6.695   8.705 -0.0373 -0.0929  0.1114
 2036TIP3    H130303   6.634   6.613   8.709 -1.1055 -0.8148 -0.7129
 2036TIP3    H230304   6.496   6.668   8.679 -0.6799  1.2267  0.8389
 2037TIP3   OH230305   4.357   6.929   7.475  0.0354  0.0366 -0.0047
 2037TIP3    H130306   4.377   6.901   7.386 -1.3875 -0.6391 -0.1335
 2037TIP3    H230307   4.383   7.021   7.477  0.3878 -0.0254 -1.0075
 2038TIP3   OH230308   6.647   3.080   7.565 -0.0976 -0.2226  0.4888
 2038TIP3    H130309   6.679   3.034   7.487 -2.0078 -1.3113  0.2623
 2038TIP3    H230310   6.681   3.029   7.639  0.6362  0.0382  0.3336
 2039TIP3   OH230311   0.592   2.962   7.667  0.0112 -0.2880  0.6482
 2039TIP3    H130312   0.508   3.007   7.667 -0.6928 -1.5520 -0.5069
 2039TIP3    H230313   0.637   2.995   7.589  0.1392 -0.4236  0.6640
 2040TIP3   OH230314   7.293   5.585   7.666  0.0240  0.1844  0.2080
 2040TIP3    H130315   7.388   5.571   7.664 -0.1647 -1.2606  0.5222
 2040TIP3    H230316   7.282   5.667   7.716  1.0534 -0.1531  1.0282
 2041TIP3   OH230317   1.051   2.346   8.083  0.0702 -0.4713  0.3197
 2041TIP3    H130318   1.079   2.437   8.092  0.2587 -0.5093  0.1259
 2041TIP3    H230319   1.040   2.333   7.989  0.5245 -0.7903  0.3052
 2042TIP3   OH230320   3.189   1.791   8.061 -0.2143 -0.4726  0.0574
 2042TIP3    H130321   3.137   1.732   8.116 -0.1764  1.4274  2.2611
 2042TIP3    H230322   3.124   1.844   8.014 -0.2362 -1.5104 -1.1386
 2043TIP3   OH230323   1.252   2.488   9.437  0.2120 -0.3280  0.4287
 2043TIP3    H130324   1.296   2.404   9.444 -0.7819 -1.0887 -1.6239
 2043TIP3    H230325   1.161   2.470   9.461  0.3395  0.5477  1.6291
 2044TIP3   OH230326   1.811   1.330   9.079 -0.2572  0.5432  0.2178
 2044TIP3    H130327   1.786   1.351   8.989 -1.1216  0.1870  0.3595
 2044TIP3    H230328   1.864   1.250   9.072 -2.7480 -1.2497  0.2035
 2045TIP3   OH230329   1.685   0.034   8.293 -0.6456  0.2451 -0.0103
 2045TIP3    H130330   1.750   0.050   8.360 -0.0408 -0.3418 -0.4377
 2045TIP3    H230331   1.625   0.109   8.298  1.5434  2.2039 -1.3829
 2046TIP3   OH230332   3.764   2.491   9.587  0.2634  0.6929  0.0356
 2046TIP3    H130333   3.839   2.438   9.563  0.3413  0.6185  0.4400
 2046TIP3    H230334   3.706   2.432   9.634  0.4424  1.0042  0.6646
 2047TIP3   OH230335   7.538   4.312   9.308  0.4587 -0.0522  0.2995
 2047TIP3    H130336   7.618   4.348   9.347 -0.8250  2.4374  0.9044
 2047TIP3    H230337   7.549   4.325   9.214  1.6610 -1.8559  0.1426
 2048TIP3   OH230338   1.557   0.238   7.503 -0.3246 -0.5058  0.1739
 2048TIP3    H130339   1.622   0.184   7.458  0.0177 -0.2091  0.3112
 2048TIP3    H230340   1.568   0.217   7.596 -0.0632 -0.0627  0.2454
 2049TIP3   OH230341   1.934   7.137   7.909 -0.2372 -0.3119  0.6233
 2049TIP3    H130342   1.930   7.167   8.000 -0.3088  1.1681  0.1618
 2049TIP3    H230343   1.942   7.042   7.916  1.0081 -0.1421  2.1968
 2050TIP3   OH230344   5.160   0.501   7.118  0.1978  0.4927 -0.1115
 2050TIP3    H130345   5.234   0.561   7.111 -0.2069  1.0641  0.3677
 2050TIP3    H230346   5.140   0.497   7.212  0.6075 -0.8888 -0.0572
 2051TIP3   OH230347   5.142   0.605   8.659  0.2942  0.1427 -0.1621
 2051TIP3    H130348   5.206   0.559   8.604  1.0446  1.3170 -0.3172
 2051TIP3    H230349   5.196   0.662   8.714 -0.6146  0.9889 -0.1334
 2052TIP3   OH230350   5.723   5.178   9.183  0.2931  0.2116 -0.0697
 2052TIP3    H130351   5.730   5.096   9.231  0.3712 -0.7609 -1.6626
 2052TIP3    H230352   5.733   5.246   9.249  0.0572 -1.0569  1.3141
 2053TIP3   OH230353   5.018   7.415   9.707  0.2358 -0.0948  1.0051
 2053TIP3    H130354   5.091   7.353   9.714  1.9340  1.5415 -1.0626
 2053TIP3    H230355   5.054   7.498   9.737 -1.0270  0.5827  0.7018
 2054TIP3   OH230356   3.644   4.891   8.180 -0.0918 -0.0197  0.3413
 2054TIP3    H130357   3.724   4.939   8.202 -0.9405  0.9615  1.3768
 2054TIP3    H230358   3.583   4.912   8.250 -0.8673 -1.7528  0.2210
 2055TIP3   OH230359   2.590   4.643   8.874 -0.2944  0.7630  0.3595
 2055TIP3    H130360   2.497   4.649   8.896 -0.4033 -0.0905  0.1709
 2055TIP3    H230361   2.591   4.601   8.788  0.3303 -3.2731  2.0785
 2056TIP3   OH230362   2.994   6.395   8.671  0.7108 -0.0628 -0.1669
 2056TIP3    H130363   2.966   6.482   8.699 -1.3783 -0.3114 -1.2917
 2056TIP3    H230364   3.001   6.345   8.752  1.7988  1.0716  0.4830
 2057TIP3   OH230365   6.562   7.174   8.136  0.3472  0.2515  0.1940
 2057TIP3    H130366   6.538   7.235   8.066  0.3713  1.2868  1.0592
 2057TIP3    H230367   6.653   7.196   8.158  1.0820 -1.4944 -0.8698
 2058TIP3   OH230368   6.836   1.096   9.112 -0.1539  0.0849  0.1341
 2058TIP3    H130369   6.799   1.061   9.193 -0.2936  0.4113  0.2150
 2058TIP3    H230370   6.922   1.055   9.104 -0.3123 -0.2664  0.2302
 2059TIP3   OH230371   6.468   3.348   8.233  0.0312  0.5361 -0.1338
 2059TIP3    H130372   6.422   3.422   8.272  0.5210  1.4198 -1.1670
 2059TIP3    H230373   6.539   3.389   8.182 -0.5159 -0.5477 -1.8393
 2060TIP3   OH230374   4.133   5.500   7.728  0.0990 -0.3167  0.0684
 2060TIP3    H130375   4.062   5.501   7.664 -0.3257  1.1943  0.5235
 2060TIP3    H230376   4.210   5.471   7.679 -0.4527 -0.2835 -0.8405
 2061TIP3   OH230377   0.937   2.408   9.763  0.8124  0.0281  0.0727
 2061TIP3    H130378   1.012   2.432   9.816 -0.4021  3.3061  0.5630
 2061TIP3    H230379   0.972   2.401   9.674  1.7314  1.7226  0.2510
 2062TIP3   OH230380   3.643   4.785   9.713 -0.2859 -0.2742 -0.1921
 2062TIP3    H130381   3.681   4.734   9.786 -0.1382  0.5277  0.3038
 2062TIP3    H230382   3.690   4.755   9.636 -0.3914 -1.0894  0.0467
 2063TIP3   OH230383   5.035   0.203   9.072  0.6759 -0.3912 -0.1776
 2063TIP3    H130384   4.978   0.246   9.135 -0.0727  1.4845 -1.9998
 2063TIP3    H230385   5.091   0.273   9.039  0.8738 -1.2236 -1.7222
 2064TIP3   OH230386   4.364   5.393   9.608 -0.4437  0.7642  0.5902
 2064TIP3    H130387   4.272   5.419   9.603 -0.8328 -0.6050  0.0076
 2064TIP3    H230388   4.399   5.441   9.683 -2.0471  0.1084  1.8238
 2065TIP3   OH230389   6.674   1.308   9.152  0.5514 -0.2204 -0.1064
 2065TIP3    H130390   6.758   1.264   9.164  0.0499 -1.2531 -0.2356
 2065TIP3    H230391   6.691   1.373   9.083  0.8971 -1.4657 -1.2490
 2066TIP3   OH230392   6.876   2.623   7.456  0.6509  0.3292  0.3711
 2066TIP3    H130393   6.807   2.631   7.522  0.6862 -0.3741  0.5031
 2066TIP3    H230394   6.828   2.625   7.372  0.4881  0.0596  0.4560
 2067TIP3   OH230395   1.827   1.984   8.010  0.0191 -0.1479  0.2814
 2067TIP3    H130396   1.753   1.924   8.022 -0.4893  0.6499  1.2301
 2067TIP3    H230397   1.794   2.051   7.950 -0.0922  0.3145  0.8565
 2068TIP3   OH230398   4.908   7.569   8.074  0.9300  0.3649 -0.3103
 2068TIP3    H130399   4.856   7.628   8.021 -1.3831 -0.7611  0.5720
 2068TIP3    H230400   4.873   7.578   8.163  1.8121 -0.8964  0.2129
 2069TIP3   OH230401   2.884   7.611   9.295  0.3696  0.3346 -0.1786
 2069TIP3    H130402   2.954   7.637   9.355  0.1205 -0.4791  0.4841
 2069TIP3    H230403   2.892   7.672   9.221 -0.0864  2.1773  1.2185
 2070TIP3   OH230404   6.420   0.533   7.092 -0.1803 -0.1025 -0.4195
 2070TIP3    H130405   6.459   0.518   7.006 -0.2572  2.3958 -0.9625
 2070TIP3    H230406   6.447   0.457   7.144  1.0947 -0.9601 -2.2167
 2071TIP3   OH230407   1.065   1.017   8.758 -0.1767  0.4488 -0.1415
 2071TIP3    H130408   1.108   1.098   8.732  2.1484 -0.9367 -0.8762
 2071TIP3    H230409   1.120   0.981   8.827 -0.4617 -1.0736 -0.6545
 2072TIP3   OH230410   1.943   2.406   7.141  0.2881  0.3232 -0.5183
 2072TIP3    H130411   2.007   2.351   7.187 -1.2724  0.2777  1.7549
 2072TIP3    H230412   1.860   2.387   7.184 -0.9757  1.6955 -2.2097
 2073TIP3   OH230413   2.174   1.087   8.606 -0.3601 -0.4382  0.4335
 2073TIP3    H130414   2.095   1.084   8.660 -0.6985  0.7505  0.0434
 2073TIP3    H230415   2.215   1.171   8.629  0.2218 -0.5622 -0.1322
 2074TIP3   OH230416   7.641   1.161   8.845 -0.0629  0.3126 -0.2415
 2074TIP3    H130417   7.652   1.255   8.861  0.6943  0.1715  0.1348
 2074TIP3    H230418   7.577   1.133   8.911  0.4116  0.3955  0.2624
 2075TIP3   OH230419   3.143   2.282   7.796 -0.1555  0.3795  0.3921
 2075TIP3    H130420   3.229   2.296   7.757 -0.0496  0.5482  0.6801
 2075TIP3    H230421   3.085   2.266   7.722  0.0776  0.5160  0.1784
 2076TIP3   OH230422   7.071   2.852   7.425 -0.3010  0.3419 -0.1477
 2076TIP3    H130423   7.023   2.817   7.500  0.6185  1.7815  1.1688
 2076TIP3    H230424   7.024   2.819   7.349 -0.7769 -1.8374  1.0305
 2077TIP3   OH230425   2.346   3.107   8.169  0.0401  0.1235  0.4488
 2077TIP3    H130426   2.259   3.103   8.209 -0.0779  2.1890  0.4860
 2077TIP3    H230427   2.378   3.195   8.189  1.5470 -0.0928 -0.8051
 2078TIP3   OH230428   2.379   7.494   9.021 -0.8092 -0.1428  0.0799
 2078TIP3    H130429   2.393   7.536   9.106  1.4809  0.8532 -0.7178
 2078TIP3    H230430   2.306   7.542   8.982 -0.0026  1.3228  0.3181
 2079TIP3   OH230431   1.442   6.686   9.222 -0.5450  0.1369  0.0306
 2079TIP3    H130432   1.375   6.710   9.158 -0.1515 -0.7467 -0.7424
 2079TIP3    H230433   1.482   6.770   9.246  0.2680  0.4051 -2.0031
 2080TIP3   OH230434   6.774   2.745   8.650 -0.6975  0.5450 -0.0301
 2080TIP3    H130435   6.700   2.685   8.648 -0.8596  0.7726 -1.1924
 2080TIP3    H230436   6.843   2.696   8.696 -1.0772 -0.2263 -0.2674
 2081TIP3   OH230437   1.824   3.799   7.770 -0.3849  0.3325 -0.1589
 2081TIP3    H130438   1.869   3.849   7.838  2.0738  0.9127 -2.0585
 2081TIP3    H230439   1.767   3.864   7.727  2.1353  1.4780 -2.0439
 2082TIP3   OH230440   7.015   5.488   9.525  0.6422 -0.5889  0.1949
 2082TIP3    H130441   7.041   5.434   9.600  1.0859 -0.2799  0.2696
 2082TIP3    H230442   7.033   5.578   9.553  0.7809 -0.4679 -0.2701
 2083TIP3   OH230443   3.323   0.314   8.928 -0.1621 -0.3566  0.1385
 2083TIP3    H130444   3.379   0.391   8.943 -0.4812 -0.1674  0.3559
 2083TIP3    H230445   3.346   0.286   8.839 -1.4820  1.2010 -0.7571
 2084TIP3   OH230446   1.804   5.864   9.354  0.0858  0.1588  0.1859
 2084TIP3    H130447   1.724   5.854   9.405 -0.1804  0.4047 -0.1815
 2084TIP3    H230448   1.860   5.791   9.382 -0.2469  0.0130  0.4717
 2085TIP3   OH230449   0.381   5.973   7.970 -0.4112  0.0109 -0.1963
 2085TIP3    H130450   0.422   5.915   7.906 -2.5230 -1.8523  0.0257
 2085TIP3    H230451   0.393   6.061   7.933 -1.5212 -0.9573 -3.2478
 2086TIP3   OH230452   2.955   2.478   8.965 -0.1355 -0.0311  0.2178
 2086TIP3    H130453   3.032   2.527   8.992 -1.2996  1.9863  0.0647
 2086TIP3    H230454   2.888   2.501   9.029 -1.4814  0.8247 -1.4108
 2087TIP3   OH230455   4.186   4.234   8.642  0.0795  0.5015  0.1515
 2087TIP3    H130456   4.152   4.291   8.574  1.0600  0.4180 -0.4271
 2087TIP3    H230457   4.134   4.255   8.720 -0.3798  1.3050 -0.3646
 2088TIP3   OH230458   3.009   2.775   8.393  0.2006 -0.5872 -0.0527
 2088TIP3    H130459   3.027   2.867   8.411  3.6694 -1.3426  1.1517
 2088TIP3    H230460   2.953   2.777   8.316 -0.8610  2.5124  0.6340
 2089TIP3   OH230461   2.006   0.699   8.140 -0.0118  0.0157 -0.0490
 2089TIP3    H130462   1.923   0.730   8.177 -0.4392 -0.0541 -0.9295
 2089TIP3    H230463   1.983   0.622   8.088  0.6686 -0.2527  0.0352
 2090TIP3   OH230464   0.022   5.604   9.307  0.3734 -0.1241  0.0252
 2090TIP3    H130465  -0.027   5.589   9.226 -0.4686 -1.3289  0.7234
 2090TIP3    H230466   0.026   5.699   9.315 -2.1402  0.0562  0.0637
 2091TIP3   OH230467   5.401   2.710   7.152 -0.2480 -0.6559  0.3824
 2091TIP3    H130468   5.406   2.803   7.171 -1.4870 -0.0688 -1.8215
 2091TIP3    H230469   5.490   2.677   7.166  0.9579  1.4838 -1.6218
 2092TIP3   OH230470   6.981   4.377   9.330 -0.4764 -0.0507  0.1226
 2092TIP3    H130471   6.981   4.466   9.365  0.0624 -0.0416  0.0982
 2092TIP3    H230472   7.070   4.363   9.298 -1.0205  0.0223 -1.4838
 2093TIP3   OH230473   2.572   6.429   7.845 -0.5424 -0.1821 -0.1757
 2093TIP3    H130474   2.627   6.351   7.840 -1.6167 -0.9796  0.1405
 2093TIP3    H230475   2.490   6.399   7.884 -0.0605  1.6062  2.4570
 2094TIP3   OH230476   1.416   5.023   8.333  0.5645 -0.1426 -0.2137
 2094TIP3    H130477   1.435   4.941   8.288  0.1951  0.1705 -0.9524
 2094TIP3    H230478   1.469   5.019   8.413 -0.8062 -1.9183  0.6913
 2095TIP3   OH230479   2.798   4.715   9.515  0.0162 -0.7070  0.2374
 2095TIP3    H130480   2.889   4.694   9.536  0.7952  2.7101  0.8660
 2095TIP3    H230481   2.800   4.739   9.422  0.1246  0.9109  0.6376
 2096TIP3   OH230482   1.167   0.244   8.639  0.2368  0.6057 -0.3361
 2096TIP3    H130483   1.112   0.223   8.564  1.4701  0.8511 -1.3383
 2096TIP3    H230484   1.138   0.184   8.708  0.3597 -0.9378 -1.5894
 2097TIP3   OH230485   4.686   1.107   7.340 -0.8298  0.0061  0.0094
 2097TIP3    H130486   4.674   1.192   7.296  3.3091 -0.1992 -2.0256
 2097TIP3    H230487   4.636   1.045   7.287  0.7372  0.4146 -2.0605
 2098TIP3   OH230488   7.271   4.401   8.708 -0.0743  0.7129  0.5277
 2098TIP3    H130489   7.277   4.324   8.765 -1.1130 -0.5279 -0.9527
 2098TIP3    H230490   7.359   4.411   8.673 -0.1001 -0.3248  0.1208
 2099TIP3   OH230491   4.841   6.759   8.666  0.0414 -0.0036  0.0364
 2099TIP3    H130492   4.937   6.754   8.658  0.0047  0.4648 -0.7663
 2099TIP3    H230493   4.814   6.668   8.681  0.4941 -0.3405 -1.1140
 2100TIP3   OH230494   6.892   0.688   9.112 -0.1146 -0.1827  0.3155
 2100TIP3    H130495   6.893   0.756   9.179 -1.1951 -0.1618  0.3238
 2100TIP3    H230496   6.865   0.609   9.158 -1.5577 -0.0274 -0.1854
 2101TIP3   OH230497   5.540   0.899   9.326  0.6023 -0.0680  0.3337
 2101TIP3    H130498   5.522   0.984   9.287  2.0520 -0.0133 -0.2471
 2101TIP3    H230499   5.546   0.916   9.420  0.2133  0.3441  0.2867
 2102TIP3   OH230500   4.940   2.638   9.478 -0.2090 -0.1687  0.3482
 2102TIP3    H130501   5.024   2.602   9.507  0.1371  1.0109  0.9039
 2102TIP3    H230502   4.964   2.713   9.423 -0.9044 -0.5669 -0.5271
 2103TIP3   OH230503   5.857   3.613   8.026  0.3606 -0.4167  0.0709
 2103TIP3    H130504   5.826   3.593   7.938  0.0779 -0.1994  0.1221
 2103TIP3    H230505   5.938   3.562   8.035 -0.1090 -1.1829  0.0293
 2104TIP3   OH230506   6.145   3.245   9.361  0.1862 -0.0215  0.2418
 2104TIP3    H130507   6.124   3.331   9.398  1.8442  0.8658 -0.7293
 2104TIP3    H230508   6.228   3.221   9.402 -0.0260 -0.9552  0.1439
 2105TIP3   OH230509   0.132   3.517   8.076 -0.0149  0.3753  0.8325
 2105TIP3    H130510   0.143   3.581   8.147 -0.0652  1.4966 -0.1241
 2105TIP3    H230511   0.219   3.478   8.065 -0.2521 -0.5995  2.1995
 2106TIP3   OH230512   5.789   2.625   8.548  0.0267 -0.2724 -0.0123
 2106TIP3    H130513   5.695   2.641   8.534 -0.3045 -0.5924  1.6982
 2106TIP3    H230514   5.793   2.546   8.601  1.3277 -0.8276 -0.8808
 2107TIP3   OH230515   4.915   2.722   6.922  0.0212  0.1216  0.2975
 2107TIP3    H130516   4.922   2.689   7.011 -0.1545  0.1108  0.3087
 2107TIP3    H230517   4.996   2.770   6.907  0.2120 -0.1917  0.3313
 2108TIP3   OH230518   6.805   1.929   9.127  0.7358 -0.1276  0.4721
 2108TIP3    H130519   6.786   1.836   9.142 -0.7493 -0.0293 -0.5820
 2108TIP3    H230520   6.737   1.976   9.174  1.5248  0.4446  1.0631
 2109TIP3   OH230521   6.234   3.818   8.923  0.2893  0.0850 -0.1769
 2109TIP3    H130522   6.158   3.817   8.982  0.3164 -0.1000 -0.1412
 2109TIP3    H230523   6.233   3.904   8.883 -0.4494 -0.2232 -0.8421
 2110TIP3   OH230524   6.607   0.885   9.442 -0.0761  0.4634 -0.4893
 2110TIP3    H130525   6.528   0.888   9.387  0.6965 -1.9602 -1.8690
 2110TIP3    H230526   6.634   0.977   9.449 -2.4587  1.2698 -0.7555
 2111TIP3   OH230527   5.308   4.188   8.492  0.0114  0.2479  0.2786
 2111TIP3    H130528   5.369   4.202   8.419 -0.1062  0.1025  0.1532
 2111TIP3    H230529   5.352   4.123   8.547 -0.2789 -0.2734 -0.1008
 2112TIP3   OH230530   7.458   2.938   8.804  0.0907 -0.5166 -0.0718
 2112TIP3    H130531   7.413   2.872   8.752  0.0929 -2.0265  1.7128
 2112TIP3    H230532   7.407   2.944   8.885  0.5326  1.1340  0.1393
 2113TIP3   OH230533   0.161   2.418   7.468  0.3452  0.3799 -0.2768
 2113TIP3    H130534   0.251   2.418   7.501  0.0644  2.7090  0.7055
 2113TIP3    H230535   0.169   2.447   7.377  0.5254  1.7619  0.1608
 2114TIP3   OH230536   1.321   2.233   9.534  0.2446 -0.4210 -0.1170
 2114TIP3    H130537   1.281   2.151   9.505  2.2226 -1.3914 -0.2745
 2114TIP3    H230538   1.400   2.242   9.480  1.1730  0.5062  1.3277
 2115TIP3   OH230539   1.412   0.729   9.066  0.5202 -0.1958  0.1848
 2115TIP3    H130540   1.349   0.785   9.112  0.0739  1.1160 -1.8807
 2115TIP3    H230541   1.489   0.784   9.053  0.4234 -0.3090 -1.0646
 2116TIP3   OH230542   6.867   5.883   7.690 -0.3643  0.4793 -0.5177
 2116TIP3    H130543   6.814   5.963   7.689  2.9739  2.9615  0.5695
 2116TIP3    H230544   6.903   5.880   7.779 -1.7222 -3.4002  0.1147
 2117TIP3   OH230545   0.172   0.733   8.106 -0.3060  0.4166 -0.2937
 2117TIP3    H130546   0.165   0.699   8.195 -1.0532 -0.8382 -0.8078
 2117TIP3    H230547   0.106   0.802   8.102 -1.6023 -0.7786 -0.4021
 2118TIP3   OH230548   3.872   5.008   8.232 -0.3443 -0.1147  0.0189
 2118TIP3    H130549   3.897   5.062   8.307 -0.6438  0.8010 -0.5200
 2118TIP3    H230550   3.955   4.986   8.189 -0.1613 -0.7865  0.7088
 2119TIP3   OH230551   6.058   4.356   8.240 -0.3611  0.0095  0.3381
 2119TIP3    H130552   6.067   4.314   8.155  0.9351  0.3350  0.2954
 2119TIP3    H230553   6.027   4.286   8.298  0.3181 -0.6303 -0.0523
 2120TIP3   OH230554   4.745   3.267   8.529 -0.4167 -0.2658 -0.4645
 2120TIP3    H130555   4.791   3.224   8.457 -2.0264  0.2248 -1.8490
 2120TIP3    H230556   4.721   3.196   8.588 -0.5680 -0.9122 -1.2782
 2121TIP3   OH230557   1.017   7.536   8.268 -0.2978  0.0212  0.1799
 2121TIP3    H130558   0.939   7.503   8.225 -1.2059  1.5672  0.5496
 2121TIP3    H230559   1.084   7.538   8.199 -1.3450  1.1723 -0.8551
 2122TIP3   OH230560   6.558   3.044   8.986  0.2521  0.4808 -0.2133
 2122TIP3    H130561   6.563   2.953   8.958 -0.0016  0.5920 -0.6309
 2122TIP3    H230562   6.468   3.055   9.017 -0.2886  1.0557 -1.8631
 2123TIP3   OH230563   2.451   0.387   7.562  0.1530 -0.4172 -0.3757
 2123TIP3    H130564   2.452   0.436   7.480 -0.6557  0.1167 -0.0757
 2123TIP3    H230565   2.490   0.302   7.539 -0.2355 -0.3434 -1.3511
 2124TIP3   OH230566   6.460   4.198   7.826  0.4466 -0.1063 -0.0918
 2124TIP3    H130567   6.491   4.288   7.820 -2.0140  0.8002 -0.2485
 2124TIP3    H230568   6.382   4.203   7.881  0.3351 -2.1838  0.0237
 2125TIP3   OH230569   7.486   2.675   7.176  0.2521 -0.0406  0.4141
 2125TIP3    H130570   7.497   2.671   7.271 -0.7157 -2.3721  0.5139
 2125TIP3    H230571   7.415   2.737   7.163  0.2567  0.1539  1.2396
 2126TIP3   OH230572   3.356   0.951   8.053  0.6210  0.0636  0.1053
 2126TIP3    H130573   3.315   0.967   8.138  1.0585  1.8861  0.0133
 2126TIP3    H230574   3.324   0.865   8.026  0.2804 -0.4304  1.9911
 2127TIP3   OH230575   2.904   5.402   8.621 -0.2245  0.3119  0.0168
 2127TIP3    H130576   2.843   5.376   8.689  0.4000 -0.1881  0.4018
 2127TIP3    H230577   2.885   5.344   8.548 -2.6059  2.4593 -1.2455
 2128TIP3   OH230578   4.126   6.958   8.423  0.3901 -0.1328  0.4147
 2128TIP3    H130579   4.198   6.931   8.366  0.9318  0.0162  1.0177
 2128TIP3    H230580   4.129   6.896   8.496  0.6930  0.6365  1.0604
 2129TIP3   OH230581   0.460   3.634   7.593  0.3044 -0.2224 -0.5713
 2129TIP3    H130582   0.460   3.729   7.584 -3.4305 -0.2327 -2.2552
 2129TIP3    H230583   0.491   3.602   7.508 -1.1926 -0.4388 -1.0635
 2130TIP3   OH230584   5.234   5.713   7.739 -0.2907 -0.0790  0.3796
 2130TIP3    H130585   5.234   5.690   7.646 -0.5205  1.3649 -0.0073
 2130TIP3    H230586   5.142   5.726   7.761 -0.1239  1.2019  0.3669
 2131TIP3   OH230587   2.110   1.875   9.382  0.1111 -0.2353 -0.1069
 2131TIP3    H130588   2.075   1.790   9.357  1.2263 -0.6289 -0.3642
 2131TIP3    H230589   2.055   1.903   9.456 -1.5014 -0.2780 -1.2248
 2132TIP3   OH230590   1.930   4.670   7.766 -0.0871 -0.5042 -0.0466
 2132TIP3    H130591   2.008   4.672   7.821 -1.0621  0.9434  1.3457
 2132TIP3    H230592   1.877   4.599   7.801 -0.7180  0.4322  0.9275
 2133TIP3   OH230593   1.894   7.427   7.441  0.2852  0.0619 -0.5490
 2133TIP3    H130594   1.927   7.370   7.509  1.8763  1.4691 -0.0730
 2133TIP3    H230595   1.819   7.380   7.405 -1.3626 -0.2808  2.8885
 2134TIP3   OH230596   6.706   1.543   8.601 -0.1793  0.2329 -0.2741
 2134TIP3    H130597   6.718   1.593   8.521  0.2831 -0.4199 -0.6171
 2134TIP3    H230598   6.795   1.521   8.629 -0.1724  2.3086  1.6222
 2135TIP3   OH230599   4.902   2.415   8.056 -0.6533 -0.3348  0.7389
 2135TIP3    H130600   4.815   2.447   8.081 -0.6145  0.5415 -0.2173
 2135TIP3    H230601   4.939   2.485   8.003  1.4055  0.1260  2.6472
 2136TIP3   OH230602   2.695   7.529   9.115  0.2958  0.0821  0.5141
 2136TIP3    H130603   2.628   7.569   9.172  0.3564  3.0211 -1.2810
 2136TIP3    H230604   2.776   7.536   9.165  0.0423  0.9319  0.8275
 2137TIP3   OH230605   2.349   0.878   6.760 -0.0780 -0.4207  0.3498
 2137TIP3    H130606   2.342   0.785   6.779 -0.2098 -0.3177  0.8209
 2137TIP3    H230607   2.410   0.912   6.826 -2.9216  0.5128  2.7387
 2138TIP3   OH230608   0.900   6.583   7.391  0.1004 -0.3950 -0.0118
 2138TIP3    H130609   0.879   6.497   7.427 -0.3570 -0.5102 -0.5297
 2138TIP3    H230610   0.832   6.598   7.325  0.4661  0.1466 -0.2731
 2139TIP3   OH230611   7.251   7.611   9.531 -0.6946  0.2223 -0.3807
 2139TIP3    H130612   7.288   7.650   9.610 -1.2459  0.1003 -0.0626
 2139TIP3    H230613   7.293   7.659   9.459  1.3308 -0.9728 -0.0797
 2140TIP3   OH230614   2.574   6.436   9.198  0.1167  0.1978 -0.4646
 2140TIP3    H130615   2.502   6.487   9.234 -0.0489  0.5140 -1.2205
 2140TIP3    H230616   2.542   6.406   9.113 -0.4588 -2.6661  0.6624
 2141TIP3   OH230617   3.831   3.872   8.570  0.1777 -0.1501 -0.5050
 2141TIP3    H130618   3.848   3.862   8.476 -0.6052  0.0696 -0.6848
 2141TIP3    H230619   3.745   3.830   8.583  0.6237 -0.8539  0.2587
 2142TIP3   OH230620   6.768   6.374   8.818  0.4578 -0.7750 -0.1933
 2142TIP3    H130621   6.694   6.320   8.790  0.5436 -1.5402  0.9761
 2142TIP3    H230622   6.829   6.313   8.860  1.7178 -0.1391 -1.0291
 2143TIP3   OH230623   0.904   7.077   8.247  0.1700  0.3000 -0.3151
 2143TIP3    H130624   0.932   6.986   8.236 -0.6321  0.2816 -2.5374
 2143TIP3    H230625   0.976   7.118   8.296  0.9129 -1.3112  0.0099
 2144TIP3   OH230626   6.826   7.176   8.261 -0.2280  0.2038  0.5886
 2144TIP3    H130627   6.907   7.224   8.278  0.0138 -0.1516  0.4536
 2144TIP3    H230628   6.846   7.086   8.286 -0.0467 -0.2280 -0.9941
 2145TIP3   OH230629   2.914   2.337   8.022 -0.2026 -0.3519 -0.0733
 2145TIP3    H130630   2.938   2.329   7.930  1.7878  0.5058  0.3307
 2145TIP3    H230631   2.997   2.344   8.069 -1.1875  0.0100  1.7171
 2146TIP3   OH230632   5.707   2.628   7.435 -0.1107 -0.6588 -0.0253
 2146TIP3    H130633   5.649   2.556   7.460 -1.0415  0.4460  1.1504
 2146TIP3    H230634   5.695   2.637   7.340 -0.7965 -1.3598 -0.0147
 2147TIP3   OH230635   5.992   0.849   8.492 -0.1829  0.2871  0.7396
 2147TIP3    H130636   5.926   0.791   8.453 -0.0451 -0.9474  2.2464
 2147TIP3    H230637   6.011   0.913   8.423  0.0727 -1.7614 -1.2281
 2148TIP3   OH230638   3.078   1.025   7.410 -0.4631  0.6318 -0.8918
 2148TIP3    H130639   3.153   0.969   7.428 -1.5385 -0.6920 -0.2842
 2148TIP3    H230640   3.098   1.067   7.326  1.9829  2.2172  0.3859
 2149TIP3   OH230641   5.901   7.143   7.817  0.6311 -0.2503  0.0549
 2149TIP3    H130642   5.967   7.086   7.856 -0.0271 -0.4640  0.8896
 2149TIP3    H230643   5.949   7.222   7.791  0.9210  0.4226  2.4306
 2150TIP3   OH230644   6.001   4.974   6.937 -0.0379  0.0890 -0.1384
 2150TIP3    H130645   5.946   5.047   6.964  0.5950  0.2373  0.7735
 2150TIP3    H230646   5.940   4.911   6.899 -0.3774  2.1459 -3.4270
 2151TIP3   OH230647   2.387   2.078   7.855  0.0508 -0.4209 -0.4279
 2151TIP3    H130648   2.399   1.991   7.894 -2.0474 -0.7274 -0.3465
 2151TIP3    H230649   2.310   2.069   7.799 -0.4945  1.4880 -0.0752
 2152TIP3   OH230650   5.383   3.979   9.024 -0.3150 -0.7839  0.0507
 2152TIP3    H130651   5.337   4.058   9.054 -0.3603  0.1711 -2.3396
 2152TIP3    H230652   5.319   3.909   9.033 -1.0131 -0.1432  0.1565
 2153TIP3   OH230653   4.103   5.718   8.381  0.1976 -0.1082  0.7343
 2153TIP3    H130654   4.051   5.770   8.319  1.4620  0.9237  0.5035
 2153TIP3    H230655   4.040   5.655   8.417 -0.8435  0.0663 -0.6829
 2154TIP3   OH230656   1.903   6.396   8.400 -0.3795  0.3683 -0.2045
 2154TIP3    H130657   1.967   6.407   8.470 -0.9847  1.5163  0.1878
 2154TIP3    H230658   1.834   6.342   8.439  0.2361 -0.7292 -0.5769
 2155TIP3   OH230659   6.182   3.509   9.227  0.2661  0.5402  0.1125
 2155TIP3    H130660   6.262   3.456   9.227 -1.4189 -2.2948  2.4398
 2155TIP3    H230661   6.201   3.581   9.286  0.0105 -2.3878  4.2072
 2156TIP3   OH230662   1.772   1.502   7.680 -0.1522  0.2464 -0.3436
 2156TIP3    H130663   1.804   1.438   7.743 -0.6559  0.3921  0.0745
 2156TIP3    H230664   1.746   1.577   7.734  0.6290  0.8901 -0.8423
 2157TIP3   OH230665   1.830   0.540   8.460  0.0413 -0.1844  0.2267
 2157TIP3    H130666   1.884   0.567   8.535  0.9262  0.2934 -0.5704
 2157TIP3    H230667   1.740   0.548   8.492  0.4000 -0.1079  1.2814
 2158TIP3   OH230668   6.115   2.150   9.184 -0.5037 -0.4409 -0.0824
 2158TIP3    H130669   6.166   2.224   9.153 -0.5594 -0.3300  0.0922
 2158TIP3    H230670   6.173   2.104   9.245  0.3273 -1.7490 -1.7656
 2159TIP3   OH230671   3.051   1.087   9.365 -0.3312 -0.4305 -0.5271
 2159TIP3    H130672   3.045   0.992   9.363 -0.6204 -0.4140 -0.4801
 2159TIP3    H230673   3.136   1.107   9.326 -0.3067 -0.7044 -0.6121
 2160TIP3   OH230674   7.192   1.012   7.209  0.3914  0.1412 -0.4004
 2160TIP3    H130675   7.243   0.965   7.275  0.9729  0.2771 -0.7423
 2160TIP3    H230676   7.116   0.957   7.192  0.1714  0.1654  0.4736
 2161TIP3   OH230677   4.528   6.551   8.549  0.3019 -0.1753  0.2795
 2161TIP3    H130678   4.594   6.545   8.618  1.6308  0.8392 -0.8506
 2161TIP3    H230679   4.469   6.620   8.578  1.3969  0.9152  0.0089
 2162TIP3   OH230680   4.254   6.371   8.081  0.0112 -0.2374  0.1167
 2162TIP3    H130681   4.207   6.424   8.015 -1.5600 -0.8905  0.6719
 2162TIP3    H230682   4.212   6.286   8.077 -0.1875 -0.2535  2.0593
 2163TIP3   OH230683   3.543   4.366   6.784 -0.2629  0.3540 -0.1813
 2163TIP3    H130684   3.570   4.328   6.868 -0.5422 -0.6031 -0.5021
 2163TIP3    H230685   3.608   4.335   6.721 -0.5163  0.3741 -0.4590
 2164TIP3   OH230686   4.017   7.679   7.796  0.3979  0.1677  0.1692
 2164TIP3    H130687   4.085   7.737   7.763  0.8565 -1.4963 -2.0470
 2164TIP3    H230688   4.058   7.636   7.872  0.6185  1.4664  0.8257
 2165TIP3   OH230689   2.137   1.459   8.553 -0.8685 -0.4377  0.1144
 2165TIP3    H130690   2.193   1.421   8.484  0.5983 -2.7350  2.3980
 2165TIP3    H230691   2.177   1.544   8.572  1.5757 -1.7345  1.2080
 2166TIP3   OH230692   5.712   3.267   7.523 -0.4263 -0.3699 -0.2262
 2166TIP3    H130693   5.673   3.285   7.608 -1.8544  1.4439 -1.1995
 2166TIP3    H230694   5.807   3.268   7.539 -0.6591 -1.8084  1.6100
 2167TIP3   OH230695   6.578   5.265   9.024  0.3174  0.2567 -0.6027
 2167TIP3    H130696   6.618   5.186   9.059  0.9925 -0.2092 -2.3126
 2167TIP3    H230697   6.506   5.232   8.969  0.7487  0.8087 -1.5098
 2168TIP3   OH230698   6.900   1.724   9.400  0.3090  0.5565  0.0557
 2168TIP3    H130699   6.899   1.629   9.415 -1.5428  0.3960 -0.8690
 2168TIP3    H230700   6.822   1.741   9.348  0.1760  2.7228  0.8736
 2169TIP3   OH230701   7.169   5.557   7.239  0.1446 -0.0921  0.0197
 2169TIP3    H130702   7.203   5.633   7.193  1.1017 -1.2747 -1.2928
 2169TIP3    H230703   7.179   5.484   7.178 -0.9861 -1.2466  1.1319
 2170TIP3   OH230704   7.486   1.106   9.068  0.2976 -0.4748  0.2584
 2170TIP3    H130705   7.515   1.101   9.159  0.7563  2.0756  0.3091
 2170TIP3    H230706   7.390   1.110   9.073  0.3139 -0.5490  0.6148
 2171TIP3   OH230707   2.496   0.666   7.930 -0.0514 -0.7340  0.7460
 2171TIP3    H130708   2.416   0.658   7.982 -1.3357  0.5066 -0.9485
 2171TIP3    H230709   2.539   0.744   7.964 -1.9451  1.3290 -1.2727
 2172TIP3   OH230710   4.450   2.785   8.434 -0.4026 -0.1401  0.0202
 2172TIP3    H130711   4.526   2.735   8.402  0.2274 -0.1751  1.4807
 2172TIP3    H230712   4.438   2.754   8.523 -1.9368  0.1375 -0.0745
 2173TIP3   OH230713   2.996   5.515   9.133  0.2390 -0.3076 -0.4032
 2173TIP3    H130714   2.942   5.594   9.133 -0.6988 -0.9147  0.6118
 2173TIP3    H230715   3.079   5.542   9.095 -0.6120  0.7732 -1.5867
 2174TIP3   OH230716   0.324   0.783   8.616 -0.0982 -0.2946 -0.6926
 2174TIP3    H130717   0.366   0.867   8.598  1.1692 -0.8383 -0.3783
 2174TIP3    H230718   0.270   0.799   8.694  0.1756  0.2097 -0.6085
 2175TIP3   OH230719   2.424   6.845   9.329 -0.0151 -0.1752 -0.7322
 2175TIP3    H130720   2.495   6.848   9.265  0.4412 -1.0617 -0.2850
 2175TIP3    H230721   2.385   6.759   9.317  2.0737 -1.7339  2.2434
 2176TIP3   OH230722   1.386   1.346   9.470 -0.0334  0.2389 -0.0724
 2176TIP3    H130723   1.320   1.407   9.502  0.4852  0.2613  0.9849
 2176TIP3    H230724   1.404   1.375   9.380 -1.9256 -0.1738 -0.6425
 2177TIP3   OH230725   6.501   6.667   7.249 -0.2064 -0.1532  0.1561
 2177TIP3    H130726   6.452   6.686   7.329  1.6231  0.7675  1.1314
 2177TIP3    H230727   6.480   6.740   7.190 -0.9542 -0.4252  0.0771
 2178TIP3   OH230728   7.331   3.768   8.209  0.2551  0.0938  0.2458
 2178TIP3    H130729   7.312   3.851   8.254 -0.6502 -0.0446  0.1312
 2178TIP3    H230730   7.303   3.782   8.119 -0.4422 -0.5287  0.3600
 2179TIP3   OH230731   4.566   2.927   7.850 -0.3328 -0.4880  0.0355
 2179TIP3    H130732   4.526   2.999   7.800 -1.2330 -0.2740  1.0288
 2179TIP3    H230733   4.499   2.859   7.851 -0.3623 -0.4544  1.0158
 2180TIP3   OH230734   6.399   1.106   7.480  0.1931  0.5570 -0.1204
 2180TIP3    H130735   6.494   1.098   7.488  0.0554 -2.1599 -0.3649
 2180TIP3    H230736   6.365   1.083   7.567 -0.2911  0.7712 -0.2452
 2181TIP3   OH230737   7.466   1.852   8.632  0.0350  0.1077  0.1300
 2181TIP3    H130738   7.424   1.913   8.692 -0.9099 -0.4022  0.0050
 2181TIP3    H230739   7.394   1.810   8.585  0.7259 -0.0483 -0.8290
 2182TIP3   OH230740   2.529   4.195   8.591  0.6779 -0.7240 -0.2122
 2182TIP3    H130741   2.598   4.261   8.582 -0.1177  0.2733  0.6871
 2182TIP3    H230742   2.481   4.198   8.509  0.3812  0.1403 -0.0124
 2183TIP3   OH230743   2.024   5.560   8.530 -0.8240  0.0379 -0.2959
 2183TIP3    H130744   1.983   5.599   8.452  0.2299 -0.6021 -1.1812
 2183TIP3    H230745   2.117   5.560   8.511 -0.5734 -0.3941  0.8622
 2184TIP3   OH230746   0.423   7.034   8.746  0.4757 -0.0403  0.0362
 2184TIP3    H130747   0.424   7.098   8.674  0.7272 -0.2263 -0.1299
 2184TIP3    H230748   0.428   6.949   8.702 -2.4038 -0.3266  0.1018
 2185TIP3   OH230749   4.489   4.045   9.726  0.0309 -0.1165  0.2306
 2185TIP3    H130750   4.518   4.137   9.727 -1.0264  0.2685 -1.2344
 2185TIP3    H230751   4.537   4.006   9.653 -0.4088 -0.4251  0.1060
 2186TIP3   OH230752   3.700   1.225   9.131  0.5315  1.0473 -0.1517
 2186TIP3    H130753   3.668   1.293   9.071  2.1317  2.0278  0.0210
 2186TIP3    H230754   3.707   1.270   9.215 -0.7781 -0.0598  0.5734
 2187TIP3   OH230755   3.911   3.808   9.469 -0.0713 -0.2698 -0.2512
 2187TIP3    H130756   3.940   3.896   9.444  1.2296 -0.3177  0.9618
 2187TIP3    H230757   3.942   3.753   9.397 -0.8199  0.2346 -0.9802
 2188TIP3   OH230758   7.220   5.837   6.593 -0.4111 -0.1046  0.2535
 2188TIP3    H130759   7.182   5.895   6.527 -0.4238 -0.5227 -0.1062
 2188TIP3    H230760   7.162   5.846   6.669 -0.6587  0.0227  0.0515
 2189TIP3   OH230761   7.561   1.097   7.906  0.3182  0.6350  0.5248
 2189TIP3    H130762   7.536   1.186   7.881  0.1304  0.5275  0.3216
 2189TIP3    H230763   7.613   1.065   7.832  0.8594  0.7712  0.8423
 2190TIP3   OH230764   6.707   2.742   8.169  0.2851 -0.9917  0.4944
 2190TIP3    H130765   6.784   2.780   8.212  0.4960 -2.4787  1.5271
 2190TIP3    H230766   6.633   2.780   8.215  0.4601 -0.9050  0.7101
 2191TIP3   OH230767   6.693   6.934   8.566 -0.4530  0.0308  0.2313
 2191TIP3    H130768   6.659   6.847   8.587  0.7598 -0.4586  0.2548
 2191TIP3    H230769   6.756   6.919   8.496 -0.5129  0.9537 -0.0418
 2192TIP3   OH230770   6.437   1.390   8.543 -0.0985 -0.5776  0.2946
 2192TIP3    H130771   6.484   1.395   8.626 -0.2927 -0.0430  0.3768
 2192TIP3    H230772   6.501   1.354   8.482  0.1226 -0.7403  0.6161
 2193TIP3   OH230773   5.100   2.257   9.164  0.3008 -0.0489 -0.0127
 2193TIP3    H130774   5.132   2.347   9.158 -1.1532  0.5482  0.5337
 2193TIP3    H230775   5.050   2.255   9.246 -1.4259 -0.7413 -1.0176
 2194TIP3   OH230776   7.604   7.636   9.102  0.8590 -0.8683 -0.3576
 2194TIP3    H130777   7.678   7.585   9.136  0.6878 -2.3784 -2.1136
 2194TIP3    H230778   7.642   7.721   9.078  1.7707 -1.1954 -0.1133
 2195TIP3   OH230779   3.986   0.936   8.644 -0.5291  0.3980 -0.2036
 2195TIP3    H130780   4.035   1.011   8.675 -0.0142 -0.1210  0.2660
 2195TIP3    H230781   3.895   0.965   8.642 -0.2743  1.1828 -0.5196
 2196TIP3   OH230782   3.013   2.052   7.495  0.2143  0.2077  0.5808
 2196TIP3    H130783   2.962   2.088   7.568 -0.2631 -1.4517  1.1058
 2196TIP3    H230784   3.025   1.960   7.517  0.8251 -0.1327 -1.0289
 2197TIP3   OH230785   4.046   6.389   8.566 -0.2819  0.0632  0.5114
 2197TIP3    H130786   4.022   6.457   8.504 -3.7896 -0.2998  1.2721
 2197TIP3    H230787   4.065   6.312   8.511  0.4473  0.7334 -0.2042
 2198TIP3   OH230788   4.391   7.166   8.732 -0.0698 -0.3063 -0.5641
 2198TIP3    H130789   4.334   7.194   8.803 -0.5723 -1.2109 -0.6079
 2198TIP3    H230790   4.363   7.219   8.657  0.9314  1.1641  0.0524
 2199TIP3   OH230791   5.167   6.941   8.835 -0.3941  0.4371 -0.3741
 2199TIP3    H130792   5.258   6.913   8.843  0.3288  1.8660 -2.5939
 2199TIP3    H230793   5.168   7.034   8.855 -1.3454  0.5120 -0.5928
 2200TIP3   OH230794   1.551   7.439   8.296 -0.2387 -1.3117 -0.0227
 2200TIP3    H130795   1.525   7.397   8.214  0.7663 -0.0089 -1.0485
 2200TIP3    H230796   1.596   7.519   8.269 -0.2498 -0.6409  1.8214
 2201TIP3   OH230797   3.900   6.558   7.443 -0.3771  0.1262  0.4277
 2201TIP3    H130798   3.978   6.579   7.391  0.5925 -1.2535  1.2864
 2201TIP3    H230799   3.911   6.608   7.524  0.3290 -1.1374  1.1294
 2202TIP3   OH230800   0.954   6.006   9.094 -0.0826 -0.3409 -0.3668
 2202TIP3    H130801   1.018   6.076   9.111  1.0629 -0.7713 -2.5141
 2202TIP3    H230802   0.922   5.981   9.181 -0.1063  2.4207  0.5193
 2203TIP3   OH230803   0.153   6.225   8.183  0.5125 -0.1003  0.4036
 2203TIP3    H130804   0.187   6.276   8.109  1.9788  0.1774  1.2275
 2203TIP3    H230805   0.166   6.133   8.157  0.8408 -0.0067  0.2326
 2204TIP3   OH230806   3.462   0.559   8.919 -0.1277 -0.5320  0.1790
 2204TIP3    H130807   3.531   0.497   8.894 -0.9075 -1.4359  0.2117
 2204TIP3    H230808   3.500   0.645   8.901  0.8596 -1.0226 -0.1824
 2205TIP3   OH230809   6.126   4.087   8.919  0.0353  0.0769 -0.8562
 2205TIP3    H130810   6.117   4.101   9.013  1.8025 -1.5770 -0.3808
 2205TIP3    H230811   6.195   4.149   8.892  1.2426 -1.0883 -0.5513
 2206TIP3   OH230812   3.287   0.225   8.112 -0.4679 -0.1227 -0.4323
 2206TIP3    H130813   3.356   0.286   8.136  0.3023 -1.5372  1.1248
 2206TIP3    H230814   3.243   0.266   8.037  1.1605  1.4516 -0.5732
 2207TIP3   OH230815   1.810   5.141   8.716 -0.4211 -0.7152  0.0176
 2207TIP3    H130816   1.901   5.144   8.743 -0.1600 -0.4919 -0.8580
 2207TIP3    H230817   1.811   5.163   8.623 -1.1853 -2.4412 -0.4524
 2208TIP3   OH230818   3.384   4.716   8.710 -0.4317  0.3357 -0.1852
 2208TIP3    H130819   3.348   4.628   8.694  0.6977 -0.2146  0.1973
 2208TIP3    H230820   3.385   4.724   8.806  0.2088  0.4422 -0.1971
 2209TIP3   OH230821   5.029   5.504   8.545  0.4936 -0.2348 -0.9523
 2209TIP3    H130822   5.097   5.536   8.604  0.0388  1.6369 -1.3671
 2209TIP3    H230823   5.012   5.578   8.486 -1.8247 -0.6648 -0.9110
 2210TIP3   OH230824   2.643   2.001   8.066 -0.0398  0.2828  0.1406
 2210TIP3    H130825   2.605   2.089   8.068  1.4174  0.9578 -0.0523
 2210TIP3    H230826   2.738   2.017   8.070  0.2479 -1.2767 -0.0920
 2211TIP3   OH230827   4.713   0.031   7.915 -0.2190  0.4293 -0.1890
 2211TIP3    H130828   4.736   0.114   7.872 -0.2849 -0.0323 -1.1434
 2211TIP3    H230829   4.625   0.046   7.951 -0.2062  0.7963 -0.3080
 2212TIP3   OH230830   2.379   2.971   8.970 -0.1003 -0.1757 -0.3017
 2212TIP3    H130831   2.428   3.034   8.918 -0.0273 -1.4377 -1.8396
 2212TIP3    H230832   2.446   2.912   9.005 -0.3228 -0.6225 -0.6162
 2213TIP3   OH230833   4.379   0.287   7.400 -0.1634 -0.2759  0.0088
 2213TIP3    H130834   4.447   0.288   7.467  0.3153  0.0175 -0.4779
 2213TIP3    H230835   4.416   0.235   7.329 -0.3443  0.1046 -0.3662
 2214TIP3   OH230836   1.978   5.918   8.638  0.5628  0.2767 -0.8863
 2214TIP3    H130837   1.959   5.984   8.705  0.1713  0.1817 -0.8968
 2214TIP3    H230838   2.055   5.872   8.672  0.4919  0.3639 -0.5982
 2215TIP3   OH230839   5.213   5.076   7.147 -0.2287 -0.0353 -0.2193
 2215TIP3    H130840   5.138   5.035   7.190  0.7313 -0.9149  0.6699
 2215TIP3    H230841   5.191   5.168   7.142 -1.2032 -0.2297  0.3738
 2216TIP3   OH230842   6.181   3.839   7.631  0.6337 -0.5429  0.3801
 2216TIP3    H130843   6.260   3.853   7.578 -0.2627 -2.1500 -1.5214
 2216TIP3    H230844   6.149   3.754   7.603 -1.5131 -0.1503  1.4771
 2217TIP3   OH230845   2.628   5.780   8.444 -0.4021 -0.2478 -0.5782
 2217TIP3    H130846   2.550   5.813   8.400 -1.7973 -1.7079  0.6529
 2217TIP3    H230847   2.682   5.858   8.460 -2.9592  1.2998  1.1366
 2218TIP3   OH230848   0.843   7.513   8.487  0.4120  0.5766  0.0133
 2218TIP3    H130849   0.903   7.494   8.415 -0.9335 -0.5954 -0.8715
 2218TIP3    H230850   0.774   7.567   8.447  0.2432  0.8863  0.7073
 2219TIP3   OH230851   2.015   4.789   7.547 -0.2251  0.0176 -0.3627
 2219TIP3    H130852   1.984   4.729   7.614  0.3205  0.5835  0.4186
 2219TIP3    H230853   1.939   4.843   7.526 -0.1588  0.4744  0.5195
 2220TIP3   OH230854   7.281   6.961   7.790 -0.9014 -0.1011 -0.4415
 2220TIP3    H130855   7.280   6.928   7.700 -2.1400  1.3448 -1.0117
 2220TIP3    H230856   7.307   7.053   7.781 -1.8048  0.2710  0.5863
 2221TIP3   OH230857   0.451   5.546   6.740 -0.2155 -0.1470  0.0205
 2221TIP3    H130858   0.407   5.628   6.762  0.8101  0.0386  1.4697
 2221TIP3    H230859   0.472   5.506   6.824  1.7214 -0.5815 -0.6277
 2222TIP3   OH230860   2.920   1.637   9.058  0.2976  0.0290  0.1316
 2222TIP3    H130861   2.876   1.623   9.142  0.3908 -0.6352  0.0775
 2222TIP3    H230862   2.905   1.729   9.038  0.2363  0.1848  0.8574
 2223TIP3   OH230863   5.729   5.421   9.339  0.1185 -0.1203  0.7054
 2223TIP3    H130864   5.671   5.449   9.268  2.3228  0.2595 -1.0905
 2223TIP3    H230865   5.799   5.486   9.338  0.3525 -0.2642  3.1243
 2224TIP3   OH230866   5.945   4.840   9.078 -0.1512  0.2182 -0.1709
 2224TIP3    H130867   5.921   4.755   9.114 -0.3095  0.0130 -0.7655
 2224TIP3    H230868   6.002   4.879   9.145  0.3266 -0.5607 -0.1172
 2225TIP3   OH230869   2.155   5.234   9.687 -0.2100  0.4720 -0.0086
 2225TIP3    H130870   2.221   5.182   9.642  0.3477  1.4813 -0.3729
 2225TIP3    H230871   2.150   5.196   9.775  1.0533  0.5544  0.1115
 2226TIP3   OH230872   2.283   1.747   8.391 -0.2907  0.3665  0.0484
 2226TIP3    H130873   2.221   1.801   8.342  0.7914  0.4717 -1.2574
 2226TIP3    H230874   2.266   1.768   8.483 -0.8109  1.9047 -0.3745
 2227TIP3   OH230875   5.414   1.030   8.704  0.0572  0.0403 -0.4087
 2227TIP3    H130876   5.474   0.973   8.656  1.8923  2.2699 -0.9738
 2227TIP3    H230877   5.341   0.973   8.729  1.6527 -2.4624 -1.0574
 2228TIP3   OH230878   2.556   2.589   9.005  0.2062  0.3225 -0.3585
 2228TIP3    H130879   2.547   2.668   9.057  3.0478  1.0025 -0.6905
 2228TIP3    H230880   2.498   2.602   8.930  1.0545  2.4314 -0.7141
 2229TIP3   OH230881   2.619   0.673   8.260  0.0577 -0.5967 -0.0138
 2229TIP3    H130882   2.624   0.581   8.288  1.1845 -0.3459  0.7086
 2229TIP3    H230883   2.527   0.686   8.236  0.0539 -2.1391 -0.9767
 2230TIP3   OH230884   7.522   0.468   8.627 -0.0332  0.6307 -0.9810
 2230TIP3    H130885   7.452   0.533   8.619 -0.8205  0.0442  0.7252
 2230TIP3    H230886   7.558   0.460   8.538 -3.2054 -0.2502 -2.2970
 2231TIP3   OH230887   4.527   1.927   8.702  0.1824 -0.1383  0.0604
 2231TIP3    H130888   4.554   2.006   8.748 -0.5304 -1.2749  2.5976
 2231TIP3    H230889   4.594   1.862   8.722 -0.1833 -0.7000 -0.4703
 2232TIP3   OH230890   7.485   0.546   9.276  0.2134  0.1540  0.2033
 2232TIP3    H130891   7.486   0.604   9.200 -2.1360  0.4355  0.3385
 2232TIP3    H230892   7.468   0.605   9.350 -0.9358 -0.5266  0.4984
 2233TIP3   OH230893   2.817   3.182   8.855 -0.4255  0.2423  0.1669
 2233TIP3    H130894   2.797   3.272   8.831 -1.2389  0.2929  0.9971
 2233TIP3    H230895   2.908   3.170   8.828 -0.0948  1.5209  0.6421
 2234TIP3   OH230896   3.201   2.575   8.383 -0.2473  0.1120  0.0637
 2234TIP3    H130897   3.129   2.639   8.380 -1.0094 -0.6210  1.4577
 2234TIP3    H230898   3.164   2.495   8.347  0.0683 -0.0902  0.1799
 2235TIP3   OH230899   3.660   0.555   7.860 -0.1479 -0.4850 -0.3051
 2235TIP3    H130900   3.647   0.489   7.927  1.7249 -0.8603 -0.2710
 2235TIP3    H230901   3.579   0.554   7.809 -0.9698 -1.2930  0.9696
 2236TIP3   OH230902   0.848   3.674   7.999  0.0938  0.0716 -0.3316
 2236TIP3    H130903   0.939   3.701   7.985 -0.2189  0.6922 -1.2963
 2236TIP3    H230904   0.838   3.596   7.944 -0.1847  0.4932 -0.8838
 2237TIP3   OH230905   1.609   2.169   8.232  0.2232  0.0887 -0.2157
 2237TIP3    H130906   1.542   2.211   8.179  0.9840 -0.0244 -1.2791
 2237TIP3    H230907   1.690   2.216   8.212  1.1836 -2.0118 -1.7078
 2238TIP3   OH230908   1.048   0.818   8.593  0.3228  0.3874  0.3679
 2238TIP3    H130909   1.140   0.801   8.575 -0.2148 -0.5874 -1.7989
 2238TIP3    H230910   1.045   0.907   8.628  2.0292  0.5277  0.2122
 2239TIP3   OH230911   3.824   2.898   8.830 -1.1001  0.0239 -0.3252
 2239TIP3    H130912   3.786   2.943   8.906 -0.7278  0.3995 -0.3602
 2239TIP3    H230913   3.912   2.875   8.857 -1.0638 -0.1017 -0.5458
 2240TIP3   OH230914   3.797   4.043   7.960  0.1211 -0.2291 -0.2767
 2240TIP3    H130915   3.854   3.972   7.929 -0.7743 -0.6529 -0.9778
 2240TIP3    H230916   3.742   4.064   7.885 -1.4076 -0.5766  0.7117
 2241TIP3   OH230917   5.658   4.030   9.105  0.9787  0.0668 -0.1133
 2241TIP3    H130918   5.727   4.020   9.040 -0.1131 -2.6231 -0.9844
 2241TIP3    H230919   5.578   4.004   9.060  0.1048 -1.4300  2.1004
 2242TIP3   OH230920   1.604   0.816   7.278 -0.0646  0.6937 -0.5319
 2242TIP3    H130921   1.649   0.815   7.194  0.1643 -0.4639 -0.4180
 2242TIP3    H230922   1.511   0.822   7.256 -0.1822 -1.7419 -1.0065
 2243TIP3   OH230923   1.737   6.800   9.517  0.2446  0.1236  0.2235
 2243TIP3    H130924   1.723   6.740   9.591 -0.6065  0.9140  0.7340
 2243TIP3    H230925   1.761   6.883   9.559  4.0860 -0.4164 -0.5156
 2244TIP3   OH230926   5.227   6.616   8.407  0.5961  0.5595 -0.5317
 2244TIP3    H130927   5.317   6.609   8.437  0.7053 -2.6680 -1.2599
 2244TIP3    H230928   5.234   6.644   8.316  0.8454  0.5105 -0.5276
 2245TIP3   OH230929   1.530   1.343   8.229 -0.3235 -0.0614 -0.2908
 2245TIP3    H130930   1.542   1.297   8.312  0.7408  1.2241  0.3059
 2245TIP3    H230931   1.509   1.433   8.254  2.3311  0.9497 -1.3239
 2246TIP3   OH230932   2.497   4.202   7.272 -0.0302  0.2949 -0.1743
 2246TIP3    H130933   2.588   4.230   7.259  0.3236 -0.5209  0.4868
 2246TIP3    H230934   2.445   4.278   7.245  0.8974  1.8264  2.0893
 2247TIP3   OH230935   7.175   7.006   8.900 -0.0178  0.3374 -0.4779
 2247TIP3    H130936   7.234   7.043   8.965  0.4973 -0.3324 -0.5506
 2247TIP3    H230937   7.196   7.051   8.818 -0.5382  1.0486 -0.2278
 2248TIP3   OH230938   3.989   4.957   7.659  0.6645  0.4094 -0.0479
 2248TIP3    H130939   3.896   4.942   7.679  0.2512  1.2254 -1.2306
 2248TIP3    H230940   3.992   4.962   7.564  2.3106 -1.8997 -0.2103
 2249TIP3   OH230941   2.225   7.116   7.621 -0.3933 -0.2189  0.0108
 2249TIP3    H130942   2.221   7.059   7.697  2.1202 -0.1969  0.2316
 2249TIP3    H230943   2.284   7.187   7.646 -0.3420  0.3555 -1.5821
 2250TIP3   OH230944   7.301   1.068   9.542  0.0903 -0.3261  0.2138
 2250TIP3    H130945   7.313   1.155   9.581 -2.2085  0.4778 -0.6523
 2250TIP3    H230946   7.348   1.073   9.459  2.3862 -0.9702  1.4037
 2251TIP3   OH230947   1.230   5.138   8.172 -0.0951  0.0132  0.0693
 2251TIP3    H130948   1.188   5.223   8.188 -1.6089 -0.4001 -1.4109
 2251TIP3    H230949   1.294   5.129   8.243 -0.5554  1.9545  0.7960
 2252TIP3   OH230950   5.076   4.953   8.119  0.2576 -0.1512 -0.1308
 2252TIP3    H130951   5.019   4.893   8.166 -1.0863  1.0428 -0.1675
 2252TIP3    H230952   5.111   4.902   8.046  1.4674 -1.6985  1.4601
 2253TIP3   OH230953   7.443   6.670   6.863  0.1882 -0.3666 -0.4363
 2253TIP3    H130954   7.370   6.608   6.871 -1.2286  1.3465  0.6502
 2253TIP3    H230955   7.448   6.690   6.770 -2.1747  1.0686 -0.3274
 2254TIP3   OH230956   4.569   0.217   8.599  0.1768  0.1217  0.2466
 2254TIP3    H130957   4.588   0.135   8.645 -1.0421 -0.5557 -0.3916
 2254TIP3    H230958   4.497   0.195   8.540  0.2688  1.5019 -0.4227
 2255TIP3   OH230959   4.310   0.051   7.197  0.6642 -0.1640  0.5088
 2255TIP3    H130960   4.324  -0.043   7.206  1.1466  0.0425  2.2686
 2255TIP3    H230961   4.398   0.087   7.184  0.4515  0.0254 -0.4548
 2256TIP3   OH230962   3.880   6.607   9.145 -0.0114 -0.7085  0.1243
 2256TIP3    H130963   3.898   6.598   9.238  0.5508 -0.0445  0.0818
 2256TIP3    H230964   3.791   6.572   9.134  0.4855 -2.2437  0.6487
 2257TIP3   OH230965   6.416   0.305   8.082 -0.3827  1.0097  0.4184
 2257TIP3    H130966   6.470   0.241   8.129 -2.0239 -0.5093  0.3384
 2257TIP3    H230967   6.470   0.331   8.007 -0.1195 -1.2997 -0.2791
 2258TIP3   OH230968   7.557   6.975   8.573 -0.3210 -0.1120 -0.1112
 2258TIP3    H130969   7.507   7.015   8.644  0.1222 -1.7386  1.1614
 2258TIP3    H230970   7.522   6.886   8.566  0.4058 -0.3287 -1.1898
 2259TIP3   OH230971   6.247   5.492   9.648  0.0126  0.4836 -0.3125
 2259TIP3    H130972   6.293   5.526   9.724 -2.3207  2.2018  0.4504
 2259TIP3    H230973   6.155   5.514   9.663 -0.8811 -1.3140 -2.4873
 2260TIP3   OH230974   0.195   7.136   9.420 -0.0649  0.2123 -0.3095
 2260TIP3    H130975   0.241   7.164   9.500 -0.7633  0.4240  0.0281
 2260TIP3    H230976   0.114   7.097   9.452  0.5392 -1.5551 -0.8207
 2261TIP3   OH230977   5.975   2.627   7.471  0.3607 -0.6078 -0.1227
 2261TIP3    H130978   5.882   2.643   7.455  0.4274  2.2151  1.5225
 2261TIP3    H230979   6.017   2.637   7.386 -0.7506 -1.2338 -0.7649
 2262TIP3   OH230980   1.895   4.335   8.735 -0.5675 -0.5749 -0.1494
 2262TIP3    H130981   1.946   4.310   8.658  1.7928 -0.1916  1.1899
 2262TIP3    H230982   1.838   4.405   8.704  2.0110  1.2602 -1.1285
 2263TIP3   OH230983   1.830   0.138   7.725 -0.8732 -0.6933 -0.6273
 2263TIP3    H130984   1.880   0.215   7.750 -0.5115 -0.7177 -1.2607
 2263TIP3    H230985   1.891   0.085   7.674 -1.6852 -0.4570 -1.9090
 2264TIP3   OH230986   3.623   5.499   8.158 -0.3276  0.0569  0.6129
 2264TIP3    H130987   3.547   5.545   8.123  0.7850  0.9723 -0.7090
 2264TIP3    H230988   3.621   5.413   8.114 -2.2442 -1.1730  2.8700
 2265TIP3   OH230989   6.961   5.430   7.447 -0.1822  0.2530  0.0480
 2265TIP3    H130990   6.890   5.437   7.511  0.7566 -0.8940  1.2566
 2265TIP3    H230991   6.930   5.364   7.384 -0.0048 -0.6049  0.8446
 2266TIP3   OH230992   1.014   2.387   9.469  0.2457 -0.0309 -0.3617
 2266TIP3    H130993   1.022   2.305   9.518 -1.0312  0.3229  0.4950
 2266TIP3    H230994   0.940   2.372   9.410 -2.2343  1.5324  2.1120
 2267TIP3   OH230995   6.786   5.325   8.095 -0.4105 -0.3278 -0.4063
 2267TIP3    H130996   6.695   5.353   8.104 -0.1649  0.3867  0.0025
 2267TIP3    H230997   6.783   5.250   8.035 -1.4122 -1.1902  0.6874
 2268TIP3   OH230998   3.373   7.503   8.322 -0.3799  0.1884  0.1715
 2268TIP3    H130999   3.311   7.528   8.253 -1.1934  0.6753  1.0621
 2268TIP3    H231000   3.457   7.539   8.292 -0.6214 -0.0182 -0.7899
 2269TIP3   OH231001   2.108   3.128   8.273  0.2960 -0.1039  0.4488
 2269TIP3    H131002   2.037   3.101   8.215  1.1019  1.3745 -1.3568
 2269TIP3    H231003   2.064   3.160   8.352 -0.8529 -1.8914  0.5928
 2270TIP3   OH231004   3.236   1.432   8.493 -0.2998  0.0114  0.6159
 2270TIP3    H131005   3.190   1.352   8.519  2.7580 -1.6834  1.4097
 2270TIP3    H231006   3.231   1.488   8.571 -2.5792  0.7443  0.0094
 2271TIP3   OH231007   4.162   5.650   7.414  0.1676 -0.1347  0.0447
 2271TIP3    H131008   4.143   5.731   7.366  2.2393  0.8847  0.8107
 2271TIP3    H231009   4.116   5.582   7.365 -1.5553  1.4666 -0.6959
 2272TIP3   OH231010   6.278   3.387   7.881 -0.3983 -0.7683  0.4927
 2272TIP3    H131011   6.344   3.452   7.860  0.4244 -1.1549  1.7876
 2272TIP3    H231012   6.310   3.306   7.840  0.0635 -1.0071  1.3071
 2273TIP3   OH231013   5.454   7.551   7.080  0.1766  0.0882  0.4327
 2273TIP3    H131014   5.406   7.573   7.000 -1.4894  0.1621  1.4071
 2273TIP3    H231015   5.496   7.633   7.106  0.0755  0.2590  0.0651
 2274TIP3   OH231016   1.292   0.672   9.468 -0.1733  0.4632  0.5378
 2274TIP3    H131017   1.334   0.595   9.507 -1.0893 -0.0468  0.5274
 2274TIP3    H231018   1.220   0.637   9.417  0.0987  1.2485 -0.4163
 2275TIP3   OH231019   4.656   3.793   8.524  0.0477  0.2591  0.2321
 2275TIP3    H131020   4.563   3.780   8.541 -0.1608  1.8140  0.4621
 2275TIP3    H231021   4.661   3.875   8.474  1.3942  1.5747  2.3220
 2276TIP3   OH231022   3.676   2.423   8.147  0.7175  0.5024  0.1452
 2276TIP3    H131023   3.764   2.435   8.111  0.7156 -0.6775 -0.2952
 2276TIP3    H231024   3.681   2.459   8.235  1.9259 -0.4506  0.4873
 2277TIP3   OH231025   5.030   2.633   8.866  0.7808 -0.2137 -0.0146
 2277TIP3    H131026   4.995   2.647   8.954 -1.9524 -0.0240 -1.0298
 2277TIP3    H231027   5.056   2.720   8.836 -2.5454  0.5691 -0.9734
 2278TIP3   OH231028   7.376   7.655   7.596 -0.1856 -0.0100 -0.6876
 2278TIP3    H131029   7.328   7.671   7.515 -0.9340  1.6817  0.0267
 2278TIP3    H231030   7.459   7.701   7.584  1.3025 -2.7457 -1.8313
 2279TIP3   OH231031   5.397   7.488   8.242 -0.2153  0.2022 -0.1025
 2279TIP3    H131032   5.387   7.534   8.325  1.3653  1.1809 -0.4193
 2279TIP3    H231033   5.310   7.491   8.202 -0.6228  1.0735  0.8162
 2280TIP3   OH231034   6.667   4.536   8.360  0.3616  0.4949  0.9825
 2280TIP3    H131035   6.591   4.586   8.330  1.6134  0.9044 -1.8002
 2280TIP3    H231036   6.672   4.462   8.299  1.4105 -0.2998  1.9857
 2281TIP3   OH231037   0.161   7.067   7.713 -0.2033 -0.2183 -0.3804
 2281TIP3    H131038   0.081   7.082   7.663  0.4534 -1.6658 -1.9762
 2281TIP3    H231039   0.221   7.027   7.650  2.1886  1.8158  0.4580
 2282TIP3   OH231040   4.437   6.931   8.402  0.1796  0.2266  0.1868
 2282TIP3    H131041   4.524   6.907   8.435  1.0569 -1.0646 -2.7418
 2282TIP3    H231042   4.439   6.907   8.309 -3.2878  0.2784 -0.0285
 2283TIP3   OH231043   4.649   0.793   8.588  0.1031 -0.3114 -0.1905
 2283TIP3    H131044   4.633   0.832   8.503  0.4423  0.9965  0.3169
 2283TIP3    H231045   4.739   0.817   8.609 -0.2277  0.0704  0.8676
 2284TIP3   OH231046   5.956   3.312   8.410 -0.1419  0.0904  0.0818
 2284TIP3    H131047   5.898   3.306   8.486 -0.0644 -1.0150  0.0654
 2284TIP3    H231048   5.938   3.398   8.373 -0.3339  0.5588  1.2248
 2285TIP3   OH231049   5.666   3.210   8.194  0.0212 -0.0870 -0.0517
 2285TIP3    H131050   5.757   3.195   8.165 -0.1608 -0.0085 -0.6735
 2285TIP3    H231051   5.616   3.213   8.113 -0.4675  0.3905  0.2680
 2286TIP3   OH231052   7.217   0.933   8.783 -0.5840 -0.6475  0.2689
 2286TIP3    H131053   7.269   1.012   8.772  0.3546 -1.0751  1.3998
 2286TIP3    H231054   7.126   0.962   8.769 -0.2255  0.5308  0.2721
 2287TIP3   OH231055   5.457   4.176   7.909  0.0492  0.0868  0.3083
 2287TIP3    H131056   5.511   4.250   7.938  2.7052 -0.7740 -1.9472
 2287TIP3    H231057   5.461   4.113   7.981 -1.1634  1.5634  1.7163
 2288TIP3   OH231058   2.758   7.487   8.866  0.8709  0.1241 -0.1736
 2288TIP3    H131059   2.754   7.499   8.961  0.9287  0.9037 -0.2657
 2288TIP3    H231060   2.779   7.574   8.831 -3.6409  1.0838 -1.2280
 2289TIP3   OH231061   0.623   4.353   8.599 -0.3676 -0.1000 -0.2235
 2289TIP3    H131062   0.574   4.308   8.668  0.9911 -0.7958  0.3238
 2289TIP3    H231063   0.578   4.437   8.588 -0.1914  0.3662  2.0618
 2290TIP3   OH231064   7.227   2.985   9.294  0.0634  0.2411 -0.0807
 2290TIP3    H131065   7.239   3.073   9.258  0.6861  0.1941 -0.0019
 2290TIP3    H231066   7.265   2.990   9.381  1.2989 -0.4459 -0.5576
 2291TIP3   OH231067   6.640   7.085   9.527  0.3324  0.2321  0.3771
 2291TIP3    H131068   6.642   7.024   9.453  1.3512 -1.3506  1.6263
 2291TIP3    H231069   6.592   7.038   9.595  1.0867  0.8318  1.3612
 2292TIP3   OH231070   3.607   0.327   8.913 -0.0931  1.0071 -0.0655
 2292TIP3    H131071   3.584   0.234   8.916  0.1544  0.9505  0.0710
 2292TIP3    H231072   3.640   0.346   9.000  1.7795  0.7209 -0.6660
 2293TIP3   OH231073   6.919   1.288   7.389  0.4124 -0.1927 -0.0389
 2293TIP3    H131074   6.893   1.244   7.309  2.8173  1.5956 -1.9923
 2293TIP3    H231075   6.841   1.288   7.444 -1.9877  0.1649 -3.1737
 2294TIP3   OH231076   1.567   4.697   8.669 -0.2345  0.4059  0.2842
 2294TIP3    H131077   1.533   4.786   8.673  1.2509  0.9630  1.4844
 2294TIP3    H231078   1.631   4.692   8.740  0.9124 -1.1067 -0.7720
 2295TIP3   OH231079   4.030   7.040   8.824 -0.0311 -0.8441 -0.0243
 2295TIP3    H131080   4.033   7.074   8.734  0.5541 -2.0555 -0.4794
 2295TIP3    H231081   4.094   7.093   8.871  0.3193 -0.8004 -0.5343
 2296TIP3   OH231082   3.678   5.986   9.199 -0.0681 -0.3829  0.0857
 2296TIP3    H131083   3.732   6.004   9.122 -0.9889 -0.2268 -0.5343
 2296TIP3    H231084   3.608   6.051   9.195 -0.2773 -0.5434  0.9128
 2297TIP3   OH231085   6.558   5.136   9.391  0.1472  0.2152  0.6373
 2297TIP3    H131086   6.510   5.218   9.379  0.8930  0.4733 -0.7192
 2297TIP3    H231087   6.515   5.073   9.333  0.4107  0.0103  0.6593
 2298TIP3   OH231088   4.528   3.392   7.790 -0.4397  0.2311 -0.6753
 2298TIP3    H131089   4.560   3.483   7.790  0.3654 -0.0224  0.6264
 2298TIP3    H231090   4.565   3.354   7.710 -0.4487  0.9390 -1.0257
 2299TIP3   OH231091   6.610   6.354   7.887 -0.0730  0.2513 -0.3860
 2299TIP3    H131092   6.649   6.441   7.883  0.2675  0.1107 -0.1552
 2299TIP3    H231093   6.525   6.364   7.844 -0.9323  1.1692  1.4322
 2300TIP3   OH231094   7.261   3.876   7.984 -0.3647 -0.0966  0.2340
 2300TIP3    H131095   7.204   3.939   8.028 -0.7801  1.8737 -2.8468
 2300TIP3    H231096   7.346   3.919   7.979 -0.2155 -0.4464 -0.4668
 2301TIP3   OH231097   2.585   3.329   9.074 -0.2819  0.5166  0.1052
 2301TIP3    H131098   2.502   3.374   9.092 -0.3090  0.6775 -0.3951
 2301TIP3    H231099   2.643   3.398   9.042 -0.5576  0.0967 -1.3953
 2302TIP3   OH231100   2.878   3.271   8.474  0.1147 -0.0431  0.1829
 2302TIP3    H131101   2.940   3.234   8.536  0.1624  0.4696  0.4437
 2302TIP3    H231102   2.803   3.212   8.476 -0.5473  0.7915  1.8886
 2303TIP3   OH231103   1.336   5.326   7.276  0.1895 -0.1135  0.0050
 2303TIP3    H131104   1.324   5.325   7.181  1.3137 -1.1392 -0.1602
 2303TIP3    H231105   1.359   5.416   7.296  1.0564 -0.1222 -0.8662
 2304TIP3   OH231106   3.539   6.842   7.361  0.0737 -0.2754 -0.0086
 2304TIP3    H131107   3.520   6.753   7.392 -0.3698  0.1676  1.0835
 2304TIP3    H231108   3.456   6.872   7.324 -0.2863  0.2599  1.1658
 2305TIP3   OH231109   0.716   2.025   8.368 -0.3007  0.2528 -0.4570
 2305TIP3    H131110   0.686   2.103   8.322  1.4750  0.9130 -0.5699
 2305TIP3    H231111   0.667   1.953   8.328 -1.2364  1.1845 -1.0411
 2306TIP3   OH231112   2.331   5.069   9.575  0.3198  0.0641 -0.4161
 2306TIP3    H131113   2.339   5.032   9.663 -0.8798  0.2539 -0.2132
 2306TIP3    H231114   2.370   5.002   9.518  1.8395  0.2901  0.3115
 2307TIP3   OH231115   6.696   5.141   7.896  0.4838 -0.0959  0.4430
 2307TIP3    H131116   6.743   5.125   7.814  0.0324 -0.4068  0.2354
 2307TIP3    H231117   6.615   5.185   7.868  1.1469  1.4724  0.8937
 2308TIP3   OH231118   0.668   5.841   8.193  0.0399  0.4198 -0.0519
 2308TIP3    H131119   0.758   5.826   8.222  0.4648  3.9234  0.8261
 2308TIP3    H231120   0.665   5.805   8.104  1.0471 -3.2976  1.2482
 2309TIP3   OH231121   7.245   6.702   8.895 -0.7344  0.1788 -0.2716
 2309TIP3    H131122   7.185   6.772   8.868  0.5868  1.5618  0.2228
 2309TIP3    H231123   7.331   6.744   8.896  0.0269 -1.3438  0.5244
 2310TIP3   OH231124   2.573   3.572   8.170 -0.2454 -0.1273 -0.3964
 2310TIP3    H131125   2.584   3.654   8.218 -1.9340  0.2072 -0.5152
 2310TIP3    H231126   2.662   3.549   8.141  0.5663  0.5432  1.4044
 2311TIP3   OH231127   0.208   6.472   7.518  0.4035 -0.0993  0.4854
 2311TIP3    H131128   0.200   6.551   7.571  0.2695 -0.7432  1.4557
 2311TIP3    H231129   0.258   6.499   7.441 -3.2635  1.9758 -1.4142
 2312TIP3   OH231130   2.602   4.512   7.799  0.1311 -0.2903 -0.4618
 2312TIP3    H131131   2.622   4.474   7.714  1.5600  2.8341 -1.6674
 2312TIP3    H231132   2.593   4.606   7.782 -0.9428  0.2849  2.6303
 2313TIP3   OH231133   3.028   1.607   8.211  0.2991  0.3350 -0.0838
 2313TIP3    H131134   2.944   1.645   8.185  0.9082  1.4079 -0.5168
 2313TIP3    H231135   3.012   1.572   8.299 -0.3054  1.5107  0.2911
 2314TIP3   OH231136   6.099   4.427   8.799  0.3537  0.0716 -0.2625
 2314TIP3    H131137   6.044   4.358   8.761  0.5387 -0.2011 -0.0343
 2314TIP3    H231138   6.189   4.395   8.788  0.5430  0.9735 -1.5562
 2315TIP3   OH231139   5.673   1.300   8.092 -0.7451 -0.1560  0.5322
 2315TIP3    H131140   5.736   1.363   8.128 -1.1270 -0.3680  1.6109
 2315TIP3    H231141   5.725   1.246   8.033 -0.3748  1.0376 -0.2604
 2316TIP3   OH231142   0.054   7.377   8.357 -0.2728 -0.2662 -0.0922
 2316TIP3    H131143   0.031   7.457   8.404  0.7767 -0.1987  0.3131
 2316TIP3    H231144   0.076   7.314   8.425 -1.4541 -1.0430 -0.3874
 2317TIP3   OH231145   0.456   3.341   7.137 -0.0527 -0.0383  0.1861
 2317TIP3    H131146   0.461   3.430   7.103 -0.9320  0.3958  1.1641
 2317TIP3    H231147   0.437   3.351   7.230  0.7170 -1.2396  0.5002
 2318TIP3   OH231148   0.182   6.667   7.695  0.3296  1.1643  0.3092
 2318TIP3    H131149   0.103   6.634   7.737  1.7554 -2.9376  0.2367
 2318TIP3    H231150   0.243   6.684   7.767  0.7962 -0.0589  0.2292
 2319TIP3   OH231151   2.211   5.902   9.243 -0.0209 -0.2879  0.5133
 2319TIP3    H131152   2.117   5.901   9.226  0.0873 -1.4943 -0.0988
 2319TIP3    H231153   2.251   5.892   9.157  0.6751  0.2371  0.7715
 2320TIP3   OH231154   0.239   5.481   8.098 -0.3136 -0.0221 -0.7036
 2320TIP3    H131155   0.268   5.438   8.018 -0.4830  1.3794 -1.5575
 2320TIP3    H231156   0.208   5.567   8.069 -1.8174 -0.0531  0.6603
 2321TIP3   OH231157   6.708   3.178   9.527 -0.0222  0.2209 -0.6001
 2321TIP3    H131158   6.724   3.182   9.433  2.0178 -0.4011 -0.3497
 2321TIP3    H231159   6.666   3.094   9.541  0.0096  0.1501 -0.9308
 2322TIP3   OH231160   2.854   3.254   9.317 -0.1524 -0.0256 -0.0650
 2322TIP3    H131161   2.899   3.243   9.233 -1.1180  0.8482 -0.7238
 2322TIP3    H231162   2.797   3.330   9.304 -0.8596 -0.3165  1.1585
 2323TIP3   OH231163   7.514   4.662   7.642  0.6905  0.3845  0.5382
 2323TIP3    H131164   7.595   4.696   7.680  1.1577 -0.2048  0.0750
 2323TIP3    H231165   7.445   4.705   7.693  1.2889  0.5620  1.2245
 2324TIP3   OH231166   3.487   3.915   9.889  0.3976 -0.0551 -0.3968
 2324TIP3    H131167   3.575   3.878   9.899  0.4767 -0.3553 -1.9530
 2324TIP3    H231168   3.442   3.853   9.831 -1.1003 -0.3097  0.9879
 2325TIP3   OH231169   1.403   2.543   9.718  0.3846 -0.0587 -0.0659
 2325TIP3    H131170   1.380   2.460   9.759  0.1517  0.2903  0.5242
 2325TIP3    H231171   1.360   2.541   9.633 -1.9250  0.5852  0.9960
 2326TIP3   OH231172   5.454   5.330   9.634  0.5738  0.3291  0.4928
 2326TIP3    H131173   5.449   5.393   9.562 -0.4578  1.0793  1.1935
 2326TIP3    H231174   5.538   5.286   9.621  0.6397  0.8009 -0.8671
 2327TIP3   OH231175   4.077   5.470   6.643 -0.0197  0.1096  0.0333
 2327TIP3    H131176   4.001   5.460   6.701 -1.7961  0.4097 -2.1301
 2327TIP3    H231177   4.047   5.439   6.558  2.2387  0.4567 -0.9664
 2328TIP3   OH231178   3.734   2.800   8.128  0.4627  0.3212  0.4864
 2328TIP3    H131179   3.708   2.824   8.039  0.3761  1.1549  0.7291
 2328TIP3    H231180   3.659   2.824   8.182  0.6005  0.0194  0.8096
 2329TIP3   OH231181   6.409   0.943   8.789 -0.1946  0.1015 -0.3931
 2329TIP3    H131182   6.396   1.018   8.847 -1.7889  0.7469 -1.5270
 2329TIP3    H231183   6.482   0.969   8.732 -0.2647  0.4902 -0.3091
 2330TIP3   OH231184   1.782   7.182   8.165  0.2848 -0.0956 -0.0889
 2330TIP3    H131185   1.769   7.263   8.114 -1.0006 -0.1766  0.0738
 2330TIP3    H231186   1.699   7.170   8.211  0.7871 -1.0319  0.5913
 2331TIP3   OH231187   7.174   1.243   7.451 -0.1887  0.0155  0.2877
 2331TIP3    H131188   7.084   1.266   7.427  0.5667  1.2291 -1.5954
 2331TIP3    H231189   7.225   1.258   7.371  1.8266  0.0686  1.5135
 2332TIP3   OH231190   6.136   3.576   7.534 -0.1372  0.6958  0.1876
 2332TIP3    H131191   6.073   3.515   7.495  0.0710 -0.3115  1.3739
 2332TIP3    H231192   6.214   3.568   7.480 -0.8732  1.7097 -1.0965
 2333TIP3   OH231193   6.445   4.482   7.338  0.1328 -0.2370  0.5970
 2333TIP3    H131194   6.490   4.535   7.273 -2.1357 -0.1509 -0.9980
 2333TIP3    H231195   6.439   4.538   7.415 -1.0936  1.4018 -0.6291
 2334TIP3   OH231196   7.355   5.836   8.199 -0.3147  0.0599  0.6202
 2334TIP3    H131197   7.390   5.909   8.147 -1.0412  0.1700  0.2724
 2334TIP3    H231198   7.408   5.761   8.173  0.0233  0.3351  0.5053
 2335TIP3   OH231199   0.718   4.393   8.118  0.1963 -0.2978  0.0216
 2335TIP3    H131200   0.637   4.429   8.152  0.9665  0.8561  0.7030
 2335TIP3    H231201   0.757   4.346   8.191  0.2021 -0.7671 -0.2754
 2336TIP3   OH231202   7.036   1.270   7.699 -0.0114  0.2920  0.1022
 2336TIP3    H131203   7.043   1.255   7.605  3.8735 -0.5453  0.3728
 2336TIP3    H231204   7.023   1.364   7.707 -0.8986  0.3181 -1.2354
 2337TIP3   OH231205   3.700   4.514   8.697 -0.1582  0.5470 -0.0553
 2337TIP3    H131206   3.716   4.605   8.671 -1.1572  0.8828  0.4733
 2337TIP3    H231207   3.683   4.519   8.791 -1.9696  0.0518 -0.3304
 2338TIP3   OH231208   7.063   6.168   8.609  0.2097 -0.8300 -0.3845
 2338TIP3    H131209   6.991   6.195   8.552  0.5215  2.4341  0.5314
 2338TIP3    H231210   7.139   6.161   8.551 -0.1018 -0.5975 -0.8243
 2339TIP3   OH231211   1.650   2.968   8.026  0.0332 -0.2563 -0.0253
 2339TIP3    H131212   1.581   2.968   7.959  0.0873 -2.1163 -0.1250
 2339TIP3    H231213   1.624   2.900   8.088  1.3996 -0.5006  0.3230
 2340TIP3   OH231214   2.872   4.310   9.143 -0.1250  0.4163  0.1030
 2340TIP3    H131215   2.812   4.384   9.129 -0.3542  0.4557  1.2008
 2340TIP3    H231216   2.916   4.330   9.225  1.1021  0.1734 -0.4800
 2341TIP3   OH231217   2.207   7.661   7.289 -0.0893 -0.2629 -0.2106
 2341TIP3    H131218   2.125   7.689   7.249 -1.1578 -1.9601  0.6763
 2341TIP3    H231219   2.211   7.708   7.372 -0.3764 -0.4996 -0.0635
 2342TIP3   OH231220   4.489   3.448   8.096  0.1047 -0.3969  0.2461
 2342TIP3    H131221   4.465   3.360   8.122  1.2689 -0.4144  1.3363
 2342TIP3    H231222   4.585   3.447   8.091  0.1686  0.9361  0.8059
 2343TIP3   OH231223   7.065   6.379   7.300  0.0815 -0.4264 -0.5895
 2343TIP3    H131224   7.060   6.318   7.226 -0.5444 -0.3738 -0.5909
 2343TIP3    H231225   6.974   6.400   7.321  0.2803  0.3023 -0.4171
 2344TIP3   OH231226   0.820   0.927   8.163 -0.1230 -0.2951  0.4646
 2344TIP3    H131227   0.768   1.008   8.156 -1.9509 -1.3537  1.1720
 2344TIP3    H231228   0.904   0.950   8.123 -1.4095  1.2457 -1.6121
 2345TIP3   OH231229   5.608   6.284   8.968 -0.7162  0.1748  0.3368
 2345TIP3    H131230   5.536   6.337   8.934 -0.4599 -0.8039 -1.9594
 2345TIP3    H231231   5.634   6.327   9.049 -1.6842  2.4622 -0.4916
 2346TIP3   OH231232   6.255   5.802   7.507  0.1328  0.1724  0.3403
 2346TIP3    H131233   6.297   5.850   7.578  1.5662 -2.1874  1.1900
 2346TIP3    H231234   6.310   5.819   7.430 -0.5110  1.4270  0.1260
 2347TIP3   OH231235   2.232   6.528   7.684 -0.0130  0.1912  0.7456
 2347TIP3    H131236   2.199   6.454   7.736 -0.6697 -0.9594 -1.2120
 2347TIP3    H231237   2.307   6.493   7.636  0.4424  1.1658  0.7226
 2348TIP3   OH231238   2.754   2.174   8.962 -0.6599  0.1737 -0.3690
 2348TIP3    H131239   2.759   2.203   9.053  2.3768  0.9141 -0.6743
 2348TIP3    H231240   2.669   2.130   8.956 -0.8153 -0.2239  2.9011
 2349TIP3   OH231241   7.521   5.400   9.423 -0.3435 -0.0540 -0.1975
 2349TIP3    H131242   7.597   5.442   9.384 -0.8097 -0.2073 -1.3157
 2349TIP3    H231243   7.529   5.308   9.398 -1.1176  0.0070 -0.7057
 2350TIP3   OH231244   6.509   7.348   8.480 -0.2860 -0.0472  0.2746
 2350TIP3    H131245   6.547   7.289   8.416 -1.8754 -1.5161  0.6191
 2350TIP3    H231246   6.456   7.408   8.428 -2.1941 -1.7127  0.1839
 2351TIP3   OH231247   5.337   7.500   8.998 -0.1150  0.2768  0.4515
 2351TIP3    H131248   5.377   7.436   9.057 -1.8195 -0.3025  1.0409
 2351TIP3    H231249   5.392   7.578   9.006  0.5021 -0.2643  1.7029
 2352TIP3   OH231250   2.146   4.025   8.639 -0.0205  0.7414 -0.2607
 2352TIP3    H131251   2.066   3.989   8.602 -0.2003  0.9079 -0.0406
 2352TIP3    H231252   2.141   4.119   8.620 -0.5572  0.9791  0.9699
 2353TIP3   OH231253   4.007   4.856   7.367  0.0330  0.1088 -0.1312
 2353TIP3    H131254   4.058   4.890   7.294 -1.2616 -2.9150 -2.6860
 2353TIP3    H231255   3.921   4.897   7.358 -0.5390 -1.2506 -1.2337
 2354TIP3   OH231256   3.810   5.561   9.127  0.2730 -0.7044 -0.3350
 2354TIP3    H131257   3.767   5.480   9.099 -0.6658  0.4196 -2.3475
 2354TIP3    H231258   3.836   5.604   9.046 -1.4717  2.1710  0.4748
 2355TIP3   OH231259   4.177   0.817   7.126 -0.1165 -0.1120  0.1598
 2355TIP3    H131260   4.108   0.759   7.094  0.1029  0.3558 -1.2140
 2355TIP3    H231261   4.165   0.898   7.078  0.3172  0.5889  1.2040
 2356TIP3   OH231262   3.487   6.139   7.996  0.3527  0.6366 -0.0445
 2356TIP3    H131263   3.549   6.211   7.986  0.1502  0.8610  0.2990
 2356TIP3    H231264   3.418   6.159   7.932  0.5542  0.4677 -0.3177
 2357TIP3   OH231265   6.394   3.153   9.416 -0.2262  0.2548  0.0819
 2357TIP3    H131266   6.371   3.061   9.429 -0.2286  0.0232 -1.3943
 2357TIP3    H231267   6.473   3.151   9.362 -0.9466  1.0887 -1.0747
 2358TIP3   OH231268   0.388   1.228   8.368 -0.3540 -0.1194  0.2199
 2358TIP3    H131269   0.429   1.143   8.357  1.3846  0.8098 -1.1072
 2358TIP3    H231270   0.296   1.214   8.347  0.1814 -1.3943 -1.4867
 2359TIP3   OH231271   3.546   3.347   8.175 -0.1604  0.1075  0.2507
 2359TIP3    H131272   3.496   3.291   8.116 -0.3577  2.3196 -1.8488
 2359TIP3    H231273   3.555   3.296   8.255 -0.6946 -2.6968 -1.3365
 2360TIP3   OH231274   2.665   3.449   9.492 -0.1172 -0.6125  0.0269
 2360TIP3    H131275   2.714   3.371   9.517  0.2026 -0.2722  0.4820
 2360TIP3    H231276   2.594   3.454   9.556 -1.1666 -1.4737 -1.0236
 2361TIP3   OH231277   0.321   5.199   6.848  0.6090 -0.6585  0.5751
 2361TIP3    H131278   0.253   5.205   6.781 -1.0567 -0.4285  2.2038
 2361TIP3    H231279   0.273   5.186   6.930  2.4390  0.9989  2.0122
 2362TIP3   OH231280   2.341   5.923   7.810 -0.1201 -0.2970  0.4882
 2362TIP3    H131281   2.253   5.900   7.780 -0.1211  1.0841 -0.7080
 2362TIP3    H231282   2.387   5.950   7.730  1.3614 -0.8451  1.1064
 2363TIP3   OH231283   1.503   2.272   9.328 -0.2149  0.2868 -0.1778
 2363TIP3    H131284   1.571   2.216   9.289  0.8829  2.0936 -0.9717
 2363TIP3    H231285   1.501   2.350   9.272 -2.1588  0.7920  0.5092
 2364TIP3   OH231286   4.993   0.463   8.250 -0.4534  0.0665 -0.0765
 2364TIP3    H131287   4.963   0.441   8.339  0.2623  2.4565  0.8191
 2364TIP3    H231288   4.915   0.499   8.207 -0.6034 -0.3565 -0.1640
 2365TIP3   OH231289   6.602   3.509   8.052 -0.5567 -0.0744  0.0669
 2365TIP3    H131290   6.629   3.442   7.990 -1.9549  1.1060 -1.9100
 2365TIP3    H231291   6.678   3.566   8.061  0.0996 -1.0014  0.5236
 2366TIP3   OH231292   6.487   6.867   7.975 -0.0947 -0.2416  0.7259
 2366TIP3    H131293   6.445   6.858   8.060 -1.2827 -0.3009  0.1455
 2366TIP3    H231294   6.415   6.882   7.914  0.9274  3.9459  0.2535
 2367TIP3   OH231295   4.008   5.090   8.462 -0.4843  0.4908  0.7672
 2367TIP3    H131296   4.097   5.073   8.430 -1.2338  1.0312 -1.8533
 2367TIP3    H231297   4.015   5.174   8.506  0.1652  0.9965 -0.2382
 2368TIP3   OH231298   5.329   6.014   7.773  0.2410  0.4016 -0.1377
 2368TIP3    H131299   5.388   5.974   7.836 -1.1029  0.3069  1.1293
 2368TIP3    H231300   5.295   5.940   7.722 -0.9600  0.0702  1.0812
 2369TIP3   OH231301   5.020   5.119   7.528 -0.3813 -0.0303  1.0400
 2369TIP3    H131302   5.084   5.161   7.471 -0.8211 -1.2643 -0.4381
 2369TIP3    H231303   5.066   5.044   7.564 -1.1230 -1.3422 -0.5936
 2370TIP3   OH231304   3.972   6.124   6.932 -0.6700  0.1104  0.7290
 2370TIP3    H131305   4.066   6.139   6.940 -0.7581  1.2853 -0.2253
 2370TIP3    H231306   3.947   6.082   7.015  0.8913 -1.3516  0.5142
 2371TIP3   OH231307   2.540   4.404   8.383 -0.0787 -0.0281  0.5747
 2371TIP3    H131308   2.445   4.392   8.387  0.0768 -1.2476  0.8047
 2371TIP3    H231309   2.572   4.326   8.338  0.9296 -0.1926  1.5456
 2372TIP3   OH231310   2.625   0.352   9.560 -0.4930 -0.0264  0.5359
 2372TIP3    H131311   2.669   0.274   9.528  0.1906  1.4002 -2.2846
 2372TIP3    H231312   2.671   0.374   9.641 -0.4480 -2.2684  1.1710
 2373TIP3   OH231313   1.778   2.605   8.760 -0.6054 -0.1474  0.0905
 2373TIP3    H131314   1.841   2.546   8.718 -0.2998  0.0579  0.2539
 2373TIP3    H231315   1.789   2.588   8.853  0.3539  1.0225  0.2169
 2374TIP3   OH231316   2.965   0.484   8.545 -0.2328  0.3153 -0.0923
 2374TIP3    H131317   2.961   0.511   8.453  0.7354 -0.0128 -0.2519
 2374TIP3    H231318   2.931   0.559   8.593 -1.4095  0.2242 -0.7531
 2375TIP3   OH231319   1.526   1.861   7.852 -0.2224  0.1119  0.2537
 2375TIP3    H131320   1.535   1.883   7.944  0.5095 -0.9721  0.4584
 2375TIP3    H231321   1.502   1.768   7.852  0.9320 -0.2062 -0.6631
 2376TIP3   OH231322   4.708   1.303   8.380  0.0883 -0.3625 -0.6702
 2376TIP3    H131323   4.787   1.255   8.353  2.6328  1.8919  2.0107
 2376TIP3    H231324   4.704   1.290   8.475 -2.4222  0.1990 -0.6229
 2377TIP3   OH231325   7.485   2.016   7.131 -0.3794 -0.1124 -0.2347
 2377TIP3    H131326   7.580   2.009   7.139 -0.3103  0.8681 -0.1716
 2377TIP3    H231327   7.453   1.931   7.163  0.4318 -0.1791  0.4499
 2378TIP3   OH231328   4.307   1.585   8.094  0.1882  0.3507  0.3185
 2378TIP3    H131329   4.274   1.506   8.051 -0.2329 -0.4598  2.0459
 2378TIP3    H231330   4.228   1.635   8.116 -0.0134 -1.2646  3.8422
 2379TIP3   OH231331   7.103   1.212   6.742 -0.7523 -0.0622  0.2513
 2379TIP3    H131332   7.158   1.134   6.739 -0.3007  0.2797 -1.2020
 2379TIP3    H231333   7.067   1.212   6.831  0.8759 -0.7782  0.9601
 2380TIP3   OH231334   6.742   7.512   9.832 -0.6252 -0.1964  0.0539
 2380TIP3    H131335   6.811   7.560   9.787 -0.2242  0.0264  0.8888
 2380TIP3    H231336   6.763   7.420   9.816  0.4186 -0.1584  1.0857
 2381TIP3   OH231337   1.339   0.245   9.387  0.2909 -0.2181  0.3574
 2381TIP3    H131338   1.412   0.272   9.332  0.8957  0.2189  1.3413
 2381TIP3    H231339   1.261   0.262   9.335  0.8840 -0.7658 -0.7376
 2382TIP3   OH231340   7.582   4.241   7.761  0.1778 -0.1462  0.4285
 2382TIP3    H131341   7.587   4.175   7.692  0.2088  0.3904 -0.0850
 2382TIP3    H231342   7.667   4.286   7.758 -0.3518  0.8483 -0.1676
 2383TIP3   OH231343   3.930   4.371   8.662  0.7687  0.4398 -0.4410
 2383TIP3    H131344   3.852   4.421   8.684 -0.0243 -0.8725 -0.1585
 2383TIP3    H231345   3.981   4.368   8.743  0.2414 -0.1741 -0.1131
 2384TIP3   OH231346   1.698   0.373   9.653 -0.3714 -0.1414  0.6453
 2384TIP3    H131347   1.719   0.364   9.560  0.4447  0.1429  0.8001
 2384TIP3    H231348   1.669   0.286   9.680 -1.1791 -0.0876 -0.0085
 2385TIP3   OH231349   1.124   0.718   7.366 -0.4050 -0.1843 -0.1585
 2385TIP3    H131350   1.096   0.767   7.443  0.2750 -1.0568  0.6681
 2385TIP3    H231351   1.043   0.685   7.328 -0.9310  2.0078 -1.0669
 2386TIP3   OH231352   5.955   7.525   8.975 -0.1882  0.3735 -0.3878
 2386TIP3    H131353   6.030   7.583   8.967  0.4458 -0.4914 -0.9003
 2386TIP3    H231354   5.949   7.507   9.069  0.0067  0.7499 -0.2996
 2387TIP3   OH231355   7.507   3.411   8.684 -0.2607 -0.5353 -0.2026
 2387TIP3    H131356   7.415   3.396   8.708 -0.7236 -1.5800 -2.3184
 2387TIP3    H231357   7.557   3.383   8.761 -1.6827 -0.3695  0.8232
 2388TIP3   OH231358   3.845   4.450   9.106 -0.2000 -0.2925 -0.4422
 2388TIP3    H131359   3.896   4.528   9.123  0.5493 -0.3118 -2.3091
 2388TIP3    H231360   3.904   4.377   9.129 -0.5919 -0.3336  0.4853
 2389TIP3   OH231361   1.286   6.021   7.485 -0.3775  0.5364 -0.6606
 2389TIP3    H131362   1.275   5.926   7.488 -1.6093  0.6811  0.1866
 2389TIP3    H231363   1.352   6.036   7.417 -1.3098 -0.8353 -1.9340
 2390TIP3   OH231364   5.737   0.562   8.838  0.0930 -0.2666  0.2718
 2390TIP3    H131365   5.754   0.650   8.803  0.9672 -1.3365 -2.2639
 2390TIP3    H231366   5.824   0.527   8.858  0.0911 -1.6430 -1.8093
 2391TIP3   OH231367   0.846   0.675   7.317  0.4512 -0.3051 -0.1731
 2391TIP3    H131368   0.783   0.747   7.307 -0.3578 -0.9589  0.1681
 2391TIP3    H231369   0.794   0.601   7.346  1.2729 -1.0620 -0.5902
 2392TIP3   OH231370   2.025   7.097   8.838  0.2761  0.0954 -0.2711
 2392TIP3    H131371   2.083   7.170   8.860  0.1576  0.2509 -0.4630
 2392TIP3    H231372   2.036   7.085   8.744 -1.5729  1.5477 -0.7383
 2393TIP3   OH231373   0.143   5.221   8.523 -0.5430  0.1515  0.6704
 2393TIP3    H131374   0.211   5.280   8.555 -0.2712 -0.8187  1.9830
 2393TIP3    H231375   0.185   5.173   8.451 -0.8913  1.7744 -0.6704
 2394TIP3   OH231376   6.003   7.509   9.468 -0.0187  0.1013 -0.5361
 2394TIP3    H131377   5.997   7.456   9.548  1.0134 -0.0921 -0.5662
 2394TIP3    H231378   5.913   7.528   9.445 -0.4035 -1.2517 -0.2550
 2395TIP3   OH231379   7.639   0.405   8.390 -0.0009  0.4039  0.1752
 2395TIP3    H131380   7.543   0.404   8.388  0.0133 -0.4840 -1.0718
 2395TIP3    H231381   7.665   0.421   8.299  1.0348  0.1384  0.4098
 2396TIP3   OH231382   3.955   6.246   7.772 -0.4956  0.1810 -0.0900
 2396TIP3    H131383   3.878   6.191   7.760 -0.2130 -0.2073 -0.1502
 2396TIP3    H231384   4.010   6.230   7.696  0.5907 -1.1283  0.9121
 2397TIP3   OH231385   7.597   6.448   6.693 -0.2932  0.1334  0.4309
 2397TIP3    H131386   7.518   6.412   6.731  1.2377 -1.5497  2.2258
 2397TIP3    H231387   7.663   6.380   6.704  1.5177  1.5813 -0.6831
 2398TIP3   OH231388   0.606   2.641   7.428 -0.0349 -0.1173 -0.3914
 2398TIP3    H131389   0.633   2.632   7.337  2.1853  1.6475  0.0159
 2398TIP3    H231390   0.687   2.654   7.477 -1.3199  1.6819  1.4569
 2399TIP3   OH231391   4.727   0.357   9.083 -0.1832  0.0625 -0.6415
 2399TIP3    H131392   4.671   0.369   9.006 -0.1064  1.7805 -0.4694
 2399TIP3    H231393   4.708   0.268   9.113 -0.7939 -0.3578 -2.1747
 2400TIP3   OH231394   6.300   5.630   9.875 -0.4592 -0.2423  0.1880
 2400TIP3    H131395   6.352   5.706   9.901  1.4481 -1.7004  0.9577
 2400TIP3    H231396   6.210   5.661   9.875  0.3706  2.4900 -1.3898
 2401TIP3   OH231397   5.899   1.329   7.091 -0.5727 -0.2441 -0.3207
 2401TIP3    H131398   5.948   1.409   7.111 -0.3443 -0.6869  1.0075
 2401TIP3    H231399   5.965   1.269   7.055 -0.2638 -0.5811  0.7640
 2402TIP3   OH231400   3.181   3.384   8.077  0.2046  0.5143 -0.3496
 2402TIP3    H131401   3.113   3.373   8.143 -1.8544  0.3979 -2.3820
 2402TIP3    H231402   3.214   3.296   8.061 -0.4160  0.3214 -0.5897
 2403TIP3   OH231403   2.068   7.333   8.441  0.0301 -0.4897 -0.3652
 2403TIP3    H131404   2.058   7.269   8.511  0.4326 -0.7604 -0.5533
 2403TIP3    H231405   2.162   7.338   8.426 -0.1215 -1.2828 -1.6669
 2404TIP3   OH231406   3.998   1.799   7.466 -0.2203  0.9086 -0.3576
 2404TIP3    H131407   3.909   1.777   7.439  0.5505  0.2669 -2.5757
 2404TIP3    H231408   4.020   1.877   7.415  1.4288 -0.5740 -2.0742
 2405TIP3   OH231409   6.934   7.367   8.037  0.7768  0.1932  0.3374
 2405TIP3    H131410   6.956   7.429   8.106 -2.8042  2.2097 -0.1025
 2405TIP3    H231411   6.921   7.284   8.083 -0.0532  1.1452  1.8996
 2406TIP3   OH231412   4.304   6.924   8.817 -0.0435  0.1393 -0.2634
 2406TIP3    H131413   4.287   7.000   8.761  0.8419  0.3290 -0.2860
 2406TIP3    H231414   4.327   6.961   8.902 -1.1829 -0.1476  0.1864
 2407TIP3   OH231415   7.258   4.018   8.336  0.2242  0.2637 -0.2560
 2407TIP3    H131416   7.214   4.032   8.252  0.8414 -0.5541 -0.7263
 2407TIP3    H231417   7.331   4.080   8.336  0.2649  0.2160 -0.3560
 2408TIP3   OH231418   2.012   0.051   7.976 -0.3725  0.0419 -0.2881
 2408TIP3    H131419   2.095   0.011   8.002 -1.2379 -1.0050  1.0056
 2408TIP3    H231420   2.029   0.090   7.890  2.3509  2.6320  1.2198
 2409TIP3   OH231421   0.374   6.513   9.003  0.2834  0.8478 -0.2708
 2409TIP3    H131422   0.418   6.579   9.055 -0.3524  0.1091  1.2560
 2409TIP3    H231423   0.398   6.429   9.043 -1.6932  0.3643  0.0485
 2410TIP3   OH231424   6.135   6.024   9.444 -0.1027 -0.6204 -0.0107
 2410TIP3    H131425   6.195   6.099   9.441 -1.5770  0.6449  0.4430
 2410TIP3    H231426   6.119   6.003   9.352  0.4308 -0.4790 -0.1402
 2411TIP3   OH231427   6.622   0.610   7.413  0.1834  0.1874  0.5053
 2411TIP3    H131428   6.589   0.692   7.376 -1.4867  0.1365  1.7945
 2411TIP3    H231429   6.593   0.610   7.504  1.9955 -0.8730  1.1458
 2412TIP3   OH231430   3.817   0.639   8.933 -0.2881  0.2377  0.7967
 2412TIP3    H131431   3.729   0.677   8.928 -0.5875 -0.2918  1.6569
 2412TIP3    H231432   3.842   0.651   9.025  0.5746  0.4547  0.5373
 2413TIP3   OH231433   3.144   2.960   9.683  0.4762 -0.1812  0.2590
 2413TIP3    H131434   3.173   3.039   9.639  0.4411 -0.8437 -1.0062
 2413TIP3    H231435   3.203   2.951   9.758  0.1367  1.3108  0.7391
 2414TIP3   OH231436   2.694   2.878   7.550  0.2997 -0.1071  0.4707
 2414TIP3    H131437   2.770   2.841   7.594  0.6845 -2.3791 -1.8775
 2414TIP3    H231438   2.716   2.876   7.457 -1.9030  0.9448 -0.1447
 2415TIP3   OH231439   5.706   4.468   7.659 -0.1225  0.4977  0.4086
 2415TIP3    H131440   5.760   4.449   7.736  0.2346 -1.0156 -0.1921
 2415TIP3    H231441   5.633   4.519   7.694  0.5558  0.7087  1.5807
 2416TIP3   OH231442   5.764   4.830   6.907 -0.4243 -0.2719  0.1074
 2416TIP3    H131443   5.729   4.743   6.924  0.1673 -0.7705 -1.0982
 2416TIP3    H231444   5.687   4.884   6.889 -0.7938 -0.5322  0.8659
 2417TIP3   OH231445   0.745   2.700   8.618  0.2225  0.2147  0.3840
 2417TIP3    H131446   0.655   2.668   8.625  0.4322 -0.2681  1.0320
 2417TIP3    H231447   0.795   2.626   8.583  0.4195  0.3764  0.3185
 2418TIP3   OH231448   3.093   7.245   6.990 -0.0602 -0.1166  0.3485
 2418TIP3    H131449   3.036   7.170   6.973  0.2374  0.1284 -2.0044
 2418TIP3    H231450   3.033   7.320   6.998 -0.4036 -0.5669  3.2202
 2419TIP3   OH231451   1.175   3.866   9.498  0.8482 -0.0420  0.1832
 2419TIP3    H131452   1.198   3.913   9.418  0.0842 -0.2558 -0.1724
 2419TIP3    H231453   1.205   3.776   9.482  1.6568  0.1480  0.5737
 2420TIP3   OH231454   6.491   6.203   9.150 -0.1427  0.0655  0.4628
 2420TIP3    H131455   6.468   6.142   9.079  0.6402 -1.7312  1.6921
 2420TIP3    H231456   6.578   6.235   9.127 -0.3544  0.3509  0.0531
 2421TIP3   OH231457   0.860   5.609   8.323  0.1627 -0.3955  0.2469
 2421TIP3    H131458   0.927   5.588   8.388  1.6953 -1.9512 -1.6961
 2421TIP3    H231459   0.869   5.704   8.310 -1.2778  0.2754  3.3222
 2422TIP3   OH231460   4.490   2.083   7.867 -0.0554  0.4148  0.2475
 2422TIP3    H131461   4.551   2.156   7.856  0.3178  0.0851  0.0677
 2422TIP3    H231462   4.538   2.020   7.920  1.0953 -1.2911 -2.5614
 2423TIP3   OH231463   6.006   6.354   9.556 -0.1075  0.6819 -0.0923
 2423TIP3    H131464   5.995   6.276   9.610  0.1367  0.4788 -0.3296
 2423TIP3    H231465   5.935   6.350   9.492  1.1216 -0.4856 -1.4544
 2424TIP3   OH231466   5.755   4.412   9.694  0.2064  0.0303 -0.2273
 2424TIP3    H131467   5.687   4.471   9.662  0.8290  1.1455  0.4382
 2424TIP3    H231468   5.710   4.329   9.709 -1.0868  0.8305  0.5167
 2425TIP3   OH231469   7.529   0.889   7.218  0.4290  0.0160  0.0708
 2425TIP3    H131470   7.473   0.908   7.294 -0.5662 -0.7318 -0.4440
 2425TIP3    H231471   7.548   0.975   7.180 -0.1350  0.3127  0.4396
 2426TIP3   OH231472   0.382   1.399   8.652 -0.7705 -0.1367  0.2647
 2426TIP3    H131473   0.383   1.386   8.747  0.6111  0.2092  0.3141
 2426TIP3    H231474   0.409   1.315   8.616 -1.9436 -0.4741  0.1285
 2427TIP3   OH231475   5.710   5.103   7.629  0.2237 -0.0906  0.1389
 2427TIP3    H131476   5.689   5.086   7.721 -0.2550 -1.3198 -0.1821
 2427TIP3    H231477   5.761   5.026   7.601  2.6384  1.4329  0.0584
 2428TIP3   OH231478   3.634   0.367   9.209 -0.1699 -0.5338  0.2664
 2428TIP3    H131479   3.572   0.427   9.250 -0.0129  1.2044 -1.8544
 2428TIP3    H231480   3.718   0.413   9.214  0.1343 -0.9846 -0.5467
 2429TIP3   OH231481   6.548   0.385   7.859  0.5713  0.1764  0.1990
 2429TIP3    H131482   6.488   0.413   7.790  1.5184 -0.5941 -0.9815
 2429TIP3    H231483   6.634   0.415   7.831  0.8136  1.0553  1.7519
 2430TIP3   OH231484   0.112   2.369   8.625  0.0517 -0.1547 -0.0290
 2430TIP3    H131485   0.060   2.427   8.680 -0.6279  0.0683 -0.8762
 2430TIP3    H231486   0.052   2.344   8.554  1.2925  0.7014 -1.4518
 2431TIP3   OH231487   4.436   6.291   9.089 -0.2377  0.3397 -0.4064
 2431TIP3    H131488   4.521   6.263   9.121 -0.3872  0.5267  0.1568
 2431TIP3    H231489   4.404   6.215   9.039 -0.9728 -0.8494  1.7447
 2432TIP3   OH231490   1.384   4.115   7.337 -0.0049  0.2673  0.0041
 2432TIP3    H131491   1.461   4.135   7.390  0.3389  1.5738 -0.9388
 2432TIP3    H231492   1.311   4.152   7.385  0.3164  1.5158 -0.4271
 2433TIP3   OH231493   2.804   1.532   7.849 -0.0647 -0.0003  0.3105
 2433TIP3    H131494   2.880   1.586   7.868 -0.2477  0.5620 -0.5130
 2433TIP3    H231495   2.832   1.443   7.870  1.0904  0.0984 -0.7207
 2434TIP3   OH231496   3.153   4.885   7.372  0.7059 -0.0526  0.2723
 2434TIP3    H131497   3.199   4.969   7.380 -1.1104  1.0569 -0.4066
 2434TIP3    H231498   3.152   4.867   7.278  0.1023 -0.2555  0.3129
 2435TIP3   OH231499   4.406   7.072   9.369  0.3298  0.0925  0.1388
 2435TIP3    H131500   4.441   6.985   9.351  0.3135  0.2361 -0.6582
 2435TIP3    H231501   4.343   7.087   9.298 -1.4463 -0.2017  1.5988
 2436TIP3   OH231502   5.861   4.015   8.086  0.2900  0.4224  0.2828
 2436TIP3    H131503   5.878   3.999   8.179 -0.6874  1.2697  0.6378
 2436TIP3    H231504   5.790   3.954   8.064  1.3893 -0.6880 -0.2682
 2437TIP3   OH231505   0.370   6.125   9.433  0.2526  0.0441 -0.1099
 2437TIP3    H131506   0.456   6.095   9.405  0.6806 -0.9234  2.0498
 2437TIP3    H231507   0.341   6.059   9.497 -0.3968  2.2916  2.0684
 2438TIP3   OH231508   2.655   4.867   9.694  0.4267 -0.1384  0.2103
 2438TIP3    H131509   2.686   4.800   9.633 -0.7115 -1.3371  0.8915
 2438TIP3    H231510   2.671   4.950   9.649 -0.6794 -0.9790 -1.8945
 2439TIP3   OH231511   4.342   2.932   9.196 -0.5806  0.5519  0.5274
 2439TIP3    H131512   4.271   2.989   9.223  0.2863  1.9201  0.0565
 2439TIP3    H231513   4.409   2.992   9.162  0.0065 -0.8101 -0.8300
 2440TIP3   OH231514   5.994   4.202   6.680 -0.9039  0.2198  0.0967
 2440TIP3    H131515   6.008   4.230   6.770 -0.2487 -0.8100  0.3396
 2440TIP3    H231516   5.985   4.283   6.630  0.7435  0.8620  0.7817
 2441TIP3   OH231517   6.702   2.981   8.535  0.1411  0.3757  0.0895
 2441TIP3    H131518   6.735   2.902   8.576 -0.1578  0.0970 -0.1921
 2441TIP3    H231519   6.662   3.031   8.606 -1.1149 -0.4858  0.0258
 2442TIP3   OH231520   0.998   7.289   9.820 -0.6736 -0.3838  0.3763
 2442TIP3    H131521   1.026   7.216   9.874 -0.7875  0.4833  1.6595
 2442TIP3    H231522   0.906   7.303   9.844 -0.1639  1.3122  1.5497
 2443TIP3   OH231523   4.338   7.588   8.736 -0.3169  0.1337  0.4298
 2443TIP3    H131524   4.430   7.610   8.724 -0.1408 -0.7465  0.1011
 2443TIP3    H231525   4.298   7.669   8.768  0.0743  1.3022 -1.8172
 2444TIP3   OH231526   3.069   6.672   7.588  0.0865  0.4985 -0.2579
 2444TIP3    H131527   3.002   6.693   7.523  0.5863  1.1429 -0.5753
 2444TIP3    H231528   3.142   6.729   7.567 -0.0028  1.2689  1.3178
 2445TIP3   OH231529   1.364   5.528   8.890  0.0362 -0.5076 -0.0973
 2445TIP3    H131530   1.270   5.527   8.874  0.0798 -2.9092 -0.4863
 2445TIP3    H231531   1.381   5.451   8.943  1.4145  1.6154  2.8193
 2446TIP3   OH231532   4.654   3.131   8.839  0.0803 -0.3128 -0.7251
 2446TIP3    H131533   4.746   3.138   8.864  0.1415 -0.4339 -0.9207
 2446TIP3    H231534   4.648   3.049   8.789 -0.0601 -0.1133 -1.0395
 2447TIP3   OH231535   3.365   2.186   9.001  0.1293  0.1114 -0.5957
 2447TIP3    H131536   3.389   2.095   9.015  0.7526  0.3003 -0.4323
 2447TIP3    H231537   3.285   2.198   9.052 -0.4473 -0.5729 -1.3166
 2448TIP3   OH231538   1.543   6.436   8.715 -0.2145  0.2508 -0.1933
 2448TIP3    H131539   1.529   6.416   8.808 -0.6522 -0.9164 -0.4941
 2448TIP3    H231540   1.489   6.514   8.699  0.5007  0.9581  0.7062
 2449TIP3   OH231541   6.080   6.154   8.297  0.1812 -0.2251 -0.0198
 2449TIP3    H131542   6.064   6.074   8.348  1.7840 -0.9664 -0.6319
 2449TIP3    H231543   6.061   6.129   8.207 -0.0504  0.3193 -0.1260
 2450TIP3   OH231544   1.226   1.442   6.735  0.0103  0.4089 -0.5385
 2450TIP3    H131545   1.254   1.393   6.813 -0.1291  1.6596  0.3152
 2450TIP3    H231546   1.167   1.382   6.690  0.4651 -0.5190  0.0579
 2451TIP3   OH231547   0.464   5.184   8.638 -0.1843  0.3187 -0.2336
 2451TIP3    H131548   0.425   5.263   8.676  0.2389  0.6432 -0.4681
 2451TIP3    H231549   0.395   5.118   8.645 -0.2338  0.4600  0.7911
 2452TIP3   OH231550   0.540   1.733   9.135  0.4391  0.5937  0.4677
 2452TIP3    H131551   0.553   1.827   9.124 -0.1236  0.6035 -0.1695
 2452TIP3    H231552   0.473   1.710   9.070  0.4852 -0.2231  0.6977
 2453TIP3   OH231553   4.684   4.556   7.188 -0.5868 -0.0839 -0.8208
 2453TIP3    H131554   4.722   4.643   7.178 -2.4509  0.6583 -2.0778
 2453TIP3    H231555   4.738   4.499   7.134  1.5523 -0.0760  1.1588
 2454TIP3   OH231556   4.178   4.679   8.361  0.3432 -0.2313 -0.1407
 2454TIP3    H131557   4.189   4.628   8.441  1.8874 -1.1281 -0.8901
 2454TIP3    H231558   4.248   4.745   8.365 -0.4622  0.6388 -0.0875
 2455TIP3   OH231559   5.964   3.267   7.673 -0.2494 -0.1577 -1.0158
 2455TIP3    H131560   6.025   3.339   7.679 -1.5113  1.0026 -1.4981
 2455TIP3    H231561   6.010   3.192   7.711  1.1841  0.8225 -0.7638
 2456TIP3   OH231562   1.778   5.012   7.827  0.2615  0.7882 -0.3032
 2456TIP3    H131563   1.834   5.072   7.778  0.1467 -1.8218 -3.9654
 2456TIP3    H231564   1.829   4.932   7.835 -1.5243 -0.3992 -0.3059
 2457TIP3   OH231565   2.530   4.009   9.320 -0.1202  0.1466  0.1417
 2457TIP3    H131566   2.436   3.998   9.302 -0.1601  0.1456  0.3541
 2457TIP3    H231567   2.535   4.021   9.415  0.1575 -0.4753  0.2085
 2458TIP3   OH231568   5.135   1.185   8.731 -0.5614  0.6865  0.1819
 2458TIP3    H131569   5.149   1.150   8.643  2.0951  0.1319  0.7306
 2458TIP3    H231570   5.117   1.109   8.785  0.2020  0.7116  0.4950
 2459TIP3   OH231571   6.410   6.833   9.421  0.8941  0.2122 -0.6085
 2459TIP3    H131572   6.458   6.761   9.461  0.3048 -0.4485 -1.0597
 2459TIP3    H231573   6.478   6.885   9.377  1.4086  0.3413  0.3248
 2460TIP3   OH231574   4.940   1.215   8.242 -0.7662 -0.5695  0.0374
 2460TIP3    H131575   4.985   1.248   8.320 -1.0502 -0.4480  0.1501
 2460TIP3    H231576   5.002   1.152   8.204 -0.0091  0.4442 -0.4609
 2461TIP3   OH231577   6.968   3.120   7.148 -0.7511 -0.4493  0.2990
 2461TIP3    H131578   7.038   3.101   7.086  0.1294 -1.6141  1.5722
 2461TIP3    H231579   6.887   3.098   7.101 -0.1267 -1.0212 -0.5308
 2462TIP3   OH231580   1.593   3.048   7.583 -0.5117  0.0037 -0.2312
 2462TIP3    H131581   1.662   3.072   7.646 -1.3995  1.1925  0.3470
 2462TIP3    H231582   1.640   3.009   7.510  0.5528 -1.5589  1.2169
 2463TIP3   OH231583   2.251   1.003   9.215  0.5424 -0.5817 -0.8679
 2463TIP3    H131584   2.307   1.050   9.277 -1.3882  0.6091  0.0638
 2463TIP3    H231585   2.254   1.056   9.135  1.9897 -1.4063 -1.3886
 2464TIP3   OH231586   4.615   4.123   8.101  0.1664  0.2597 -0.3407
 2464TIP3    H131587   4.587   4.214   8.112 -1.4016 -0.2606  0.3045
 2464TIP3    H231588   4.575   4.097   8.018  0.7714  0.2034 -0.6171
 2465TIP3   OH231589   2.540   3.624   7.640  0.0654 -0.5225 -0.0816
 2465TIP3    H131590   2.463   3.575   7.669  1.0172 -2.1747 -0.2292
 2465TIP3    H231591   2.548   3.695   7.703 -1.1804 -0.7084  0.3252
 2466TIP3   OH231592   0.723   0.321   9.593 -0.4861 -0.1009  0.0217
 2466TIP3    H131593   0.673   0.243   9.616 -0.3861 -0.1463  0.0820
 2466TIP3    H231594   0.791   0.290   9.533  1.3041 -0.5422  2.1619
 2467TIP3   OH231595   0.830   1.634   9.718 -0.5072 -0.0953 -0.1489
 2467TIP3    H131596   0.819   1.598   9.630  0.7379 -2.5983  0.6221
 2467TIP3    H231597   0.882   1.713   9.704 -1.2409  0.1498 -1.7394
 2468TIP3   OH231598   5.506   4.842   8.481  0.3810  0.2325 -0.4063
 2468TIP3    H131599   5.505   4.927   8.526  0.6685 -0.2860  0.6147
 2468TIP3    H231600   5.591   4.804   8.502  0.5928  0.0339 -1.5429
 2469TIP3   OH231601   1.291   6.584   8.679  0.2233 -0.4708  0.0948
 2469TIP3    H131602   1.301   6.669   8.721 -0.0809 -0.1848 -0.3982
 2469TIP3    H231603   1.228   6.600   8.608  2.3317 -0.4186 -1.8794
 2470TIP3   OH231604   6.897   4.996   9.481 -0.0848 -0.1060 -0.2684
 2470TIP3    H131605   6.858   5.062   9.539  0.3684 -1.5783  1.8625
 2470TIP3    H231606   6.981   5.034   9.456 -0.2224  0.5253  0.1810
 2471TIP3   OH231607   1.044   5.550   7.389  0.5861 -0.2513  0.5704
 2471TIP3    H131608   1.032   5.478   7.451 -1.7118 -0.5816 -0.1427
 2471TIP3    H231609   1.086   5.510   7.313 -0.9798 -0.9822  0.0430
 2472TIP3   OH231610   7.365   7.485   7.812  0.0833 -0.1544  0.0673
 2472TIP3    H131611   7.392   7.523   7.895 -0.2761  1.4795 -0.5336
 2472TIP3    H231612   7.375   7.556   7.748 -1.5625 -0.7529 -0.9237
 2473TIP3   OH231613   5.426   6.621   7.915  0.4831  0.2771  0.5600
 2473TIP3    H131614   5.496   6.674   7.879  0.1563 -0.7592 -1.7907
 2473TIP3    H231615   5.348   6.675   7.906  0.4418  0.1132 -0.1514
 2474TIP3   OH231616   4.055   1.770   7.757  0.6886 -0.1497  0.0482
 2474TIP3    H131617   4.124   1.837   7.764  0.9304 -0.4686  0.8087
 2474TIP3    H231618   4.035   1.766   7.664 -0.3059  1.9611  0.1063
 2475TIP3   OH231619   7.079   6.057   6.497  0.1713 -0.9198 -0.1477
 2475TIP3    H131620   7.018   6.104   6.554  0.4837 -0.7910  0.0889
 2475TIP3    H231621   7.088   6.112   6.420 -0.4772 -1.2349 -0.4489
 2476TIP3   OH231622   6.425   3.621   7.825 -0.1681  0.2019  0.3552
 2476TIP3    H131623   6.508   3.668   7.819 -0.6042  0.9534  0.1126
 2476TIP3    H231624   6.374   3.670   7.889 -0.4812 -0.1710  0.3962
 2477TIP3   OH231625   5.739   4.986   7.286  0.2288  0.2582  0.3165
 2477TIP3    H131626   5.700   5.049   7.226  0.9385  0.6891  0.2965
 2477TIP3    H231627   5.669   4.966   7.349 -1.0221 -1.3099 -1.4582
 2478TIP3   OH231628   6.226   2.730   7.908 -0.2386  0.0085  0.1844
 2478TIP3    H131629   6.161   2.669   7.872  0.1809  0.6339 -1.7914
 2478TIP3    H231630   6.219   2.807   7.851 -0.7236  1.8448  2.5788
 2479TIP3   OH231631   3.078   7.482   8.996 -0.7497  0.1969 -0.1991
 2479TIP3    H131632   3.013   7.431   9.045 -0.3634  0.5043  0.6493
 2479TIP3    H231633   3.043   7.570   8.993 -0.4105  0.3473  0.1947
 2480TIP3   OH231634   0.481   4.432   8.888  0.2247 -0.5456 -0.2612
 2480TIP3    H131635   0.428   4.503   8.853 -2.1542 -0.7189  2.6852
 2480TIP3    H231636   0.548   4.475   8.941 -0.9876 -0.4300  1.2203
 2481TIP3   OH231637   5.168   6.954   8.170 -0.2084  0.5195 -0.3141
 2481TIP3    H131638   5.177   7.042   8.207  3.4301 -0.3030  1.1782
 2481TIP3    H231639   5.214   6.959   8.087 -0.5680  0.1653 -0.5356
 2482TIP3   OH231640   0.666   7.639   6.559 -0.5134  0.0066 -0.0409
 2482TIP3    H131641   0.588   7.607   6.513 -1.6200  2.4715 -0.0333
 2482TIP3    H231642   0.724   7.563   6.563 -2.7772 -1.8529 -0.3011
 2483TIP3   OH231643   6.576   4.329   6.857 -0.0616  0.1867  0.0918
 2483TIP3    H131644   6.572   4.301   6.766  0.8113 -0.7858  0.3387
 2483TIP3    H231645   6.618   4.257   6.903  0.6093  1.1632  1.0606
 2484TIP3   OH231646   1.947   3.597   8.721  0.4123 -0.1612 -0.0338
 2484TIP3    H131647   1.956   3.503   8.735  2.1435 -0.0245  0.0047
 2484TIP3    H231648   1.900   3.605   8.638 -0.3999 -1.0486  0.3267
 2485TIP3   OH231649   1.894   3.957   9.120 -0.2793 -0.6731 -0.0382
 2485TIP3    H131650   1.832   3.920   9.183 -1.1401 -0.4546 -0.7305
 2485TIP3    H231651   1.839   3.982   9.045  0.3346  1.4372  0.1534
 2486TIP3   OH231652   0.291   0.203   9.169 -0.1436  0.5117 -0.3215
 2486TIP3    H131653   0.309   0.293   9.143  1.4500 -0.1632 -1.7343
 2486TIP3    H231654   0.281   0.207   9.264 -3.4660  2.6585 -0.6208
 2487TIP3   OH231655   6.518   5.385   8.162 -0.0123 -0.4015  0.0277
 2487TIP3    H131656   6.563   5.364   8.243  0.0003 -0.7551 -0.0702
 2487TIP3    H231657   6.425   5.372   8.182 -0.1494  0.9708  0.4303
 2488TIP3   OH231658   3.231   2.238   8.680  0.2433 -0.0702 -0.6543
 2488TIP3    H131659   3.148   2.248   8.727  0.9540 -0.9314  0.8556
 2488TIP3    H231660   3.205   2.210   8.592 -1.0371 -1.7336  0.1973
 2489TIP3   OH231661   7.033   1.275   8.244 -0.0905  0.1043 -0.6169
 2489TIP3    H131662   6.975   1.345   8.214  0.0124  0.2591 -0.4575
 2489TIP3    H231663   7.117   1.318   8.261  0.0091 -0.0794 -0.6394
 2490TIP3   OH231664   0.880   5.386   6.739 -0.0023 -0.5545 -0.1808
 2490TIP3    H131665   0.821   5.357   6.809 -0.9174  0.1443 -0.6267
 2490TIP3    H231666   0.821   5.419   6.671  0.9222  0.6943 -0.4066
 2491TIP3   OH231667   1.549   4.041   7.624  0.1389  0.0760 -0.2221
 2491TIP3    H131668   1.481   3.974   7.618 -0.5041  0.7562 -0.8978
 2491TIP3    H231669   1.608   4.022   7.550  0.8778 -0.6923  0.5381
 2492TIP3   OH231670   4.968   7.100   8.578  0.3043  0.8565 -0.4421
 2492TIP3    H131671   5.044   7.053   8.544  1.1711  1.7054  0.2603
 2492TIP3    H231672   4.913   7.115   8.501 -0.3056 -1.7691 -0.6106
 2493TIP3   OH231673   7.080   4.039   8.720 -0.7418  0.4032 -0.1153
 2493TIP3    H131674   7.127   3.972   8.670  0.2138  1.2003 -0.3316
 2493TIP3    H231675   7.139   4.115   8.719 -0.9889  0.6638  1.6611
 2494TIP3   OH231676   2.717   6.203   7.798 -0.2508 -0.3831 -0.0877
 2494TIP3    H131677   2.735   6.109   7.793  1.0644 -0.1782  0.3872
 2494TIP3    H231678   2.782   6.243   7.740  0.3886  0.3526  1.1100
 2495TIP3   OH231679   5.345   6.082   8.909 -0.1925  0.2599 -0.0749
 2495TIP3    H131680   5.306   6.016   8.966  1.1122 -1.8348 -1.4443
 2495TIP3    H231681   5.272   6.113   8.855 -0.5276 -1.5340 -0.7158
 2496TIP3   OH231682   7.171   0.266   7.797 -0.2540  0.0410 -0.1090
 2496TIP3    H131683   7.171   0.352   7.755 -2.5062 -1.5873 -3.9150
 2496TIP3    H231684   7.088   0.263   7.844  0.0473  0.0915  0.4323
 2497TIP3   OH231685   2.915   7.044   6.931 -0.1198 -0.0404  0.2636
 2497TIP3    H131686   2.926   6.983   6.859  0.7646  0.7499 -0.3062
 2497TIP3    H231687   2.827   7.029   6.963 -0.3546 -0.7379 -0.6778
 2498TIP3   OH231688   7.417   5.640   9.494 -0.3412 -0.4781  0.6033
 2498TIP3    H131689   7.479   5.690   9.440 -0.2116 -0.6632  0.5805
 2498TIP3    H231690   7.439   5.549   9.477 -0.9515 -0.5616  0.1996
 2499TIP3   OH231691   0.825   7.587   7.077 -0.0896 -0.8032 -0.1060
 2499TIP3    H131692   0.860   7.584   6.988  0.3304  1.4569 -0.0716
 2499TIP3    H231693   0.881   7.526   7.126  1.2790 -0.2364 -0.8976
 2500TIP3   OH231694   4.400   4.875   7.632  0.5830 -0.2392 -0.3449
 2500TIP3    H131695   4.447   4.955   7.608 -0.1801  0.0115 -1.0513
 2500TIP3    H231696   4.468   4.808   7.637  1.0985  0.2463 -0.7148
 2501TIP3   OH231697   1.748   0.335   9.381  0.1495  0.1039 -1.0564
 2501TIP3    H131698   1.765   0.429   9.380 -0.0467  0.2106  1.0992
 2501TIP3    H231699   1.805   0.299   9.313  2.4950  1.4482  0.0823
 2502TIP3   OH231700   5.189   0.043   9.248 -0.4507  0.6286 -0.3560
 2502TIP3    H131701   5.136   0.096   9.188 -0.2896  1.9320  0.5852
 2502TIP3    H231702   5.263   0.100   9.270 -1.2319  0.8161  2.1596
 2503TIP3   OH231703   1.723   1.678   8.118  0.4174 -0.7347 -0.5907
 2503TIP3    H131704   1.681   1.739   8.178 -1.4802 -0.0612 -2.4844
 2503TIP3    H231705   1.738   1.599   8.170  1.7729  0.8466  1.5743
 2504TIP3   OH231706   3.773   6.855   9.211  0.1491 -0.0993  0.1093
 2504TIP3    H131707   3.811   6.843   9.123  1.3449 -0.0133  0.5915
 2504TIP3    H231708   3.830   6.805   9.269 -0.6761 -0.2188  0.8390
 2505TIP3   OH231709   0.087   7.592   7.212 -0.3333 -0.4126 -0.2183
 2505TIP3    H131710   0.139   7.545   7.147 -0.7165 -1.8122  0.4448
 2505TIP3    H231711   0.002   7.605   7.169 -0.7489 -1.7761  0.1485
 2506TIP3   OH231712   6.278   6.677   9.167 -0.1582 -0.0694  0.3134
 2506TIP3    H131713   6.242   6.736   9.100  0.1560 -0.3115 -0.0761
 2506TIP3    H231714   6.308   6.736   9.237  0.6457  0.2854 -0.3075
 2507TIP3   OH231715   5.692   4.664   8.685 -0.2975 -0.7722  0.1847
 2507TIP3    H131716   5.698   4.725   8.759  0.5426  0.0072 -0.5159
 2507TIP3    H231717   5.738   4.707   8.614 -2.7787 -0.5916 -1.4438
 2508TIP3   OH231718   0.890   1.732   8.094 -0.1521 -0.1089 -0.3190
 2508TIP3    H131719   0.938   1.675   8.034 -0.9567 -0.3473 -0.7454
 2508TIP3    H231720   0.941   1.813   8.096  0.4381 -0.4703 -0.5135
 2509TIP3   OH231721   5.962   4.235   9.565  0.0365 -0.1130 -0.4392
 2509TIP3    H131722   5.950   4.278   9.480 -1.4813 -0.3529 -0.3826
 2509TIP3    H231723   5.890   4.268   9.619 -0.8675 -2.2605 -0.2246
 2510TIP3   OH231724   5.036   0.813   9.487 -0.0580 -0.3117  0.0526
 2510TIP3    H131725   4.987   0.884   9.527 -1.7649 -0.8361 -0.9987
 2510TIP3    H231726   5.046   0.839   9.395  0.7238 -0.6966  0.0163
 2511TIP3   OH231727   3.748   4.256   8.210 -0.1788  0.8039 -0.2195
 2511TIP3    H131728   3.673   4.302   8.247 -0.2848 -0.1785  0.8241
 2511TIP3    H231729   3.710   4.181   8.164  0.1598  0.3209  0.2812
 2512TIP3   OH231730   0.809   2.401   9.261 -0.1716  0.5365 -0.8553
 2512TIP3    H131731   0.810   2.487   9.220  1.2542  0.7815 -0.3390
 2512TIP3    H231732   0.732   2.402   9.318 -0.1847  1.4505 -0.8811
 2513TIP3   OH231733   5.764   6.588   7.082 -0.4235  0.1059 -0.0798
 2513TIP3    H131734   5.670   6.590   7.099 -0.6136  0.2551 -1.0841
 2513TIP3    H231735   5.804   6.624   7.161 -1.1541 -0.6936  0.6784
 2514TIP3   OH231736   1.147   1.415   7.054  0.3217  0.2896  0.3430
 2514TIP3    H131737   1.236   1.423   7.087 -0.2524 -0.0468  2.0745
 2514TIP3    H231738   1.115   1.505   7.048  1.2726  0.5560 -1.9062
 2515TIP3   OH231739   5.012   4.411   7.664 -0.0437 -0.6662 -0.6715
 2515TIP3    H131740   4.965   4.494   7.654  0.6360 -0.0110  1.2293
 2515TIP3    H231741   5.078   4.413   7.594  0.0998  0.4989 -0.5180
 2516TIP3   OH231742   3.246   5.871   7.921 -0.6663  0.3416 -0.0587
 2516TIP3    H131743   3.242   5.807   7.992 -1.4522  0.6211  0.1541
 2516TIP3    H231744   3.336   5.904   7.924 -0.7741  0.5712  1.0003
 2517TIP3   OH231745   5.708   2.831   9.467 -0.2375  0.7891  0.1100
 2517TIP3    H131746   5.668   2.917   9.463  0.3729  1.0550 -0.5871
 2517TIP3    H231747   5.800   2.848   9.483 -0.5804  0.1270  3.3119
 2518TIP3   OH231748   1.961   1.965   8.260  0.1951 -0.0534 -0.1644
 2518TIP3    H131749   2.046   1.935   8.230  0.3181  0.4226 -0.2913
 2518TIP3    H231750   1.916   1.993   8.180  1.5231  3.8428  0.2468
 2519TIP3   OH231751   2.700   4.979   7.227 -0.3454  0.3673 -0.1050
 2519TIP3    H131752   2.659   5.064   7.214 -1.4484  0.2400  2.0938
 2519TIP3    H231753   2.628   4.920   7.249  0.6456 -0.6087  0.6624
 2520TIP3   OH231754   6.593   5.459   9.639  0.1085  0.9545  1.1376
 2520TIP3    H131755   6.577   5.523   9.708  3.8208  1.9381  1.3082
 2520TIP3    H231756   6.640   5.508   9.571  0.5588 -0.9809 -0.0380
 2521TIP3   OH231757   1.973   4.515   7.373 -0.7320 -0.5515  0.2409
 2521TIP3    H131758   1.985   4.449   7.304  0.2494 -0.0940 -0.0360
 2521TIP3    H231759   1.890   4.557   7.351 -1.3586 -1.6569  0.3986
 2522TIP3   OH231760   1.927   6.981   9.298  0.1407 -0.2337 -0.3782
 2522TIP3    H131761   1.977   6.933   9.232 -2.1486 -0.6115 -1.9602
 2522TIP3    H231762   1.903   6.914   9.362 -1.5146 -0.9457 -1.6445
 2523TIP3   OH231763   7.406   5.256   7.686  0.6551  0.2024  0.3669
 2523TIP3    H131764   7.444   5.183   7.637 -2.0029 -0.2455 -1.2438
 2523TIP3    H231765   7.346   5.297   7.625 -0.9184  1.2581  2.4845
 2524TIP3   OH231766   1.556   0.882   8.254 -0.0020  0.2933 -0.1113
 2524TIP3    H131767   1.605   0.853   8.331 -1.8487  0.3478  1.1481
 2524TIP3    H231768   1.603   0.960   8.224  0.6596  0.3671  1.0407
 2525TIP3   OH231769   4.256   7.523   7.465  0.1244 -0.0789 -0.4595
 2525TIP3    H131770   4.288   7.506   7.376  1.6557 -0.0673  0.0707
 2525TIP3    H231771   4.209   7.606   7.458 -0.0612 -0.2440 -1.3264
 2526TIP3   OH231772   3.912   0.751   8.136 -0.3341 -0.2644 -0.2906
 2526TIP3    H131773   3.979   0.689   8.166  0.8235  1.7957  1.7770
 2526TIP3    H231774   3.872   0.782   8.217 -1.6691  0.8421 -1.3405
 2527TIP3   OH231775   5.769   5.501   8.334 -0.3762 -0.1848  0.5458
 2527TIP3    H131776   5.691   5.532   8.288 -1.7259 -0.4095  2.5243
 2527TIP3    H231777   5.743   5.416   8.370  0.8921 -0.3989  1.0059
 2528TIP3   OH231778   7.614   5.227   8.923  0.5306  0.3839 -0.3518
 2528TIP3    H131779   7.535   5.281   8.928  1.2291  1.3106  2.8791
 2528TIP3    H231780   7.674   5.279   8.869  1.0864  2.9159  2.4437
 2529TIP3   OH231781   3.437   4.274  10.219  0.2949  0.5631  0.2031
 2529TIP3    H131782   3.434   4.330  10.296  2.3803 -2.9826  3.2344
 2529TIP3    H231783   3.527   4.282  10.187  0.2008  0.0418 -0.2065
 2530TIP3   OH231784   1.193   5.153   7.684 -0.3592 -0.2897 -0.1500
 2530TIP3    H131785   1.234   5.133   7.600  1.0245  0.6090  0.2796
 2530TIP3    H231786   1.141   5.075   7.704  1.0050 -1.4104 -0.8193
 2531TIP3   OH231787   7.650   5.731   6.609  0.0054  0.0954  0.1658
 2531TIP3    H131788   7.744   5.733   6.631 -0.6406 -1.8840  3.9369
 2531TIP3    H231789   7.638   5.647   6.565 -0.2140 -0.6397  1.5484
 2532TIP3   OH231790   2.217   5.999   7.079  0.5470  0.9119  0.1569
 2532TIP3    H131791   2.264   5.939   7.137  0.1862  0.5062  0.0350
 2532TIP3    H231792   2.127   5.966   7.077  0.1209  1.9485  0.7637
 2533TIP3   OH231793   0.267   6.409   7.980 -0.6206  0.2851 -0.2806
 2533TIP3    H131794   0.321   6.333   7.957 -2.0419 -0.5013 -1.1696
 2533TIP3    H231795   0.284   6.472   7.910 -0.1102  0.4455 -0.0184
 2534TIP3   OH231796   6.900   0.621   7.596  0.3539 -0.0495 -0.0600
 2534TIP3    H131797   6.962   0.669   7.542 -0.0627  1.7067  0.9488
 2534TIP3    H231798   6.854   0.688   7.646 -0.0072 -1.5238  1.7003
 2535TIP3   OH231799   5.498   2.518   8.526 -0.0282  0.0979  0.7413
 2535TIP3    H131800   5.534   2.522   8.615  2.9350 -2.0590 -0.2053
 2535TIP3    H231801   5.452   2.435   8.522  1.7466 -0.9069 -0.2618
 2536TIP3   OH231802   3.842   2.125   7.534  0.0711 -0.2895 -0.2398
 2536TIP3    H131803   3.775   2.181   7.574 -0.0057  0.8114 -1.7763
 2536TIP3    H231804   3.909   2.114   7.602 -0.7020  0.3084  0.6401
 2537TIP3   OH231805   0.180   2.023   7.497 -0.2539  0.3376 -0.2329
 2537TIP3    H131806   0.084   2.029   7.500 -0.2237  0.8780 -0.1605
 2537TIP3    H231807   0.209   2.110   7.526  0.2533  0.2915 -0.6041
 2538TIP3   OH231808   3.116   4.803   7.979 -0.1879 -0.3526 -0.3059
 2538TIP3    H131809   3.068   4.861   7.919 -1.2612 -2.1538 -1.2779
 2538TIP3    H231810   3.053   4.784   8.049  0.0356 -0.5999 -0.1694
 2539TIP3   OH231811   3.108   4.726   8.716  0.6301 -0.2672  0.3633
 2539TIP3    H131812   3.203   4.725   8.728  1.0599  3.3186 -1.3984
 2539TIP3    H231813   3.073   4.737   8.804  1.8926 -0.7935  0.9553
 2540TIP3   OH231814   5.107   1.130   9.519  0.0082  0.0437 -0.1742
 2540TIP3    H131815   5.030   1.095   9.564 -2.1965 -0.3440 -3.7564
 2540TIP3    H231816   5.163   1.055   9.503 -0.6440 -0.3716 -0.5698
 2541TIP3   OH231817   3.236   5.231   8.061 -0.2105 -0.0918 -0.2503
 2541TIP3    H131818   3.301   5.301   8.066 -0.5057  0.0871  3.0244
 2541TIP3    H231819   3.284   5.152   8.087 -0.9831 -0.1588  1.0699
 2542TIP3   OH231820   5.600   1.026   7.243 -0.0148 -0.0444 -0.2881
 2542TIP3    H131821   5.531   0.963   7.266 -0.7884  0.6849 -0.5836
 2542TIP3    H231822   5.619   1.008   7.151 -0.4569  0.3495 -0.4603
 2543TIP3   OH231823   6.731   5.784   9.576 -0.5402 -0.1684  0.2385
 2543TIP3    H131824   6.818   5.788   9.615  0.5072 -0.9445 -1.8563
 2543TIP3    H231825   6.734   5.709   9.516 -1.6844  1.4739 -2.0403
 2544TIP3   OH231826   3.003   5.555   7.639  0.2755  0.5036  0.3437
 2544TIP3    H131827   2.983   5.468   7.605 -3.4207  1.1001  0.5444
 2544TIP3    H231828   3.019   5.541   7.732 -2.0309  0.0821  0.7546
 2545TIP3   OH231829   0.019   6.430   8.309  0.0134 -0.4937  0.0973
 2545TIP3    H131830   0.096   6.473   8.344  0.8103 -0.7366 -1.2789
 2545TIP3    H231831   0.052   6.349   8.270 -0.7164 -0.0299 -1.6041
 2546TIP3   OH231832   6.673   3.615   9.159  0.2766 -0.0908  0.0047
 2546TIP3    H131833   6.724   3.554   9.106 -0.7834  0.4063 -1.6797
 2546TIP3    H231834   6.638   3.678   9.095 -0.1359  1.2050  1.4611
 2547TIP3   OH231835   5.538   1.499   7.404 -0.2853 -0.6349 -0.1274
 2547TIP3    H131836   5.603   1.568   7.417  0.4657 -1.0565 -1.3890
 2547TIP3    H231837   5.588   1.426   7.367 -1.1005 -1.7729  0.9260
 2548TIP3   OH231838   6.446   3.002   6.657  0.2704 -0.0869 -0.1083
 2548TIP3    H131839   6.424   2.912   6.680 -1.4037  0.4658  0.5665
 2548TIP3    H231840   6.516   3.026   6.718  0.9966 -1.0190 -0.5400
 2549TIP3   OH231841   5.402   3.564   8.785 -0.6302 -0.2122  0.8445
 2549TIP3    H131842   5.465   3.498   8.814 -1.4102 -1.3627  0.0527
 2549TIP3    H231843   5.397   3.627   8.857  2.8137  1.0172  0.2050
 2550TIP3   OH231844   5.288   3.352   9.176 -0.1660 -0.6263  0.5682
 2550TIP3    H131845   5.242   3.416   9.122 -0.0213 -0.2474  0.8958
 2550TIP3    H231846   5.374   3.391   9.192 -0.5663 -0.2427  1.9620
 2551TIP3   OH231847   6.178   0.394   7.989 -0.1183 -0.3120 -0.4420
 2551TIP3    H131848   6.246   0.354   8.043 -0.8741  0.0441  0.8223
 2551TIP3    H231849   6.159   0.329   7.922  0.1629 -1.1890  0.3082
 2552TIP3   OH231850   0.666   2.422   7.623 -0.2431  0.1154 -0.3501
 2552TIP3    H131851   0.599   2.490   7.622 -0.7190 -0.3591 -1.1419
 2552TIP3    H231852   0.735   2.458   7.679 -0.4223  1.3127 -0.8766
 2553TIP3   OH231853   3.123   1.889   8.904  0.7663  0.2634 -0.1865
 2553TIP3    H131854   3.041   1.909   8.950  1.8564  1.1996  1.4469
 2553TIP3    H231855   3.103   1.906   8.812 -1.1853 -0.6469  0.0079
 2554TIP3   OH231856   3.290   4.000   8.902 -0.0101 -0.0555 -0.1385
 2554TIP3    H131857   3.205   4.001   8.945  0.1963  0.6321  0.2775
 2554TIP3    H231858   3.288   4.076   8.843  0.0092 -0.5188 -0.7410
 2555TIP3   OH231859   1.100   4.063   7.379  0.2714 -0.4209  0.3108
 2555TIP3    H131860   1.075   4.023   7.462  2.2160 -0.9195  0.6865
 2555TIP3    H231861   1.136   3.992   7.327  2.7629  0.5445  0.5759
 2556TIP3   OH231862   0.712   7.142   7.814 -0.4472 -0.1826  0.2544
 2556TIP3    H131863   0.728   7.069   7.755  0.5954 -0.6088  1.0266
 2556TIP3    H231864   0.644   7.111   7.874  1.2073 -1.2430  1.6934
 2557TIP3   OH231865   0.053   3.857   8.901  0.3233 -0.1060 -0.3650
 2557TIP3    H131866  -0.003   3.792   8.859 -1.1271  0.5115  0.5016
 2557TIP3    H231867   0.108   3.808   8.961 -3.1725 -0.4070  2.9604
 2558TIP3   OH231868   6.805   0.221   8.935  0.3026  0.1085 -0.4131
 2558TIP3    H131869   6.762   0.195   9.017  1.6603 -0.8383  0.0408
 2558TIP3    H231870   6.751   0.183   8.866  0.7393 -1.6515  0.1609
 2559TIP3   OH231871   3.613   4.929   9.341  0.4481  0.9946  0.2095
 2559TIP3    H131872   3.657   4.932   9.256 -0.0334  0.2388 -0.0784
 2559TIP3    H231873   3.521   4.911   9.321  0.4410  0.1475  0.9098
 2560TIP3   OH231874   1.440   0.441   8.087 -0.6288  0.0936  0.1931
 2560TIP3    H131875   1.461   0.473   7.999 -2.2707  0.7938  0.0357
 2560TIP3    H231876   1.505   0.482   8.143  0.1396  0.0201 -0.6133
 2561TIP3   OH231877   0.171   0.485   7.965  0.0332 -0.1515 -0.1745
 2561TIP3    H131878   0.243   0.495   7.902  0.6987 -2.2302  0.1675
 2561TIP3    H231879   0.178   0.560   8.023  0.1945  1.1363 -1.8038
 2562TIP3   OH231880   7.086   2.892   7.980 -0.2481 -0.6262  0.8626
 2562TIP3    H131881   7.013   2.877   8.040  0.5481 -2.7843  1.3958
 2562TIP3    H231882   7.161   2.905   8.038  0.4868 -2.4707  0.3871
 2563TIP3   OH231883   4.975   2.247   7.315 -0.2657 -0.3557 -0.2349
 2563TIP3    H131884   4.990   2.304   7.240  1.0019  0.0858  0.3352
 2563TIP3    H231885   4.967   2.306   7.390 -1.0899 -0.8119  0.0536
 2564TIP3   OH231886   1.371   0.595   8.386 -0.1067  0.3743 -0.0402
 2564TIP3    H131887   1.305   0.650   8.429  0.1186  0.3870  0.2892
 2564TIP3    H231888   1.322   0.518   8.355  0.0027 -0.4118  1.6560
 2565TIP3   OH231889   2.787   5.108   8.162 -0.0587  0.1236  0.0844
 2565TIP3    H131890   2.712   5.118   8.103  0.0633 -0.7390 -0.2333
 2565TIP3    H231891   2.832   5.193   8.158 -0.4296  0.2981 -0.5386
 2566TIP3   OH231892   6.547   5.131   6.407  0.3000  0.0805 -0.5179
 2566TIP3    H131893   6.571   5.221   6.429 -0.1783  0.5432 -1.8466
 2566TIP3    H231894   6.615   5.102   6.346 -0.3458  0.0446 -1.2262
 2567TIP3   OH231895   6.196   6.704   7.121 -0.7045 -0.2288  0.7002
 2567TIP3    H131896   6.271   6.752   7.157 -0.8175  2.1500 -1.8818
 2567TIP3    H231897   6.121   6.760   7.140 -1.3800 -1.0980  0.6309
 2568TIP3   OH231898   3.749   4.995   8.561  0.1299  0.6194  0.6531
 2568TIP3    H131899   3.690   5.051   8.512  1.4896  0.5709 -1.1255
 2568TIP3    H231900   3.837   5.021   8.533  0.9026 -0.4444  1.9486
 2569TIP3   OH231901   4.313   0.790   8.698  0.6579  0.1276 -0.0836
 2569TIP3    H131902   4.321   0.822   8.608  1.5365  0.3437  0.0586
 2569TIP3    H231903   4.279   0.865   8.747 -0.0172 -0.0536 -0.2699
 2570TIP3   OH231904   5.724   0.537   7.842 -0.2191 -0.3018 -0.0159
 2570TIP3    H131905   5.687   0.526   7.930 -0.3609  1.0569  0.1287
 2570TIP3    H231906   5.817   0.552   7.857 -0.1769 -0.4585 -0.1251
 2571TIP3   OH231907   6.688   6.617   7.886  0.8118  0.2525  0.2274
 2571TIP3    H131908   6.676   6.698   7.836  2.6257  0.5196  0.1427
 2571TIP3    H231909   6.663   6.640   7.975 -2.0517 -0.1134 -0.3886
 2572TIP3   OH231910   6.623   3.324   8.466  0.0583 -0.6495  0.1144
 2572TIP3    H131911   6.595   3.284   8.548  0.9069 -0.6599  0.4061
 2572TIP3    H231912   6.554   3.301   8.403 -0.0520 -1.5768  0.5561
 2573TIP3   OH231913   1.220   1.360   8.447 -0.7588  0.4806 -0.0971
 2573TIP3    H131914   1.160   1.422   8.488 -1.1831 -0.3892  0.6327
 2573TIP3    H231915   1.274   1.328   8.519 -0.1941  0.3854 -0.5556
 2574TIP3   OH231916   6.309   2.903   8.667 -0.0216 -0.0069 -0.2307
 2574TIP3    H131917   6.326   2.849   8.743  0.0106  1.7671  1.0749
 2574TIP3    H231918   6.293   2.990   8.702  0.1466  0.9032 -2.2718
 2575TIP3   OH231919   1.240   1.718   8.071  0.0395 -0.0770 -0.2684
 2575TIP3    H131920   1.211   1.782   8.005  0.9385  1.2522  0.5684
 2575TIP3    H231921   1.310   1.669   8.028  0.9865  1.1400 -0.1671
 2576TIP3   OH231922   5.794   5.968   9.563  0.3892 -0.0417 -0.4730
 2576TIP3    H131923   5.783   6.018   9.482  0.5686 -0.6348 -0.8681
 2576TIP3    H231924   5.857   6.019   9.615  0.2911  0.3268 -0.7180
 2577TIP3   OH231925   0.355   1.992   6.999  0.0947  0.1727  0.1915
 2577TIP3    H131926   0.301   1.995   7.079 -1.6690  1.6492 -0.9782
 2577TIP3    H231927   0.442   1.970   7.031 -0.9993 -1.6553  2.2714
 2578TIP3   OH231928   5.408   3.630   8.476 -0.0614 -0.0158  0.1399
 2578TIP3    H131929   5.452   3.561   8.426  1.5265  0.1215  1.2586
 2578TIP3    H231930   5.390   3.591   8.561 -0.1848  0.5832  0.3954
 2579TIP3   OH231931   6.479   1.589   9.396 -0.1098 -0.4734 -0.0997
 2579TIP3    H131932   6.414   1.626   9.336  1.3171 -0.4580 -1.6898
 2579TIP3    H231933   6.460   1.630   9.480 -2.2918 -0.6476 -0.4482
 2580TIP3   OH231934   6.371   0.805   7.099 -0.2740  0.3078  0.1856
 2580TIP3    H131935   6.284   0.815   7.060  0.8547 -0.9059 -2.9282
 2580TIP3    H231936   6.383   0.711   7.108  0.9440  0.4185 -0.0534
 2581TIP3   OH231937   0.868   1.544   8.967 -0.1059 -0.3947 -0.3546
 2581TIP3    H131938   0.906   1.489   8.899  0.3065 -1.6244  0.8335
 2581TIP3    H231939   0.799   1.490   9.005  0.2940 -0.0849  0.8250
 2582TIP3   OH231940   2.713   4.976   6.581 -0.4640 -0.0914 -0.0307
 2582TIP3    H131941   2.752   5.022   6.656 -1.8275  1.0427  0.0274
 2582TIP3    H231942   2.724   4.883   6.602  4.1311 -0.0218 -1.0715
 2583TIP3   OH231943   6.121   3.524   8.873  0.8775  0.5413 -0.2907
 2583TIP3    H131944   6.126   3.618   8.888 -0.0387  0.7620 -1.2453
 2583TIP3    H231945   6.152   3.485   8.955 -1.3666  1.6705  1.2333
 2584TIP3   OH231946   1.512   6.491   8.971 -0.2820  0.9124  0.5460
 2584TIP3    H131947   1.521   6.583   8.949 -0.5728  1.0075  0.8101
 2584TIP3    H231948   1.578   6.475   9.039  1.4764  0.3186 -1.2013
 2585TIP3   OH231949   0.200   5.419   6.642  0.2562 -0.1469  0.2775
 2585TIP3    H131950   0.266   5.487   6.649  1.1200 -0.9545  0.1437
 2585TIP3    H231951   0.248   5.342   6.610 -0.7351 -0.7560  0.2146
 2586TIP3   OH231952   3.296   4.022   7.008  0.5022  0.2456  0.2757
 2586TIP3    H131953   3.274   4.108   7.042  3.4430  1.3968 -0.4737
 2586TIP3    H231954   3.376   3.997   7.054 -0.1730 -2.0685  0.3564
 2587TIP3   OH231955   4.166   6.124   8.102 -0.0019 -0.0966  0.2157
 2587TIP3    H131956   4.106   6.065   8.056 -0.3350  0.8721 -0.6230
 2587TIP3    H231957   4.239   6.068   8.128 -0.2644 -0.8599 -0.6238
 2588TIP3   OH231958   2.784   0.936   8.953  0.1666  0.0137  0.1843
 2588TIP3    H131959   2.807   0.843   8.966  1.5261  0.0401 -1.5450
 2588TIP3    H231960   2.689   0.939   8.960  0.1621 -1.3680  1.0624
 2589TIP3   OH231961   1.044   5.974   8.623  0.2692  0.2507  0.4794
 2589TIP3    H131962   1.093   5.923   8.687 -2.0133 -1.1619  1.2237
 2589TIP3    H231963   0.960   5.993   8.667 -0.0266  2.2828 -0.8258
 2590TIP3   OH231964   2.900   1.004   7.805 -0.3537  0.5815  0.3132
 2590TIP3    H131965   2.873   0.916   7.833  1.5550 -0.1937 -0.1208
 2590TIP3    H231966   2.854   1.019   7.723 -2.9769  1.2567  1.8158
 2591TIP3   OH231967   1.592   2.780   8.228 -0.2938  0.1038 -0.3907
 2591TIP3    H131968   1.593   2.698   8.178 -0.4853 -0.4591  0.5168
 2591TIP3    H231969   1.610   2.754   8.318 -2.4195  0.7970  0.2947
 2592TIP3   OH231970   6.389   3.158   8.466 -0.4605  0.1362  0.1945
 2592TIP3    H131971   6.321   3.101   8.502 -1.2137  0.2460 -0.9980
 2592TIP3    H231972   6.443   3.182   8.541 -1.2578 -0.6142  1.0258
 2593TIP3   OH231973   1.376   6.012   8.408  0.4627 -0.3216  0.3553
 2593TIP3    H131974   1.388   6.103   8.380  1.5723 -0.5668 -0.0105
 2593TIP3    H231975   1.297   6.014   8.463 -0.6985  0.4972 -1.2735
 2594TIP3   OH231976   5.101   3.914   8.703  0.0614  0.0533 -0.3622
 2594TIP3    H131977   5.058   3.907   8.617 -1.5267  1.4158  0.2755
 2594TIP3    H231978   5.144   3.829   8.715 -1.0009 -0.7429 -1.8175
 2595TIP3   OH231979   2.213   0.157   7.501 -0.4974 -0.2714 -0.3048
 2595TIP3    H131980   2.297   0.196   7.528  0.1207 -1.2446 -0.7644
 2595TIP3    H231981   2.187   0.102   7.575  0.3338 -1.5907 -0.9534
 2596TIP3   OH231982   2.837   3.285   7.910 -0.6978  0.8602 -0.3801
 2596TIP3    H131983   2.893   3.216   7.876  0.8363  1.7749  0.1953
 2596TIP3    H231984   2.792   3.319   7.832 -0.1524  0.3656 -0.9242
 2597TIP3   OH231985   6.140   0.079   7.977  0.2419 -0.2215  0.0189
 2597TIP3    H131986   6.066   0.018   7.981 -1.4088  1.7351  1.3323
 2597TIP3    H231987   6.180   0.074   8.063 -0.7536  1.4308  0.6357
 2598TIP3   OH231988   6.239   5.207   9.640  0.0950  0.0182 -0.0971
 2598TIP3    H131989   6.213   5.299   9.652 -0.3813 -0.1855  0.5123
 2598TIP3    H231990   6.199   5.182   9.557 -0.9106 -0.0102  0.3758
 2599TIP3   OH231991   2.039   1.875   8.517  0.0069  0.0290  0.0366
 2599TIP3    H131992   2.028   1.785   8.546  2.5146 -0.3819 -0.0910
 2599TIP3    H231993   1.987   1.881   8.436 -1.0388 -0.9477  0.6073
 2600TIP3   OH231994   1.360   4.476   7.821  0.1542  0.0432 -0.1475
 2600TIP3    H131995   1.268   4.463   7.800  0.2233  0.8147 -0.9933
 2600TIP3    H231996   1.359   4.521   7.906 -0.2065 -0.7677  0.2883
 2601TIP3   OH231997   1.042   5.364   7.591 -0.1621 -0.8667 -0.1225
 2601TIP3    H131998   1.092   5.284   7.607  0.4874 -0.8303 -1.8284
 2601TIP3    H231999   0.971   5.361   7.656  0.8866 -1.8993  1.0371
 2602TIP3   OH232000   6.924   2.182   8.146  0.8712 -0.1299 -0.3006
 2602TIP3    H132001   6.868   2.208   8.072  0.4696 -0.5195 -0.1358
 2602TIP3    H232002   7.011   2.173   8.107  1.0781  1.6219 -0.3355
 2603TIP3   OH232003   3.953   3.464   9.568 -0.3296 -0.2497  0.2080
 2603TIP3    H132004   3.930   3.379   9.530 -0.5111 -0.2766  0.3813
 2603TIP3    H232005   4.028   3.445   9.624  1.0882  0.0828 -1.4943
 2604TIP3   OH232006   0.050   1.659   8.684  0.0941  0.2564  0.1598
 2604TIP3    H132007   0.111   1.720   8.641  2.7575 -2.5839 -0.5040
 2604TIP3    H232008   0.074   1.664   8.777  0.2634  0.3009  0.1152
 2605TIP3   OH232009   5.926   3.787   8.396 -0.5521 -0.1934 -0.0055
 2605TIP3    H132010   6.007   3.748   8.364  0.9046  2.1089  0.6297
 2605TIP3    H232011   5.917   3.754   8.486 -0.8158 -1.1295 -0.3684
 2606TIP3   OH232012   7.127   7.069   9.550  0.2672  0.2144 -0.5937
 2606TIP3    H132013   7.063   7.139   9.565 -1.7542 -1.6887  0.2268
 2606TIP3    H232014   7.083   7.010   9.489  1.3011 -1.1009 -0.0972
 2607TIP3   OH232015   2.572   5.942   7.996  0.0540  0.0733 -0.2152
 2607TIP3    H132016   2.636   5.973   7.932  1.0340  0.7594  1.0397
 2607TIP3    H232017   2.500   5.908   7.943  1.1043 -0.0053 -1.6708
 2608TIP3   OH232018   5.854   6.046   9.280  0.4461 -0.8579  0.0826
 2608TIP3    H132019   5.930   6.000   9.245  1.7911  0.6910  0.8275
 2608TIP3    H232020   5.852   6.129   9.232  0.4188 -0.0623  1.4145
 2609TIP3   OH232021   3.471   4.109   7.543 -0.1639  0.4395 -0.1703
 2609TIP3    H132022   3.390   4.108   7.595 -0.8309 -0.5395 -1.1838
 2609TIP3    H232023   3.483   4.202   7.520 -0.9431  0.6149  0.0834
 2610TIP3   OH232024   3.244   5.071   7.656  0.5612 -0.3600  0.0306
 2610TIP3    H132025   3.282   5.068   7.569 -0.0928 -0.7803 -0.2500
 2610TIP3    H232026   3.314   5.041   7.714  1.3820  1.0264 -0.1971
 2611TIP3   OH232027   2.474   4.201   7.546 -0.5203 -0.0173 -0.2322
 2611TIP3    H132028   2.514   4.287   7.556  1.5372 -1.0673  1.2462
 2611TIP3    H232029   2.488   4.178   7.454 -0.1748  0.7877 -0.3841
 2612TIP3   OH232030   2.460   3.353   8.283 -0.3594  0.6505  0.3800
 2612TIP3    H132031   2.417   3.373   8.366 -0.2655  0.0094  0.5899
 2612TIP3    H232032   2.505   3.434   8.259  0.0809  0.6763  1.2410
 2613TIP3   OH232033   6.187   2.180   8.152  0.3282 -0.0526 -0.3192
 2613TIP3    H132034   6.225   2.263   8.182 -1.7715  0.9672 -0.3452
 2613TIP3    H232035   6.263   2.126   8.130  1.7606  1.8029 -0.1848
 2614TIP3   OH232036   1.842   3.512   7.791  0.1362 -0.5654  0.1313
 2614TIP3    H132037   1.917   3.547   7.840 -0.4637 -0.7993  1.2571
 2614TIP3    H232038   1.794   3.590   7.762  0.8370 -0.4136 -0.6457
 2615TIP3   OH232039   5.026   0.368   7.873  0.1332 -0.2222 -0.1294
 2615TIP3    H132040   4.930   0.372   7.877  0.0962  2.3830 -1.5272
 2615TIP3    H232041   5.051   0.313   7.947 -2.2682  2.2740  2.8324
 2616TIP3   OH232042   2.587   1.738   6.945  0.3621 -0.3901  0.3813
 2616TIP3    H132043   2.568   1.774   6.858 -1.9817  0.4680  1.1851
 2616TIP3    H232044   2.668   1.782   6.971  1.9292 -1.7025 -1.8650
 2617TIP3   OH232045   2.104   3.329   9.233  0.0369  0.7584  0.4754
 2617TIP3    H132046   2.153   3.248   9.249 -1.7741 -0.5133 -0.0657
 2617TIP3    H232047   2.150   3.371   9.160 -0.7214 -1.3922 -1.3559
 2618TIP3   OH232048   5.624   3.381   7.303 -0.0259  0.0350 -0.5343
 2618TIP3    H132049   5.670   3.370   7.386 -0.3741 -0.1214 -0.3597
 2618TIP3    H232050   5.563   3.307   7.299 -0.3936  0.3410 -0.6715
 2619TIP3   OH232051   2.601   0.329   7.058 -0.2293  0.0889 -0.0552
 2619TIP3    H132052   2.584   0.416   7.094 -0.3452 -0.1583  0.5060
 2619TIP3    H232053   2.615   0.344   6.965  1.9022  0.9892  0.3518
 2620TIP3   OH232054   3.478   1.721   9.337  0.3303  0.3499 -0.2210
 2620TIP3    H132055   3.554   1.692   9.386  0.9936  0.5531 -1.1019
 2620TIP3    H232056   3.503   1.806   9.301 -0.9571  1.2460  0.8870
 2621TIP3   OH232057   5.219   3.536   6.970 -0.3128 -0.1735  0.4184
 2621TIP3    H132058   5.170   3.566   7.047  2.2146  1.5151  1.4751
 2621TIP3    H232059   5.306   3.514   7.003  0.0806 -2.0016 -1.5748
 2622TIP3   OH232060   5.003   3.849   8.438  0.0835  0.1051  0.5136
 2622TIP3    H132061   4.942   3.776   8.448  1.6395 -1.0003  2.7640
 2622TIP3    H232062   5.084   3.809   8.406  0.3721  1.1677 -0.1441
 2623TIP3   OH232063   3.661   4.204   8.969  0.1020 -0.2474  0.0114
 2623TIP3    H132064   3.704   4.287   8.986  0.3699 -0.3120 -0.3297
 2623TIP3    H232065   3.623   4.215   8.881  0.2739 -0.5366 -0.1011
 2624TIP3   OH232066   3.592   3.880   7.403 -0.1532 -0.7866 -0.0113
 2624TIP3    H132067   3.566   3.964   7.441  1.0926 -0.6472  0.5782
 2624TIP3    H232068   3.685   3.871   7.426  1.4336  0.3644 -4.8375
 2625TIP3   OH232069   3.380   7.143   8.302  0.4256 -0.1917 -0.2886
 2625TIP3    H132070   3.454   7.202   8.289  0.5556 -0.4630 -0.7995
 2625TIP3    H232071   3.332   7.181   8.375  0.0975  0.9667 -1.0809
 2626TIP3   OH232072   1.600   4.984   8.526 -0.3899 -0.1814 -0.0114
 2626TIP3    H132073   1.611   4.960   8.618 -0.3010  0.0134  0.0286
 2626TIP3    H232074   1.688   5.002   8.495 -0.3725 -0.6657 -0.2533
 2627TIP3   OH232075   2.676   2.867   7.919  0.0347 -0.1818  0.2762
 2627TIP3    H132076   2.725   2.900   7.843  0.1479  0.4670  0.6256
 2627TIP3    H232077   2.670   2.772   7.904  2.5444 -0.4997  0.8457
 2628TIP3   OH232078   5.079   2.881   8.773  0.7044  0.2078 -0.0282
 2628TIP3    H132079   5.019   2.888   8.699  1.8183 -0.3832 -1.0010
 2628TIP3    H232080   5.142   2.953   8.760  0.3819  0.6668  0.8480
 2629TIP3   OH232081   1.681   1.890   7.149  0.0512  0.2730 -0.2130
 2629TIP3    H132082   1.671   1.844   7.066 -2.7017  0.8752 -0.3299
 2629TIP3    H232083   1.677   1.821   7.216  0.7730 -0.0741 -0.5238
 2630TIP3   OH232084   1.315   5.579   8.260  0.2796  0.3341  0.0096
 2630TIP3    H132085   1.315   5.579   8.356  0.0140  1.5036  0.0204
 2630TIP3    H232086   1.325   5.671   8.236  0.3917  0.0471 -1.0922
 2631TIP3   OH232087   4.440   4.757   8.401 -0.4315 -0.4594  0.3423
 2631TIP3    H132088   4.487   4.757   8.484  0.4408 -0.6322 -0.1424
 2631TIP3    H232089   4.505   4.730   8.336 -1.7463 -3.1293 -0.0338
 2632TIP3   OH232090   1.233   3.658   8.353  0.0419 -0.3858  0.1022
 2632TIP3    H132091   1.163   3.637   8.415  1.3827 -1.0034  1.4761
 2632TIP3    H232092   1.275   3.574   8.335  1.8967  0.2396  1.1984
 2633TIP3   OH232093   0.305   5.318   7.881  0.5528  0.3925  0.1392
 2633TIP3    H132094   0.281   5.234   7.921  0.7432 -1.8471 -3.9203
 2633TIP3    H232095   0.391   5.302   7.843  0.0519  1.9808 -1.8234
 2634TIP3   OH232096   7.239   0.763   9.003  0.0361  0.0280  0.4431
 2634TIP3    H132097   7.270   0.822   8.934 -0.5840  1.1545  1.1003
 2634TIP3    H232098   7.295   0.685   8.995  1.9684  1.3178  0.5550
 2635TIP3   OH232099   7.589   2.048   7.940  0.2073  0.6380 -0.1165
 2635TIP3    H132100   7.656   2.110   7.912  0.3304  0.5077 -0.1151
 2635TIP3    H232101   7.606   2.034   8.033 -0.6860  1.6710  0.2206
 2636TIP3   OH232102   0.476   3.656   8.601  0.0046  0.1215  0.1782
 2636TIP3    H132103   0.382   3.663   8.589 -0.2518 -0.7363  1.4884
 2636TIP3    H232104   0.495   3.710   8.677  0.2960 -1.0257  0.9524
 2637TIP3   OH232105   1.833   6.528   7.578 -0.0634  0.2357  0.1461
 2637TIP3    H132106   1.747   6.503   7.544  0.8319 -3.4622  0.1847
 2637TIP3    H232107   1.891   6.527   7.502  0.5107 -0.4911  0.5786
 2638TIP3   OH232108   6.550   5.568   8.800  0.0777  0.6304 -0.1709
 2638TIP3    H132109   6.553   5.567   8.896  0.0556 -0.4346 -0.1698
 2638TIP3    H232110   6.633   5.609   8.774 -0.0942  1.2927  0.3012
 2639TIP3   OH232111   5.274   5.992   8.503 -0.2512  0.0363 -0.2757
 2639TIP3    H132112   5.357   5.958   8.538 -0.2646  1.1761  0.9412
 2639TIP3    H232113   5.292   6.006   8.410  0.6584 -0.4960 -0.1980
 2640TIP3   OH232114   4.879   6.276   7.873  0.0413  0.2746  0.5544
 2640TIP3    H132115   4.838   6.190   7.882 -1.4133  0.8926  0.1086
 2640TIP3    H232116   4.969   6.257   7.847 -0.4494 -1.1009 -0.2311
 2641TIP3   OH232117   7.376   1.617   7.423 -0.2934 -0.2064  0.1640
 2641TIP3    H132118   7.300   1.663   7.458 -2.1090 -2.2751 -0.7565
 2641TIP3    H232119   7.404   1.559   7.494  0.6387  0.7354  0.5913
 2642TIP3   OH232120   5.977   6.284   8.518  0.6124  0.6476 -0.3960
 2642TIP3    H132121   6.009   6.368   8.486  4.2953 -0.8178 -0.9925
 2642TIP3    H232122   5.944   6.240   8.440 -0.4767  1.1316 -0.2313
 2643TIP3   OH232123   5.602   3.018   8.797 -0.2071  0.1694 -0.2521
 2643TIP3    H132124   5.671   2.972   8.750 -0.2550  1.8615 -2.1499
 2643TIP3    H232125   5.617   2.997   8.889  2.2280 -0.3117 -0.6927
 2644TIP3   OH232126   5.620   2.263   9.274 -0.3583  0.3631 -0.5180
 2644TIP3    H132127   5.709   2.229   9.267 -0.7324 -0.6690 -0.3535
 2644TIP3    H232128   5.565   2.198   9.231 -1.2057  0.1846  0.7796
 2645TIP3   OH232129   7.311   0.522   7.173  0.2282  0.1464  0.0275
 2645TIP3    H132130   7.225   0.506   7.136 -0.5245  0.5957  1.4880
 2645TIP3    H232131   7.347   0.595   7.123 -0.6278  0.5424 -0.0208
 2646TIP3   OH232132   3.052   3.874   7.029 -0.0351  0.2546 -0.3900
 2646TIP3    H132133   3.026   3.927   6.954  0.7427  0.4066 -0.5573
 2646TIP3    H232134   3.145   3.893   7.041 -0.3134  0.7853  1.0739
 2647TIP3   OH232135   3.271   1.620   8.688  0.9772 -0.0205  0.5852
 2647TIP3    H132136   3.243   1.632   8.779 -0.7042 -0.5538  0.1601
 2647TIP3    H232137   3.282   1.709   8.655  0.2164  0.1942  0.9011
 2648TIP3   OH232138   0.571   0.559   7.273  0.1154  0.5452 -0.1615
 2648TIP3    H132139   0.526   0.589   7.194 -0.4059  1.0509  0.3165
 2648TIP3    H232140   0.646   0.510   7.241  0.1236  1.0720 -0.9732
 2649TIP3   OH232141   7.286   3.213   9.149 -0.7781 -0.3131 -0.0273
 2649TIP3    H132142   7.323   3.289   9.195  0.6760 -2.0000  1.7715
 2649TIP3    H232143   7.362   3.167   9.114 -1.6359 -0.9499 -1.1165
 2650TIP3   OH232144   5.997   0.332   9.516 -0.1606  0.2236 -0.0618
 2650TIP3    H132145   6.023   0.249   9.475  0.5877  0.2129  0.4159
 2650TIP3    H232146   5.903   0.322   9.532 -0.2946 -0.1154 -0.9644
 2651TIP3   OH232147   3.085   7.125   8.709  0.1029  0.1790  0.4650
 2651TIP3    H132148   2.992   7.133   8.732 -0.4019 -1.5079 -0.7591
 2651TIP3    H232149   3.130   7.116   8.793 -1.0704 -0.7519  1.0254
 2652TIP3   OH232150   2.392   0.986   8.258  0.4960  0.4314 -0.5360
 2652TIP3    H132151   2.383   0.914   8.195  0.5306 -0.1010  0.0569
 2652TIP3    H232152   2.407   0.943   8.342  0.9599  1.1450 -0.2408
 2653TIP3   OH232153   4.302   1.782   8.299 -0.5743  0.5663 -0.3776
 2653TIP3    H132154   4.350   1.739   8.228  0.1581  0.9436 -0.1267
 2653TIP3    H232155   4.231   1.721   8.320  0.9795 -1.0056  0.6026
 2654TIP3   OH232156   0.214   0.113   6.475  0.0735 -0.0862  0.1888
 2654TIP3    H132157   0.198   0.020   6.463 -0.0140 -0.2109  1.1723
 2654TIP3    H232158   0.307   0.119   6.499  0.3820  0.2039 -0.9754
 2655TIP3   OH232159   4.467   2.551   7.217  0.2886 -0.0974  0.4165
 2655TIP3    H132160   4.525   2.542   7.293  0.4127  2.3488  0.6733
 2655TIP3    H232161   4.523   2.535   7.142  0.8339  0.3354  0.7300
 2656TIP3   OH232162   4.208   4.546   8.590 -0.1160  0.0702 -0.1629
 2656TIP3    H132163   4.276   4.510   8.646 -0.8689  2.0947  2.2634
 2656TIP3    H232164   4.126   4.533   8.638 -1.1620 -0.1486 -1.8846
 2657TIP3   OH232165   4.710   6.625   9.502  0.1028 -0.1176  0.7083
 2657TIP3    H132166   4.729   6.560   9.434 -0.4628 -1.1125  1.4802
 2657TIP3    H232167   4.616   6.613   9.520 -0.0444  1.0119  0.7696
 2658TIP3   OH232168   2.711   0.821   8.492  0.1257 -0.6262 -0.1592
 2658TIP3    H132169   2.707   0.901   8.440  0.2377 -1.2902 -1.2390
 2658TIP3    H232170   2.666   0.756   8.438  1.3725 -1.6482 -0.0073
 2659TIP3   OH232171   0.757   3.140   9.689 -0.5818  0.2182 -0.6622
 2659TIP3    H132172   0.798   3.220   9.655 -2.3707  0.9378 -1.2746
 2659TIP3    H232173   0.830   3.082   9.710  0.7973  2.2375  0.3950
 2660TIP3   OH232174   4.973   4.165   9.196  0.7584  0.6407 -0.3239
 2660TIP3    H132175   4.920   4.108   9.140  1.3016  0.5829 -0.7805
 2660TIP3    H232176   4.915   4.239   9.214 -0.6510 -0.8513  1.7947
 2661TIP3   OH232177   3.107   0.071   7.793  0.5863  0.1027 -0.4593
 2661TIP3    H132178   3.061  -0.006   7.759 -1.0820  0.7793  0.1821
 2661TIP3    H232179   3.111   0.131   7.718 -2.0139  1.1077  0.1261
 2662TIP3   OH232180   5.981   5.555   9.702 -0.2559  0.1436 -0.1015
 2662TIP3    H132181   6.000   5.583   9.791  0.6673  2.2784 -0.9013
 2662TIP3    H232182   5.943   5.468   9.712 -0.6034  0.5041  2.3872
 2663TIP3   OH232183   7.033   2.156   7.574  0.2296 -0.2063  0.2776
 2663TIP3    H132184   7.117   2.196   7.594  0.4539 -0.7934  0.5589
 2663TIP3    H232185   6.968   2.220   7.602  0.5677  1.0151 -1.5502
 2664TIP3   OH232186   2.282   0.408   8.498 -0.4364 -0.2827 -0.1757
 2664TIP3    H132187   2.253   0.495   8.471 -0.1413  0.0372  0.5347
 2664TIP3    H232188   2.219   0.349   8.459 -1.7428  0.3631  0.8959
 2665TIP3   OH232189   3.698   7.235   7.824  0.7923 -0.0759  0.1295
 2665TIP3    H132190   3.677   7.285   7.745 -2.6313 -1.7962 -0.2599
 2665TIP3    H232191   3.779   7.274   7.856 -0.1739  3.8801 -1.5589
 2666TIP3   OH232192   2.302   1.685   7.699  0.0226 -0.1595 -0.2469
 2666TIP3    H132193   2.272   1.594   7.697  0.3413 -0.4460  2.7490
 2666TIP3    H232194   2.221   1.737   7.702 -0.2718 -0.6440  2.3010
 2667TIP3   OH232195   4.409   2.676   7.528 -0.1923 -0.0679 -0.3564
 2667TIP3    H132196   4.500   2.701   7.538 -0.4921  1.4366 -1.1249
 2667TIP3    H232197   4.359   2.752   7.557 -1.1933 -0.6190 -0.5574
 2668TIP3   OH232198   7.274   1.519   9.373 -0.0575  0.2594  0.0420
 2668TIP3    H132199   7.254   1.479   9.458  1.2963 -0.0742  0.2202
 2668TIP3    H232200   7.244   1.454   9.309 -0.4824  0.2218  0.2724
 2669TIP3   OH232201   7.211   7.135   8.488  0.5853  0.2817 -0.2237
 2669TIP3    H132202   7.143   7.096   8.544  0.3978  0.3089 -0.4318
 2669TIP3    H232203   7.271   7.063   8.468  0.3628  0.1511 -0.4231
 2670TIP3   OH232204   0.836   2.769   7.549  0.5431  0.0927  0.0393
 2670TIP3    H132205   0.827   2.778   7.643  0.6023 -0.4693  0.1018
 2670TIP3    H232206   0.886   2.846   7.522  1.6013 -0.3679  0.6390
 2671TIP3   OH232207   4.476   5.087   9.106  0.5189 -0.1469 -0.5592
 2671TIP3    H132208   4.423   5.085   9.027  2.1491 -1.6652 -1.6958
 2671TIP3    H232209   4.533   5.163   9.095  0.1649  0.1420 -0.4203
 2672TIP3   OH232210   3.324   4.119  10.004 -0.2898  0.2517 -0.3296
 2672TIP3    H132211   3.343   4.173  10.081 -0.3119  0.2368 -0.3138
 2672TIP3    H232212   3.400   4.062   9.996  0.0524  0.7589 -0.7576
 2673TIP3   OH232213   3.161   1.353   9.047 -0.5664  0.2939  0.1538
 2673TIP3    H132214   3.202   1.432   9.012  1.8363 -0.5862  0.7935
 2673TIP3    H232215   3.128   1.307   8.969 -1.4459  1.5959 -0.2712
 2674TIP3   OH232216   3.685   1.132   7.071  0.6872 -0.6349 -0.6673
 2674TIP3    H132217   3.663   1.188   6.996 -1.3601 -1.7447 -0.9704
 2674TIP3    H232218   3.602   1.122   7.118  1.7276 -0.7678  1.2360
 2675TIP3   OH232219   4.584   3.484   8.603  0.3229 -0.2190  0.4177
 2675TIP3    H132220   4.550   3.535   8.529  1.8121  0.1828 -0.0294
 2675TIP3    H232221   4.604   3.398   8.566 -1.1718 -0.8079  0.9256
 2676TIP3   OH232222   4.720   3.582   7.639  0.0057 -0.0370  0.5328
 2676TIP3    H132223   4.716   3.540   7.554  1.8312  1.0878 -0.1711
 2676TIP3    H232224   4.657   3.654   7.633 -0.5668 -0.5338  0.4949
 2677TIP3   OH232225   1.367   3.132   8.772  0.2109 -0.0946  0.3608
 2677TIP3    H132226   1.454   3.105   8.802  0.5655  0.9947  0.3788
 2677TIP3    H232227   1.327   3.052   8.739  1.1760 -0.6455  0.4761
 2678TIP3   OH232228   3.009   6.831   8.130  0.0413  0.2785 -0.3273
 2678TIP3    H132229   3.045   6.845   8.043 -0.9398 -0.7421 -0.9226
 2678TIP3    H232230   3.067   6.765   8.169  0.1896  0.3684 -0.3952
 2679TIP3   OH232231   1.020   2.463   9.054 -0.2299 -0.0507  0.4481
 2679TIP3    H132232   1.087   2.394   9.053  0.5904  0.7214  0.3292
 2679TIP3    H232233   0.938   2.417   9.037  0.3118 -0.9810  0.2519
 2680TIP3   OH232234   2.088   6.840   8.856  0.4703 -0.3380 -0.3034
 2680TIP3    H132235   2.028   6.795   8.797  1.1205 -0.7373 -0.6686
 2680TIP3    H232236   2.069   6.933   8.844 -1.8065 -0.4917  1.4172
 2681TIP3   OH232237   0.120   6.988   7.980  0.3299 -0.2010 -0.3392
 2681TIP3    H132238   0.129   7.053   8.050  0.7132 -1.2400  0.6070
 2681TIP3    H232239   0.150   7.033   7.901  1.6967  0.4166  0.5033
 2682TIP3   OH232240   2.900   0.172   6.998 -0.0247 -0.4642  0.0116
 2682TIP3    H132241   2.969   0.233   6.971 -0.6174 -0.1385 -0.7955
 2682TIP3    H232242   2.819   0.209   6.963 -1.0063  0.4185  2.9404
 2683TIP3   OH232243   1.334   0.615   6.992  0.1605  0.3298 -0.6098
 2683TIP3    H132244   1.381   0.571   7.063 -0.3117  1.0920  0.1859
 2683TIP3    H232245   1.250   0.569   6.988  0.1649  0.3246 -0.6448
 2684TIP3   OH232246   6.933   0.217   7.962 -0.1119  0.3279 -0.2857
 2684TIP3    H132247   6.868   0.202   7.893  0.7894  0.7388 -1.2403
 2684TIP3    H232248   6.952   0.130   7.997 -2.4463  0.3385  1.2271
 2685TIP3   OH232249   4.286   0.494   7.156 -0.4334 -0.0010 -0.7420
 2685TIP3    H132250   4.240   0.578   7.156 -1.0508 -0.2987  1.0179
 2685TIP3    H232251   4.216   0.429   7.160  0.0871 -0.5190  0.2607
 2686TIP3   OH232252   0.941   7.101   8.585  0.0725  0.6343 -0.4993
 2686TIP3    H132253   1.009   7.159   8.620 -0.1784  0.2282  0.6921
 2686TIP3    H232254   0.864   7.157   8.576  0.6193  1.1960 -2.2283
 2687TIP3   OH232255   7.319   5.394   8.922 -0.4321 -0.1410  0.5596
 2687TIP3    H132256   7.311   5.416   9.015 -0.2927 -0.8303  0.7419
 2687TIP3    H232257   7.336   5.478   8.878  0.0627  0.1086  1.2220
 2688TIP3   OH232258   5.363   6.381   8.843  0.0682  0.7442  0.2946
 2688TIP3    H132259   5.394   6.300   8.801  0.2722  1.6460 -1.3735
 2688TIP3    H232260   5.303   6.350   8.911  1.7384 -0.8905  1.1337
 2689TIP3   OH232261   0.315   5.419   7.249  0.2739  0.0659  0.0032
 2689TIP3    H132262   0.225   5.385   7.250  0.9479 -1.9897 -1.3952
 2689TIP3    H232263   0.364   5.360   7.305  1.2253 -0.4956 -1.3623
 2690TIP3   OH232264   1.122   2.546   6.604 -0.1404 -0.6337 -0.0603
 2690TIP3    H132265   1.147   2.550   6.512  1.3113 -3.3184  0.1288
 2690TIP3    H232266   1.079   2.461   6.614 -1.6556  0.2418  1.4849
 2691TIP3   OH232267   2.237   7.565   8.050  0.1662 -0.7194 -0.4593
 2691TIP3    H132268   2.278   7.479   8.058  0.8599 -0.3599 -0.0791
 2691TIP3    H232269   2.209   7.587   8.139 -1.6664 -1.3322 -0.8281
 2692TIP3   OH232270   5.020   5.888   8.936 -0.4114 -0.0288 -0.2430
 2692TIP3    H132271   5.102   5.897   8.986  0.8018  0.7117 -2.2684
 2692TIP3    H232272   4.954   5.871   9.003  1.5534 -1.8287  1.3859
 2693TIP3   OH232273   2.907   2.971   9.019  0.1100 -0.5281  0.0555
 2693TIP3    H132274   2.905   3.051   8.966 -0.7473 -1.6366 -1.7086
 2693TIP3    H232275   2.966   2.991   9.091  0.1739  1.5778 -0.5065
 2694TIP3   OH232276   2.180   0.339   8.742  0.2414  0.3200 -0.1321
 2694TIP3    H132277   2.188   0.427   8.780 -1.7834  0.6550 -0.3515
 2694TIP3    H232278   2.230   0.344   8.661 -0.7037  1.6544 -0.6829
 2695TIP3   OH232279   5.758   0.862   8.831 -0.4008  0.0147  0.7001
 2695TIP3    H132280   5.712   0.847   8.914 -0.9910 -1.3154  0.1557
 2695TIP3    H232281   5.808   0.943   8.846 -2.9472  1.5838  1.3075
 2696TIP3   OH232282   6.033   3.975   8.695  0.3172  0.3985  0.0921
 2696TIP3    H132283   5.990   3.893   8.720 -0.3799  0.7017 -0.0882
 2696TIP3    H232284   6.066   4.010   8.778 -0.5893  0.6091  0.3757
 2697TIP3   OH232285   6.232   5.052   8.286  0.0470 -0.0826 -0.0588
 2697TIP3    H132286   6.317   5.010   8.298  0.1692  0.5509  1.5042
 2697TIP3    H232287   6.175   4.981   8.256  0.8172 -0.8109  0.1482
 2698TIP3   OH232288   6.449   5.732   8.415  0.0882 -0.1504  0.4103
 2698TIP3    H132289   6.541   5.710   8.428  0.0393 -0.3568  0.4019
 2698TIP3    H232290   6.404   5.648   8.410  0.1214 -0.1087 -1.2209
 2699TIP3   OH232291   3.571   0.108   9.229 -0.4230  0.3072 -0.1456
 2699TIP3    H132292   3.509   0.113   9.156  3.0005  1.1667 -3.3019
 2699TIP3    H232293   3.613   0.194   9.230 -0.5700  0.4504  3.2065
 2700TIP3   OH232294   2.196   3.679   8.632  0.2093 -0.1001  0.6209
 2700TIP3    H132295   2.233   3.741   8.694  0.3431  0.4679 -0.0202
 2700TIP3    H232296   2.103   3.675   8.655  0.1610  0.4872  0.5515
 2701TIP3   OH232297   1.451   1.608   7.927  0.2300 -0.1503 -0.2633
 2701TIP3    H132298   1.532   1.605   7.978  1.2226  1.5845 -1.6214
 2701TIP3    H232299   1.429   1.516   7.912 -0.0173 -0.7748  3.0076
 2702TIP3   OH232300   0.962   6.326   7.283 -0.0525  0.0740 -0.2653
 2702TIP3    H132301   1.034   6.383   7.311  0.7272 -1.1179  0.2312
 2702TIP3    H232302   0.976   6.244   7.331 -0.3682 -1.0240 -1.9639
 2703TIP3   OH232303   5.792   1.063   9.436  0.2344 -0.3993 -0.1795
 2703TIP3    H132304   5.786   1.153   9.403  1.1454 -0.1548  0.2828
 2703TIP3    H232305   5.805   1.010   9.357  2.2639  0.1609 -0.2848
 2704TIP3   OH232306   5.116   2.815   9.342  0.1636 -0.1747 -0.5550
 2704TIP3    H132307   5.188   2.766   9.383  0.4394  0.0548 -0.7602
 2704TIP3    H232308   5.160   2.879   9.286 -0.2135 -0.4725 -1.1933
 2705TIP3   OH232309   3.948   1.668   9.184 -0.0936  0.3015 -0.3280
 2705TIP3    H132310   3.889   1.668   9.260  0.9634  0.2167  0.5194
 2705TIP3    H232311   3.998   1.587   9.193  1.3965  1.2107 -0.0128
 2706TIP3   OH232312   3.196   4.741   7.614 -0.1135 -0.3016  0.1450
 2706TIP3    H132313   3.209   4.815   7.556 -0.9022 -0.5672 -0.3864
 2706TIP3    H232314   3.284   4.711   7.635  0.2452  1.1962  0.9250
 2707TIP3   OH232315   7.267   4.884   8.118  0.3211  0.4355 -0.3569
 2707TIP3    H132316   7.303   4.897   8.030  2.5639  0.9778  0.5695
 2707TIP3    H232317   7.272   4.789   8.132 -0.1261  0.3357 -0.8233
 2708TIP3   OH232318   1.502   1.260   7.890 -0.1002  0.4292 -0.2058
 2708TIP3    H132319   1.536   1.195   7.829 -1.2512  0.5818 -1.0410
 2708TIP3    H232320   1.580   1.295   7.934  0.7009 -0.1071 -1.1684
 2709TIP3   OH232321   1.387   2.048   8.971 -0.0975 -0.5802  0.2557
 2709TIP3    H132322   1.359   2.026   8.882 -1.5128 -0.3506  0.6174
 2709TIP3    H232323   1.341   1.986   9.027  1.6816 -1.4875  0.7865
 2710TIP3   OH232324   2.930   3.776   8.200  0.1426 -0.5973 -0.4026
 2710TIP3    H132325   2.903   3.703   8.256  0.0809  0.2680  0.7452
 2710TIP3    H232326   2.961   3.735   8.120  1.0874 -1.9563  0.6108
 2711TIP3   OH232327   4.211   2.508   8.516  0.0175  0.3376 -0.0149
 2711TIP3    H132328   4.285   2.448   8.519  0.6258  0.8559 -2.2943
 2711TIP3    H232329   4.250   2.595   8.525 -0.3619  0.5853 -0.7114
 2712TIP3   OH232330   6.794   1.133   7.769 -0.1734  0.1939 -0.4478
 2712TIP3    H132331   6.752   1.170   7.846  0.2304 -0.6071  0.1674
 2712TIP3    H232332   6.868   1.192   7.751 -0.7343  0.8321 -0.7208
 2713TIP3   OH232333   5.777   7.223   9.251 -0.0782  0.0524  0.0037
 2713TIP3    H132334   5.828   7.171   9.313  0.9542  0.7364 -0.2296
 2713TIP3    H232335   5.843   7.258   9.191 -1.1975 -1.9583 -2.5634
 2714TIP3   OH232336   0.846   5.981   7.987 -0.0505 -0.1799 -0.1983
 2714TIP3    H132337   0.928   5.966   8.035 -0.0447  0.4088 -0.0176
 2714TIP3    H232338   0.809   5.893   7.974  0.7242 -0.4701 -0.4904
 2715TIP3   OH232339   0.063   1.295   7.320  0.5306  0.4119  0.1234
 2715TIP3    H132340   0.021   1.239   7.386  0.9587 -0.3432 -0.2246
 2715TIP3    H232341   0.001   1.366   7.306  0.6154  0.8218  1.6456
 2716TIP3   OH232342   5.537   5.990   7.545 -0.1465 -0.5320  0.1726
 2716TIP3    H132343   5.452   5.969   7.508 -0.8954 -0.2264  1.6337
 2716TIP3    H232344   5.525   6.075   7.588  0.5115 -1.0742  1.5016
 2717TIP3   OH232345   0.845   1.472   7.228 -0.0830 -0.2883  0.4168
 2717TIP3    H132346   0.882   1.455   7.315  1.1481  1.3598  0.2630
 2717TIP3    H232347   0.873   1.562   7.208 -0.8616 -0.4316 -1.4266
 2718TIP3   OH232348   1.590   6.049   8.562 -0.2824  0.5502 -0.2618
 2718TIP3    H132349   1.594   5.971   8.617  1.6018  0.0179 -1.0745
 2718TIP3    H232350   1.543   6.020   8.484  1.2948 -0.1331 -1.0121
 2719TIP3   OH232351   5.436   2.985   8.184 -0.0494 -0.1147  0.1568
 2719TIP3    H132352   5.484   2.942   8.254  0.3445 -0.3708 -0.2646
 2719TIP3    H232353   5.484   3.066   8.168 -1.0082  0.6906  1.2108
 2720TIP3   OH232354   2.362   0.196   9.547 -0.4895 -0.3158  0.1835
 2720TIP3    H132355   2.441   0.250   9.546  0.8188 -2.1460 -1.0256
 2720TIP3    H232356   2.294   0.251   9.509  0.0734  1.4284  1.5998
 2721TIP3   OH232357   3.121   1.145   7.883 -0.2260  0.2212  0.2847
 2721TIP3    H132358   3.195   1.090   7.911  0.6470  1.0114 -0.3896
 2721TIP3    H232359   3.049   1.083   7.869  1.1572 -1.0319 -2.0519
 2722TIP3   OH232360   3.846   3.365   7.306 -0.5232  0.7624  0.1027
 2722TIP3    H132361   3.866   3.446   7.260 -0.4280  0.5524 -0.2318
 2722TIP3    H232362   3.932   3.330   7.331 -0.4831  0.1083 -0.9042
 2723TIP3   OH232363   6.998   4.986   8.417 -0.0025 -0.2064 -0.4665
 2723TIP3    H132364   6.977   5.063   8.364  1.0396 -1.3478 -2.6668
 2723TIP3    H232365   6.944   4.916   8.380  0.6032 -1.0019  0.1239
 2724TIP3   OH232366   6.108   6.494   8.383  0.2862 -0.2588  0.1617
 2724TIP3    H132367   6.171   6.424   8.366  0.6948 -0.1448  1.1333
 2724TIP3    H232368   6.082   6.524   8.296  0.4409 -1.3115 -0.2612
 2725TIP3   OH232369   7.104   2.043   8.683 -0.1938 -0.1541 -0.3781
 2725TIP3    H132370   7.045   2.004   8.619 -1.1176 -0.7107  0.7614
 2725TIP3    H232371   7.050   2.109   8.727  1.3017  2.4634 -2.2132
 2726TIP3   OH232372   1.937   0.355   7.470  0.2089  0.5704  0.3221
 2726TIP3    H132373   2.004   0.292   7.494 -0.0288  0.2663  0.1849
 2726TIP3    H232374   1.857   0.303   7.459  0.0316  0.8802  0.1256
 2727TIP3   OH232375   4.851   5.122   9.323 -0.0879  0.0231  0.5932
 2727TIP3    H132376   4.765   5.132   9.362  0.4250  0.0178  1.7769
 2727TIP3    H232377   4.911   5.121   9.398  1.1979  2.5356 -0.2995
 2728TIP3   OH232378   6.841   2.922   9.344 -0.0999  0.5698 -0.1423
 2728TIP3    H132379   6.842   3.002   9.397  1.5241 -0.0321  0.8404
 2728TIP3    H232380   6.778   2.865   9.388  0.5371  0.4329  0.6197
 2729TIP3   OH232381   5.702   1.955   9.227  0.3353  0.2380 -0.0773
 2729TIP3    H132382   5.614   1.979   9.197 -0.1233 -1.5294 -0.2628
 2729TIP3    H232383   5.725   1.878   9.175  1.4247 -0.1551  0.9372
 2730TIP3   OH232384   5.215   1.660   9.356 -0.4642  0.0522 -0.7269
 2730TIP3    H132385   5.150   1.693   9.294 -0.6230  0.4387 -0.3632
 2730TIP3    H232386   5.196   1.567   9.363 -0.7626  0.1006 -0.8837
 2731TIP3   OH232387   2.389   0.910   8.512  0.3042 -0.2798 -0.3447
 2731TIP3    H132388   2.333   0.982   8.543  0.3159 -0.5090  0.2179
 2731TIP3    H232389   2.436   0.880   8.590 -0.4419 -1.5535 -0.3533
 2732TIP3   OH232390   5.613   1.554   7.809  0.7874  0.4271  0.4044
 2732TIP3    H132391   5.532   1.540   7.858  0.3108  1.2781 -0.1112
 2732TIP3    H232392   5.587   1.608   7.735  1.2767 -1.7905 -1.4868
 2733TIP3   OH232393   4.291   2.894   7.630  0.0752  0.1521  0.0844
 2733TIP3    H132394   4.239   2.933   7.701  1.6157 -0.3841  1.5832
 2733TIP3    H232395   4.364   2.956   7.618 -0.7194  0.7940 -1.8411
 2734TIP3   OH232396   0.733   7.427   9.087  0.4905  0.6562  0.0635
 2734TIP3    H132397   0.775   7.389   9.010  0.7391  0.5702  0.2395
 2734TIP3    H232398   0.780   7.388   9.161  1.2311  1.8177  0.2389
 2735TIP3   OH232399   0.324   0.449   9.061 -0.6338  0.1919 -0.3982
 2735TIP3    H132400   0.419   0.454   9.067 -0.6433  0.1964 -0.2445
 2735TIP3    H232401   0.293   0.522   9.116 -0.7318  0.0173 -0.2233
 2736TIP3   OH232402   5.310   0.296   9.216 -0.1961 -0.6117  0.5501
 2736TIP3    H132403   5.279   0.347   9.141  0.9420 -1.4654 -0.5419
 2736TIP3    H232404   5.327   0.361   9.284 -1.4130  0.1638  0.1502
 2737TIP3   OH232405   1.180   1.103   9.325  0.6817 -0.3169  0.3223
 2737TIP3    H132406   1.224   1.021   9.301 -0.5133 -0.0775 -3.3209
 2737TIP3    H232407   1.091   1.075   9.350  0.7541 -0.2626  0.6365
 2738TIP3   OH232408   1.516   5.528   8.056 -0.4064  0.1280  0.0187
 2738TIP3    H132409   1.462   5.503   8.131  0.1316 -0.0183  0.3644
 2738TIP3    H232410   1.483   5.615   8.031  0.0573  0.6213  1.0497
 2739TIP3   OH232411   5.449   3.516   7.141  0.3439  0.0391  0.0789
 2739TIP3    H132412   5.373   3.463   7.167 -0.6576  2.2667  2.0572
 2739TIP3    H232413   5.520   3.485   7.198  0.2911 -0.4233 -0.1006
 2740TIP3   OH232414   5.664   6.628   8.315 -0.3448 -0.5183 -0.2414
 2740TIP3    H132415   5.683   6.573   8.391 -1.1816 -0.4537  0.0230
 2740TIP3    H232416   5.616   6.572   8.255 -0.1874 -0.4083 -0.4688
 2741TIP3   OH232417   3.671   2.937   7.896 -0.3889 -0.2837  0.5356
 2741TIP3    H132418   3.617   3.013   7.874 -0.5045 -0.3230  0.6797
 2741TIP3    H232419   3.729   2.927   7.822  0.3569  0.5993  0.9792
 2742TIP3   OH232420   0.952   0.777   7.932  0.0995 -0.2521  0.3625
 2742TIP3    H132421   1.002   0.707   7.890 -1.2244 -1.5497  0.8587
 2742TIP3    H232422   1.014   0.818   7.992  0.9517 -0.8694 -0.0742
 2743TIP3   OH232423   0.843   6.408   7.907 -0.0444 -0.3051 -0.0378
 2743TIP3    H132424   0.781   6.476   7.933  0.0183 -0.5979  0.9283
 2743TIP3    H232425   0.902   6.399   7.983  0.5221 -0.7725 -0.5233
 2744TIP3   OH232426   5.589   7.554   7.568 -0.0914 -0.1520 -0.2043
 2744TIP3    H132427   5.673   7.544   7.523  1.9864  4.3095  2.0994
 2744TIP3    H232428   5.541   7.620   7.517 -1.3246 -1.0530 -0.2710
 2745TIP3   OH232429   4.693   1.686   8.661 -0.2597 -0.2136  0.3183
 2745TIP3    H132430   4.787   1.686   8.639 -0.3070 -0.5949  0.1020
 2745TIP3    H232431   4.649   1.680   8.577 -0.5150  1.2596  0.3328
 2746TIP3   OH232432   3.320   5.461   7.551  0.3549  0.4227 -0.3554
 2746TIP3    H132433   3.228   5.445   7.529 -0.1479  0.5211  1.4998
 2746TIP3    H232434   3.329   5.556   7.550  0.4668  0.4065 -0.6854
 2747TIP3   OH232435   0.616   2.992   6.808  0.0007 -0.6602  0.8393
 2747TIP3    H132436   0.561   2.925   6.767  1.0350 -0.5882 -0.7422
 2747TIP3    H232437   0.555   3.047   6.856 -1.0638 -1.7560  0.7826
 2748TIP3   OH232438   2.610   5.508   8.434  0.4844 -0.3982 -0.3240
 2748TIP3    H132439   2.587   5.601   8.443  1.3516  0.0291 -2.0271
 2748TIP3    H232440   2.541   5.461   8.481 -0.4823  1.0667 -0.2253
 2749TIP3   OH232441   3.774   6.212   8.349  0.3126 -0.1712  0.5270
 2749TIP3    H132442   3.691   6.246   8.383 -0.6322 -1.1590 -0.6998
 2749TIP3    H232443   3.800   6.275   8.282  0.1526 -0.2909  0.3553
 2750TIP3   OH232444   6.524   6.681   7.642  0.3696 -0.0409  0.5222
 2750TIP3    H132445   6.553   6.765   7.677  0.7106 -0.3491  0.9857
 2750TIP3    H232446   6.438   6.701   7.603  0.9189  0.7378 -0.3285
 2751TIP3   OH232447   5.322   6.702   8.174 -0.3644  0.3833 -0.3637
 2751TIP3    H132448   5.409   6.741   8.167 -0.9303  1.8677  0.3574
 2751TIP3    H232449   5.263   6.777   8.180 -1.6482 -0.5967 -0.3328
 2752TIP3   OH232450   7.124   2.339   7.866 -0.4072  0.4245 -0.6264
 2752TIP3    H132451   7.189   2.353   7.798 -0.4709 -1.9901 -1.2594
 2752TIP3    H232452   7.043   2.319   7.819 -1.9958  4.2590  0.1104
 2753TIP3   OH232453   1.647   4.281   9.033 -0.1155  0.1478 -0.5253
 2753TIP3    H132454   1.640   4.185   9.037  0.5741  0.1306  0.9060
 2753TIP3    H232455   1.607   4.304   8.949 -0.9793 -1.3296 -0.5636
 2754TIP3   OH232456   2.537   4.857   9.936 -0.4372 -0.7418  0.8295
 2754TIP3    H132457   2.595   4.850   9.860 -0.7570  0.8351  0.4073
 2754TIP3    H232458   2.597   4.866  10.010 -0.1075 -0.0719  0.4977
 2755TIP3   OH232459   5.299   5.432   8.657  0.1440 -0.3381 -0.4735
 2755TIP3    H132460   5.306   5.521   8.623  0.0502  0.0168  0.4314
 2755TIP3    H232461   5.336   5.378   8.587  0.4477  0.4250 -0.9221
 2756TIP3   OH232462   1.647   3.050   8.819 -0.0423 -0.0635 -0.0865
 2756TIP3    H132463   1.634   2.979   8.881  0.2825 -0.3717 -0.3692
 2756TIP3    H232464   1.736   3.081   8.835 -0.2399  0.3968  0.1531
 2757TIP3   OH232465   0.155   4.750   8.245  0.3264  0.6366  0.5138
 2757TIP3    H132466   0.096   4.805   8.297 -0.0575 -0.2085  0.9937
 2757TIP3    H232467   0.237   4.749   8.295 -0.2944 -0.8306  1.5587
 2758TIP3   OH232468   0.127   1.303   7.733  0.6052 -0.0420 -0.1344
 2758TIP3    H132469   0.043   1.307   7.778  1.3796  0.0302  1.3300
 2758TIP3    H232470   0.192   1.306   7.802  1.8632  1.2019 -1.3136
 2759TIP3   OH232471   1.341   0.793   7.217  0.0750 -0.1949  0.8901
 2759TIP3    H132472   1.269   0.774   7.276  2.2615 -0.8801  3.5687
 2759TIP3    H232473   1.336   0.726   7.149 -1.3715 -0.6168  1.3922
 2760TIP3   OH232474   6.064   4.208   8.014 -0.0397 -0.1603  0.1220
 2760TIP3    H132475   6.000   4.154   8.058  0.5767 -0.1671  1.0309
 2760TIP3    H232476   6.070   4.171   7.926 -0.4905 -0.8229  0.3625
 2761TIP3   OH232477   1.183   2.954   8.069 -0.7718 -0.1954 -0.4537
 2761TIP3    H132478   1.199   2.907   8.150 -1.2199  0.9345  0.3144
 2761TIP3    H232479   1.175   3.046   8.095 -1.3746  0.1353 -1.7122
 2762TIP3   OH232480   6.811   0.820   8.272  0.8438  0.2653  0.3121
 2762TIP3    H132481   6.782   0.814   8.363  0.5469  0.9475  0.2675
 2762TIP3    H232482   6.823   0.913   8.256 -1.3068  0.4050 -1.0041
 2763TIP3   OH232483   2.663   1.147   8.609  0.1066  0.5027 -0.7640
 2763TIP3    H132484   2.657   1.088   8.534 -0.2216 -0.7121  0.2058
 2763TIP3    H232485   2.573   1.179   8.622  0.2781  1.2128 -1.2708
 2764TIP3   OH232486   0.277   7.304   7.792  0.1352  0.1468 -0.5073
 2764TIP3    H132487   0.248   7.220   7.757  0.0193  0.1121 -0.3314
 2764TIP3    H232488   0.334   7.341   7.724  0.0771 -0.0119 -0.6417
 2765TIP3   OH232489   5.207   3.253   8.855 -0.2247  0.5747 -0.0305
 2765TIP3    H132490   5.234   3.167   8.824 -0.1016 -0.0236  1.6818
 2765TIP3    H232491   5.289   3.301   8.868 -0.2527  0.6488 -0.1225
 2766TIP3   OH232492   2.898   6.507   9.413  0.1308  0.1933  0.3458
 2766TIP3    H132493   2.973   6.562   9.436 -0.4139  0.7419  0.8513
 2766TIP3    H232494   2.873   6.537   9.325  1.6391 -1.2743 -0.6491
 2767TIP3   OH232495   7.635   1.797   7.698  0.3521 -0.0401  0.3886
 2767TIP3    H132496   7.567   1.732   7.718  0.1701  0.3378  1.0045
 2767TIP3    H232497   7.611   1.874   7.750  2.0754 -0.4144  1.8410
 2768TIP3   OH232498   5.891   2.556   9.415  1.0999 -0.0361  0.2173
 2768TIP3    H132499   5.862   2.647   9.419  1.7701  0.2288 -0.5992
 2768TIP3    H232500   5.814   2.505   9.441 -0.4119  0.5804 -2.6514
 2769TIP3   OH232501   6.101   5.942   7.263  0.5255 -0.2803  0.2634
 2769TIP3    H132502   6.191   5.912   7.280  0.9615  1.3058  0.9279
 2769TIP3    H232503   6.104   5.976   7.173  0.7609  0.3322  0.4977
 2770TIP3   OH232504   6.785   0.201   9.330 -0.1134 -0.0937  0.6723
 2770TIP3    H132505   6.809   0.139   9.399  0.5535 -0.9788 -0.3205
 2770TIP3    H232506   6.846   0.182   9.259 -1.4068  0.1145 -0.5443
 2771TIP3   OH232507   5.162   1.996   9.157 -0.1891 -0.1412 -0.3558
 2771TIP3    H132508   5.129   2.083   9.136  1.4626  0.6321  0.0803
 2771TIP3    H232509   5.178   1.998   9.251  2.6509  0.1547 -0.7607
 2772TIP3   OH232510   6.984   0.839   7.142 -0.2653 -0.4261 -0.1126
 2772TIP3    H132511   6.942   0.891   7.073  0.9860  2.2663  1.0039
 2772TIP3    H232512   6.916   0.778   7.171 -1.9830  0.8441 -1.2624
 2773TIP3   OH232513   1.217   2.561   7.275 -0.1204  0.0528  0.1936
 2773TIP3    H132514   1.176   2.594   7.356 -1.6374  0.6520 -0.7777
 2773TIP3    H232515   1.202   2.467   7.277  1.1082 -0.1446  1.2757
 2774TIP3   OH232516   5.859   1.347   9.280 -0.2128  0.5728  0.0295
 2774TIP3    H132517   5.909   1.428   9.284 -0.7139  0.8297  2.0815
 2774TIP3    H232518   5.796   1.353   9.352 -0.4931 -1.4816  0.0340
 2775TIP3   OH232519   2.371   1.352   7.468 -0.4502 -0.3899 -0.1711
 2775TIP3    H132520   2.411   1.266   7.483 -1.2246 -0.8643 -0.7461
 2775TIP3    H232521   2.311   1.363   7.542  1.9267  1.1228  1.7130
 2776TIP3   OH232522   4.345   7.459   7.216  0.5199  0.9988  0.1386
 2776TIP3    H132523   4.440   7.449   7.223  0.6660  1.5748 -0.9222
 2776TIP3    H232524   4.319   7.396   7.149  0.2837  1.5031 -0.2492
 2777TIP3   OH232525   0.281   0.499   8.625 -0.1321 -0.6862 -0.2717
 2777TIP3    H132526   0.299   0.591   8.609 -0.0749 -0.9447 -1.8698
 2777TIP3    H232527   0.358   0.453   8.590  0.6537 -1.2947  2.0458
 2778TIP3   OH232528   6.532   1.399   7.833  0.1421 -0.1018 -0.4032
 2778TIP3    H132529   6.579   1.478   7.858  2.1551 -1.1988 -0.4880
 2778TIP3    H232530   6.440   1.423   7.837  0.5123  1.2861  2.9791
 2779TIP3   OH232531   1.383   6.057   7.934  0.1005 -0.1335 -0.8181
 2779TIP3    H132532   1.462   6.031   7.886 -1.0633 -2.5056 -1.6165
 2779TIP3    H232533   1.312   6.009   7.891 -1.7183  1.4332  0.2738
 2780TIP3   OH232534   5.877   0.281   8.835 -0.1032 -0.2011  0.1833
 2780TIP3    H132535   5.817   0.306   8.764  1.5672  1.0481 -0.8519
 2780TIP3    H232536   5.927   0.360   8.854  1.0814 -1.1413  1.1566
 2781TIP3   OH232537   0.999   0.657   8.274 -0.0025 -0.3943  0.1156
 2781TIP3    H132538   0.950   0.594   8.220  0.4757 -0.8572  0.2203
 2781TIP3    H232539   0.963   0.646   8.362  0.0227 -0.4575  0.1181
 2782TIP3   OH232540   7.341   1.691   8.417  0.4826 -0.7033 -0.2076
 2782TIP3    H132541   7.369   1.688   8.325  0.2929 -2.7128 -0.2524
 2782TIP3    H232542   7.246   1.680   8.414 -0.1335  3.2147  0.1016
 2783TIP3   OH232543   0.332   2.585   6.937  0.1395  0.6897 -0.2367
 2783TIP3    H132544   0.426   2.570   6.927  0.1425  0.7079 -0.2344
 2783TIP3    H232545   0.325   2.669   6.981  0.1323  0.4145  0.2944
 2784TIP3   OH232546   1.543   6.409   7.896 -0.4284 -0.0261  0.2945
 2784TIP3    H132547   1.593   6.487   7.874  1.6332 -0.8483  1.7161
 2784TIP3    H232548   1.485   6.396   7.821  1.0046  1.3933 -1.1596
 2785TIP3   OH232549   4.398   7.076   6.854 -0.1193  0.0056 -0.4125
 2785TIP3    H132550   4.492   7.059   6.863 -0.1847  0.0688  0.4366
 2785TIP3    H232551   4.355   6.995   6.880 -0.2972 -0.2394 -1.4197
 2786TIP3   OH232552   5.393   5.250   7.852  0.4553 -0.6873 -0.4378
 2786TIP3    H132553   5.441   5.169   7.867  0.8069 -0.3475  0.3367
 2786TIP3    H232554   5.462   5.316   7.840  0.2039 -0.1233  1.0932
 2787TIP3   OH232555   0.525   7.582   9.430  0.3844  0.7486  0.0085
 2787TIP3    H132556   0.600   7.523   9.425 -1.1142 -1.3737  1.1160
 2787TIP3    H232557   0.510   7.610   9.340  1.2500 -0.4346 -0.5266
 2788TIP3   OH232558   5.180   3.160   7.902  0.5494 -0.3350  0.5964
 2788TIP3    H132559   5.137   3.245   7.904  1.3309  0.1037 -0.1766
 2788TIP3    H232560   5.162   3.121   7.987  0.0222  0.5237  0.8887
 2789TIP3   OH232561   3.442   6.139   9.194  0.1397  0.0584 -0.6058
 2789TIP3    H132562   3.395   6.108   9.117 -1.5478 -0.4714  0.5901
 2789TIP3    H232563   3.479   6.223   9.168  0.1031 -0.3807 -2.1588
 2790TIP3   OH232564   5.045   1.476   8.068  0.0450 -0.0220  0.2581
 2790TIP3    H132565   4.967   1.530   8.057 -0.2236 -0.0105  1.9066
 2790TIP3    H232566   5.098   1.523   8.132  0.0596 -1.4118  1.3087
 2791TIP3   OH232567   5.852   2.691   6.972  0.8450  0.3746 -0.0148
 2791TIP3    H132568   5.877   2.604   6.940  0.7667  1.1193 -2.3123
 2791TIP3    H232569   5.931   2.743   6.963  0.5771  0.8287  0.2546
 2792TIP3   OH232570   3.711   4.127   9.271 -0.5141  0.0757  0.1026
 2792TIP3    H132571   3.687   4.053   9.326 -0.9239 -0.5061 -0.8304
 2792TIP3    H232572   3.697   4.096   9.182  0.8142  0.7542 -0.3682
 2793TIP3   OH232573   1.740   4.660   7.429  0.1991 -0.6920  0.4810
 2793TIP3    H132574   1.762   4.750   7.453 -2.0657  0.8113 -2.4159
 2793TIP3    H232575   1.670   4.635   7.490 -0.1494  0.1023  0.4228
 2794TIP3   OH232576   3.662   4.785   8.732 -0.5461 -0.4168  0.5131
 2794TIP3    H132577   3.688   4.855   8.672 -0.7341  0.8351  1.8303
 2794TIP3    H232578   3.569   4.773   8.714 -0.1560 -1.6142 -0.9401
 2795TIP3   OH232579   0.328   7.178   9.650 -0.7112 -0.2538  0.0127
 2795TIP3    H132580   0.329   7.150   9.741  1.2750 -2.8194 -0.6702
 2795TIP3    H232581   0.393   7.122   9.607 -1.1554  1.2493 -2.8800
 2796TIP3   OH232582   3.355   6.369   8.811 -0.2038  0.2233 -0.2118
 2796TIP3    H132583   3.338   6.453   8.769 -3.1226 -0.7945 -1.3623
 2796TIP3    H232584   3.285   6.360   8.876 -1.2479 -2.1104 -1.5284
 2797TIP3   OH232585   0.091   4.458   7.831 -0.3247 -0.3641 -0.3382
 2797TIP3    H132586   0.123   4.425   7.915 -1.3389  1.4958  0.8267
 2797TIP3    H232587   0.163   4.441   7.770  0.6939 -1.1610  1.0279
 2798TIP3   OH232588   0.037   6.701   6.642 -0.2853 -0.4473 -0.2741
 2798TIP3    H132589  -0.038   6.756   6.621 -1.7622 -1.8918  0.9841
 2798TIP3    H232590   0.004   6.612   6.635  1.1164 -1.1057  0.9777
 2799TIP3   OH232591   0.052   0.185   9.023 -0.2940 -0.5112 -0.0575
 2799TIP3    H132592   0.079   0.262   8.972 -1.5017  2.3646  3.1857
 2799TIP3    H232593   0.133   0.157   9.067 -0.3578  1.0524  1.1711
 2800TIP3   OH232594   1.844   0.879   8.791 -0.5430 -0.0142 -0.4340
 2800TIP3    H132595   1.931   0.894   8.828 -0.7389  0.0899 -0.0147
 2800TIP3    H232596   1.824   0.788   8.813 -0.2759 -0.2416 -1.0879
 2801TIP3   OH232597   3.691   5.067   9.573  0.4173  0.4210 -0.1075
 2801TIP3    H132598   3.640   5.021   9.506  1.2595 -0.0594 -0.4359
 2801TIP3    H232599   3.707   5.001   9.641  0.7688  0.5093 -0.1033
 2802TIP3   OH232600   6.786   7.503   8.310 -0.4840 -0.1800  0.5190
 2802TIP3    H132601   6.740   7.422   8.290  1.5293 -1.3989  0.5045
 2802TIP3    H232602   6.813   7.494   8.401 -1.9785  1.4174  1.1689
 2803TIP3   OH232603   1.247   5.818   8.743  0.9174  0.1893  0.5642
 2803TIP3    H132604   1.225   5.743   8.798 -0.5749 -0.3157 -0.6596
 2803TIP3    H232605   1.257   5.781   8.655 -0.6536  1.4988 -0.2158
 2804TIP3   OH232606   6.307   2.680   8.866 -0.1510  0.2835  0.2305
 2804TIP3    H132607   6.302   2.586   8.849 -1.2421  0.0279  1.7060
 2804TIP3    H232608   6.390   2.692   8.912 -0.1888 -0.0178  0.3769
 2805TIP3   OH232609   7.289   1.981   8.865 -0.2743  0.5119  0.7541
 2805TIP3    H132610   7.228   1.932   8.920 -1.7557  2.2436  0.7435
 2805TIP3    H232611   7.240   2.000   8.786  0.9452  0.3305 -0.0742
 2806TIP3   OH232612   3.310   6.699   8.872  0.1064 -0.1642  0.4608
 2806TIP3    H132613   3.359   6.744   8.941  2.7665 -2.3337  0.1336
 2806TIP3    H232614   3.347   6.732   8.791 -0.3416 -0.4084  0.1546
 2807TIP3   OH232615   6.124   2.897   9.235  0.0223 -0.1631 -0.0673
 2807TIP3    H132616   6.100   2.844   9.158  3.5009  0.3293 -1.6852
 2807TIP3    H232617   6.050   2.958   9.245 -0.2822  0.3006 -3.5928
 2808TIP3   OH232618   5.878   3.777   8.864 -0.1770  0.1029  0.3959
 2808TIP3    H132619   5.800   3.723   8.872  0.3200 -0.6989 -0.0572
 2808TIP3    H232620   5.914   3.780   8.953  0.5735 -1.5305  0.1848
 2809TIP3   OH232621   3.335   4.326   9.185 -0.1588 -0.0538 -0.1408
 2809TIP3    H132622   3.426   4.353   9.182 -0.3644  0.6986  0.0617
 2809TIP3    H232623   3.337   4.236   9.215  0.5932 -0.5224 -1.5104
 2810TIP3   OH232624   3.599   2.953   8.651  0.2506 -0.1270  0.1985
 2810TIP3    H132625   3.540   3.007   8.703 -1.1318 -1.5850  0.2193
 2810TIP3    H232626   3.663   2.919   8.714 -1.0353 -1.3750  0.8799
 2811TIP3   OH232627   7.669   5.766   7.731 -0.1243 -0.2353  0.4141
 2811TIP3    H132628   7.715   5.792   7.651 -0.2368 -1.4799 -0.0796
 2811TIP3    H232629   7.617   5.690   7.705 -0.3353 -0.5204  1.6158
 2812TIP3   OH232630   0.250   2.319   9.083 -0.0269  0.7461  0.0216
 2812TIP3    H132631   0.231   2.281   8.997 -1.0730  1.4884 -0.0868
 2812TIP3    H232632   0.197   2.399   9.086  0.5411  1.0923  1.0793
 2813TIP3   OH232633   3.591   4.374   9.239 -0.4250 -0.0781 -0.4608
 2813TIP3    H132634   3.629   4.292   9.270  0.2436  0.3451 -0.1498
 2813TIP3    H232635   3.661   4.418   9.192  0.1587  1.6282  1.8132
 2814TIP3   OH232636   6.428   0.173   8.457 -0.2797  0.0504  0.2946
 2814TIP3    H132637   6.370   0.201   8.528 -1.6874 -1.4254 -0.2167
 2814TIP3    H232638   6.498   0.239   8.456 -1.1079  1.0273  1.9414
 2815TIP3   OH232639   1.038   1.956   8.775 -0.9079  0.0188  0.1443
 2815TIP3    H132640   1.025   2.021   8.844  0.2128 -1.6724  2.0738
 2815TIP3    H232641   1.133   1.953   8.762 -1.1407  2.3949 -3.7461
 2816TIP3   OH232642   1.228   2.444   6.966  0.3931 -0.0027 -0.4702
 2816TIP3    H132643   1.212   2.425   7.058  0.6898  0.5041 -0.3125
 2816TIP3    H232644   1.141   2.444   6.926  0.2364  0.0824 -0.1299
 2817TIP3   OH232645   0.979   6.565   9.118  0.2743  0.1068  0.3687
 2817TIP3    H132646   0.898   6.526   9.085  0.6249  1.7124 -2.6924
 2817TIP3    H232647   1.045   6.546   9.051  2.5674 -1.1652  2.7757
 2818TIP3   OH232648   2.101   6.712   8.016 -0.2152  0.0010  0.3910
 2818TIP3    H132649   2.190   6.712   8.051 -0.8124  3.2313  2.3964
 2818TIP3    H232650   2.049   6.666   8.082 -0.4796  0.9602  0.8654
 2819TIP3   OH232651   3.134   0.548   8.736  0.1284 -0.2433 -0.3974
 2819TIP3    H132652   3.070   0.503   8.681 -0.5665 -0.0468  0.2359
 2819TIP3    H232653   3.121   0.511   8.823  1.5910 -0.9541 -0.4370
 2820TIP3   OH232654   1.093   0.838   9.565 -0.2155 -0.0641  0.2003
 2820TIP3    H132655   1.162   0.777   9.541 -0.7192 -0.2960 -0.6651
 2820TIP3    H232656   1.013   0.802   9.527 -0.1950  2.2479 -2.3759
 2821TIP3   OH232657   4.717   4.690   9.275 -0.3300  0.0703  0.0722
 2821TIP3    H132658   4.743   4.712   9.364 -0.7178  0.3647  0.1160
 2821TIP3    H232659   4.793   4.713   9.222 -0.3794  0.6304  0.2372
 2822TIP3   OH232660   6.041   5.559   9.432  0.0977 -0.2774 -0.3711
 2822TIP3    H132661   5.972   5.601   9.381  0.7348  1.2686 -0.0239
 2822TIP3    H232662   6.014   5.570   9.523 -0.6223 -2.2897 -0.2845
 2823TIP3   OH232663   1.706   4.268   7.722 -0.3460 -0.1117  0.0683
 2823TIP3    H132664   1.801   4.274   7.719 -0.3229 -0.7943 -1.1523
 2823TIP3    H232665   1.685   4.185   7.680 -1.5775  1.0222 -1.7175
 2824TIP3   OH232666   7.326   4.986   7.888 -0.5024 -0.0504 -0.1765
 2824TIP3    H132667   7.308   4.985   7.794  1.7501 -0.8856 -0.6588
 2824TIP3    H232668   7.362   5.073   7.904 -0.8808  0.0896 -0.0684
 2825TIP3   OH232669   3.174   3.801   8.354 -0.1637 -0.1081 -0.1184
 2825TIP3    H132670   3.166   3.738   8.425 -0.1173  1.9470  1.8017
 2825TIP3    H232671   3.085   3.832   8.339 -0.2632 -0.9549 -1.4082
 2826TIP3   OH232672   4.975   0.366   8.509 -0.2955  0.1364 -0.0233
 2826TIP3    H132673   4.930   0.288   8.540  0.7473 -0.6928 -0.5393
 2826TIP3    H232674   5.057   0.368   8.559  0.1185  0.3478 -0.6928
 2827TIP3   OH232675   3.551   0.301   7.770 -0.6273 -0.1204 -0.4058
 2827TIP3    H132676   3.637   0.313   7.808  0.0506 -0.6813 -1.6763
 2827TIP3    H232677   3.531   0.384   7.728  0.5119 -0.7598 -2.3642
 2828TIP3   OH232678   3.224   1.572   7.754 -0.7859 -0.3701 -0.1352
 2828TIP3    H132679   3.201   1.537   7.668  0.1234 -2.1466  0.3085
 2828TIP3    H232680   3.178   1.515   7.816  0.8974 -0.9603  0.6171
 2829TIP3   OH232681   7.426   3.199   8.504 -0.2821  0.6530  0.2370
 2829TIP3    H132682   7.455   3.227   8.417  1.4950 -1.5576  0.0358
 2829TIP3    H232683   7.486   3.242   8.565 -0.9749  1.5019  0.3413
 2830TIP3   OH232684   6.340   6.778   7.477  0.2189  0.8486 -0.2374
 2830TIP3    H132685   6.252   6.742   7.466  1.2241 -1.8282 -0.1303
 2830TIP3    H232686   6.332   6.869   7.449 -2.3716  0.4446 -1.0797
 2831TIP3   OH232687   1.210   4.541   9.381 -0.4010 -0.1205 -0.2020
 2831TIP3    H132688   1.252   4.458   9.402 -0.6990 -0.5648 -1.2943
 2831TIP3    H232689   1.205   4.542   9.285  0.5078  1.6175 -0.2643
 2832TIP3   OH232690   7.447   5.043   8.594  0.1425 -0.0483 -0.5568
 2832TIP3    H132691   7.402   5.021   8.512  1.2423 -0.1731 -1.1615
 2832TIP3    H232692   7.382   5.088   8.647 -1.1018 -1.4492 -0.8138
 2833TIP3   OH232693   7.098   0.265   7.356 -0.2121 -0.1921 -0.5871
 2833TIP3    H132694   7.030   0.325   7.386 -0.8804  0.1430 -2.6113
 2833TIP3    H232695   7.180   0.308   7.379 -0.6940  0.7615 -0.6136
 2834TIP3   OH232696   3.607   2.369   8.926  1.2295 -0.2024 -0.2018
 2834TIP3    H132697   3.671   2.440   8.912 -0.2214  0.8941 -1.6581
 2834TIP3    H232698   3.550   2.402   8.996 -0.2973  0.7746 -1.8204
 2835TIP3   OH232699   5.919   4.190   7.467 -0.5032  0.3393 -0.2378
 2835TIP3    H132700   5.971   4.268   7.485 -0.7312  0.6561 -0.9295
 2835TIP3    H232701   5.829   4.222   7.459 -0.3832  0.2974 -2.2684
 2836TIP3   OH232702   1.892   5.361   9.252 -0.1341  0.3190 -0.1983
 2836TIP3    H132703   1.913   5.376   9.344  0.0389  1.1059 -0.3622
 2836TIP3    H232704   1.846   5.277   9.252  0.5649 -0.0844  0.5043
 2837TIP3   OH232705   5.211   2.764   6.933 -0.1331 -0.8834 -0.7169
 2837TIP3    H132706   5.278   2.730   6.992  0.3173  0.2582 -0.5559
 2837TIP3    H232707   5.258   2.786   6.853 -0.8021 -2.8163 -1.7282
 2838TIP3   OH232708   5.066   5.164   9.478 -0.1146  0.4413 -0.2032
 2838TIP3    H132709   5.089   5.249   9.515 -1.0610  0.2136  0.9633
 2838TIP3    H232710   5.097   5.100   9.542  0.3240 -0.0896 -0.9270
 2839TIP3   OH232711   5.649   0.151   7.946 -0.1548  0.4765 -0.2660
 2839TIP3    H132712   5.732   0.198   7.938 -0.1246  0.1958 -2.0247
 2839TIP3    H232713   5.584   0.211   7.911 -0.4647  0.1129 -0.3232
 2840TIP3   OH232714   1.684   0.248   8.541 -0.2231  0.2845  0.1234
 2840TIP3    H132715   1.625   0.176   8.562 -0.5397  0.6133  0.4000
 2840TIP3    H232716   1.635   0.326   8.568  0.2284  0.5788  0.0950
 2841TIP3   OH232717   1.454   3.393   8.011 -0.5201  0.0317  0.0319
 2841TIP3    H132718   1.549   3.382   8.009 -0.4507 -0.6576  3.0210
 2841TIP3    H232719   1.441   3.487   7.994  0.8030  0.4515  1.1455
 2842TIP3   OH232720   7.179   6.485   8.384 -0.7774 -0.2174  0.3867
 2842TIP3    H132721   7.236   6.479   8.461  0.9083 -0.0459 -0.7987
 2842TIP3    H232722   7.101   6.531   8.416  1.2683  2.9231  1.2660
 2843TIP3   OH232723   1.345   2.867   9.107  0.0247  0.1788 -0.6086
 2843TIP3    H132724   1.362   2.779   9.139  0.7688 -0.0657 -1.6242
 2843TIP3    H232725   1.251   2.867   9.085 -0.2651  0.0471  0.5608
 2844TIP3   OH232726   1.797   4.101   8.753 -0.0739 -0.8112 -0.0698
 2844TIP3    H132727   1.764   4.100   8.663  0.8520 -2.1717 -0.4211
 2844TIP3    H232728   1.837   4.188   8.762 -1.1754 -0.2232 -0.5697
 2845TIP3   OH232729   4.522   2.341   9.377 -0.1221  0.2285  0.4931
 2845TIP3    H132730   4.609   2.377   9.392  0.1753 -1.0014  1.9090
 2845TIP3    H232731   4.491   2.316   9.464 -1.5976 -0.0298 -0.0751
 2846TIP3   OH232732   3.471   7.519   8.586  0.4195 -0.2815 -0.2740
 2846TIP3    H132733   3.544   7.574   8.558  0.9195  0.0289  1.5077
 2846TIP3    H232734   3.426   7.495   8.504  1.9134  0.3344 -1.3230
 2847TIP3   OH232735   5.694   3.510   8.616  0.2154  0.1921  0.2443
 2847TIP3    H132736   5.638   3.479   8.686 -1.7315 -0.5705 -1.5330
 2847TIP3    H232737   5.648   3.487   8.536  1.4540  2.5907 -1.3059
 2848TIP3   OH232738   5.684   6.849   8.475 -0.2133  0.0651 -0.0381
 2848TIP3    H132739   5.677   6.780   8.410 -0.1897 -1.0338  1.0943
 2848TIP3    H232740   5.767   6.893   8.455 -0.4710  0.1002 -1.0652
 2849TIP3   OH232741   6.701   5.379   7.278 -0.0112  0.0459  0.2409
 2849TIP3    H132742   6.647   5.315   7.233  2.7474 -1.9420 -0.4770
 2849TIP3    H232743   6.664   5.383   7.367 -3.4443  1.5254 -1.0545
 2850TIP3   OH232744   5.584   4.775   9.135  0.8919  0.3188 -0.4890
 2850TIP3    H132745   5.626   4.796   9.052 -1.0453  1.7520 -1.1932
 2850TIP3    H232746   5.528   4.850   9.153  0.0218 -0.6827  1.3051
 2851TIP3   OH232747   2.972   5.642   8.519  0.1555  0.5264 -0.5023
 2851TIP3    H132748   2.982   5.693   8.599  0.8182  1.3480 -1.0789
 2851TIP3    H232749   2.935   5.559   8.547 -1.4042  1.4808  0.4326
 2852TIP3   OH232750   2.620   0.466   7.776 -0.0138  0.2357 -0.0533
 2852TIP3    H132751   2.556   0.528   7.811 -0.9185 -0.7723  0.1456
 2852TIP3    H232752   2.584   0.439   7.691 -1.2348 -2.2072  1.1084
 2853TIP3   OH232753   2.017   5.141   8.058  0.5778  0.6695  0.1144
 2853TIP3    H132754   2.103   5.126   8.018 -0.5141 -0.8765 -1.8347
 2853TIP3    H232755   1.982   5.054   8.076 -0.9894  1.2038 -0.1180
 2854TIP3   OH232756   7.569   3.082   7.819 -0.3523 -0.2920  0.1332
 2854TIP3    H132757   7.510   3.151   7.789  2.1209  2.0761  0.3125
 2854TIP3    H232758   7.601   3.114   7.904  3.4634  0.1962 -1.2937
 2855TIP3   OH232759   6.823   0.743   8.011  0.5056 -0.3287  0.1446
 2855TIP3    H132760   6.827   0.773   8.101 -1.5589 -0.6591  0.3901
 2855TIP3    H232761   6.821   0.647   8.017 -0.3837 -0.3421 -0.1885
 2856TIP3   OH232762   0.812   2.159   9.837 -0.7480  0.0550 -0.2855
 2856TIP3    H132763   0.719   2.176   9.822 -0.6220  1.4997  0.4510
 2856TIP3    H232764   0.857   2.235   9.800 -0.0876  0.9305  2.1714
 2857TIP3   OH232765   1.961   4.212   8.259  0.1668 -0.1171  0.5842
 2857TIP3    H132766   1.883   4.179   8.214 -0.1085  0.1659  0.8440
 2857TIP3    H232767   1.994   4.282   8.202 -0.1539  0.2087  0.7923
 2858TIP3   OH232768   1.142   3.043   8.559  0.2954  0.0524  0.8915
 2858TIP3    H132769   1.208   3.051   8.491 -1.1354 -0.3816 -0.6355
 2858TIP3    H232770   1.174   2.973   8.616  1.0492 -0.2874  0.0628
 2859TIP3   OH232771   5.132   3.793   7.843 -0.0553 -1.0094 -0.2882
 2859TIP3    H132772   5.065   3.725   7.836 -2.0206  0.7321  0.3940
 2859TIP3    H232773   5.199   3.755   7.900 -0.5604 -2.7274 -0.7859
 2860TIP3   OH232774   2.874   3.652   6.963  0.1241  0.9858  0.2483
 2860TIP3    H132775   2.879   3.614   7.051  0.3230  0.3275 -0.0356
 2860TIP3    H232776   2.954   3.705   6.956  0.6241  0.2304  0.1078
 2861TIP3   OH232777   0.727   2.149   9.239 -0.0503  0.4744  0.2537
 2861TIP3    H132778   0.711   2.158   9.333 -2.8948  2.7093 -0.3021
 2861TIP3    H232779   0.772   2.229   9.214  0.0361  0.2284 -0.3919
 2862TIP3   OH232780   1.108   6.046   7.036 -0.0740  0.3722 -0.5395
 2862TIP3    H132781   1.179   6.101   7.002 -1.0505  1.3634 -1.0445
 2862TIP3    H232782   1.028   6.092   7.010 -0.9278 -1.1578 -0.7309
 2863TIP3   OH232783   4.674   2.673   9.139 -0.2654 -0.2348  0.2780
 2863TIP3    H132784   4.659   2.584   9.108  0.8348 -0.5889  0.7042
 2863TIP3    H232785   4.632   2.677   9.224  0.4642 -0.6478  0.6664
 2864TIP3   OH232786   1.761   0.400   7.779 -0.6403 -0.1326  0.1556
 2864TIP3    H132787   1.765   0.309   7.748 -1.0008 -0.4410  0.9866
 2864TIP3    H232788   1.673   0.429   7.756 -0.0382  0.5341 -1.4837
 2865TIP3   OH232789   7.452   5.928   9.126  0.1655  0.1970 -0.5170
 2865TIP3    H132790   7.404   5.954   9.205  0.2359  0.2731 -0.4994
 2865TIP3    H232791   7.384   5.906   9.063  0.1050  0.6485 -0.6077
 2866TIP3   OH232792   5.772   0.792   7.131  0.2175  0.6116  0.2290
 2866TIP3    H132793   5.779   0.718   7.071 -2.3116  0.2717  0.2171
 2866TIP3    H232794   5.747   0.866   7.075  1.3364  1.1568  0.4274
 2867TIP3   OH232795   7.627   6.295   9.429 -0.1276  0.1670  0.0512
 2867TIP3    H132796   7.667   6.381   9.438 -0.1449  0.5330 -2.5598
 2867TIP3    H232797   7.533   6.312   9.435 -0.2367  0.6918 -2.1723
 2868TIP3   OH232798   5.600   4.392   8.108 -0.5432  0.2411 -0.2619
 2868TIP3    H132799   5.638   4.449   8.175 -0.8372  0.7600 -0.5280
 2868TIP3    H232800   5.520   4.436   8.081 -0.7300 -0.2556 -0.5422
 2869TIP3   OH232801   5.292   5.295   9.215  0.3678 -0.0708  0.1472
 2869TIP3    H132802   5.211   5.256   9.181 -1.6481  2.7738  1.2552
 2869TIP3    H232803   5.283   5.287   9.310  2.1363 -0.9593  0.2714
 2870TIP3   OH232804   2.288   7.272   8.229  0.0448  0.5098  0.2991
 2870TIP3    H132805   2.215   7.258   8.168 -0.7178  0.9455  1.0886
 2870TIP3    H232806   2.366   7.262   8.175 -0.5028 -2.2749 -0.1316
 2871TIP3   OH232807   5.278   1.363   8.868  0.1014  0.2972 -0.0254
 2871TIP3    H132808   5.225   1.442   8.862  0.5576  0.5226 -2.2713
 2871TIP3    H232809   5.235   1.301   8.810  1.1145 -0.2143 -0.2601
 2872TIP3   OH232810   3.491   1.348   7.926  0.5450  0.1190 -0.4117
 2872TIP3    H132811   3.554   1.354   7.855  0.1457  0.0450 -0.7786
 2872TIP3    H232812   3.447   1.264   7.912  2.5569 -1.4070  1.6989
 2873TIP3   OH232813   7.122   1.330   9.207  0.4086  0.5972 -0.6038
 2873TIP3    H132814   7.052   1.361   9.150  0.8705 -1.2195 -2.2840
 2873TIP3    H232815   7.087   1.251   9.247  0.5579  1.1578  0.6762
 2874TIP3   OH232816   5.940   2.812   7.712 -0.2975 -0.4500  0.6823
 2874TIP3    H132817   5.923   2.748   7.781 -1.8453 -1.7297 -0.7891
 2874TIP3    H232818   5.994   2.764   7.648  0.2383  0.3750  0.4973
 2875TIP3   OH232819   5.962   5.458   7.977  0.0567  0.3809  0.0542
 2875TIP3    H132820   6.027   5.503   8.030  0.0819  0.8234 -0.3456
 2875TIP3    H232821   5.956   5.510   7.897 -1.8117  1.1490  0.6436
 2876TIP3   OH232822   1.366   1.401   7.388 -0.1671  0.0565  0.1211
 2876TIP3    H132823   1.389   1.399   7.295  0.3900 -2.1653  0.2354
 2876TIP3    H232824   1.362   1.494   7.410 -1.5930  0.6702 -2.3990
 2877TIP3   OH232825   5.991   1.569   9.257  0.1231 -0.2798 -0.2512
 2877TIP3    H132826   5.979   1.662   9.274 -1.3013 -0.7258  1.4949
 2877TIP3    H232827   6.044   1.537   9.330 -1.8504 -1.3266  0.8084
 2878TIP3   OH232828   0.732   4.856   8.848  0.1215  0.0263  0.1575
 2878TIP3    H132829   0.640   4.830   8.856  0.2623 -0.3450  0.6450
 2878TIP3    H232830   0.751   4.848   8.755 -0.8576  1.9141 -0.2426
 2879TIP3   OH232831   1.789   1.986   6.745  0.7195 -0.2376 -0.3701
 2879TIP3    H132832   1.785   1.891   6.750  2.3938 -0.4287 -1.7392
 2879TIP3    H232833   1.836   2.004   6.663 -0.5522  1.7859 -0.7374
 2880TIP3   OH232834   4.049   0.219   8.183 -0.0389 -0.1155 -0.1999
 2880TIP3    H132835   4.109   0.206   8.110 -1.8268  0.8431 -1.9405
 2880TIP3    H232836   4.002   0.136   8.190 -0.1387 -0.0812 -0.4304
 2881TIP3   OH232837   6.770   0.821   7.739 -0.2202 -0.2502  0.0309
 2881TIP3    H132838   6.775   0.912   7.768  0.2888 -0.1897 -0.2277
 2881TIP3    H232839   6.756   0.771   7.819 -1.9732  0.1611  0.0274
 2882TIP3   OH232840   6.267   2.272   9.509 -0.3146  0.2448  0.2350
 2882TIP3    H132841   6.225   2.344   9.463  1.7030  2.9073  2.2083
 2882TIP3    H232842   6.346   2.253   9.458  0.1698  0.8556  0.7337
 2883TIP3   OH232843   0.801   5.114   8.859 -0.2731  0.5629  0.4954
 2883TIP3    H132844   0.810   5.145   8.949 -0.5216  0.6677  0.4836
 2883TIP3    H232845   0.775   5.023   8.867 -1.0230  0.7799  0.5287
 2884TIP3   OH232846   2.902   0.834   8.161 -0.0838  0.2734  0.2852
 2884TIP3    H132847   2.983   0.800   8.198  0.3081  1.2957  0.4020
 2884TIP3    H232848   2.852   0.868   8.236 -1.0717 -1.2143  0.3400
 2885TIP3   OH232849   7.577   1.144   7.521 -0.0782  0.1444 -0.0827
 2885TIP3    H132850   7.639   1.106   7.584  1.2768 -0.8425 -1.9209
 2885TIP3    H232851   7.493   1.104   7.544  0.1676  0.5469  1.6720
 2886TIP3   OH232852   6.414   4.498   9.455  0.1473  0.2913 -0.0524
 2886TIP3    H132853   6.349   4.493   9.525 -0.2517 -1.1700 -0.4847
 2886TIP3    H232854   6.462   4.579   9.472 -1.2066  0.9473  0.7798
 2887TIP3   OH232855   4.881   7.272   8.292  0.1834 -0.0391  0.4668
 2887TIP3    H132856   4.908   7.356   8.329  1.7740 -0.4346  0.2649
 2887TIP3    H232857   4.795   7.289   8.255  0.7920  1.7057 -0.2374
 2888TIP3   OH232858   6.043   5.943   8.464 -0.7688  0.8196  0.0180
 2888TIP3    H132859   6.055   5.849   8.460 -0.3365  0.9094 -1.1639
 2888TIP3    H232860   6.102   5.972   8.534  0.4724  0.3978 -0.8032
 2889TIP3   OH232861   2.229   4.432   7.641 -0.8606 -0.0642  0.2860
 2889TIP3    H132862   2.199   4.475   7.721 -1.5594 -1.1822  0.6513
 2889TIP3    H232863   2.303   4.378   7.669  0.1670  1.0472 -0.2132
 2890TIP3   OH232864   5.432   0.275   7.833 -0.3604 -0.4270  0.2715
 2890TIP3    H132865   5.383   0.210   7.782 -0.6705 -1.5153  1.8758
 2890TIP3    H232866   5.413   0.253   7.924  1.6407  0.3147  0.9108
 2891TIP3   OH232867   7.076   7.300   8.318  0.1307 -0.5957 -0.3388
 2891TIP3    H132868   7.118   7.251   8.388 -0.5266 -0.2890  0.2805
 2891TIP3    H232869   7.093   7.391   8.338 -3.6837 -0.1624  1.9492
 2892TIP3   OH232870   4.826   2.150   8.011 -0.7721  0.2420 -0.5983
 2892TIP3    H132871   4.901   2.113   7.964 -0.8419  0.2720 -0.7318
 2892TIP3    H232872   4.849   2.242   8.022 -0.8680  0.2899 -0.7946
 2893TIP3   OH232873   0.418   7.377   6.755 -0.6826 -0.0038 -0.3702
 2893TIP3    H132874   0.503   7.367   6.797 -0.6512 -0.9880 -0.6555
 2893TIP3    H232875   0.394   7.289   6.726 -1.1105  0.4932 -1.6217
 2894TIP3   OH232876   0.223   6.105   8.477 -0.0481 -0.2835 -0.6095
 2894TIP3    H132877   0.135   6.093   8.442 -1.1333  3.6616  0.1893
 2894TIP3    H232878   0.261   6.173   8.422  1.1028  0.5779  1.1403
 2895TIP3   OH232879   2.224   3.809   8.267 -0.0336 -0.1840  0.1257
 2895TIP3    H132880   2.171   3.760   8.329  0.9594  0.6237  1.6624
 2895TIP3    H232881   2.245   3.746   8.198 -3.4750 -0.3909 -0.9404
 2896TIP3   OH232882   1.666   4.921   7.062  0.3385 -0.0838 -0.0185
 2896TIP3    H132883   1.725   4.885   6.995  2.5036 -1.4781  2.4628
 2896TIP3    H232884   1.722   4.980   7.113 -1.8794  2.9705 -0.8052
 2897TIP3   OH232885   5.494   5.556   8.412 -0.0687 -0.6864 -0.1850
 2897TIP3    H132886   5.474   5.493   8.343 -1.5138 -1.2848  0.7211
 2897TIP3    H232887   5.429   5.625   8.400  0.1562 -0.4217  0.1147
 2898TIP3   OH232888   2.821   2.181   9.215  0.3817 -0.0089 -0.2280
 2898TIP3    H132889   2.730   2.163   9.241  1.0743 -2.1502  0.9302
 2898TIP3    H232890   2.841   2.264   9.257 -0.7164 -0.0302  0.3917
 2899TIP3   OH232891   7.123   1.826   9.505  0.4867 -0.0096 -0.3131
 2899TIP3    H132892   7.036   1.830   9.465  0.6333  1.1080 -0.5662
 2899TIP3    H232893   7.149   1.734   9.496 -1.0622 -0.5928  0.6598
 2900TIP3   OH232894   7.045   7.214   7.542  0.3533  0.2537 -0.5100
 2900TIP3    H132895   7.119   7.275   7.543 -0.0642  0.7965 -1.4708
 2900TIP3    H232896   6.969   7.268   7.522 -0.4335 -0.1830  1.1583
 2901TIP3   OH232897   7.119   3.580   7.303 -0.2008 -0.1525 -0.5641
 2901TIP3    H132898   7.083   3.491   7.301  0.4588 -0.4226 -0.6403
 2901TIP3    H232899   7.055   3.630   7.354 -0.7627 -0.5843 -0.8341
 2902TIP3   OH232900   1.492   0.486   7.582 -0.1789 -0.0168 -0.4951
 2902TIP3    H132901   1.405   0.490   7.543 -0.4004 -1.0105 -0.1338
 2902TIP3    H232902   1.525   0.400   7.557 -0.7480 -1.1633  2.3270
 2903TIP3   OH232903   5.256   2.340   7.419 -0.4939 -0.0134 -0.4135
 2903TIP3    H132904   5.278   2.386   7.338 -3.3441 -0.9857 -1.8648
 2903TIP3    H232905   5.166   2.367   7.439 -0.8954 -2.0247  0.7948
 2904TIP3   OH232906   2.270   3.445   9.015  0.1169 -0.0819  0.5704
 2904TIP3    H132907   2.344   3.418   8.961 -0.5231 -0.5466 -0.0785
 2904TIP3    H232908   2.297   3.530   9.051  0.5538  0.2284 -0.4579
 2905TIP3   OH232909   5.408   3.622   8.102 -0.6854 -0.3165  0.3217
 2905TIP3    H132910   5.354   3.691   8.142 -2.8760 -2.1374  0.7450
 2905TIP3    H232911   5.435   3.567   8.176 -0.5791 -0.9682 -0.1919
 2906TIP3   OH232912   5.655   6.209   8.164 -0.2456  0.3131 -0.2211
 2906TIP3    H132913   5.644   6.143   8.096  3.8855 -0.8553 -0.0533
 2906TIP3    H232914   5.613   6.287   8.130 -1.6046 -1.2498 -2.3617
 2907TIP3   OH232915   5.502   4.605   7.780 -0.0961  0.0019  0.5613
 2907TIP3    H132916   5.504   4.630   7.872  0.5791  0.7172  0.3640
 2907TIP3    H232917   5.415   4.569   7.767 -0.8558  1.5579  1.0668
 2908TIP3   OH232918   7.503   1.456   9.273 -0.7511 -0.1683  0.0852
 2908TIP3    H132919   7.568   1.467   9.342 -1.5595 -0.7769  0.9734
 2908TIP3    H232920   7.422   1.437   9.320 -1.6546  0.9397 -0.9914
 2909TIP3   OH232921   3.596   2.304   9.718  0.3131 -0.2457  0.2842
 2909TIP3    H132922   3.646   2.247   9.776  1.3882  0.3112 -0.0490
 2909TIP3    H232923   3.524   2.251   9.686  0.9613 -1.2315  0.4330
 2910TIP3   OH232924   1.527   4.118   6.885 -0.1413 -0.3927 -0.4769
 2910TIP3    H132925   1.606   4.065   6.890 -0.1683 -0.3943 -0.1050
 2910TIP3    H232926   1.485   4.090   6.803  0.4006 -0.1682 -0.8423
 2911TIP3   OH232927   5.363   4.551   8.929 -0.2541  0.0405  0.2994
 2911TIP3    H132928   5.442   4.498   8.932 -0.7427 -0.6629  1.7366
 2911TIP3    H232929   5.355   4.588   9.017 -0.7852  1.2402 -0.2240
 2912TIP3   OH232930   1.438   1.520   8.755 -0.0466 -0.3208 -0.0925
 2912TIP3    H132931   1.526   1.482   8.752  0.6662  1.1892  0.5581
 2912TIP3    H232932   1.450   1.612   8.729 -1.3788 -0.0041  0.3014
 2913TIP3   OH232933   7.221   0.349   9.164 -0.3400 -0.2067 -0.0051
 2913TIP3    H132934   7.292   0.337   9.100 -0.9083 -0.9663 -0.5141
 2913TIP3    H232935   7.266   0.365   9.247  0.4422 -0.9070 -0.2787
 2914TIP3   OH232936   3.454   7.635   7.393 -0.7604  0.5422 -0.0405
 2914TIP3    H132937   3.426   7.727   7.389 -2.1856  0.1770  0.8586
 2914TIP3    H232938   3.381   7.586   7.353  0.1583 -0.1827 -0.8771
 2915TIP3   OH232939   0.073   5.171   7.758 -0.3734  0.1675 -0.1238
 2915TIP3    H132940   0.126   5.091   7.754  1.1050  1.1147 -0.0115
 2915TIP3    H232941   0.002   5.156   7.695  0.8102 -0.5781 -1.3344
 2916TIP3   OH232942   0.661   1.342   8.973  0.1807 -0.2674 -0.1106
 2916TIP3    H132943   0.686   1.261   9.017  1.6070 -0.1463 -0.6491
 2916TIP3    H232944   0.649   1.317   8.881  0.5848  0.1023 -0.2695
 2917TIP3   OH232945   2.203   1.591   9.553 -0.3797  0.0198  0.0845
 2917TIP3    H132946   2.166   1.508   9.583 -1.8418  0.4058 -0.5582
 2917TIP3    H232947   2.142   1.658   9.587  0.5733  0.8085  0.2818
 2918TIP3   OH232948   2.824   0.505   7.944  0.6653 -0.3586  0.0728
 2918TIP3    H132949   2.749   0.486   7.888 -0.0729  0.4897  0.7336
 2918TIP3    H232950   2.872   0.423   7.951  0.9196 -0.4223 -1.9940
 2919TIP3   OH232951   4.709   5.779   7.987 -0.0017 -0.6150 -0.2464
 2919TIP3    H132952   4.632   5.831   8.009  0.2267  0.5236 -1.9513
 2919TIP3    H232953   4.678   5.688   7.988 -0.9369 -0.3029  0.6616
 2920TIP3   OH232954   6.533   6.374   9.377  0.3007 -0.6238 -0.5447
 2920TIP3    H132955   6.469   6.303   9.380  1.6206 -1.8430  0.2929
 2920TIP3    H232956   6.602   6.342   9.319  0.0903  0.7614 -1.6139
 2921TIP3   OH232957   4.858   2.446   8.768 -0.1502 -0.1411  0.1183
 2921TIP3    H132958   4.903   2.520   8.809 -0.5376 -0.1386  0.5463
 2921TIP3    H232959   4.860   2.377   8.834 -0.6217 -0.2008  0.0726
 2922TIP3   OH232960   7.440   2.900   8.465  0.1222 -0.6391  0.4018
 2922TIP3    H132961   7.429   2.991   8.438 -0.2692 -0.6211  0.6143
 2922TIP3    H232962   7.351   2.864   8.467  0.3299 -1.2109 -0.3104
 2923TIP3   OH232963   6.916   1.758   8.902  0.1453  0.1972 -0.1750
 2923TIP3    H132964   6.928   1.720   8.815 -0.6443  0.3458 -0.3549
 2923TIP3    H232965   6.855   1.831   8.889  1.3657  1.3286  0.2280
 2924TIP3   OH232966   3.263   4.592   7.017 -0.1157  0.2727  0.2430
 2924TIP3    H132967   3.212   4.569   6.939  1.1377 -0.4306 -0.4177
 2924TIP3    H232968   3.334   4.527   7.018  0.3820  0.8124  1.4914
 2925TIP3   OH232969   1.824   7.545   8.091  1.0828  0.0042 -0.0760
 2925TIP3    H132970   1.755   7.592   8.136  1.4254 -0.6016  1.1155
 2925TIP3    H232971   1.888   7.613   8.068  0.4976  0.4403 -0.4572
 2926TIP3   OH232972   3.311   3.403   8.859  0.0023 -0.2198  0.5720
 2926TIP3    H132973   3.238   3.463   8.840  0.5365  0.9631  2.0020
 2926TIP3    H232974   3.347   3.381   8.773 -1.6874 -0.4139 -0.1336
 2927TIP3   OH232975   5.776   2.024   8.199  0.3893  0.0416 -0.7180
 2927TIP3    H132976   5.804   2.087   8.132  0.0217 -0.8728 -1.7443
 2927TIP3    H232977   5.858   1.997   8.241  0.5740  1.0186 -0.4259
 2928TIP3   OH232978   0.594   0.093   9.729 -0.1687  0.1888 -0.6447
 2928TIP3    H132979   0.547   0.084   9.811 -0.5879  0.1438 -0.8840
 2928TIP3    H232980   0.549   0.033   9.669  0.6024 -0.3453 -0.7043
 2929TIP3   OH232981   5.906   3.109   9.316 -0.1586 -0.0869  0.5109
 2929TIP3    H132982   5.994   3.147   9.322 -0.2856  0.7514 -1.8623
 2929TIP3    H232983   5.850   3.169   9.365  0.3223  0.3110  0.5801
 2930TIP3   OH232984   5.536   6.902   8.164 -0.1148  0.2114 -0.0490
 2930TIP3    H132985   5.560   6.910   8.257 -0.9129 -0.9250  0.2782
 2930TIP3    H232986   5.597   6.960   8.119 -1.0331  2.3964  1.3604
 2931TIP3   OH232987   4.259   6.662   8.302  0.1410 -0.6938  0.0541
 2931TIP3    H132988   4.220   6.717   8.233  0.5168 -0.5006 -0.0075
 2931TIP3    H232989   4.299   6.589   8.255 -2.2175 -2.2407  0.2524
 2932TIP3   OH232990   7.172   1.989   9.275 -0.3731 -0.1078  0.2920
 2932TIP3    H132991   7.182   1.937   9.196  0.1846  0.1399  0.1986
 2932TIP3    H232992   7.167   1.924   9.346  0.8832 -0.2866  0.2383
 2933TIP3   OH232993   2.055   6.898   7.831  0.5481  0.1753  0.0028
 2933TIP3    H132994   2.069   6.843   7.754 -0.9072 -0.7987  0.3797
 2933TIP3    H232995   2.061   6.837   7.905  1.1624  0.9578  0.6106
 2934TIP3   OH232996   3.746   0.295   7.989 -0.1590 -0.2371 -0.0313
 2934TIP3    H132997   3.724   0.367   8.048 -0.7670 -1.0051  0.7084
 2934TIP3    H232998   3.820   0.328   7.938 -0.9361  1.2092 -0.2924
 2935TIP3   OH232999   6.601   7.298   9.354 -0.5668  0.0540  0.3167
 2935TIP3    H133000   6.602   7.237   9.281  3.2230 -0.3967  0.5391
 2935TIP3    H233001   6.595   7.243   9.432  1.8857 -0.0844  0.4796
 2936TIP3   OH233002   1.370   1.607   9.273 -0.3401 -0.0409  0.2286
 2936TIP3    H133003   1.275   1.616   9.284 -0.6617 -1.9982 -0.6350
 2936TIP3    H233004   1.386   1.635   9.183 -0.6927 -3.0866 -0.8888
 2937TIP3   OH233005   2.527   4.569   8.622 -0.1815 -0.0257  0.2772
 2937TIP3    H133006   2.446   4.519   8.635 -0.7388  0.5807 -0.7571
 2937TIP3    H233007   2.568   4.528   8.546 -0.7373  1.1642 -0.6980
 2938TIP3   OH233008   5.431   5.264   8.453  0.1875  0.1496  0.2337
 2938TIP3    H133009   5.385   5.185   8.424  2.2396 -0.5934 -1.2313
 2938TIP3    H233010   5.504   5.273   8.391  0.2399  3.0002  0.5729
 2939TIP3   OH233011   0.482   7.072   7.576 -0.0752  0.1019  0.7089
 2939TIP3    H133012   0.408   7.012   7.569 -0.1489 -0.0777  2.5301
 2939TIP3    H233013   0.443   7.159   7.565 -0.2522 -0.0794 -0.1448
 2940TIP3   OH233014   3.245   2.207   7.484  0.3296  0.0569 -0.2156
 2940TIP3    H133015   3.261   2.225   7.391  1.2685 -0.3280 -0.1414
 2940TIP3    H233016   3.168   2.151   7.484 -0.2686  0.8518 -0.6944
 2941TIP3   OH233017   3.980   0.733   9.439  0.2697 -0.0136 -0.0965
 2941TIP3    H133018   4.023   0.664   9.490 -0.8146 -1.6102 -1.2458
 2941TIP3    H233019   3.887   0.726   9.462  0.2954  2.0028  0.7844
 2942TIP3   OH233020   6.322   1.305   9.632  0.5121  0.3193  0.4678
 2942TIP3    H133021   6.336   1.222   9.587  1.5812  0.7208  0.0187
 2942TIP3    H233022   6.280   1.280   9.715 -1.6390 -0.4152 -0.7517
 2943TIP3   OH233023   3.238   5.196   8.399  0.3028  0.3907 -0.5625
 2943TIP3    H133024   3.249   5.206   8.494 -0.7683  1.4602 -0.5312
 2943TIP3    H233025   3.184   5.118   8.390 -0.8137  1.0997 -0.2013
 2944TIP3   OH233026   4.589   3.459   9.150 -0.0668 -0.1093 -0.6059
 2944TIP3    H133027   4.588   3.439   9.056  1.0120 -0.3019 -0.5899
 2944TIP3    H233028   4.513   3.516   9.164 -1.7371 -2.0764 -1.1312
 2945TIP3   OH233029   2.232   6.372   6.976  0.3421 -0.5453  0.1660
 2945TIP3    H133030   2.249   6.422   7.056  0.9570  0.0895 -0.3542
 2945TIP3    H233031   2.137   6.365   6.972  0.1798  1.4634 -0.2743
 2946TIP3   OH233032   3.109   5.253   9.104  0.1168  0.5320  0.4087
 2946TIP3    H133033   3.072   5.303   9.177 -0.2285 -1.0007  1.3237
 2946TIP3    H233034   3.109   5.315   9.031 -3.4190  0.9365  0.5719
 2947TIP3   OH233035   5.897   4.883   7.613  0.1302  0.0157 -0.8225
 2947TIP3    H133036   5.977   4.843   7.646 -0.7824 -1.7711 -0.6928
 2947TIP3    H233037   5.844   4.810   7.581  0.3135  1.4488 -4.9600
 2948TIP3   OH233038   1.913   4.890   8.166 -0.2315 -0.2268 -0.5178
 2948TIP3    H133039   1.852   4.816   8.160 -0.5269 -0.0960  0.5416
 2948TIP3    H233040   1.997   4.855   8.136  0.0398 -1.5033  1.5403
 2949TIP3   OH233041   1.615   2.621   9.417  0.6137 -0.1701 -0.8656
 2949TIP3    H133042   1.524   2.600   9.397  0.7515 -2.1494  0.2721
 2949TIP3    H233043   1.611   2.677   9.495  0.3510 -2.5740  0.9741
 2950TIP3   OH233044   6.329   5.846   9.481 -0.3270  0.0675 -0.1741
 2950TIP3    H133045   6.251   5.895   9.508  0.2130 -0.1691  2.0620
 2950TIP3    H233046   6.307   5.754   9.498  1.1859  0.1462  2.9234
 2951TIP3   OH233047   0.614   1.060   8.022 -0.8786  0.1786  0.0908
 2951TIP3    H133048   0.530   1.016   8.035 -0.2883 -1.0896 -0.2995
 2951TIP3    H233049   0.630   1.107   8.104 -1.6658 -0.0784  0.3982
 2952TIP3   OH233050   2.255   7.039   9.094 -0.1430 -0.1859  0.1909
 2952TIP3    H133051   2.193   6.967   9.086  0.8204 -1.4336  2.6312
 2952TIP3    H233052   2.326   7.018   9.033 -1.1417  0.1877 -1.1247
 2953TIP3   OH233053   3.194   7.507   7.335  0.4725 -0.4879 -0.4600
 2953TIP3    H133054   3.153   7.531   7.418  0.5258 -0.8383 -0.3337
 2953TIP3    H233055   3.153   7.566   7.271  0.3589 -0.2866 -0.2048
 2954TIP3   OH233056   5.555   2.902   7.724 -0.2708  0.1388 -0.4686
 2954TIP3    H133057   5.610   2.969   7.765  1.0283  0.7014 -2.9511
 2954TIP3    H233058   5.603   2.820   7.738 -0.5012  0.1234  0.2507
 2955TIP3   OH233059   3.536   4.677   9.178 -0.2737  0.3162 -0.1254
 2955TIP3    H133060   3.531   4.769   9.205  3.7638  0.7487 -0.2433
 2955TIP3    H233061   3.533   4.627   9.260 -0.9982  0.6575  0.0594
 2956TIP3   OH233062   2.589   2.970   9.642  0.0407 -0.2878  0.4125
 2956TIP3    H133063   2.553   2.958   9.730 -1.4473 -0.2906 -0.1583
 2956TIP3    H233064   2.515   3.004   9.591  0.9811  0.0781 -0.7481
 2957TIP3   OH233065   0.778   3.837   7.010  0.1634  0.0927  0.0349
 2957TIP3    H133066   0.856   3.782   7.011  0.7927  0.9014 -1.5766
 2957TIP3    H233067   0.811   3.927   7.006 -0.8304  0.4355 -1.1160
 2958TIP3   OH233068   1.685   6.257   7.568 -0.2996 -0.3343  0.4870
 2958TIP3    H133069   1.646   6.181   7.610 -1.6037 -0.6070 -1.0876
 2958TIP3    H233070   1.615   6.322   7.566  0.6093  0.7074  1.2481
 2959TIP3   OH233071   2.769   0.326   8.697 -0.1200  0.0322 -0.0607
 2959TIP3    H133072   2.677   0.328   8.670 -0.0193 -1.0399 -0.5111
 2959TIP3    H233073   2.817   0.356   8.620 -0.1197  1.3240  0.4114
 2960TIP3   OH233074   6.020   3.842   9.095  0.1167 -0.1321 -0.4231
 2960TIP3    H133075   6.036   3.936   9.105 -0.9976  0.2541 -1.9706
 2960TIP3    H233076   6.009   3.811   9.185 -1.6350  1.6323  0.0547
 2961TIP3   OH233077   7.533   6.588   8.714  0.4957  0.4534  0.5542
 2961TIP3    H133078   7.587   6.516   8.747  1.6005  1.2706  0.5644
 2961TIP3    H233079   7.578   6.667   8.743  1.3701  1.2391 -2.6397
 2962TIP3   OH233080   2.051   3.948   6.557 -0.6620  0.2402 -0.9124
 2962TIP3    H133081   1.985   4.012   6.582 -0.2961 -1.3184  5.7215
 2962TIP3    H233082   2.001   3.877   6.517 -2.1327  1.4066 -1.2425
 2963TIP3   OH233083   4.639   2.989   8.596 -0.0818 -0.1763 -0.0283
 2963TIP3    H133084   4.586   2.959   8.522  0.8589  1.1756 -1.3117
 2963TIP3    H233085   4.704   2.920   8.610  0.1143 -0.1700 -0.8763
 2964TIP3   OH233086   0.182   5.444   6.940  0.6034 -0.8160 -0.2606
 2964TIP3    H133087   0.145   5.367   6.983  0.6453  0.3327  1.9923
 2964TIP3    H233088   0.208   5.414   6.854 -1.6895 -2.7062 -0.3892
 2965TIP3   OH233089   3.714   1.702   8.579 -0.4078 -0.1744  0.1116
 2965TIP3    H133090   3.710   1.755   8.499 -0.2814 -1.5888 -0.8685
 2965TIP3    H233091   3.681   1.760   8.647 -1.0075  0.9115 -1.0498
 2966TIP3   OH233092   0.462   4.193   8.755 -0.1703  0.6972 -0.1866
 2966TIP3    H133093   0.450   4.255   8.828 -0.8260 -1.0716  1.3050
 2966TIP3    H233094   0.392   4.214   8.694 -0.0825  1.7408  0.0547
 2967TIP3   OH233095   0.876   5.792   7.481 -0.1495  0.1189 -0.3354
 2967TIP3    H133096   0.924   5.746   7.551 -1.0659 -0.3777 -0.0119
 2967TIP3    H233097   0.893   5.741   7.403 -0.7302 -0.4919 -0.0769
 2968TIP3   OH233098   3.494   0.578   9.272 -0.2267  0.5678  0.5511
 2968TIP3    H133099   3.407   0.616   9.273 -0.2278  0.8728 -2.2945
 2968TIP3    H233100   3.553   0.654   9.269  0.1092  0.3489  1.2750
 2969TIP3   OH233101   7.348   3.255   7.792 -0.6115  0.0758  0.4604
 2969TIP3    H133102   7.263   3.215   7.806 -0.5799  0.3453  1.5284
 2969TIP3    H233103   7.329   3.348   7.778 -0.5318  0.0602  0.2525
 2970TIP3   OH233104   4.264   2.750   9.408 -0.2175 -0.4952 -0.0104
 2970TIP3    H133105   4.210   2.675   9.382 -1.1504  0.9764 -2.6606
 2970TIP3    H233106   4.282   2.797   9.327 -1.4989  3.3473  1.6575
 2971TIP3   OH233107   0.585   2.460   9.427 -0.0757  0.1964  0.0444
 2971TIP3    H133108   0.633   2.463   9.511  2.2123 -0.8808 -1.1273
 2971TIP3    H233109   0.560   2.551   9.412  0.5982  0.6296  1.3026
 2972TIP3   OH233110   2.306   4.220   8.902 -0.6233  0.5900  0.3337
 2972TIP3    H133111   2.232   4.280   8.901 -0.4831  0.7923 -1.2056
 2972TIP3    H233112   2.277   4.146   8.955 -3.2669 -0.8696 -2.7822
 2973TIP3   OH233113   1.761   0.255  10.101  0.1522 -0.5253 -0.5547
 2973TIP3    H133114   1.666   0.240  10.095 -0.0911  0.6804 -0.0178
 2973TIP3    H233115   1.798   0.206  10.027 -0.9087 -0.7976 -0.9263
 2974TIP3   OH233116   0.653   1.207   8.240 -0.9458 -0.1154  0.5212
 2974TIP3    H133117   0.736   1.250   8.262  0.0201 -0.4975 -2.0485
 2974TIP3    H233118   0.589   1.278   8.235 -0.1236  0.5863 -0.3243
 2975TIP3   OH233119   7.402   5.640   8.831  0.0646 -0.1788  0.1434
 2975TIP3    H133120   7.391   5.734   8.838  0.2824 -0.1848  0.6302
 2975TIP3    H233121   7.443   5.627   8.745 -2.0683 -0.0339 -0.9543
 2976TIP3   OH233122   4.038   5.126   7.441  0.4912  0.5320  0.5057
 2976TIP3    H133123   4.099   5.136   7.514  0.3757 -0.7104  0.7904
 2976TIP3    H233124   4.091   5.092   7.370  1.0194  3.4880 -0.6652
 2977TIP3   OH233125   2.628   4.295   9.902  0.8063  0.4570  0.0556
 2977TIP3    H133126   2.701   4.354   9.887  0.3621  0.4955 -2.4750
 2977TIP3    H233127   2.556   4.333   9.850 -0.0738 -1.2336 -0.0196
 2978TIP3   OH233128   1.008   2.936   9.560  0.6435 -0.2725  0.4803
 2978TIP3    H133129   1.084   2.878   9.560  1.8011  1.1655 -0.4425
 2978TIP3    H233130   1.044   3.023   9.541 -1.1234  0.6190  0.9663
 2979TIP3   OH233131   5.012   1.743   9.205  0.1384 -0.1885  0.6979
 2979TIP3    H133132   5.037   1.714   9.117  0.7719 -0.8214  1.0725
 2979TIP3    H233133   4.971   1.828   9.192  1.8002  0.5291 -0.0470
 2980TIP3   OH233134   4.938   5.600   9.244  0.0371  0.5606  0.0658
 2980TIP3    H133135   4.915   5.507   9.232  2.3908 -0.1618  0.6624
 2980TIP3    H233136   4.873   5.647   9.193 -0.6366 -1.4746 -1.0791
 2981TIP3   OH233137   1.032   7.577   9.375 -0.0035 -0.1123 -0.1685
 2981TIP3    H133138   1.074   7.661   9.393  0.8139 -0.4274 -0.5292
 2981TIP3    H233139   1.069   7.518   9.441 -1.4499  0.0456  0.8432
 2982TIP3   OH233140   0.077   4.234   6.965  0.0329 -0.0946  0.0833
 2982TIP3    H133141   0.042   4.289   6.895 -1.6646 -0.1066  0.8584
 2982TIP3    H233142   0.006   4.174   6.986  1.0487 -1.0847  0.8052
 2983TIP3   OH233143   5.629   5.208   8.280  0.6293 -0.1203 -0.4203
 2983TIP3    H133144   5.686   5.132   8.293  0.3841 -0.4994 -1.4803
 2983TIP3    H233145   5.655   5.243   8.195  1.4264  1.5970  0.4774
 2984TIP3   OH233146   2.495   0.198   9.254  0.4661 -0.3158  0.2396
 2984TIP3    H133147   2.500   0.221   9.347  0.1412 -0.6960  0.3536
 2984TIP3    H233148   2.585   0.205   9.222  0.7082 -0.9461  0.7654
 2985TIP3   OH233149   2.345   3.131   7.577 -0.1148 -0.7634 -0.3707
 2985TIP3    H133150   2.368   3.050   7.623 -0.1318  1.1084  3.3580
 2985TIP3    H233151   2.250   3.138   7.587 -0.4445 -1.2906 -2.6709
 2986TIP3   OH233152   7.575   0.188   8.001  0.2787  0.0426 -0.2868
 2986TIP3    H133153   7.479   0.187   8.004  0.2651  1.4196  0.3883
 2986TIP3    H233154   7.602   0.126   8.068 -0.1223 -1.2621 -1.2980
 2987TIP3   OH233155   1.261   5.899   9.085 -0.0899 -0.2506  0.0402
 2987TIP3    H133156   1.287   5.964   9.151 -1.8574 -0.0269  0.5768
 2987TIP3    H233157   1.177   5.931   9.052  0.0689 -1.1306 -1.3013
 2988TIP3   OH233158   5.473   3.206   7.952  0.2471 -0.7341  0.5885
 2988TIP3    H133159   5.417   3.130   7.934 -1.2222  0.8841 -2.3323
 2988TIP3    H233160   5.415   3.281   7.944  2.1223  0.8505  1.1463
 2989TIP3   OH233161   3.392   4.138   9.657  0.6652 -0.0488 -0.3422
 2989TIP3    H133162   3.320   4.158   9.716 -0.6569  3.1148 -2.7304
 2989TIP3    H233163   3.451   4.212   9.664  0.7203  0.1926 -2.5087
 2990TIP3   OH233164   3.645   4.289   7.288  0.0470 -0.1606  0.3713
 2990TIP3    H133165   3.720   4.242   7.323  0.9781  2.2328  1.8537
 2990TIP3    H233166   3.573   4.268   7.348 -0.3817 -1.9555 -0.6917
 2991TIP3   OH233167   3.289   4.253   8.298  0.3444  0.9025  0.4229
 2991TIP3    H133168   3.202   4.269   8.333  0.4250  0.8559  0.6452
 2991TIP3    H233169   3.282   4.166   8.257 -0.7261  2.3501 -2.7948
 2992TIP3   OH233170   7.234   4.256   9.351  0.6019  0.1525  0.1655
 2992TIP3    H133171   7.238   4.247   9.446 -1.1167 -0.6065  0.2077
 2992TIP3    H233172   7.315   4.300   9.328  0.8864  0.6978  2.0226
 2993TIP3   OH233173   0.144   2.845   7.673  0.0125 -0.6499 -0.0077
 2993TIP3    H133174   0.072   2.828   7.612  0.3567  4.5357 -2.3445
 2993TIP3    H233175   0.223   2.838   7.619  0.5983  0.9986  0.5869
 2994TIP3   OH233176   5.077   7.160   7.396  0.1055 -0.1550 -0.4081
 2994TIP3    H133177   5.055   7.253   7.406  0.3906  0.0831 -1.7371
 2994TIP3    H233178   5.006   7.125   7.342  1.3648 -0.0541 -2.2240
 2995TIP3   OH233179   0.923   3.634   8.531 -0.2543 -0.2219 -0.6393
 2995TIP3    H133180   0.899   3.546   8.560 -0.8539  0.9101  2.7267
 2995TIP3    H233181   0.839   3.673   8.504 -0.2849 -0.1100 -0.3847
 2996TIP3   OH233182   5.550   1.591   8.356 -0.0277  0.4423 -0.0901
 2996TIP3    H133183   5.604   1.583   8.435 -2.4528  0.1937  1.6549
 2996TIP3    H233184   5.554   1.684   8.334  0.7099  0.5095  0.2736
 2997TIP3   OH233185   0.346   7.333   7.493  0.4153 -0.4230  0.3184
 2997TIP3    H133186   0.384   7.398   7.435  0.1702  0.9999  1.6771
 2997TIP3    H233187   0.252   7.339   7.479  0.3363  0.1138  1.0236
 2998TIP3   OH233188   6.153   7.593   8.261 -0.4965  0.1514  0.7166
 2998TIP3    H133189   6.076   7.640   8.227 -0.2119 -0.5339 -0.9620
 2998TIP3    H233190   6.153   7.510   8.214  1.7057  0.4562  0.0558
 2999TIP3   OH233191   5.753   0.351   8.321 -0.5152  0.1925 -0.5609
 2999TIP3    H133192   5.697   0.425   8.343  0.6402  0.3969  2.0299
 2999TIP3    H233193   5.832   0.390   8.283 -0.5192  0.1879 -0.5738
 3000TIP3   OH233194   2.464   4.913   7.335 -0.2487  0.0385 -0.0351
 3000TIP3    H133195   2.370   4.899   7.345 -0.0423 -0.9796  0.6056
 3000TIP3    H233196   2.475   5.008   7.339 -1.1385  0.1176  0.8787
 3001TIP3   OH233197   6.645   5.450   7.792  0.3820  0.2105  0.1042
 3001TIP3    H133198   6.550   5.458   7.793  0.3974  0.3731  0.5579
 3001TIP3    H233199   6.665   5.411   7.707 -0.2226 -1.5535  0.7222
 3002TIP3   OH233200   0.687   1.372   7.010  0.5806  0.0610 -0.3858
 3002TIP3    H133201   0.761   1.365   7.071  0.1031  0.8792  0.3073
 3002TIP3    H233202   0.647   1.285   7.010 -0.5527  0.5084  1.9524
 3003TIP3   OH233203   2.222   1.350   8.320  0.4899  0.2049 -0.1397
 3003TIP3    H133204   2.184   1.296   8.251 -0.4749  1.3616 -0.5217
 3003TIP3    H233205   2.274   1.416   8.274  2.0705 -0.6379  0.3429
 3004TIP3   OH233206   7.169   2.627   7.928  0.1107  0.1168 -0.1676
 3004TIP3    H133207   7.151   2.538   7.900  0.9342 -0.0132 -0.3212
 3004TIP3    H233208   7.099   2.648   7.990 -1.1100  0.0109 -1.4574
 3005TIP3   OH233209   1.734   5.151   9.231 -0.1809 -0.8447 -0.7049
 3005TIP3    H133210   1.672   5.222   9.217  0.5666  0.1414  0.7340
 3005TIP3    H233211   1.680   5.071   9.232 -1.4201 -0.0311  0.4127
 3006TIP3   OH233212   7.526   1.071   9.340  0.6107  0.7808 -0.4156
 3006TIP3    H133213   7.585   1.129   9.388  1.7777  0.6040 -1.5755
 3006TIP3    H233214   7.576   0.990   9.329 -0.0818  0.4151 -0.9037
 3007TIP3   OH233215   6.460   5.306   6.654 -0.1511 -0.2195  0.0409
 3007TIP3    H133216   6.461   5.312   6.559 -2.6952  1.4930 -0.0030
 3007TIP3    H233217   6.456   5.398   6.683 -0.3486 -0.7317  1.7396
 3008TIP3   OH233218   5.880   6.765   8.201 -0.0923  0.1573 -0.5925
 3008TIP3    H133219   5.823   6.713   8.258 -0.7734 -0.3500 -1.7078
 3008TIP3    H233220   5.933   6.699   8.156 -0.1859  0.5018 -1.2034
 3009TIP3   OH233221   5.561   1.678   9.303 -0.1418 -0.7278 -0.0676
 3009TIP3    H133222   5.560   1.652   9.211  1.0846 -1.6100  0.1440
 3009TIP3    H233223   5.537   1.599   9.351  2.1533 -1.1557  0.4972
 3010TIP3   OH233224   5.089   7.578   8.942 -0.3290  0.2462  0.1081
 3010TIP3    H133225   5.109   7.669   8.922 -1.0789  0.1523 -1.1776
 3010TIP3    H233226   5.169   7.543   8.981  0.0405  1.3824  0.3913
 3011TIP3   OH233227   4.835   1.970   9.137 -0.3422 -0.1757 -0.2853
 3011TIP3    H133228   4.855   1.989   9.228 -1.3018 -0.7223  0.0538
 3011TIP3    H233229   4.751   2.014   9.121  0.1013  0.4293 -1.0952
 3012TIP3   OH233230   3.261   3.860   9.621 -0.5406 -0.4463 -1.1147
 3012TIP3    H133231   3.330   3.796   9.639 -0.9750 -1.0721 -1.6621
 3012TIP3    H233232   3.291   3.940   9.665 -0.6393 -1.3828  0.7741
 3013TIP3   OH233233   0.976   2.317   6.597  0.0049  0.4261  0.3716
 3013TIP3    H133234   0.981   2.330   6.692  0.4444 -0.6702  0.5182
 3013TIP3    H233235   0.980   2.222   6.586 -0.7769  0.5054 -0.7128
 3014TIP3   OH233236   1.800   6.808   8.029 -0.3169 -0.1915 -0.0958
 3014TIP3    H133237   1.729   6.839   8.086  0.7599  1.5106  0.3852
 3014TIP3    H233238   1.859   6.760   8.089  0.6220  1.2745  0.1949
 3015TIP3   OH233239   2.036   7.073   7.319  0.1679  0.6770 -0.3035
 3015TIP3    H133240   1.981   7.130   7.265 -1.0977  0.9108  1.1515
 3015TIP3    H233241   2.007   6.984   7.298 -0.5355  0.7827  0.2004
 3016TIP3   OH233242   6.470   1.490   7.001  0.3084 -0.0536 -0.3254
 3016TIP3    H133243   6.382   1.473   6.969 -0.2078  1.0915  0.4354
 3016TIP3    H233244   6.521   1.509   6.923 -0.1201 -0.6796 -0.7641
 3017TIP3   OH233245   3.176   2.079   7.976 -0.1080 -0.1273  0.0401
 3017TIP3    H133246   3.142   2.157   7.933 -2.6438 -1.4075 -0.4396
 3017TIP3    H233247   3.147   2.006   7.921  2.1946 -1.4558  0.4587
 3018TIP3   OH233248   0.750   0.150   6.770  0.4074 -0.1437 -0.4532
 3018TIP3    H133249   0.735   0.086   6.700  0.7009  0.9832 -1.5940
 3018TIP3    H233250   0.783   0.227   6.724 -0.3076  0.9625  0.8375
 3019TIP3   OH233251   4.434   6.070   9.555 -0.0356  0.4148 -0.1657
 3019TIP3    H133252   4.511   6.024   9.520 -0.1384 -1.7880  2.2029
 3019TIP3    H233253   4.361   6.013   9.532 -1.0440  2.3691 -2.1874
 3020TIP3   OH233254   6.662   6.711   9.524 -0.3407 -0.2501  0.4708
 3020TIP3    H133255   6.740   6.747   9.566 -0.4669  1.5289 -0.7063
 3020TIP3    H233256   6.694   6.674   9.442 -0.7763  1.0027 -0.2889
 3021TIP3   OH233257   3.841   3.476   8.699  0.5206 -0.0420 -0.1291
 3021TIP3    H133258   3.854   3.555   8.647  1.1112 -0.2825 -0.3627
 3021TIP3    H233259   3.864   3.502   8.789 -0.4119  0.3502  0.0031
 3022TIP3   OH233260   3.106   6.184   8.484 -0.5163  0.6208 -0.4870
 3022TIP3    H133261   3.130   6.092   8.484 -0.2204  0.6646 -2.1534
 3022TIP3    H233262   3.101   6.208   8.577  1.6909 -0.4804 -0.0250
 3023TIP3   OH233263   4.497   3.278   9.710  0.2410 -0.5093 -0.3696
 3023TIP3    H133264   4.586   3.254   9.736  0.7658  0.4895 -1.1340
 3023TIP3    H233265   4.482   3.362   9.753 -0.6380 -1.0253  0.3606
 3024TIP3   OH233266   5.196   5.668   8.877  0.1410 -0.3764  0.3656
 3024TIP3    H133267   5.116   5.720   8.881 -0.1168 -0.5688 -1.5129
 3024TIP3    H233268   5.216   5.649   8.969 -0.5478  1.7846  1.0147
 3025TIP3   OH233269   5.179   4.202   7.848 -0.0207 -0.0608  0.5828
 3025TIP3    H133270   5.274   4.193   7.862  0.2625 -1.8704 -1.7737
 3025TIP3    H233271   5.140   4.164   7.927  1.1847  1.0165  1.7413
 3026TIP3   OH233272   3.257   1.618   9.230  0.3228  0.5220 -0.0524
 3026TIP3    H133273   3.340   1.638   9.274 -1.2682 -0.5062  3.8921
 3026TIP3    H233274   3.209   1.565   9.294 -3.2990  0.8581 -2.2294
 3027TIP3   OH233275   4.895   1.747   7.349  0.4182  0.4122 -0.1045
 3027TIP3    H133276   4.956   1.695   7.400  0.3634 -1.4690 -1.8376
 3027TIP3    H233277   4.947   1.821   7.318  0.6463  1.1605  1.9048
 3028TIP3   OH233278   5.783   5.257   8.058 -0.2708 -0.0678  0.4878
 3028TIP3    H133279   5.826   5.215   8.133  1.2795  0.4835 -0.0497
 3028TIP3    H233280   5.837   5.334   8.040 -0.1957 -0.5559 -1.6141
 3029TIP3   OH233281   7.121   6.158   8.017 -0.0070  0.1281  0.6235
 3029TIP3    H133282   7.087   6.232   8.067 -0.7676 -1.1218  2.0464
 3029TIP3    H233283   7.046   6.127   7.966  0.3149  0.3400  0.0086
 3030TIP3   OH233284   3.995   4.832   9.777  0.0294 -0.6325  0.5273
 3030TIP3    H133285   4.008   4.771   9.704  0.1684  0.5441 -0.4633
 3030TIP3    H233286   4.041   4.911   9.750  0.6375 -0.3879  2.2047
 3031TIP3   OH233287   4.566   5.583   8.370 -0.0620  0.0863  0.5006
 3031TIP3    H133288   4.574   5.598   8.464 -1.4486  0.7691  0.5286
 3031TIP3    H233289   4.489   5.633   8.344  1.6096  1.8404 -1.4278
 3032TIP3   OH233290   0.443   0.131   6.623 -0.5964 -0.0071 -0.3435
 3032TIP3    H133291   0.533   0.101   6.614  0.1703  2.0765 -0.1689
 3032TIP3    H233292   0.407   0.081   6.696  0.9385  0.2760  0.6305
 3033TIP3   OH233293   4.532   0.953   7.162  0.1122  0.1639  0.7160
 3033TIP3    H133294   4.578   0.878   7.123 -1.1670 -0.3024  0.0657
 3033TIP3    H233295   4.477   0.914   7.230  0.4769  0.6943  1.3261
 3034TIP3   OH233296   0.433   0.580   7.820 -0.4522  0.0874 -0.0302
 3034TIP3    H133297   0.517   0.588   7.774 -0.3461  1.5441  0.3581
 3034TIP3    H233298   0.374   0.543   7.754 -0.3980  2.4838 -1.5688
 3035TIP3   OH233299   5.825   6.966   9.136 -0.2541 -0.1314  0.0032
 3035TIP3    H133300   5.912   6.997   9.159  0.0074 -1.3015  0.6747
 3035TIP3    H233301   5.771   7.045   9.134  0.6071  0.4846  0.5840
 3036TIP3   OH233302   7.393   1.301   9.638 -0.4122  0.4402  0.7947
 3036TIP3    H133303   7.464   1.328   9.695  0.0085 -0.4330  0.7064
 3036TIP3    H233304   7.329   1.372   9.643  0.7086  1.5144  0.4204
 3037TIP3   OH233305   6.201   3.701   7.194 -0.6926 -0.0092 -0.1035
 3037TIP3    H133306   6.121   3.725   7.147 -2.1647 -1.0266  1.7146
 3037TIP3    H233307   6.178   3.621   7.241  1.4655 -0.4117  0.3739
 3038TIP3   OH233308   3.452   5.841   7.333  0.4217 -0.1617 -0.0780
 3038TIP3    H133309   3.456   5.772   7.267  2.9397  0.0236 -0.1892
 3038TIP3    H233310   3.536   5.885   7.327 -0.3789  1.6794  1.3513
 3039TIP3   OH233311   6.113   6.524   8.649 -0.1711  0.3454 -0.1513
 3039TIP3    H133312   6.063   6.602   8.673  2.4604  1.6968  1.3936
 3039TIP3    H233313   6.102   6.516   8.554 -1.1846  2.1079 -0.2206
 3040TIP3   OH233314   4.242   4.264   8.319  0.6177 -0.1356  0.1405
 3040TIP3    H133315   4.245   4.341   8.262  0.6240 -0.9011 -0.9253
 3040TIP3    H233316   4.150   4.258   8.347  0.2861 -0.5650 -0.9701
 3041TIP3   OH233317   7.622   0.497   7.702  0.0033 -0.1057  0.3781
 3041TIP3    H133318   7.676   0.464   7.774  1.0715  1.2528  0.2497
 3041TIP3    H233319   7.533   0.471   7.725  0.5666 -1.4854  1.1336
 3042TIP3   OH233320   1.914   2.671   8.230  0.1539  0.3566 -0.1650
 3042TIP3    H133321   2.003   2.649   8.202 -0.1816 -1.2229 -0.0717
 3042TIP3    H233322   1.910   2.642   8.321  0.7456  4.0109  1.2031
 3043TIP3   OH233323   5.146   6.708   7.921  0.2316 -0.6568  0.4597
 3043TIP3    H133324   5.161   6.800   7.899  1.4019 -0.7029  1.0224
 3043TIP3    H233325   5.096   6.710   8.002  0.3527 -0.5142  0.5308
 3044TIP3   OH233326   1.505   3.913   7.874 -0.3626 -0.8915 -0.2028
 3044TIP3    H133327   1.499   3.988   7.933 -1.2305 -1.2359  0.1613
 3044TIP3    H233328   1.532   3.951   7.790 -1.4778 -0.0705 -0.2077
 3045TIP3   OH233329   2.922   0.045   9.034  0.4132 -0.3886  0.4741
 3045TIP3    H133330   2.997   0.095   9.003  0.0459 -1.0382 -1.6744
 3045TIP3    H233331   2.847   0.087   8.991 -0.2114 -0.9619  0.9929
 3046TIP3   OH233332   2.095   1.210   9.429 -0.7194 -0.0115 -0.2801
 3046TIP3    H133333   2.115   1.181   9.340 -0.8101  0.0308 -0.3148
 3046TIP3    H233334   2.012   1.166   9.450 -1.5240  1.1959 -0.8022
 3047TIP3   OH233335   4.473   0.462   9.431  0.1561  0.2576  0.0608
 3047TIP3    H133336   4.537   0.521   9.391  0.8247 -0.2142  0.4008
 3047TIP3    H233337   4.491   0.377   9.391  0.3088 -0.0549  0.7871
 3048TIP3   OH233338   6.052   2.450   8.377  0.3582 -0.1249 -0.1355
 3048TIP3    H133339   6.052   2.497   8.461 -0.1386 -0.8093  0.2562
 3048TIP3    H233340   6.096   2.367   8.397 -2.5996 -1.7265  0.3002
 3049TIP3   OH233341   5.306   4.350   8.070  0.2818 -0.2050  0.1901
 3049TIP3    H133342   5.280   4.427   8.121  0.2881  0.2285 -0.4500
 3049TIP3    H233343   5.286   4.276   8.127  2.8092  0.3261  1.9865
 3050TIP3   OH233344   6.084   0.710   9.196 -0.7116  0.4020 -0.8700
 3050TIP3    H133345   6.094   0.692   9.102  1.9591  0.4278 -0.6599
 3050TIP3    H233346   6.147   0.653   9.239 -0.4517  1.8159  0.7451
 3051TIP3   OH233347   0.228   2.357   7.127 -0.0234  0.3138 -0.3562
 3051TIP3    H133348   0.290   2.294   7.092 -0.9792 -1.5496  1.1152
 3051TIP3    H233349   0.279   2.410   7.188  0.2167 -1.0717  0.6885
 3052TIP3   OH233350   7.321   7.272   6.996  0.3435  0.2810  0.3304
 3052TIP3    H133351   7.239   7.232   6.966  0.4432  0.4307 -0.1493
 3052TIP3    H233352   7.363   7.305   6.916  1.6704 -1.2536  0.3295
 3053TIP3   OH233353   2.982   0.460   9.010  0.4792 -0.5707 -0.3091
 3053TIP3    H133354   3.033   0.509   9.075  0.0972 -1.2461  0.5183
 3053TIP3    H233355   2.901   0.510   9.001  0.2859 -0.7841  0.1841
 3054TIP3   OH233356   4.018   4.526   9.750  0.2066  0.3196  0.2543
 3054TIP3    H133357   4.027   4.546   9.843  0.5353  1.4137 -0.0071
 3054TIP3    H233358   4.066   4.596   9.706 -2.2147  1.3577 -0.8573
 3055TIP3   OH233359   0.819   2.606   8.209 -0.5028  0.0921  0.1900
 3055TIP3    H133360   0.782   2.526   8.247 -0.5534 -0.6154 -1.2928
 3055TIP3    H233361   0.743   2.653   8.174 -0.2086 -0.5594 -1.3805
 3056TIP3   OH233362   4.721   6.609   8.361  0.0141 -0.8756 -0.3787
 3056TIP3    H133363   4.778   6.637   8.432 -0.7460 -2.3870  0.8930
 3056TIP3    H233364   4.640   6.584   8.404 -0.5888 -1.5037 -1.8229
 3057TIP3   OH233365   4.804   3.272   7.164 -0.3831  0.2521  0.3853
 3057TIP3    H133366   4.781   3.357   7.126 -2.2031 -0.4846 -0.2509
 3057TIP3    H233367   4.764   3.208   7.105 -0.4153 -1.0127  1.7432
 3058TIP3   OH233368   2.193   4.905   7.381 -0.7219 -0.7414  0.0308
 3058TIP3    H133369   2.142   4.862   7.450  0.1079 -0.3642  0.8937
 3058TIP3    H233370   2.167   4.859   7.301 -0.8470 -1.9714  0.7465
 3059TIP3   OH233371   5.129   0.805   7.889 -0.5566 -0.3627  0.0445
 3059TIP3    H133372   5.072   0.879   7.867 -2.3218 -1.4418  0.8191
 3059TIP3    H233373   5.100   0.735   7.832  0.6315 -0.6915 -0.1822
 3060TIP3   OH233374   0.259   3.889   7.727  0.3259  0.0226  0.2842
 3060TIP3    H133375   0.226   3.800   7.732  1.5366 -0.4744 -0.1782
 3060TIP3    H233376   0.345   3.886   7.768 -0.6560  1.5824  2.7300
 3061TIP3   OH233377   3.640   6.901   8.745  0.0444  0.2570  0.3368
 3061TIP3    H133378   3.614   6.864   8.661 -1.4182  1.3464  0.2753
 3061TIP3    H233379   3.565   6.954   8.772  0.3086 -0.3815  2.5263
 3062TIP3   OH233380   2.095   1.867   7.357 -0.2165 -0.0044  0.1093
 3062TIP3    H133381   2.081   1.787   7.308 -0.1417  0.7728 -1.2263
 3062TIP3    H233382   2.189   1.867   7.377 -0.4031 -0.7558  1.0736
 3063TIP3   OH233383   6.418   6.395   7.691  0.0452  0.5966 -0.0626
 3063TIP3    H133384   6.354   6.359   7.630  1.0227 -0.4517 -0.5196
 3063TIP3    H233385   6.419   6.489   7.673 -0.2291  0.4054 -1.1334
 3064TIP3   OH233386   4.797   4.357   9.388  0.0045 -0.3814 -0.0928
 3064TIP3    H133387   4.779   4.449   9.369  0.0402  0.2053  2.3630
 3064TIP3    H233388   4.887   4.343   9.359  0.6496  0.9286  1.1725
 3065TIP3   OH233389   1.888   0.194   9.176  0.1510  0.0727  0.5511
 3065TIP3    H133390   1.806   0.204   9.127 -0.4988 -0.0538  1.5558
 3065TIP3    H233391   1.957   0.205   9.111 -0.6631  0.4529 -0.2781
 3066TIP3   OH233392   5.020   6.714   7.391  0.5772 -0.8793 -0.1695
 3066TIP3    H133393   4.976   6.789   7.432  0.4069 -0.3235 -1.3143
 3066TIP3    H233394   5.061   6.667   7.463 -1.7105 -1.3067  0.9673
 3067TIP3   OH233395   5.525   4.286   8.697  0.0471  0.5156 -0.3324
 3067TIP3    H133396   5.593   4.226   8.667 -1.2617 -0.1509 -2.2242
 3067TIP3    H233397   5.558   4.323   8.779  1.1664 -2.3561  0.6273
 3068TIP3   OH233398   1.209   6.473   9.405 -0.1014 -0.0391 -0.1754
 3068TIP3    H133399   1.268   6.505   9.474 -0.3203 -0.1530  0.0661
 3068TIP3    H233400   1.267   6.440   9.337  0.1300 -1.9512  0.8909
 3069TIP3   OH233401   3.462   2.676   8.521  0.2260 -0.3976  0.2587
 3069TIP3    H133402   3.431   2.766   8.532  0.7672  0.0598 -1.5957
 3069TIP3    H233403   3.395   2.634   8.469 -0.3012 -1.2733  1.5928
 3070TIP3   OH233404   4.773   5.462   9.892  0.2388  0.2179  0.2577
 3070TIP3    H133405   4.850   5.462   9.949  1.0823 -0.7978 -0.8187
 3070TIP3    H233406   4.784   5.540   9.838  0.9380 -0.3283 -0.4100
 3071TIP3   OH233407   7.397   6.067   8.044  0.2751  0.3283  0.1571
 3071TIP3    H133408   7.316   6.117   8.032  0.1983  0.3980  0.9533
 3071TIP3    H233409   7.466   6.130   8.024  0.1439 -0.0815 -1.8522
 3072TIP3   OH233410   3.486   6.596   7.478  0.3944  0.3191  0.6533
 3072TIP3    H133411   3.561   6.540   7.498  0.4486  0.4378  0.7800
 3072TIP3    H233412   3.423   6.537   7.437  1.2898  0.5774 -1.1818
 3073TIP3   OH233413   1.232   6.881   7.020  0.0922 -0.3559 -0.3065
 3073TIP3    H133414   1.142   6.881   7.050  0.2721  0.0244  0.2543
 3073TIP3    H233415   1.248   6.971   6.992  0.8718  0.0970  1.4333
 3074TIP3   OH233416   5.275   5.618   9.589 -0.2675 -0.3265  0.1055
 3074TIP3    H133417   5.365   5.608   9.559 -0.0408 -2.2705  1.2972
 3074TIP3    H233418   5.241   5.691   9.536  1.7979  0.0934 -0.7671
 3075TIP3   OH233419   3.995   6.454   9.361  0.2968 -0.2555  0.0904
 3075TIP3    H133420   3.937   6.384   9.391 -0.8270  0.4372 -0.3872
 3075TIP3    H233421   4.075   6.443   9.413  0.0001 -1.6493  0.2810
 3076TIP3   OH233422   2.363   5.329   8.073 -0.0737 -0.1601 -0.1627
 3076TIP3    H133423   2.330   5.328   7.983 -1.5482  0.8549  0.3389
 3076TIP3    H233424   2.439   5.387   8.069  0.2581 -0.6162 -0.8566
 3077TIP3   OH233425   5.369   1.546   7.930  0.8982  0.5002  0.6704
 3077TIP3    H133426   5.354   1.512   8.019  0.9253 -2.4591 -0.3347
 3077TIP3    H233427   5.284   1.578   7.902 -0.5291 -3.2245  0.0761
 3078TIP3   OH233428   0.086   2.163   8.886  0.2318  0.0943  0.4846
 3078TIP3    H133429   0.081   2.070   8.906 -0.1080  0.3899  1.8259
 3078TIP3    H233430   0.102   2.166   8.791  1.0958 -1.3362  0.5519
 3079TIP3   OH233431   0.274   0.444   7.636 -0.5459  0.1215 -0.1265
 3079TIP3    H133432   0.330   0.369   7.654 -0.2893  0.3845  0.1817
 3079TIP3    H233433   0.236   0.426   7.550  0.0885 -0.0027 -0.3824
 3080TIP3   OH233434   6.363   0.894   9.290 -0.1937 -0.6387  0.2555
 3080TIP3    H133435   6.398   0.825   9.234  0.6168 -0.5145  0.5982
 3080TIP3    H233436   6.323   0.957   9.229  0.3839 -0.6689 -0.1575
 3081TIP3   OH233437   1.232   4.744   8.443  0.3580 -0.0121  0.4946
 3081TIP3    H133438   1.308   4.734   8.386 -0.5373 -0.1803 -0.7139
 3081TIP3    H233439   1.158   4.755   8.383 -0.4060  1.5018  1.6421
 3082TIP3   OH233440   1.115   0.966   8.078 -0.0301  0.2126  0.0536
 3082TIP3    H133441   1.190   0.912   8.104  0.3769  0.2113 -1.0951
 3082TIP3    H233442   1.149   1.056   8.082 -0.3178  0.2986  0.6684
 3083TIP3   OH233443   0.650   4.202   8.359 -0.7921  0.1016 -0.1504
 3083TIP3    H133444   0.657   4.265   8.430 -0.3376  0.2589 -0.3346
 3083TIP3    H233445   0.560   4.169   8.365  0.1783 -2.5701  2.7890
 3084TIP3   OH233446   0.717   5.190   7.446  0.1102  0.0878  0.0983
 3084TIP3    H133447   0.783   5.135   7.490  0.1844 -0.8737 -1.1854
 3084TIP3    H233448   0.758   5.216   7.364 -0.4395  1.0045  0.0961
 3085TIP3   OH233449   4.957   5.623   9.514  0.8141  0.0327  0.4947
 3085TIP3    H133450   5.009   5.627   9.434  0.0636 -2.3318 -0.1993
 3085TIP3    H233451   4.868   5.606   9.484  0.7821 -2.6335  1.7928
 3086TIP3   OH233452   0.627   3.809   8.153 -0.3059  0.2120  0.1148
 3086TIP3    H133453   0.663   3.845   8.234 -0.9114  1.0575  0.0204
 3086TIP3    H233454   0.703   3.771   8.108 -0.0251 -0.5527  1.2138
 3087TIP3   OH233455   4.989   6.804   8.987  0.5689 -0.0824 -0.4104
 3087TIP3    H133456   5.029   6.839   8.908 -0.8577  1.0951 -0.6635
 3087TIP3    H233457   5.054   6.743   9.023  1.8487  0.4960 -1.6689
 3088TIP3   OH233458   0.134   6.164   9.272  0.2792  0.0787  0.1447
 3088TIP3    H133459   0.072   6.225   9.311  1.6400  2.5334 -1.2511
 3088TIP3    H233460   0.207   6.160   9.335  0.6898  0.8710 -0.2529
 3089TIP3   OH233461   0.491   3.849   7.892 -0.5264 -0.9245  0.4319
 3089TIP3    H133462   0.517   3.873   7.980 -1.0057 -1.5297  0.7433
 3089TIP3    H233463   0.552   3.896   7.835 -0.2767 -0.4610  1.0783
 3090TIP3   OH233464   0.526   6.660   9.163  0.0918 -0.2556  0.2283
 3090TIP3    H133465   0.605   6.684   9.115  0.5425 -0.2083  0.9678
 3090TIP3    H233466   0.559   6.619   9.244 -0.6240  0.4419  0.8950
 3091TIP3   OH233467   3.526   5.152   8.480  0.0861  0.1995 -0.5294
 3091TIP3    H133468   3.470   5.144   8.403  2.3239  2.0515 -2.5200
 3091TIP3    H233469   3.496   5.233   8.523  0.0630  0.1977 -0.5417
 3092TIP3   OH233470   0.490   5.044   9.323 -0.1771 -0.0582 -0.0630
 3092TIP3    H133471   0.402   5.069   9.351  0.6917  1.8492  1.2005
 3092TIP3    H233472   0.520   4.982   9.389 -0.4477 -0.4565 -0.3120
 3093TIP3   OH233473   1.360   5.573   8.522  0.1531 -0.2792  0.2025
 3093TIP3    H133474   1.450   5.564   8.554  0.8667 -1.1218 -1.9033
 3093TIP3    H233475   1.315   5.496   8.554  0.4242 -0.3206  0.4896
 3094TIP3   OH233476   0.126   6.572   9.099 -0.2032  0.4656  0.1008
 3094TIP3    H133477   0.113   6.657   9.056  1.1110  0.8900  0.4873
 3094TIP3    H233478   0.205   6.537   9.058 -0.4962 -0.3787  0.2524
 3095TIP3   OH233479   4.722   1.576   7.784 -0.3981 -0.0919 -0.3780
 3095TIP3    H133480   4.758   1.643   7.843  0.2636 -1.5010  0.8877
 3095TIP3    H233481   4.796   1.549   7.730 -0.7425  0.3946 -1.1161
 3096TIP3   OH233482   2.445   7.497   7.583  0.0588  0.1725  0.4158
 3096TIP3    H133483   2.491   7.445   7.518 -3.0523 -1.9519 -0.2731
 3096TIP3    H233484   2.456   7.449   7.665 -1.0678 -0.4546  0.2067
 3097TIP3   OH233485   5.364   0.473   9.441 -0.3051 -0.1773 -0.0561
 3097TIP3    H133486   5.315   0.514   9.512  2.0003  0.7329  1.1265
 3097TIP3    H233487   5.378   0.543   9.377 -1.6811 -0.7938 -1.0899
 3098TIP3   OH233488   2.193   7.617   8.569 -0.0403  0.1667  0.5229
 3098TIP3    H133489   2.264   7.663   8.614 -0.5940 -0.5661  2.2295
 3098TIP3    H233490   2.211   7.524   8.587 -2.7513  0.0035  3.2438
 3099TIP3   OH233491   4.312   5.459   8.096  0.3940 -0.5899 -0.7116
 3099TIP3    H133492   4.315   5.389   8.031  0.7662 -0.1973 -1.1282
 3099TIP3    H233493   4.252   5.523   8.059 -1.1199 -1.3393  0.3531
 3100TIP3   OH233494   7.079   3.675   9.455  0.2862 -0.0572 -0.2901
 3100TIP3    H133495   7.096   3.763   9.490 -2.0602  0.4331 -0.2115
 3100TIP3    H233496   7.009   3.689   9.391  0.8332 -1.7025 -1.2891
 3101TIP3   OH233497   3.895   4.496   7.426 -0.0894 -0.2770  0.0263
 3101TIP3    H133498   3.898   4.402   7.442 -0.5850 -0.5513 -1.3960
 3101TIP3    H233499   3.946   4.534   7.498 -0.8325 -1.5325  1.2537
 3102TIP3   OH233500   1.371   6.302   8.357 -0.2825 -0.2565 -0.0923
 3102TIP3    H133501   1.458   6.340   8.368 -0.2362 -0.7840  1.7922
 3102TIP3    H233502   1.359   6.295   8.263  0.9748  1.4851 -0.4240
 3103TIP3   OH233503   6.415   4.918   8.774  0.1728  0.1782  0.0162
 3103TIP3    H133504   6.484   4.920   8.707  1.5526 -1.2778  1.2943
 3103TIP3    H233505   6.397   4.825   8.787  0.4230  0.3505  2.0703
 3104TIP3   OH233506   4.150   5.640   7.959  0.0864  0.7770 -0.5077
 3104TIP3    H133507   4.133   5.601   7.873  1.6181 -0.1445 -0.4199
 3104TIP3    H233508   4.069   5.626   8.008  0.2297 -1.3772 -0.8247
 3105TIP3   OH233509   6.772   6.041   8.710 -0.6275  0.2086  0.0593
 3105TIP3    H133510   6.701   6.077   8.656  0.3007  1.8372 -0.1636
 3105TIP3    H233511   6.800   5.962   8.664 -1.6793  0.0637 -0.3485
 3106TIP3   OH233512   0.071   2.158   8.171 -0.5783  0.6017  0.4766
 3106TIP3    H133513   0.127   2.084   8.148  0.2693  1.6457 -1.0240
 3106TIP3    H233514   0.017   2.126   8.243 -0.0060 -1.3426  0.0999
 3107TIP3   OH233515   6.978   5.072   8.671  0.0198 -0.4419 -0.2905
 3107TIP3    H133516   7.054   5.036   8.716  0.9036 -1.0773 -2.2280
 3107TIP3    H233517   6.989   5.048   8.580 -1.3622  1.4031 -1.0198
 3108TIP3   OH233518   4.920   1.017   7.908 -0.5701  0.0391 -0.0134
 3108TIP3    H133519   4.933   1.101   7.865  1.1119 -0.8414 -1.3205
 3108TIP3    H233520   4.833   0.988   7.878 -0.6214  0.7327 -0.5488
 3109TIP3   OH233521   6.694   6.905   7.754  0.0824  0.0772  0.2148
 3109TIP3    H133522   6.785   6.935   7.746 -0.2661  1.3411  0.8573
 3109TIP3    H233523   6.665   6.938   7.838 -0.4342 -1.8673  0.8658
 3110TIP3   OH233524   6.265   4.899   6.920 -0.4947 -0.2139  0.3006
 3110TIP3    H133525   6.288   4.986   6.888  0.4968  0.9582  3.7060
 3110TIP3    H233526   6.171   4.905   6.937 -0.6550 -0.2120 -0.5716
 3111TIP3   OH233527   5.296   1.586   7.264 -0.4424  0.9200 -0.2450
 3111TIP3    H133528   5.383   1.568   7.299 -0.9714  1.3056  1.3551
 3111TIP3    H233529   5.274   1.507   7.214 -0.2933 -0.4400  1.6939
 3112TIP3   OH233530   4.951   0.334   9.296  0.9060  0.0892 -0.1302
 3112TIP3    H133531   4.966   0.384   9.376  0.0726 -0.7002  0.5356
 3112TIP3    H233532   4.956   0.243   9.323  1.0385 -0.1929 -1.0655
 3113TIP3   OH233533   2.544   2.831   8.211  0.5993  0.4743  0.2480
 3113TIP3    H133534   2.614   2.800   8.269 -0.8068 -1.9050  0.7711
 3113TIP3    H233535   2.486   2.757   8.201 -2.8033  2.7966  1.1570
 3114TIP3   OH233536   3.241   2.409   9.590  0.4678 -0.0218 -0.7722
 3114TIP3    H133537   3.161   2.461   9.599  0.6049  0.1188 -0.3215
 3114TIP3    H233538   3.311   2.473   9.579  0.6643 -0.0872 -0.0054
 3115TIP3   OH233539   5.577   1.579   9.058  0.2615  0.0564  0.3868
 3115TIP3    H133540   5.506   1.618   9.007 -0.1114 -0.5074  0.4769
 3115TIP3    H233541   5.653   1.582   8.999 -0.5660 -2.2019 -0.8802
 3116TIP3   OH233542   3.715   3.314   9.440  0.2500 -0.0873 -0.2290
 3116TIP3    H133543   3.795   3.263   9.424  1.3888  1.4516  0.2846
 3116TIP3    H233544   3.735   3.401   9.405 -0.7378  0.6691  1.0143
 3117TIP3   OH233545   5.998   7.297   9.674  0.2118 -1.3119 -0.4037
 3117TIP3    H133546   6.061   7.338   9.733  1.5035 -1.5019 -1.6168
 3117TIP3    H233547   5.913   7.319   9.712  0.9741 -0.9821  1.2272
 3118TIP3   OH233548   1.133   4.832   7.462  0.2799 -0.3793 -0.9902
 3118TIP3    H133549   1.187   4.866   7.533 -0.4991 -0.2312 -0.4643
 3118TIP3    H233550   1.158   4.740   7.454 -0.7066 -0.8060  0.5117
 3119TIP3   OH233551   1.085   0.068   7.881  0.1781 -0.0875  0.1677
 3119TIP3    H133552   1.160   0.124   7.904 -0.1726  0.2936  0.4006
 3119TIP3    H233553   1.011   0.109   7.926 -0.3787  0.2055 -0.9912
 3120TIP3   OH233554   0.839   0.192   8.201  0.9055  0.1185  0.1583
 3120TIP3    H133555   0.836   0.167   8.108 -1.1626  0.3393  0.1205
 3120TIP3    H233556   0.757   0.158   8.237  1.3492  0.6792  1.7533
 3121TIP3   OH233557   7.573   2.046   7.520  0.4249  0.3698 -0.1886
 3121TIP3    H133558   7.579   2.141   7.525 -2.2949  0.6174 -0.0679
 3121TIP3    H233559   7.480   2.027   7.536  0.7566 -2.2520 -0.9200
 3122TIP3   OH233560   6.680   1.843   7.405 -0.1077 -0.8474 -0.1736
 3122TIP3    H133561   6.774   1.840   7.424 -0.5063 -0.4956  2.1275
 3122TIP3    H233562   6.675   1.830   7.310  2.4938  2.7053 -1.0264
 3123TIP3   OH233563   3.569   3.987   9.503  0.7111  0.2887  0.3933
 3123TIP3    H133564   3.654   4.001   9.545  1.7322 -1.3305 -0.9924
 3123TIP3    H233565   3.506   4.023   9.564  2.1846 -0.8128  2.7215
 3124TIP3   OH233566   5.142   1.735   7.865 -0.5331 -0.8887 -0.0770
 3124TIP3    H133567   5.161   1.789   7.942  1.9259 -2.6324  0.6547
 3124TIP3    H233568   5.167   1.790   7.791  0.2738 -0.3601  0.5612
 3125TIP3   OH233569   5.616   1.867   9.484 -0.5464 -0.0888  0.2466
 3125TIP3    H133570   5.635   1.923   9.408  3.1993 -0.5347  0.7062
 3125TIP3    H233571   5.603   1.780   9.447  0.7013 -0.1969  0.0167
 3126TIP3   OH233572   6.106   2.514   8.116 -0.7038 -0.2549  0.0480
 3126TIP3    H133573   6.107   2.507   8.211 -1.5393  0.1940  0.0944
 3126TIP3    H233574   6.194   2.545   8.094 -0.5046 -0.3684  0.6652
 3127TIP3   OH233575   0.026   7.399   8.892 -0.2901  0.5897  0.4838
 3127TIP3    H133576  -0.038   7.448   8.840 -1.4937  0.9755  2.2367
 3127TIP3    H233577   0.002   7.307   8.879 -0.6570  0.6883  0.4593
 3128TIP3   OH233578   3.413   1.919   8.997 -0.0813  0.7357  0.4105
 3128TIP3    H133579   3.325   1.892   9.023 -0.0228 -0.8756 -0.8520
 3128TIP3    H233580   3.463   1.838   8.996  1.3192  1.5769  0.7128
 3129TIP3   OH233581   0.072   4.884   7.419 -0.1617  0.2222 -0.0923
 3129TIP3    H133582   0.056   4.952   7.353 -0.1800  1.9427  1.6107
 3129TIP3    H233583   0.020   4.809   7.388 -1.0850  1.3451 -1.4304
 3130TIP3   OH233584   3.282   0.907   9.040  0.1097 -0.5267 -0.0485
 3130TIP3    H133585   3.272   0.812   9.049  0.2545 -0.6085 -0.6686
 3130TIP3    H233586   3.374   0.923   9.061  0.4243 -0.7045 -1.2276
 3131TIP3   OH233587   4.602   3.246   9.420  0.0742  0.6028  0.0380
 3131TIP3    H133588   4.516   3.276   9.393 -0.3587 -0.3529  0.3381
 3131TIP3    H233589   4.600   3.249   9.516 -0.0625 -0.6045  0.0820
 3132TIP3   OH233590   4.406   3.674   8.998 -0.8610  0.1220  0.8041
 3132TIP3    H133591   4.496   3.705   9.002 -0.8961  0.4446 -0.5225
 3132TIP3    H233592   4.353   3.752   9.015 -1.0007  1.4117 -4.0797
 3133TIP3   OH233593   1.327   5.866   7.162  0.0061  0.1217 -0.0696
 3133TIP3    H133594   1.271   5.938   7.133  0.7919  0.4565 -0.8094
 3133TIP3    H233595   1.387   5.906   7.225  1.1302  0.3734 -1.2654
 3134TIP3   OH233596   6.121   5.250   9.371 -0.2028 -0.3065 -0.1172
 3134TIP3    H133597   6.054   5.304   9.412  0.9630  0.4852  0.7936
 3134TIP3    H233598   6.176   5.312   9.323  0.9598 -0.6850  0.6718
 3135TIP3   OH233599   1.209   5.863   7.778  0.1524 -0.2282 -1.0225
 3135TIP3    H133600   1.189   5.776   7.742  1.4614 -1.5748  1.2888
 3135TIP3    H233601   1.127   5.911   7.769 -0.6400 -1.6963 -2.3100
 3136TIP3   OH233602   5.469   6.183   8.692  0.0211 -0.4652 -0.2686
 3136TIP3    H133603   5.537   6.177   8.625 -2.1055 -0.8618 -2.5011
 3136TIP3    H233604   5.462   6.094   8.726 -1.8447 -1.3682 -2.7248
 3137TIP3   OH233605   3.190   5.622   8.953 -0.2718 -0.1581 -0.0389
 3137TIP3    H133606   3.259   5.685   8.973 -0.2192 -0.3040  0.2450
 3137TIP3    H233607   3.233   5.552   8.905 -0.1013 -0.5359  0.6502
 3138TIP3   OH233608   6.961   3.344   7.343  0.5658 -0.0373 -0.3471
 3138TIP3    H133609   6.941   3.282   7.273  0.0746  0.0999 -0.3358
 3138TIP3    H233610   7.017   3.296   7.404 -1.1320 -1.0066  0.5069
 3139TIP3   OH233611   6.258   7.607   8.805  0.1387  0.1222  0.1235
 3139TIP3    H133612   6.175   7.591   8.761 -0.6547  1.3903  1.1120
 3139TIP3    H233613   6.248   7.693   8.846  1.6880 -0.0022  0.8298
 3140TIP3   OH233614   0.315   3.127   9.620  0.7848  0.1948 -0.4543
 3140TIP3    H133615   0.261   3.188   9.670 -1.4879 -1.7345 -0.3775
 3140TIP3    H233616   0.373   3.088   9.686  2.5030  2.3490 -0.5547
 3141TIP3   OH233617   4.889   6.850   9.435 -0.3108  0.3473  0.1651
 3141TIP3    H133618   4.860   6.759   9.443 -0.0203  0.3030  0.7724
 3141TIP3    H233619   4.938   6.852   9.353  0.6481 -0.3175  0.7080
 3142TIP3   OH233620   3.725   5.623   8.497 -0.5203  0.4567 -0.4485
 3142TIP3    H133621   3.806   5.572   8.491 -0.4356  0.2515  1.6232
 3142TIP3    H233622   3.663   5.577   8.440  0.0915 -0.8979 -0.0597
 3143TIP3   OH233623   6.761   4.719   9.141 -0.6415 -0.5838 -0.4027
 3143TIP3    H133624   6.824   4.656   9.105  0.5308 -0.3881  1.2479
 3143TIP3    H233625   6.785   4.729   9.233 -0.8591  2.2018 -0.5575
 3144TIP3   OH233626   7.599   2.838   7.960  0.0657  0.2682 -0.2060
 3144TIP3    H133627   7.564   2.903   7.899  0.6626 -0.6737 -1.6022
 3144TIP3    H233628   7.534   2.768   7.960 -0.4744  0.7318  1.1380
 3145TIP3   OH233629   5.051   5.870   9.863 -0.2646  0.0691  0.0547
 3145TIP3    H133630   5.071   5.880   9.956 -1.1853  0.7178  0.1909
 3145TIP3    H233631   5.073   5.954   9.824 -0.1555 -0.1080 -0.2761
 3146TIP3   OH233632   0.672   7.367   7.507  0.4051  0.3308  0.4025
 3146TIP3    H133633   0.671   7.454   7.467 -1.7411 -0.2496 -1.0194
 3146TIP3    H233634   0.599   7.368   7.569 -0.6270 -0.8815 -0.7362
 3147TIP3   OH233635   3.379   2.941   8.499  0.2825 -0.2698  0.2034
 3147TIP3    H133636   3.345   3.027   8.526  0.9685 -0.2853  1.1671
 3147TIP3    H233637   3.463   2.934   8.543  0.9410 -0.8000 -1.0934
 3148TIP3   OH233638   3.851   4.942   6.929  0.3040 -0.2637  0.0186
 3148TIP3    H133639   3.828   4.990   6.850 -1.8616  1.9905  1.8855
 3148TIP3    H233640   3.774   4.947   6.985  1.9543 -1.1624  2.5985
 3149TIP3   OH233641   3.656   6.299   9.149 -0.4273  0.2329  0.4002
 3149TIP3    H133642   3.745   6.280   9.117 -0.0631  1.1514  0.8388
 3149TIP3    H233643   3.642   6.391   9.128 -0.8941  0.3607  1.2423
 3150TIP3   OH233644   5.351   1.767   9.096  0.0645 -0.6332 -0.3176
 3150TIP3    H133645   5.309   1.851   9.116 -0.2861 -0.4119 -1.8628
 3150TIP3    H233646   5.377   1.733   9.182  0.5286  1.2024  0.3246
 3151TIP3   OH233647   1.622   2.347   8.677 -0.0351 -0.2201  0.0929
 3151TIP3    H133648   1.555   2.403   8.716  0.4556 -0.3356  1.1337
 3151TIP3    H233649   1.589   2.327   8.590 -1.6783 -0.8176  0.8095
 3152TIP3   OH233650   0.569   0.210   7.248 -0.5160 -0.2488  0.0368
 3152TIP3    H133651   0.606   0.209   7.160  0.2155  0.7650  0.3175
 3152TIP3    H233652   0.489   0.159   7.241 -1.2908  1.0897 -1.5886
 3153TIP3   OH233653   4.460   4.650   9.203  0.0326  0.0953 -0.0787
 3153TIP3    H133654   4.553   4.641   9.223  0.4312  2.2155 -0.6927
 3153TIP3    H233655   4.458   4.681   9.113 -1.1017  2.5855  0.7159
 3154TIP3   OH233656   0.904   1.107   7.920  0.4988 -0.2604 -0.7095
 3154TIP3    H133657   0.953   1.025   7.928  0.6093 -0.1424 -0.1764
 3154TIP3    H233658   0.819   1.088   7.960  1.2393  0.4875  1.3328
 3155TIP3   OH233659   5.400   4.907   7.466  0.1381  0.3515  0.0757
 3155TIP3    H133660   5.317   4.917   7.512  0.2627 -0.1212  0.4116
 3155TIP3    H233661   5.379   4.918   7.373 -0.2335  0.6110  0.1935
 3156TIP3   OH233662   2.293   3.563   8.109 -0.3950  0.1887 -0.1405
 3156TIP3    H133663   2.295   3.625   8.036 -0.9294  1.2634  0.7212
 3156TIP3    H233664   2.384   3.552   8.134 -0.2558  0.2500 -0.6213
 3157TIP3   OH233665   2.575   6.537   8.134 -0.0157  0.3033  0.2955
 3157TIP3    H133666   2.613   6.449   8.130  1.8384  1.0679  0.1393
 3157TIP3    H233667   2.582   6.562   8.226  3.6840  1.9686 -0.2932
 3158TIP3   OH233668   5.714   6.034   8.897 -0.2625 -0.0197 -0.1717
 3158TIP3    H133669   5.667   5.957   8.926  2.1172 -1.2191  0.7823
 3158TIP3    H233670   5.648   6.104   8.895 -2.7798 -2.2657 -2.3496
 3159TIP3   OH233671   2.776   6.030   6.859 -0.3836  0.2899 -0.2259
 3159TIP3    H133672   2.861   6.057   6.823 -0.4720 -1.0308 -1.4883
 3159TIP3    H233673   2.730   5.990   6.785 -2.0616  0.8262  0.4744
 3160TIP3   OH233674   0.654   2.874   9.011  0.5460  0.2041 -0.6697
 3160TIP3    H133675   0.587   2.805   9.014 -1.0608  1.6958 -0.2772
 3160TIP3    H233676   0.705   2.855   8.933 -1.8469  0.2705 -2.3574
 3161TIP3   OH233677   6.936   6.258   7.760 -0.2215  0.4741 -0.3905
 3161TIP3    H133678   6.929   6.354   7.762 -0.9548  0.4574 -1.2146
 3161TIP3    H233679   6.989   6.240   7.682  0.0939  0.2224 -0.1143
 3162TIP3   OH233680   2.807   4.535   8.455 -0.0565  0.0689 -0.1343
 3162TIP3    H133681   2.797   4.469   8.524  1.8948 -0.1328  0.0196
 3162TIP3    H233682   2.730   4.525   8.400 -1.0096 -0.6605  1.2752
 3163TIP3   OH233683   3.603   7.292   8.495  0.5526  0.1787  0.4029
 3163TIP3    H133684   3.650   7.239   8.560 -1.3122 -2.2068 -0.0674
 3163TIP3    H233685   3.539   7.341   8.547  0.7863  0.2734  0.6083
 3164TIP3   OH233686   7.544   1.454   7.257  0.3045  0.3225  0.0578
 3164TIP3    H133687   7.486   1.439   7.182  0.4051 -0.9440  0.2091
 3164TIP3    H233688   7.489   1.502   7.319  0.7479  2.9818 -1.4667
 3165TIP3   OH233689   0.944   7.336   9.230  0.4992  0.2470  0.3070
 3165TIP3    H133690   0.960   7.419   9.274  0.8169 -0.3050  1.2662
 3165TIP3    H233691   0.996   7.272   9.279 -1.5092 -0.9157  1.0583
 3166TIP3   OH233692   1.345   3.964   8.220  0.2481  0.2171 -0.4992
 3166TIP3    H133693   1.390   3.936   8.300  2.7371 -3.1346 -2.7507
 3166TIP3    H233694   1.263   3.915   8.220  0.7682 -0.6817 -0.4808
 3167TIP3   OH233695   5.629   5.983   8.032 -0.4150  0.4814 -0.2224
 3167TIP3    H133696   5.591   5.905   8.072  1.9378 -0.1658  0.9119
 3167TIP3    H233697   5.686   5.950   7.963  1.2418  1.0990  0.7981
 3168TIP3   OH233698   6.518   4.216   8.615 -0.1445  0.1196  0.5236
 3168TIP3    H133699   6.594   4.273   8.605 -0.8153  1.2202  1.4546
 3168TIP3    H233700   6.555   4.130   8.633  0.9016  0.1721 -1.0919
 3169TIP3   OH233701   5.112   6.422   8.667  0.1043 -0.0104  0.5374
 3169TIP3    H133702   5.105   6.517   8.670  1.2930  0.0664  2.2551
 3169TIP3    H233703   5.196   6.402   8.709  0.8685 -1.7344 -1.6084
 3170TIP3   OH233704   3.128   0.137   8.348  0.0331 -0.4849  0.2852
 3170TIP3    H133705   3.138   0.154   8.254 -0.9235  1.2042  0.4491
 3170TIP3    H233706   3.213   0.162   8.386  0.3131 -0.8611 -0.0793
 3171TIP3   OH233707   3.515   4.394   9.684  0.4078  0.5392 -0.2975
 3171TIP3    H133708   3.519   4.451   9.607 -0.6904 -3.4710 -3.6753
 3171TIP3    H233709   3.604   4.358   9.690  0.5298  0.9544  0.4803
 3172TIP3   OH233710   3.015   6.835   7.796 -0.1426 -0.0849  0.3583
 3172TIP3    H133711   3.009   6.785   7.715  0.8498  1.3504 -0.6527
 3172TIP3    H233712   3.100   6.811   7.833  1.3940  2.3225 -1.2674
 3173TIP3   OH233713   1.812   7.362   9.549  0.4179 -0.1396 -0.4205
 3173TIP3    H133714   1.745   7.338   9.485  1.1251 -1.6311 -0.6377
 3173TIP3    H233715   1.877   7.292   9.544  2.9200  2.1051 -1.4370
 3174TIP3   OH233716   0.247   1.458   9.354  0.3899  0.2876 -0.0082
 3174TIP3    H133717   0.183   1.505   9.407 -0.0181 -0.2544 -0.0068
 3174TIP3    H233718   0.319   1.438   9.414  0.6528  1.0595 -0.0554
 3175TIP3   OH233719   2.820   5.988   8.546 -0.3452  0.2179  0.1181
 3175TIP3    H133720   2.865   5.955   8.468  0.9342 -0.4122  1.0973
 3175TIP3    H233721   2.889   6.002   8.610 -1.3968  0.5528  1.2171
 3176TIP3   OH233722   1.413   0.890   8.000  0.0587 -0.3022  0.4085
 3176TIP3    H133723   1.359   0.813   8.016  0.1030 -0.6150 -0.8813
 3176TIP3    H233724   1.486   0.882   8.062  1.2192 -2.4437 -1.1052
 3177TIP3   OH233725   0.868   4.482   8.863  0.0415 -0.4173  0.3351
 3177TIP3    H133726   0.832   4.411   8.917  1.3251 -0.7289  0.8287
 3177TIP3    H233727   0.806   4.554   8.873 -0.7433 -1.1231  0.6717
 3178TIP3   OH233728   3.791   0.682   8.392  0.0554  0.5205 -0.8314
 3178TIP3    H133729   3.721   0.656   8.452 -0.3436  0.9951 -1.0976
 3178TIP3    H233730   3.781   0.776   8.381  1.3423  0.7729 -0.0871
 3179TIP3   OH233731   4.510   0.461   8.263  0.1954  0.2106  0.5893
 3179TIP3    H133732   4.454   0.526   8.306 -1.5013 -0.5766 -0.3042
 3179TIP3    H233733   4.572   0.434   8.330 -1.5840 -0.0947  2.1995
 3180TIP3   OH233734   4.745   1.005   8.130  0.3404  0.8674 -0.6380
 3180TIP3    H133735   4.793   0.964   8.201 -1.4933  2.0166  1.3678
 3180TIP3    H233736   4.811   1.023   8.063  2.2121  0.2076  0.9542
 3181TIP3   OH233737   5.428   0.546   7.795 -0.0746  0.0835  0.4019
 3181TIP3    H133738   5.436   0.455   7.822 -0.4821 -0.0260  0.1621
 3181TIP3    H233739   5.368   0.544   7.720  1.5227  0.2936 -0.9519
 3182TIP3   OH233740   1.392   6.269   8.095  0.5435  0.4806  0.1174
 3182TIP3    H133741   1.435   6.338   8.044  2.4910 -0.5550  0.2674
 3182TIP3    H233742   1.392   6.193   8.037 -1.4831  0.5242 -0.0031
 3183TIP3   OH233743   0.263   4.433   9.102  0.6996 -0.1595 -0.9996
 3183TIP3    H133744   0.333   4.437   9.037  1.3426 -0.1341 -0.3250
 3183TIP3    H233745   0.199   4.371   9.066  0.8604  0.1346 -1.8151
 3184TIP3   OH233746   6.518   2.992   7.949 -0.3828  0.0205 -0.4950
 3184TIP3    H133747   6.457   3.056   7.913  0.0337  1.0792  0.5896
 3184TIP3    H233748   6.509   3.003   8.044  0.7860 -0.4831 -0.3192
 3185TIP3   OH233749   3.702   6.970   7.758  0.6017  0.3598 -0.1068
 3185TIP3    H133750   3.713   6.925   7.841  0.0952  0.5430  0.0617
 3185TIP3    H233751   3.676   7.059   7.782  0.7737  0.5048 -0.4528
 3186TIP3   OH233752   0.175   6.340   7.143 -0.1797 -0.7081  0.5610
 3186TIP3    H133753   0.228   6.260   7.152  0.0683 -0.6439 -0.2427
 3186TIP3    H233754   0.221   6.391   7.076  0.2651  0.6007  1.8060
 3187TIP3   OH233755   5.002   2.006   8.895 -0.0250  0.4179  0.1785
 3187TIP3    H133756   5.029   1.928   8.847  1.1011  0.6415  0.4047
 3187TIP3    H233757   4.971   1.973   8.979  2.2040  0.2927  1.0156
 3188TIP3   OH233758   1.551   4.823   9.287  0.2935 -0.4630 -0.4027
 3188TIP3    H133759   1.583   4.733   9.281 -2.2076 -1.3751 -1.4159
 3188TIP3    H233760   1.475   4.817   9.345 -0.6599  0.7440 -1.4955
 3189TIP3   OH233761   1.336   6.217   6.973 -0.1146 -0.6828 -0.1693
 3189TIP3    H133762   1.404   6.166   7.017  0.4457 -0.9217 -1.2533
 3189TIP3    H233763   1.374   6.305   6.967 -0.5434 -0.4410  0.5593
 3190TIP3   OH233764   1.406   7.644   9.299  0.4900  0.1486  0.1536
 3190TIP3    H133765   1.334   7.645   9.236 -0.3155 -2.0667  0.9522
 3190TIP3    H233766   1.453   7.726   9.283 -1.5605  1.1493 -1.1139
 3191TIP3   OH233767   6.589   6.504   9.020  0.3095 -0.5530  0.1452
 3191TIP3    H133768   6.629   6.491   8.934  1.2069  0.5487  0.3741
 3191TIP3    H233769   6.495   6.505   9.002  0.4969  0.0222 -0.8844
 3192TIP3   OH233770   1.157   0.913   9.033  0.0000 -0.0389 -0.4514
 3192TIP3    H133771   1.070   0.882   9.059  1.3916 -2.9006  1.3822
 3192TIP3    H233772   1.195   0.947   9.114  1.2310 -0.5893 -0.7713
 3193TIP3   OH233773   2.167   2.432   7.849 -0.8831 -0.1313 -0.4918
 3193TIP3    H133774   2.111   2.497   7.891  0.0616  1.2489 -1.2610
 3193TIP3    H233775   2.145   2.437   7.756  0.1433  0.0925 -0.7388
 3194TIP3   OH233776   4.863   2.634   8.324  0.5464  0.1289  0.3923
 3194TIP3    H133777   4.821   2.672   8.248 -0.6910  0.8934  1.4167
 3194TIP3    H233778   4.951   2.673   8.326  1.0350 -0.8173 -1.2793
 3195TIP3   OH233779   5.342   6.828   7.529  0.4977 -0.1146  0.2063
 3195TIP3    H133780   5.395   6.774   7.471  3.3310  0.2421  2.2429
 3195TIP3    H233781   5.312   6.900   7.474 -1.1906 -2.2725 -1.9215
 3196TIP3   OH233782   4.435   2.353   8.456 -0.2161 -0.0707  0.0011
 3196TIP3    H133783   4.499   2.309   8.400 -1.1324 -0.7738 -0.5258
 3196TIP3    H233784   4.370   2.285   8.476 -0.8709  0.6596  0.4056
 3197TIP3   OH233785   0.803   7.183   6.988 -0.1417  0.0865  0.2581
 3197TIP3    H133786   0.878   7.201   7.043 -0.9332  0.0880  1.3725
 3197TIP3    H233787   0.807   7.089   6.971 -0.0061  0.0475  0.5076
 3198TIP3   OH233788   3.247   1.688   7.330  0.1313 -0.7265 -0.5421
 3198TIP3    H133789   3.340   1.709   7.334  0.2752 -1.3843 -0.3385
 3198TIP3    H233790   3.238   1.630   7.255 -0.3738  0.5736 -1.5101
 3199TIP3   OH233791   5.219   0.621   8.064  0.0620  0.0305  0.2690
 3199TIP3    H133792   5.183   0.667   7.988  1.5357 -0.0878 -0.5488
 3199TIP3    H233793   5.145   0.575   8.102 -1.0763  1.5382 -0.0204
 3200TIP3   OH233794   2.509   5.588   7.450  0.7229  0.1178  0.2432
 3200TIP3    H133795   2.470   5.501   7.455 -0.8821  0.8744  2.1532
 3200TIP3    H233796   2.535   5.608   7.540 -2.0669  2.8933  0.5789
 3201TIP3   OH233797   4.758   3.199   9.214  0.0554 -0.7079 -0.2412
 3201TIP3    H133798   4.701   3.206   9.291  0.5384  0.4623  0.0333
 3201TIP3    H233799   4.778   3.290   9.191  1.3692 -1.0824 -0.6640
 3202TIP3   OH233800   5.663   1.330   7.205  0.3752 -0.4661  0.0482
 3202TIP3    H133801   5.621   1.255   7.246  0.8488 -0.3168  0.8104
 3202TIP3    H233802   5.731   1.293   7.149 -1.1060 -0.7544 -1.6740
 3203TIP3   OH233803   5.988   1.741   9.636  0.0864  0.1507 -0.2580
 3203TIP3    H133804   5.912   1.778   9.681  0.5379 -1.6028  2.1459
 3203TIP3    H233805   5.955   1.714   9.550 -2.1515 -0.8596  0.8405
 3204TIP3   OH233806   1.212   4.927   7.197  0.3869 -0.1460 -0.5626
 3204TIP3    H133807   1.232   4.877   7.276 -1.5630  1.6544  1.2143
 3204TIP3    H233808   1.131   4.888   7.163  0.5169 -0.1009 -0.9338
 3205TIP3   OH233809   4.963   6.016   8.704  0.4308  0.1520  0.4340
 3205TIP3    H133810   4.970   5.973   8.789  2.0827  0.1727  0.3528
 3205TIP3    H233811   5.040   6.073   8.700 -0.2337  1.0135 -0.6092
 3206TIP3   OH233812   6.956   3.443   9.487  0.0180  0.4129 -0.2457
 3206TIP3    H133813   6.979   3.536   9.475  3.0592 -0.0788  0.9931
 3206TIP3    H233814   6.899   3.443   9.564 -0.9468  1.3116 -0.9168
 3207TIP3   OH233815   2.730   4.042   9.593 -0.2972 -0.1158 -0.1258
 3207TIP3    H133816   2.730   4.137   9.584 -0.3450 -0.1372 -0.3561
 3207TIP3    H233817   2.822   4.019   9.611 -0.4822  0.0876  1.2263
 3208TIP3   OH233818   7.089   2.440   8.391 -0.6415  0.0443  0.3218
 3208TIP3    H133819   7.005   2.472   8.357 -0.3124 -0.7330 -1.3701
 3208TIP3    H233820   7.076   2.346   8.404 -0.7079  0.3015  2.3291
 3209TIP3   OH233821   0.850   7.491   7.672  0.2499 -0.8212 -0.0001
 3209TIP3    H133822   0.804   7.427   7.619 -1.4115  0.3003  0.0240
 3209TIP3    H233823   0.823   7.576   7.638  1.8860 -0.0850  0.3842
 3210TIP3   OH233824   2.916   1.274   8.511  0.4405  0.1003  0.0301
 3210TIP3    H133825   2.837   1.224   8.534  0.5662 -0.0361  0.1669
 3210TIP3    H233826   2.987   1.228   8.556  0.5720  0.3358  0.0638
 3211TIP3   OH233827   4.738   4.432   7.448  0.3379  0.3433 -0.2756
 3211TIP3    H133828   4.710   4.472   7.365  1.8907  1.1014 -0.4565
 3211TIP3    H233829   4.826   4.400   7.431  0.2366 -0.5432  0.7627
 3212TIP3   OH233830   2.204   5.411   8.270  0.5172 -0.4844 -0.6439
 3212TIP3    H133831   2.245   5.360   8.200  1.4604 -0.8142  0.1223
 3212TIP3    H233832   2.210   5.501   8.240 -1.8386 -0.8073 -2.3606
 3213TIP3   OH233833   1.968   1.323   8.703 -0.0754  0.1439 -0.3830
 3213TIP3    H133834   2.019   1.381   8.647  1.0359 -0.0263  0.4241
 3213TIP3    H233835   1.983   1.356   8.792 -2.8545  1.2404 -0.2306
 3214TIP3   OH233836   3.586   2.163   8.217 -0.2461  0.2709  0.0500
 3214TIP3    H133837   3.616   2.245   8.177 -0.3284  0.2969  0.0408
 3214TIP3    H233838   3.628   2.161   8.303 -0.8851  0.7272  0.3880
 3215TIP3   OH233839   6.357   5.279   7.541 -0.1328  0.2790  0.1566
 3215TIP3    H133840   6.325   5.365   7.568  0.0207  0.7104 -0.9739
 3215TIP3    H233841   6.279   5.232   7.511 -0.2787 -0.1415  1.1397
 3216TIP3   OH233842   7.577   6.678   8.280 -0.0358 -0.3024  0.1490
 3216TIP3    H133843   7.621   6.593   8.278 -0.7168 -0.6423 -0.8237
 3216TIP3    H233844   7.567   6.702   8.188  0.9786  1.2738  0.4141
 3217TIP3   OH233845   6.476   0.700   9.153 -0.4325  0.0446 -0.3903
 3217TIP3    H133846   6.546   0.658   9.203  0.3118 -0.0109 -1.4556
 3217TIP3    H233847   6.455   0.637   9.084 -0.6796  0.5904 -0.8159
 3218TIP3   OH233848   6.021   4.099   7.084 -0.0238 -0.0354 -0.1816
 3218TIP3    H133849   6.020   4.008   7.056  1.1289 -0.0506 -0.1887
 3218TIP3    H233850   6.019   4.149   7.002 -2.2951  0.0102 -0.1823
 3219TIP3   OH233851   2.939   2.999   8.229  0.2720  0.4977 -0.3938
 3219TIP3    H133852   2.921   3.092   8.215 -0.0269  0.2533 -1.8527
 3219TIP3    H233853   2.873   2.954   8.175 -0.7341 -0.6052  1.6449
 3220TIP3   OH233854   0.314   2.407   9.430  0.1026 -0.2625 -0.0264
 3220TIP3    H133855   0.407   2.425   9.439  0.4959 -2.6204  1.6501
 3220TIP3    H233856   0.305   2.361   9.347 -0.0561  2.2526 -1.4961
 3221TIP3   OH233857   2.033   3.185   8.531  0.0371 -0.0314  0.4067
 3221TIP3    H133858   1.965   3.119   8.538  0.2416 -0.3648 -0.6295
 3221TIP3    H233859   2.042   3.220   8.620 -0.3123 -1.1409  0.8855
 3222TIP3   OH233860   0.204   5.558   8.508 -0.5423 -0.2539 -0.1289
 3222TIP3    H133861   0.257   5.518   8.439 -0.5224  0.5714 -0.5972
 3222TIP3    H233862   0.119   5.575   8.468 -0.2316  1.1144 -0.2619
 3223TIP3   OH233863   0.877   1.367   8.229 -0.0280  0.0331  0.9465
 3223TIP3    H133864   0.891   1.458   8.257  3.8312  1.8939 -5.0739
 3223TIP3    H233865   0.964   1.327   8.233 -0.5435 -1.5408 -1.4863
 3224TIP3   OH233866   6.179   5.103   7.456 -0.0161  0.4775  0.3440
 3224TIP3    H133867   6.224   5.110   7.372 -0.8855  1.1962 -0.0744
 3224TIP3    H233868   6.228   5.036   7.504  0.2971 -0.1653 -0.8449
 3225TIP3   OH233869   1.327   4.603   7.405  0.2452  0.1292 -0.3458
 3225TIP3    H133870   1.285   4.547   7.339  1.0005  1.3052 -1.8865
 3225TIP3    H233871   1.379   4.665   7.354 -1.5006  3.0623  1.1492
 3226TIP3   OH233872   5.112   6.712   8.662  0.7800 -0.3673 -0.0373
 3226TIP3    H133873   5.159   6.693   8.581  0.9356  2.2209 -0.6523
 3226TIP3    H233874   5.142   6.800   8.687 -2.5735  0.8251  0.3054
 3227TIP3   OH233875   6.868   1.940   7.578 -0.3550  0.2079  0.0576
 3227TIP3    H133876   6.945   1.883   7.582  1.4117  2.4830  1.1011
 3227TIP3    H233877   6.904   2.029   7.583 -3.1342  1.3791  2.9182
 3228TIP3   OH233878   2.485   1.205   6.660  0.2496  0.5088  0.5393
 3228TIP3    H133879   2.540   1.158   6.723  0.2280  0.1197  0.2745
 3228TIP3    H233880   2.484   1.148   6.583  0.0911  0.8754  0.2722
 3229TIP3   OH233881   7.105   1.579   8.006  0.1649 -0.1599  0.2136
 3229TIP3    H133882   7.069   1.650   7.953 -0.8499 -0.3220  0.6685
 3229TIP3    H233883   7.029   1.535   8.044  0.8333 -0.1492  1.6658
 3230TIP3   OH233884   0.499   3.596   7.039 -0.1726 -0.3857  0.3031
 3230TIP3    H133885   0.586   3.595   6.999  0.0527 -2.0041  0.7625
 3230TIP3    H233886   0.478   3.689   7.047  2.0854  0.1249  1.3713
 3231TIP3   OH233887   7.028   3.661   8.643  0.0539 -0.4709 -0.9658
 3231TIP3    H133888   7.069   3.619   8.719 -2.7832  0.0016  0.9708
 3231TIP3    H233889   7.094   3.723   8.612  1.1763 -0.3687  1.3848
 3232TIP3   OH233890   2.702   0.126   7.680 -0.1985  0.2724  0.2158
 3232TIP3    H133891   2.741   0.123   7.767 -1.2927  2.1639  0.8458
 3232TIP3    H233892   2.774   0.107   7.620  0.4690 -1.5711  1.5196
 3233TIP3   OH233893   2.768   2.510   9.144 -0.2867 -0.1574  0.1088
 3233TIP3    H133894   2.697   2.544   9.089  0.6137  0.1034 -0.9277
 3233TIP3    H233895   2.760   2.559   9.226 -1.6784 -0.5777  0.2628
 3234TIP3   OH233896   6.209   1.597   6.986 -0.4425 -0.6946  0.8347
 3234TIP3    H133897   6.188   1.550   7.066 -0.2880 -2.5719 -0.1697
 3234TIP3    H233898   6.125   1.610   6.943 -0.7167  1.6912  1.9673
 3235TIP3   OH233899   0.082   5.693   7.061 -0.2494  0.0658 -0.8171
 3235TIP3    H133900   0.156   5.754   7.068  0.3874 -0.8915  2.7800
 3235TIP3    H233901   0.120   5.616   7.017  0.0379  0.6969 -1.7084
 3236TIP3   OH233902   4.982   4.889   9.496 -0.1279 -0.4311  0.0943
 3236TIP3    H133903   4.899   4.914   9.536 -0.0773  0.7266 -0.4905
 3236TIP3    H233904   5.015   4.969   9.456  0.6165 -1.1722 -0.8467
 3237TIP3   OH233905   1.307   2.952   7.482 -0.2412 -0.6401  0.5225
 3237TIP3    H133906   1.398   2.937   7.459  0.1928 -0.1608  1.8218
 3237TIP3    H233907   1.261   2.955   7.398  1.2804  1.4033 -0.3364
 3238TIP3   OH233908   0.664   1.490   9.240  0.2518  0.4533  0.3560
 3238TIP3    H133909   0.615   1.572   9.230 -1.0685 -0.1441  1.5164
 3238TIP3    H233910   0.654   1.446   9.155 -0.9668  0.5087  0.4495
 3239TIP3   OH233911   7.182   4.271   7.975  0.2097  0.1134 -0.2092
 3239TIP3    H133912   7.179   4.363   7.949 -2.1546  0.0871 -0.2593
 3239TIP3    H233913   7.157   4.224   7.895 -1.2763 -0.3627  0.5088
 3240TIP3   OH233914   5.023   4.037   9.541 -0.3240 -0.4717 -0.1962
 3240TIP3    H133915   5.024   4.116   9.596  0.8784 -0.3725 -0.3400
 3240TIP3    H233916   4.941   3.992   9.565 -1.7046  1.4512 -1.0401
 3241TIP3   OH233917   2.456   3.505   9.657  0.4327 -0.6207  0.4033
 3241TIP3    H133918   2.367   3.522   9.627  0.3763  0.2598  1.0099
 3241TIP3    H233919   2.498   3.592   9.656  1.1410 -0.9530  0.5483
 3242TIP3   OH233920   4.359   6.816   6.919 -0.1465  0.4246 -0.5296
 3242TIP3    H133921   4.314   6.732   6.909 -1.4524  0.9281  0.7106
 3242TIP3    H233922   4.435   6.809   6.861 -0.7240 -1.2413 -1.1722
 3243TIP3   OH233923   1.823   3.313   8.301 -0.2410 -0.1239  0.2586
 3243TIP3    H133924   1.862   3.322   8.388  1.4609 -3.0451 -0.0446
 3243TIP3    H233925   1.745   3.260   8.316 -0.2976 -0.0879  0.0851
 3244TIP3   OH233926   7.659   5.995   8.401 -0.3808  0.3572 -0.5427
 3244TIP3    H133927   7.667   5.918   8.345  0.3042  0.1083 -0.1257
 3244TIP3    H233928   7.608   6.057   8.350  1.6188  0.7858 -2.1605
 3245TIP3   OH233929   4.854   6.076   9.064 -0.2685  0.0358 -0.2126
 3245TIP3    H133930   4.790   6.055   8.997 -0.2971 -1.1369  0.1695
 3245TIP3    H233931   4.907   6.146   9.026 -0.7060 -0.1587 -1.1850
 3246TIP3   OH233932   7.588   2.008   8.386  0.1798 -0.3631 -0.7472
 3246TIP3    H133933   7.583   1.967   8.472  0.9611 -0.3924 -0.7067
 3246TIP3    H233934   7.499   2.040   8.369  0.3011  0.8611  0.6737
 3247TIP3   OH233935   5.070   3.414   8.404 -0.1665 -0.1633 -0.2734
 3247TIP3    H133936   5.018   3.468   8.463 -2.8020 -2.8068  0.0413
 3247TIP3    H233937   5.109   3.348   8.460 -0.2709 -0.9477 -1.0972
 3248TIP3   OH233938   5.902   1.688   7.308  0.1557 -0.2247  0.2241
 3248TIP3    H133939   5.847   1.657   7.380 -1.0009 -1.2369 -1.0192
 3248TIP3    H233940   5.861   1.770   7.280 -0.6338 -0.8514 -0.5389
 3249TIP3   OH233941   0.485   1.555   6.720 -1.0994 -0.2668 -0.5324
 3249TIP3    H133942   0.508   1.464   6.702  0.1010  0.0387 -0.6790
 3249TIP3    H233943   0.401   1.569   6.676 -0.5449 -0.8720 -1.8328
 3250TIP3   OH233944   6.196   3.111   8.791  0.6997  0.2392 -1.0272
 3250TIP3    H133945   6.161   3.163   8.719  1.2447 -0.8557 -2.1040
 3250TIP3    H233946   6.183   3.167   8.868 -1.6719  0.6569 -1.6316
 3251TIP3   OH233947   2.467   7.410   8.031  0.0506  0.6390 -0.0395
 3251TIP3    H133948   2.560   7.387   8.030 -0.2931 -0.8077 -0.7933
 3251TIP3    H233949   2.460   7.476   8.099  1.6367  0.7908  0.0228
 3252TIP3   OH233950   0.627   4.305   9.242 -0.1197  0.3917  0.3750
 3252TIP3    H133951   0.683   4.336   9.172  1.5592 -0.9728  1.0470
 3252TIP3    H233952   0.633   4.373   9.309 -1.1945  1.3735 -0.4754
 3253TIP3   OH233953   4.183   0.186   9.175  0.5204  0.6223 -0.1732
 3253TIP3    H133954   4.139   0.227   9.250 -0.9894  0.8030 -1.1126
 3253TIP3    H233955   4.156   0.239   9.100  2.5287  0.8394 -0.7869
 3254TIP3   OH233956   7.450   5.243   7.972  0.0551  0.5789 -0.3337
 3254TIP3    H133957   7.534   5.286   7.987  1.1019 -1.3722 -0.3087
 3254TIP3    H233958   7.431   5.258   7.880  0.8381  0.3611 -0.5354
 3255TIP3   OH233959   7.349   7.225   7.809  0.3158  0.0806  0.0340
 3255TIP3    H133960   7.308   7.216   7.895  0.3075 -0.3010 -0.0115
 3255TIP3    H233961   7.350   7.320   7.794 -1.1540  0.0700 -0.2644
 3256TIP3   OH233962   4.436   4.648   8.050 -0.3786 -0.0085  0.0646
 3256TIP3    H133963   4.401   4.703   7.980  1.4854  0.4003 -0.6041
 3256TIP3    H233964   4.501   4.703   8.094  0.9255 -1.3771 -0.0761
 3257TIP3   OH233965   2.180   4.106   7.986 -0.2971  0.9756  0.4065
 3257TIP3    H133966   2.228   4.086   7.906 -0.3894 -1.5671  0.9156
 3257TIP3    H233967   2.246   4.103   8.055 -0.6014  0.9122  0.6969
 3258TIP3   OH233968   5.563   5.818   9.015 -0.4356 -0.1145  0.2031
 3258TIP3    H133969   5.533   5.814   9.106  0.0393 -0.1618  0.3591
 3258TIP3    H233970   5.647   5.773   9.015 -0.1518  0.4096 -0.1452
 3259TIP3   OH233971   2.378   5.571   9.529  0.2306  0.2143 -0.2451
 3259TIP3    H133972   2.444   5.638   9.511  0.2549  0.3141  0.1935
 3259TIP3    H233973   2.304   5.594   9.473  0.4296  0.3146 -0.4684
 3260TIP3   OH233974   2.606   6.235   8.287  0.2240  0.0175  0.6568
 3260TIP3    H133975   2.653   6.223   8.204 -1.1810  1.6731 -0.4387
 3260TIP3    H233976   2.675   6.251   8.351  1.3478 -1.3093 -0.1450
 3261TIP3   OH233977   0.875   0.562   9.148  0.3490  0.1222  0.1456
 3261TIP3    H133978   0.859   0.473   9.116 -1.1940  0.0323  1.0612
 3261TIP3    H233979   0.933   0.602   9.082  1.9353 -1.8591  0.2463
 3262TIP3   OH233980   4.943   0.089   9.401  0.1661  1.0368 -0.4983
 3262TIP3    H133981   4.863   0.036   9.395  0.6392 -0.2518  2.6546
 3262TIP3    H233982   5.012   0.031   9.370  0.0940  1.7286 -2.0502
 3263TIP3   OH233983   6.611   4.309   9.584  0.6512 -0.1295 -0.2382
 3263TIP3    H133984   6.621   4.394   9.627  1.9530 -1.0979  1.5013
 3263TIP3    H233985   6.532   4.318   9.531  0.4525  1.9846  0.3363
 3264TIP3   OH233986   4.903   3.971   8.048 -0.0577 -0.5136  0.2987
 3264TIP3    H133987   4.956   3.898   8.081 -0.6042 -0.3091  1.7044
 3264TIP3    H233988   4.822   3.930   8.019  1.3652 -1.0531 -3.3898
 3265TIP3   OH233989   7.654   4.142   8.551 -0.4041 -0.1094 -0.3197
 3265TIP3    H133990   7.585   4.183   8.499 -0.5450  0.2732  0.1654
 3265TIP3    H233991   7.641   4.176   8.640 -0.5476 -1.2169  0.1024
 3266TIP3   OH233992   5.776   2.393   8.691 -0.4587  0.0483  0.2463
 3266TIP3    H133993   5.742   2.320   8.640  1.9912  0.1277 -1.6706
 3266TIP3    H233994   5.805   2.353   8.773  0.3948 -1.0831 -0.5758
 3267TIP3   OH233995   4.396   6.040   6.872 -0.1154  0.6157 -0.4439
 3267TIP3    H133996   4.435   5.980   6.808  2.4645  1.5749  0.0694
 3267TIP3    H233997   4.399   6.126   6.829 -2.6194  0.6372 -0.7060
 3268TIP3   OH233998   6.320   4.672   7.068 -0.0298  0.0218  0.0624
 3268TIP3    H133999   6.292   4.748   7.017 -0.5676  0.3065  0.7789
 3268TIP3    H234000   6.268   4.600   7.033 -1.5977  0.5166  1.2799
 3269TIP3   OH234001   2.805   4.516   9.756 -0.5371 -0.3889  0.2775
 3269TIP3    H134002   2.765   4.574   9.690  0.2573 -0.0193  0.1120
 3269TIP3    H234003   2.880   4.565   9.789  0.2837 -1.4140 -0.0133
 3270TIP3   OH234004   6.659   4.967   9.018  0.4450 -0.1814 -0.5674
 3270TIP3    H134005   6.656   4.971   8.923 -3.3960 -0.4191 -0.6068
 3270TIP3    H234006   6.674   4.874   9.038 -1.3312 -0.5992 -1.0381
 3271TIP3   OH234007   3.600   5.934   8.287  0.7087 -0.0174  0.3312
 3271TIP3    H134008   3.683   5.982   8.294  0.2033  0.9736 -0.1319
 3271TIP3    H234009   3.601   5.898   8.199  0.9017 -0.5141  0.5333
 3272TIP3   OH234010   7.597   6.820   7.681  0.1395  0.5896  0.1852
 3272TIP3    H134011   7.587   6.878   7.756  0.4501  1.6718 -0.5747
 3272TIP3    H234012   7.691   6.817   7.665  0.0135  1.3573 -0.8687
 3273TIP3   OH234013   4.565   0.944   9.391 -0.0663  0.1648  0.6212
 3273TIP3    H134014   4.522   1.016   9.437 -0.5301  0.8549 -0.8080
 3273TIP3    H234015   4.497   0.878   9.380  0.2980 -0.4088  1.7298
 3274TIP3   OH234016   6.614   6.926   9.743  0.0153  0.9451 -0.3601
 3274TIP3    H134017   6.562   6.850   9.718 -0.1272  1.0355 -0.3409
 3274TIP3    H234018   6.700   6.909   9.706  0.2656  0.3139  0.4829
 3275TIP3   OH234019   2.062   4.497   8.209  0.8274 -0.4354 -0.2800
 3275TIP3    H134020   2.081   4.501   8.115 -0.3895 -0.2660 -0.5314
 3275TIP3    H234021   2.085   4.583   8.242  0.4526 -0.2087 -0.5931
 3276TIP3   OH234022   0.685   5.616   9.242 -0.1812  0.5674  0.1848
 3276TIP3    H134023   0.635   5.535   9.250  0.4894  0.2881  1.8297
 3276TIP3    H234024   0.732   5.608   9.159 -0.5011 -0.5045  0.1005
 3277TIP3   OH234025   2.620   0.696   9.184  0.1649  0.1502  0.0037
 3277TIP3    H134026   2.647   0.658   9.100  0.8559  0.5076  0.0535
 3277TIP3    H234027   2.536   0.737   9.166 -0.1201 -0.5382 -0.2916
 3278TIP3   OH234028   1.119   2.193   8.328 -0.0854 -0.1475 -0.0179
 3278TIP3    H134029   1.037   2.165   8.369 -0.6267  1.7938  0.3634
 3278TIP3    H234030   1.093   2.268   8.273  1.4229  0.5250  0.1406
 3279TIP3   OH234031   2.215   4.892   8.588  0.2527 -0.2676 -0.0533
 3279TIP3    H134032   2.237   4.839   8.511 -1.0177  0.5912 -1.0644
 3279TIP3    H234033   2.224   4.982   8.558  0.6564  0.0930  1.1064
 3280TIP3   OH234034   5.192   3.238   8.207  0.4605  0.1001 -0.2830
 3280TIP3    H134035   5.223   3.302   8.144 -1.0639 -0.8998 -2.1684
 3280TIP3    H234036   5.157   3.290   8.280 -0.6437  1.4378 -1.7042
 3281TIP3   OH234037   0.512   2.436   9.022  0.5331 -0.0817 -0.7185
 3281TIP3    H134038   0.468   2.415   9.104  0.5204  0.4646 -0.5860
 3281TIP3    H234039   0.452   2.408   8.953  1.0931 -1.7681 -0.5653
 3282TIP3   OH234040   7.306   1.063   7.608 -0.5689  0.2711 -0.3320
 3282TIP3    H134041   7.236   1.110   7.564  0.0624  0.3546 -1.2959
 3282TIP3    H234042   7.273   1.046   7.696 -0.9012  2.2966 -0.0288
 3283TIP3   OH234043   4.138   4.206   7.648  0.6394 -0.3162  0.2232
 3283TIP3    H134044   4.096   4.229   7.730 -1.2370 -0.4518 -0.6547
 3283TIP3    H234045   4.094   4.126   7.620  1.7575 -0.6818 -0.5532
 3284TIP3   OH234046   2.509   6.734   7.442 -0.4746 -0.8143  0.0286
 3284TIP3    H134047   2.585   6.785   7.471 -0.0769 -0.6605 -1.2431
 3284TIP3    H234048   2.546   6.652   7.411 -1.0120 -1.4523  1.0258
 3285TIP3   OH234049   2.818   2.098   9.554 -0.3547  0.2590 -0.2817
 3285TIP3    H134050   2.734   2.134   9.584  0.1442  1.1523  0.0814
 3285TIP3    H234051   2.853   2.165   9.496 -0.4412 -0.6460 -1.4167
 3286TIP3   OH234052   0.469   5.563   7.655 -0.1279 -0.6346 -0.5324
 3286TIP3    H134053   0.430   5.620   7.589 -0.1469  0.0760  0.0772
 3286TIP3    H234054   0.447   5.605   7.739 -0.7040 -1.8796 -0.0251
 3287TIP3   OH234055   0.956   7.123   7.524  0.5363  0.1604  0.0682
 3287TIP3    H134056   0.953   7.086   7.436  3.3428 -2.6104  0.9613
 3287TIP3    H234057   0.914   7.057   7.580 -0.3992  1.4656  0.9695
 3288TIP3   OH234058   6.330   4.814   8.447  0.6067  0.0833  0.1324
 3288TIP3    H134059   6.346   4.721   8.465 -0.9919 -0.1978  0.2369
 3288TIP3    H234060   6.397   4.838   8.382 -0.0279 -1.6145 -1.2342
 3289TIP3   OH234061   5.882   0.906   9.227  0.2809 -0.2375  0.6804
 3289TIP3    H134062   5.957   0.847   9.218  0.8230  0.3082  1.4591
 3289TIP3    H234063   5.824   0.882   9.155  1.4332 -0.3431 -0.2493
 3290TIP3   OH234064   7.344   0.751   7.030  0.5253 -0.3380 -0.6670
 3290TIP3    H134065   7.431   0.789   7.020  0.5048 -0.0342  0.2694
 3290TIP3    H234066   7.291   0.820   7.070 -0.7762  0.3159 -3.2731
 3291TIP3   OH234067   0.061   0.465   7.450 -0.0847  0.3549 -0.4477
 3291TIP3    H134068   0.014   0.525   7.392  0.6808  1.7956  0.3625
 3291TIP3    H234069   0.022   0.480   7.536 -1.3269 -1.8809 -0.5304
 3292TIP3   OH234070   2.790   1.247   7.897  0.3834 -0.0525 -0.0193
 3292TIP3    H134071   2.844   1.186   7.846 -1.4923  0.2195 -2.4930
 3292TIP3    H234072   2.701   1.234   7.865 -0.5059  2.0167  1.3703
 3293TIP3   OH234073   1.606   2.771   6.832 -0.3332  0.2964  0.0355
 3293TIP3    H134074   1.560   2.853   6.814  0.3927  0.3849 -1.6109
 3293TIP3    H234075   1.539   2.704   6.822 -0.4252  0.5238 -1.0491
 3294TIP3   OH234076   2.500   1.787   8.593  0.3219  0.3552 -0.0426
 3294TIP3    H134077   2.465   1.828   8.513  0.2471  1.1225  0.3749
 3294TIP3    H234078   2.497   1.856   8.659  1.2609 -0.0036  0.3909
 3295TIP3   OH234079   3.445   0.429   8.205  0.1277  0.1835  0.4496
 3295TIP3    H134080   3.534   0.464   8.210  0.4029 -0.1919 -1.1708
 3295TIP3    H234081   3.389   0.502   8.232  0.8985  0.4588  1.3772
 3296TIP3   OH234082   4.548   6.862   9.313 -0.2676  0.8015  0.2047
 3296TIP3    H134083   4.535   6.800   9.384 -0.9587  0.6890 -0.0106
 3296TIP3    H234084   4.557   6.808   9.235 -1.2058  0.9718 -0.0329
 3297TIP3   OH234085   3.539   3.523   9.021 -0.1235 -0.5108 -0.1580
 3297TIP3    H134086   3.488   3.464   8.965 -1.2517  1.1159 -0.9008
 3297TIP3    H234087   3.475   3.581   9.060  0.9433  0.1151  0.7293
 3298TIP3   OH234088   6.457   1.746   8.095  0.1480 -0.2595 -0.6215
 3298TIP3    H134089   6.553   1.748   8.089  0.0680  0.8180 -2.1634
 3298TIP3    H234090   6.435   1.654   8.108  1.4115 -0.4390  0.4447
 3299TIP3   OH234091   2.880   5.549   7.288  0.1368 -0.1755 -0.6101
 3299TIP3    H134092   2.833   5.468   7.264 -2.4899  1.1631 -0.3883
 3299TIP3    H234093   2.905   5.588   7.205 -1.8956  0.5248 -0.9671
 3300TIP3   OH234094   0.937   3.977   7.599 -0.2881  0.6930 -0.0781
 3300TIP3    H134095   0.878   4.022   7.540 -1.5251 -0.3987  0.2792
 3300TIP3    H234096   0.880   3.934   7.662  0.7685 -1.6180 -0.5803
 3301TIP3   OH234097   3.450   0.753   7.473 -0.3506 -0.3255  0.3885
 3301TIP3    H134098   3.417   0.731   7.386 -0.3447 -1.3131  0.6179
 3301TIP3    H234099   3.533   0.797   7.456 -1.6416  2.0380 -0.1880
 3302TIP3   OH234100   6.069   4.885   8.545  0.2413 -0.7380 -0.0372
 3302TIP3    H134101   6.151   4.873   8.498  0.8471  2.0438  0.1701
 3302TIP3    H234102   6.096   4.916   8.632 -1.0168  1.6851 -0.4534
 3303TIP3   OH234103   5.443   4.012   9.642  0.1213 -0.7320 -0.5094
 3303TIP3    H134104   5.410   3.924   9.622 -0.1488 -0.6420 -0.4560
 3303TIP3    H234105   5.389   4.071   9.590 -1.1263 -0.4312  1.0532
 3304TIP3   OH234106   3.831   5.769   8.162 -0.0329  0.3359  0.0750
 3304TIP3    H134107   3.830   5.855   8.119 -0.1972  0.6158  0.6291
 3304TIP3    H234108   3.740   5.756   8.191  0.4092  0.9820  1.9304
 3305TIP3   OH234109   2.728   1.913   8.380  0.2706 -0.0109  0.5139
 3305TIP3    H134110   2.692   1.948   8.462 -2.8341 -2.7489  0.5533
 3305TIP3    H234111   2.725   1.986   8.319 -0.2863  1.2907  2.0257
 3306TIP3   OH234112   6.554   0.357   7.275  0.2414 -0.3360 -0.4322
 3306TIP3    H134113   6.583   0.266   7.271 -0.2983 -0.5581  0.4362
 3306TIP3    H234114   6.539   0.373   7.368 -1.0952  0.1890 -0.7257
 3307TIP3   OH234115   7.324   3.562   8.402 -0.7434  0.5268  0.5259
 3307TIP3    H134116   7.387   3.588   8.469  1.3904 -0.1952 -1.0895
 3307TIP3    H234117   7.316   3.638   8.346  1.3485 -0.3816 -1.1404
 3308TIP3   OH234118   6.372   2.024   8.026  0.2356 -1.0155 -0.5059
 3308TIP3    H134119   6.394   1.930   8.029 -0.0952 -1.1676 -2.0390
 3308TIP3    H234120   6.304   2.030   7.959  1.2064  0.5019 -1.4061
 3309TIP3   OH234121   0.855   6.110   9.495  0.3541  0.5982  0.3015
 3309TIP3    H134122   0.810   6.056   9.430  1.0296  0.4035 -0.0136
 3309TIP3    H234123   0.805   6.097   9.575  0.1464 -0.0172  0.0791
 3310TIP3   OH234124   5.888   2.234   8.062 -0.6010 -0.5219  0.2048
 3310TIP3    H134125   5.892   2.297   8.134  0.1810 -0.8161  0.4273
 3310TIP3    H234126   5.954   2.265   8.000  0.4044 -1.5876  0.7112
 3311TIP3   OH234127   7.569   6.661   7.283  0.2770 -0.2052 -0.4039
 3311TIP3    H134128   7.552   6.603   7.357 -0.6156  1.0623  0.4448
 3311TIP3    H234129   7.505   6.732   7.294 -0.3625 -0.3266 -2.7862
 3312TIP3   OH234130   6.746   6.353   9.200 -0.6322 -0.2098  0.6870
 3312TIP3    H134131   6.693   6.419   9.156  1.6686  3.4617  2.9183
 3312TIP3    H234132   6.824   6.343   9.144 -0.4387 -0.1098  0.9357
 3313TIP3   OH234133   1.380   4.300   7.594 -0.3610  0.0231  0.2014
 3313TIP3    H134134   1.338   4.321   7.677 -1.3201  0.6904 -0.4411
 3313TIP3    H234135   1.468   4.270   7.619  0.6395  3.4138  1.2871
 3314TIP3   OH234136   5.214   2.706   7.668  0.3266 -0.7096  0.1943
 3314TIP3    H134137   5.280   2.745   7.725 -1.6437  1.2405  1.3091
 3314TIP3    H234138   5.253   2.707   7.581  2.2232 -0.8662  1.0101
 3315TIP3   OH234139   3.346   0.706   7.211 -0.2749  0.1541 -0.0277
 3315TIP3    H134140   3.251   0.711   7.206 -0.3471 -0.8143  0.1608
 3315TIP3    H234141   3.371   0.651   7.136  0.0631 -0.2249  0.3588
 3316TIP3   OH234142   2.845   1.288   9.113  0.0873 -0.2609 -0.4208
 3316TIP3    H134143   2.840   1.266   9.020  0.4087  2.2362 -1.1174
 3316TIP3    H234144   2.923   1.343   9.120 -1.3751  1.8247  0.7532
 3317TIP3   OH234145   7.527   3.790   7.392 -0.1701 -0.8148  0.2014
 3317TIP3    H134146   7.540   3.865   7.335 -1.7253  0.4642  1.3964
 3317TIP3    H234147   7.512   3.717   7.333 -0.8594  0.2793 -1.0387
 3318TIP3   OH234148   0.622   1.064   8.511 -0.2583 -0.4169  0.1352
 3318TIP3    H134149   0.645   1.110   8.430 -1.3920 -0.2860 -0.1355
 3318TIP3    H234150   0.694   1.003   8.525  0.7522  0.6863 -0.0815
 3319TIP3   OH234151   0.871   4.672   9.202  0.0098 -0.1105  0.1058
 3319TIP3    H134152   0.939   4.607   9.218  0.1223  0.0352  0.2122
 3319TIP3    H234153   0.903   4.721   9.126 -1.6589 -2.4286 -2.3000
 3320TIP3   OH234154   4.024   5.640   9.274 -1.0369  0.3673 -0.3716
 3320TIP3    H134155   4.093   5.593   9.228 -0.8100 -0.3045  0.6245
 3320TIP3    H234156   3.945   5.623   9.223 -0.9275 -0.9702 -0.1296
 3321TIP3   OH234157   4.685   6.229   8.229  0.1401  0.3503 -0.0066
 3321TIP3    H134158   4.710   6.319   8.250  3.8393 -0.8570  1.5916
 3321TIP3    H234159   4.623   6.238   8.157  1.8490  4.0987 -1.2617
 3322TIP3   OH234160   1.933   3.518   7.430 -0.1884  0.5066 -0.0915
 3322TIP3    H134161   1.968   3.432   7.405  0.3377  0.4798  0.6968
 3322TIP3    H234162   1.984   3.543   7.507  0.7987  2.2688 -1.2387
 3323TIP3   OH234163   1.590   4.308   8.521 -0.1453  0.3904 -0.3286
 3323TIP3    H134164   1.506   4.324   8.477 -0.7235  0.4608  0.7652
 3323TIP3    H234165   1.644   4.383   8.497 -0.9698  1.2134  0.3079
 3324TIP3   OH234166   6.342   3.906   8.109 -0.2892  0.3737  0.0270
 3324TIP3    H134167   6.293   3.834   8.068  1.4590 -0.7218 -0.2211
 3324TIP3    H234168   6.338   3.886   8.203  0.3229 -0.1610 -0.0520
 3325TIP3   OH234169   5.146   6.131   9.755  0.6729  0.0879 -0.0357
 3325TIP3    H134170   5.240   6.131   9.738  0.5557 -0.7088 -0.7242
 3325TIP3    H234171   5.121   6.224   9.751  1.4829  0.3377  0.5163
 3326TIP3   OH234172   6.721   5.945   9.357  0.1243 -0.4710 -0.4860
 3326TIP3    H134173   6.728   5.883   9.429  0.4661 -1.2784 -1.1980
 3326TIP3    H234174   6.633   5.932   9.323  0.1099 -0.3906 -0.4795
 3327TIP3   OH234175   0.980   4.558   8.033  0.5081  0.4136  0.4148
 3327TIP3    H134176   1.047   4.594   8.090  1.3174 -0.0014 -0.2551
 3327TIP3    H234177   0.948   4.480   8.080  3.3875 -1.8014 -1.0049
 3328TIP3   OH234178   4.463   3.547   9.808  0.7371  0.3083  0.3066
 3328TIP3    H134179   4.524   3.621   9.804 -1.1365  1.9242  0.3567
 3328TIP3    H234180   4.379   3.584   9.783 -0.2171 -1.9137  0.0042
 3329TIP3   OH234181   2.234   4.578   7.406 -0.2272 -0.5158 -0.1834
 3329TIP3    H134182   2.263   4.513   7.470 -0.3741  0.1554  0.5854
 3329TIP3    H234183   2.139   4.566   7.402 -0.2915 -0.1482  0.1915
 3330TIP3   OH234184   5.652   1.336   9.449  0.0041  0.5081  0.2680
 3330TIP3    H134185   5.585   1.272   9.425 -0.3008  0.3406  1.4666
 3330TIP3    H234186   5.603   1.414   9.475  0.3588  1.0773 -0.7218
 3331TIP3   OH234187   6.355   2.635   7.446  0.0227  0.3031 -0.1945
 3331TIP3    H134188   6.426   2.662   7.388  0.4900 -1.5180 -0.5293
 3331TIP3    H234189   6.275   2.646   7.394  0.2666  0.3148 -0.5683
 3332TIP3   OH234190   4.376   5.014   8.836 -0.2474  0.1842 -0.0702
 3332TIP3    H134191   4.295   4.972   8.807  0.8857 -1.3029 -1.2043
 3332TIP3    H234192   4.383   5.093   8.782 -1.8708  1.4176  1.3757
 3333TIP3   OH234193   5.778   0.462   9.260 -0.1427 -0.9264  0.2948
 3333TIP3    H134194   5.738   0.392   9.311 -0.6006 -0.6760  0.2872
 3333TIP3    H234195   5.771   0.539   9.317  2.1760 -1.2820  1.1648
 3334TIP3   OH234196   3.295   6.290   7.889 -0.5965  0.5318 -0.3787
 3334TIP3    H134197   3.358   6.298   7.818 -1.4874 -1.1411 -1.4198
 3334TIP3    H234198   3.210   6.305   7.848 -0.9975  1.7512  0.8051
 3335TIP3   OH234199   7.002   5.278   9.073 -0.4238  0.0737  0.2246
 3335TIP3    H134200   7.084   5.247   9.035 -1.3819 -0.4536 -1.5539
 3335TIP3    H234201   6.968   5.203   9.122 -0.7662 -0.3912 -0.6895
 3336TIP3   OH234202   3.365   4.865   9.562 -0.6532  0.1471  0.4157
 3336TIP3    H134203   3.433   4.849   9.628  0.9100  0.1916 -1.0971
 3336TIP3    H234204   3.283   4.840   9.605  0.1421  1.2222  2.7161
 3337TIP3   OH234205   5.908   7.126   8.634  0.2937  1.0912 -0.3759
 3337TIP3    H134206   5.998   7.154   8.616  0.0867  0.9852 -1.7099
 3337TIP3    H234207   5.880   7.081   8.554 -1.1634  1.6966 -0.2535
 3338TIP3   OH234208   0.287   4.150   7.145 -0.0270  0.1365 -0.1857
 3338TIP3    H134209   0.370   4.185   7.114 -0.1418 -0.1729 -0.8692
 3338TIP3    H234210   0.221   4.197   7.094 -0.2653  0.2173  0.1927
 3339TIP3   OH234211   7.659   3.463   7.832 -0.9381 -0.4206  0.5761
 3339TIP3    H134212   7.565   3.445   7.838 -1.6606  2.7532  0.2297
 3339TIP3    H234213   7.689   3.463   7.923 -1.4095 -0.7842  0.7323
 3340TIP3   OH234214   6.830   0.224   8.351 -0.4014 -0.1798 -0.3429
 3340TIP3    H134215   6.795   0.311   8.334 -2.4439 -0.8548  0.0935
 3340TIP3    H234216   6.820   0.212   8.445  0.1425 -0.7728 -0.3548
 3341TIP3   OH234217   5.003   4.598   9.026  0.4465  0.2687 -0.1303
 3341TIP3    H134218   5.042   4.514   9.000  1.2306  1.2274 -2.3095
 3341TIP3    H234219   5.075   4.660   9.019 -0.8068  1.6381 -1.5800
 3342TIP3   OH234220   5.043   4.218   8.668 -0.0645  0.1800  0.3524
 3342TIP3    H134221   5.033   4.128   8.699 -1.0635  0.1912  0.1262
 3342TIP3    H234222   5.069   4.209   8.577 -1.4013  0.0739 -0.0510
 3343TIP3   OH234223   7.067   7.324   8.818  0.2617 -0.0562  0.4317
 3343TIP3    H134224   7.052   7.254   8.754  0.7055  0.4505 -0.2539
 3343TIP3    H234225   7.114   7.391   8.768  0.5378  0.3931  1.2778
 3344TIP3   OH234226   3.107   0.657   7.344  0.1488 -0.2195 -0.0839
 3344TIP3    H134227   3.109   0.565   7.371  0.9888  0.1241  1.1141
 3344TIP3    H234228   3.049   0.699   7.408 -1.5256 -0.1605 -1.5600
 3345TIP3   OH234229   3.761   7.129   9.080  0.1552 -0.3119  0.0485
 3345TIP3    H134230   3.699   7.058   9.064 -0.7067  0.1259  1.2353
 3345TIP3    H234231   3.724   7.204   9.034  0.4521 -0.3521 -0.2544
 3346TIP3   OH234232   7.104   5.959   8.774 -0.8212  0.0488 -0.3168
 3346TIP3    H134233   7.101   6.037   8.719  2.8853 -0.5060 -1.5563
 3346TIP3    H234234   7.050   5.895   8.727 -0.6050  0.6574 -1.4387
 3347TIP3   OH234235   3.467   1.902   8.340 -0.1670 -0.2292  0.4806
 3347TIP3    H134236   3.493   1.982   8.294  0.7645 -0.4460  0.6085
 3347TIP3    H234237   3.549   1.867   8.375 -0.5907 -1.1565  0.5665
 3348TIP3   OH234238   7.522   3.391   9.306  0.3078 -0.2247 -0.4020
 3348TIP3    H134239   7.597   3.332   9.292  0.0484 -0.9668  1.0731
 3348TIP3    H234240   7.536   3.463   9.245  1.2787 -1.2337 -1.4192
 3349TIP3   OH234241   5.804   4.397   7.922  0.4726  0.3013  0.4530
 3349TIP3    H134242   5.870   4.328   7.923 -0.6095 -0.8998 -2.2028
 3349TIP3    H234243   5.755   4.385   8.003  1.8849 -0.3889  1.2399
 3350TIP3   OH234244   6.400   2.557   8.142  0.1190 -0.7701 -0.2281
 3350TIP3    H134245   6.448   2.616   8.084 -1.2155  0.9069  0.2984
 3350TIP3    H234246   6.390   2.476   8.091  2.1290 -0.6406 -0.9036
 3351TIP3   OH234247   4.912   7.027   7.214  0.0243 -0.1858  0.5121
 3351TIP3    H134248   4.874   6.953   7.261  0.0846  0.3740  1.4521
 3351TIP3    H234249   4.837   7.078   7.184  0.0038 -0.1564  0.6165
 3352TIP3   OH234250   1.548   6.153   9.105 -0.1858  0.2811 -0.1019
 3352TIP3    H134251   1.519   6.107   9.184 -0.7946  0.2984 -0.3089
 3352TIP3    H234252   1.605   6.090   9.061 -0.5369 -0.0531 -0.0833
 3353TIP3   OH234253   3.829   2.901   9.384 -0.0706  0.4345  0.0748
 3353TIP3    H134254   3.907   2.865   9.427  1.0040  1.3000 -1.0781
 3353TIP3    H234255   3.849   2.897   9.291 -2.0795 -0.7767 -0.3588
 3354TIP3   OH234256   3.372   6.828   8.629  0.2981  0.2125 -0.3515
 3354TIP3    H134257   3.378   6.915   8.670  0.9173  0.3650 -0.7456
 3354TIP3    H234258   3.303   6.837   8.564 -0.1715  0.1845  0.1344
 3355TIP3   OH234259   6.793   7.025   7.974  0.1288 -0.4667 -0.4866
 3355TIP3    H134260   6.737   7.094   7.940  2.3262  1.0648 -1.2356
 3355TIP3    H234261   6.882   7.056   7.959  1.2815 -1.4645  3.1827
 3356TIP3   OH234262   6.818   1.965   7.836 -0.3522  0.0063  0.0367
 3356TIP3    H134263   6.747   2.029   7.844 -0.2667  0.3117 -1.3889
 3356TIP3    H234264   6.817   1.940   7.743  0.9183 -0.5560  0.1601
 3357TIP3   OH234265   6.594   1.131   7.277 -0.0272 -0.6684 -0.2239
 3357TIP3    H134266   6.554   1.217   7.273  0.4097 -0.4516  0.0040
 3357TIP3    H234267   6.681   1.143   7.238  0.7285 -0.5893  1.4081
 3358TIP3   OH234268   2.781   4.750   9.225  0.4435 -0.3576  0.0383
 3358TIP3    H134269   2.808   4.800   9.148  1.1381 -1.6354 -0.5691
 3358TIP3    H234270   2.761   4.663   9.192  0.7464 -0.9289  1.2971
 3359TIP3   OH234271   6.919   4.136   8.478 -0.2371  0.1889  0.1291
 3359TIP3    H134272   6.979   4.174   8.413 -0.2209  1.1086  0.6638
 3359TIP3    H234273   6.976   4.095   8.543 -0.1608  1.0618  0.6369
 3360TIP3   OH234274   6.631   2.274   8.629 -0.2927 -0.3322  0.1344
 3360TIP3    H134275   6.610   2.189   8.589 -1.3578 -0.3562  0.7173
 3360TIP3    H234276   6.621   2.259   8.723 -1.3409  0.6576  0.1999
 3361TIP3   OH234277   3.804   1.467   7.055 -0.8679  0.2652 -0.2782
 3361TIP3    H134278   3.780   1.513   7.136 -0.9716  0.8399 -0.6238
 3361TIP3    H234279   3.873   1.521   7.017 -0.2255 -0.4593 -0.1539
 3362TIP3   OH234280   6.058   4.972   9.308 -0.3652  0.1875  0.0407
 3362TIP3    H134281   6.053   4.920   9.387 -3.8197  1.6147  0.9194
 3362TIP3    H234282   6.091   5.057   9.337 -3.1764  1.2488  0.3918
 3363TIP3   OH234283   6.298   0.825   8.557 -0.8844 -0.4556 -0.5389
 3363TIP3    H134284   6.223   0.876   8.526 -0.3865  0.9383  0.4213
 3363TIP3    H234285   6.319   0.863   8.643 -0.4727 -2.2995  0.2286
 3364TIP3   OH234286   2.758   5.717   8.726 -0.8346  0.7690  0.4440
 3364TIP3    H134287   2.805   5.797   8.750  0.0946  0.8952 -1.6404
 3364TIP3    H234288   2.730   5.731   8.636  1.0790 -1.9647 -0.7155
 3365TIP3   OH234289   0.106   3.836   7.464 -0.1951  0.0209 -0.0219
 3365TIP3    H134290   0.149   3.825   7.549 -0.3874  0.1078  0.0871
 3365TIP3    H234291   0.022   3.791   7.473 -0.3609  0.3192 -0.0535
 3366TIP3   OH234292   1.545   3.596   6.897  0.0512 -0.0540  1.3084
 3366TIP3    H134293   1.579   3.580   6.809 -0.7682  0.9306  0.7900
 3366TIP3    H234294   1.613   3.648   6.940  0.0404  0.2855  0.9220
 3367TIP3   OH234295   0.920   3.852   9.617  0.2268 -0.0327  0.4082
 3367TIP3    H134296   0.935   3.867   9.710 -0.6472 -2.8684  1.1263
 3367TIP3    H234297   1.006   3.863   9.576  1.1816 -1.2348  1.9781
 3368TIP3   OH234298   1.862   1.247   7.448  0.1783  0.5913 -0.0926
 3368TIP3    H134299   1.823   1.236   7.362 -0.4967 -2.2836  0.4694
 3368TIP3    H234300   1.928   1.315   7.436  0.0654  0.3203 -2.8376
 3369TIP3   OH234301   7.584   4.024   7.606 -0.1805  0.4838 -0.4244
 3369TIP3    H134302   7.679   4.022   7.592 -0.0263 -0.7371  0.6186
 3369TIP3    H234303   7.549   3.968   7.537 -0.3375  2.2069 -1.8288
 3370TIP3   OH234304   3.217   7.273   8.478  0.4852 -0.6266  0.2284
 3370TIP3    H134305   3.151   7.320   8.427  1.1588  0.2666  0.1641
 3370TIP3    H234306   3.166   7.217   8.537 -0.3149 -0.6003 -0.4272
 3371TIP3   OH234307   3.049   6.342   7.214 -0.1834 -0.3538 -0.1037
 3371TIP3    H134308   2.976   6.399   7.238 -1.4714 -1.2109 -1.7947
 3371TIP3    H234309   3.035   6.262   7.265 -1.3570 -1.1097 -1.5331
 3372TIP3   OH234310   6.581   1.054   8.625 -0.3537 -0.7222 -0.2001
 3372TIP3    H134311   6.602   1.053   8.531  0.4739 -1.1781 -0.0159
 3372TIP3    H234312   6.636   1.124   8.660 -2.4710  1.1792 -0.4348
 3373TIP3   OH234313   0.367   3.104   8.144  0.2767  0.1547  0.1542
 3373TIP3    H134314   0.375   3.196   8.120  1.2864 -0.2020 -0.9862
 3373TIP3    H234315   0.297   3.102   8.209  1.7382  2.0438  1.9222
 3374TIP3   OH234316   6.656   4.766   8.629 -0.1885  0.0545  0.3741
 3374TIP3    H134317   6.683   4.711   8.556  2.1109  0.3189  0.9459
 3374TIP3    H234318   6.579   4.721   8.666 -0.5445 -0.8087 -1.3232
 3375TIP3   OH234319   2.030   1.479   8.934 -0.5672  0.0159 -0.4892
 3375TIP3    H134320   2.123   1.492   8.916 -0.2000 -0.9221  0.6048
 3375TIP3    H234321   2.025   1.472   9.030 -1.5640 -1.3523 -0.6108
 3376TIP3   OH234322   1.181   5.555   7.978 -0.3180  0.3736  0.6015
 3376TIP3    H134323   1.224   5.533   8.060  0.2425  0.5358  0.3533
 3376TIP3    H234324   1.087   5.551   7.998 -0.1824  1.6142  1.5633
 3377TIP3   OH234325   6.206   4.264   7.576 -0.5759 -0.1594 -0.0600
 3377TIP3    H134326   6.248   4.337   7.622 -0.1031  0.1204 -0.9177
 3377TIP3    H234327   6.275   4.228   7.520 -1.1624 -0.4326 -0.6218
 3378TIP3   OH234328   1.795   7.062   8.456  0.4059  0.2320  0.0430
 3378TIP3    H134329   1.719   7.067   8.514  0.3639  2.1598 -0.0897
 3378TIP3    H234330   1.800   7.149   8.417  0.5758 -0.9133 -2.6956
 3379TIP3   OH234331   2.261   6.224   8.848  0.1494 -0.3162 -0.1275
 3379TIP3    H134332   2.313   6.146   8.825  1.2419  0.4829 -0.4447
 3379TIP3    H234333   2.180   6.214   8.799  0.0629 -1.5053  0.2233
 3380TIP3   OH234334   4.589   5.976   8.299  0.1433 -0.2685  0.6410
 3380TIP3    H134335   4.635   6.060   8.298 -1.2511  0.5482  1.1648
 3380TIP3    H234336   4.658   5.910   8.295  1.2185  0.8973 -1.3400
 3381TIP3   OH234337   3.517   0.794   8.553  0.1871 -0.4499 -0.6280
 3381TIP3    H134338   3.540   0.701   8.557 -0.7824 -0.6684  1.9591
 3381TIP3    H234339   3.421   0.795   8.558 -0.0135  0.6780 -3.1176
 3382TIP3   OH234340   0.180   1.873   8.518  0.4926 -0.3404 -0.2082
 3382TIP3    H134341   0.102   1.899   8.469 -0.2425 -0.7561  0.7203
 3382TIP3    H234342   0.194   1.944   8.580  0.3235 -0.6856  0.2270
 3383TIP3   OH234343   5.402   1.043   8.989 -0.2845 -0.0224  0.1349
 3383TIP3    H134344   5.416   1.131   9.025 -0.1730  0.9550 -2.1284
 3383TIP3    H234345   5.387   1.058   8.895  0.1300 -2.4559 -0.3723
 3384TIP3   OH234346   5.998   4.109   9.186 -0.2301  0.1132 -0.0357
 3384TIP3    H134347   6.059   4.133   9.256 -1.3985 -0.0186  1.0710
 3384TIP3    H234348   5.925   4.170   9.197 -0.3690  0.1837 -1.2547
 3385TIP3   OH234349   4.203   1.995   7.861 -0.3155  0.0678  0.1585
 3385TIP3    H134350   4.291   2.034   7.870 -0.0318 -0.1986 -1.1779
 3385TIP3    H234351   4.167   1.997   7.949  1.0926  0.0623  0.7683
 3386TIP3   OH234352   2.041   0.602   8.637 -0.3146 -0.0291 -0.0916
 3386TIP3    H134353   2.100   0.623   8.565 -1.1148 -0.2576 -0.8334
 3386TIP3    H234354   2.096   0.560   8.702 -0.0050 -2.2811 -1.6876
 3387TIP3   OH234355   0.665   6.614   8.023  0.3534  0.2553 -0.1301
 3387TIP3    H134356   0.579   6.637   7.989  0.1172 -0.0081  0.2774
 3387TIP3    H234357   0.682   6.678   8.093 -0.8771 -1.5081  1.8996
 3388TIP3   OH234358   3.242   0.649   9.064  0.2139 -0.2709 -0.4147
 3388TIP3    H134359   3.215   0.568   9.107  0.0476 -0.2157 -0.4167
 3388TIP3    H234360   3.296   0.621   8.991  0.7995 -0.3588  0.0429
 3389TIP3   OH234361   4.075   2.264   8.819  0.0267  0.1923 -0.7275
 3389TIP3    H134362   4.079   2.274   8.914 -1.0236 -1.0934 -0.5099
 3389TIP3    H234363   4.166   2.247   8.793  0.2683  0.1628  0.1085
 3390TIP3   OH234364   7.490   2.479   7.721 -0.2463 -0.1524 -0.0376
 3390TIP3    H134365   7.478   2.465   7.815  1.1629 -1.6251 -0.0298
 3390TIP3    H234366   7.446   2.562   7.703 -1.3549 -0.2998  1.7351
 3391TIP3   OH234367   1.049   1.264   9.527 -0.3680  0.1326 -0.3161
 3391TIP3    H134368   1.117   1.204   9.557 -0.1505  0.9186  0.8357
 3391TIP3    H234369   1.059   1.267   9.432  0.4248 -0.6726 -0.2683
 3392TIP3   OH234370   0.169   5.749   7.950 -0.1525  0.0694 -0.1049
 3392TIP3    H134371   0.161   5.842   7.926 -5.1497  0.5197  2.0394
 3392TIP3    H234372   0.136   5.703   7.873  1.3376  0.0560 -0.7725
 3393TIP3   OH234373   6.032   3.828   7.019  0.0845  0.2630 -0.0030
 3393TIP3    H134374   5.946   3.788   7.030  0.1023  0.3477  0.4673
 3393TIP3    H234375   6.082   3.764   6.968  0.0298 -0.1895  0.5075
 3394TIP3   OH234376   5.456   6.045   9.535  0.0290  0.6227 -0.7500
 3394TIP3    H134377   5.422   6.118   9.588  0.1162  0.5558 -0.6037
 3394TIP3    H234378   5.547   6.036   9.563 -0.6427 -1.2225  1.1015
 3395TIP3   OH234379   2.348   1.529   9.074  0.3039  0.3514 -0.1086
 3395TIP3    H134380   2.439   1.510   9.094 -0.3029 -2.8060  0.3085
 3395TIP3    H234381   2.304   1.532   9.159 -0.5424 -2.4137 -0.3177
 3396TIP3   OH234382   5.088   5.237   6.791 -0.1304  0.0182  0.1324
 3396TIP3    H134383   4.999   5.262   6.818 -0.5461 -0.3847 -0.8324
 3396TIP3    H234384   5.137   5.319   6.791 -0.7511  0.3922 -0.2680
 3397TIP3   OH234385   2.854   2.742   8.156  0.2168  0.2279  0.4115
 3397TIP3    H134386   2.793   2.746   8.082  0.4103  0.8767  0.2844
 3397TIP3    H234387   2.838   2.656   8.194 -1.2912  0.6478  0.8092
 3398TIP3   OH234388   6.107   1.515   7.574  0.0884 -0.4150  0.2810
 3398TIP3    H134389   6.165   1.513   7.498  0.9666 -0.3209  0.9329
 3398TIP3    H234390   6.126   1.434   7.620  0.6066  0.1721  1.1388
 3399TIP3   OH234391   1.028   3.411   8.252  0.2454  0.7540  0.3047
 3399TIP3    H134392   1.012   3.503   8.231  0.7040  0.6834 -0.4029
 3399TIP3    H234393   0.962   3.364   8.201  0.0844  0.6829  0.5774
 3400TIP3   OH234394   6.296   6.774   8.237  0.7128  0.0528  0.3657
 3400TIP3    H134395   6.223   6.714   8.246  2.1839 -1.7445  1.0450
 3400TIP3    H234396   6.260   6.860   8.256 -2.7019  0.4230 -5.3980
 3401TIP3   OH234397   0.007   2.919   8.965  0.3878  0.1907 -0.2715
 3401TIP3    H134398  -0.041   2.921   8.882 -0.3756  1.8785  0.1483
 3401TIP3    H234399   0.002   2.828   8.994 -1.9301  0.1215 -0.6500
 3402TIP3   OH234400   0.132   6.805   8.943 -0.0670 -0.3276 -0.6157
 3402TIP3    H134401   0.110   6.878   9.001 -0.7659 -2.2921  1.7587
 3402TIP3    H234402   0.227   6.797   8.949 -0.1853 -0.9386  0.9091
 3403TIP3   OH234403   6.724   6.107   7.742 -0.5377 -0.1821 -0.2544
 3403TIP3    H134404   6.656   6.130   7.806 -0.5375  2.1859 -1.0251
 3403TIP3    H234405   6.793   6.171   7.755 -0.4801  0.3069 -2.5107
 3404TIP3   OH234406   1.367   6.623   8.268 -0.1119 -0.0843 -0.4442
 3404TIP3    H134407   1.340   6.681   8.197 -1.0803  1.1440  0.8833
 3404TIP3    H234408   1.286   6.593   8.308  0.4093 -1.1752 -0.1464
 3405TIP3   OH234409   0.451   5.238   7.413  0.0765  0.3216 -0.3387
 3405TIP3    H134410   0.408   5.156   7.437 -0.9320  0.6410 -0.9829
 3405TIP3    H234411   0.538   5.231   7.451  0.5861 -1.7383 -1.7152
 3406TIP3   OH234412   0.597   1.931   7.638 -0.0089  0.1203  0.0274
 3406TIP3    H134413   0.579   1.895   7.725 -0.5258  2.1380  0.8185
 3406TIP3    H234414   0.643   2.013   7.655 -1.4532  1.3304 -1.4922
 3407TIP3   OH234415   6.764   3.221   7.962 -0.0160 -0.0356 -0.0215
 3407TIP3    H134416   6.854   3.251   7.971  0.5397 -1.1934 -1.3750
 3407TIP3    H234417   6.745   3.177   8.045  0.6870  0.1746  0.2541
 3408TIP3   OH234418   3.458   3.142   8.766  0.4926 -0.0470  0.5274
 3408TIP3    H134419   3.384   3.088   8.794  1.5621 -2.4447 -0.9549
 3408TIP3    H234420   3.421   3.203   8.703 -0.3680 -0.6617  0.4171
 3409TIP3   OH234421   4.974   3.019   9.091  0.5174 -0.1500  0.2345
 3409TIP3    H134422   4.936   2.932   9.077 -0.3299  0.2606 -0.0731
 3409TIP3    H234423   4.912   3.063   9.150  0.4867  0.5447 -0.3068
 3410TIP3   OH234424   4.869   6.061   7.348 -0.0220  0.4544  0.4445
 3410TIP3    H134425   4.921   6.001   7.294 -0.5977  0.2955  0.0615
 3410TIP3    H234426   4.780   6.051   7.316 -0.1087  1.6161  0.2711
 3411TIP3   OH234427   3.800   1.583   7.603  0.1435 -0.0096 -0.3866
 3411TIP3    H134428   3.774   1.631   7.524  0.9372 -1.0780 -1.3127
 3411TIP3    H234429   3.881   1.539   7.580 -0.5610 -1.8260  0.4268
 3412TIP3   OH234430   2.626   4.690   7.505  0.2622 -0.4462  0.2049
 3412TIP3    H134431   2.558   4.754   7.486  1.0073  0.3126  0.0470
 3412TIP3    H234432   2.695   4.707   7.440  0.4207 -1.4900  0.0750
 3413TIP3   OH234433   5.366   7.084   8.668 -0.3436 -0.1601 -0.6130
 3413TIP3    H134434   5.294   7.071   8.607 -0.8686 -0.0726 -0.0222
 3413TIP3    H234435   5.433   7.131   8.618 -0.5188 -0.6259 -1.2893
 3414TIP3   OH234436   5.747   6.709   9.385 -0.7857 -0.2216  0.2883
 3414TIP3    H134437   5.693   6.729   9.308 -0.4861 -0.1352  0.0969
 3414TIP3    H234438   5.837   6.718   9.353 -0.6479 -1.3954  0.3182
 3415TIP3   OH234439   1.924   2.750   7.455 -0.2951  0.3913  0.1038
 3415TIP3    H134440   1.946   2.754   7.362 -1.7272 -0.7384 -0.3283
 3415TIP3    H234441   1.890   2.838   7.475  0.7258  0.8731 -0.2337
 3416TIP3   OH234442   0.723   2.759   9.770 -0.5672  0.2505  0.1975
 3416TIP3    H134443   0.817   2.752   9.787 -0.5543 -0.1338 -0.0262
 3416TIP3    H234444   0.696   2.670   9.750 -0.8959  0.4322 -0.1792
 3417TIP3   OH234445   4.341   4.797   9.412 -0.0807 -0.0774  0.2413
 3417TIP3    H134446   4.394   4.750   9.348 -0.5306  0.8978 -0.8769
 3417TIP3    H234447   4.403   4.855   9.456  0.1007 -0.2181  0.1713
 3418TIP3   OH234448   6.854   1.981   9.539 -0.6658 -0.0275  0.1065
 3418TIP3    H134449   6.761   1.978   9.514 -0.4893 -0.6114 -0.4865
 3418TIP3    H234450   6.870   1.895   9.578 -0.4010  0.1231  0.3293
 3419TIP3   OH234451   0.333   1.247   7.337  0.2963  0.5375  0.2408
 3419TIP3    H134452   0.243   1.269   7.359  0.5441  0.9831  0.8417
 3419TIP3    H234453   0.371   1.215   7.419 -0.1515 -2.6527 -0.6468
 3420TIP3   OH234454   2.155   3.915   7.708  0.4695  0.3110 -0.0209
 3420TIP3    H134455   2.193   4.003   7.706  1.1093  0.0248 -0.6897
 3420TIP3    H234456   2.068   3.926   7.670  0.6070  0.6291 -0.2505
 3421TIP3   OH234457   5.605   5.217   7.107 -0.3572  0.3958 -0.2933
 3421TIP3    H134458   5.550   5.284   7.067  0.1854  0.3968 -1.0646
 3421TIP3    H234459   5.543   5.156   7.147 -0.8750  1.0303 -0.1150
 3422TIP3   OH234460   1.583   4.021   9.018  0.1456 -0.2065 -0.2843
 3422TIP3    H134461   1.625   3.980   8.943  0.7441 -1.2333  0.5816
 3422TIP3    H234462   1.507   3.965   9.037  0.7241 -0.6962  0.6461
 3423TIP3   OH234463   2.140   0.284   9.421  0.7616 -0.1891 -0.4652
 3423TIP3    H134464   2.101   0.290   9.509  0.6174 -0.2659 -0.5229
 3423TIP3    H234465   2.093   0.213   9.379  0.3594  0.2839 -0.8353
 3424TIP3   OH234466   2.674   4.213   8.166 -0.3032  0.0023 -0.6257
 3424TIP3    H134467   2.725   4.142   8.206 -1.4057  0.6297  2.1650
 3424TIP3    H234468   2.735   4.287   8.163  0.2448 -0.4730 -1.6108
 3425TIP3   OH234469   5.508   3.289   8.712  0.4834 -0.3513  0.4264
 3425TIP3    H134470   5.538   3.207   8.752  0.9334  0.0978  1.0151
 3425TIP3    H234471   5.543   3.286   8.623  1.0031 -0.5339  0.6321
 3426TIP3   OH234472   7.242   5.786   7.028 -0.2191  0.1687  0.1824
 3426TIP3    H134473   7.334   5.761   7.023 -0.7252 -2.0136  0.8865
 3426TIP3    H234474   7.206   5.762   6.943 -0.4949 -0.6700  0.5220
 3427TIP3   OH234475   5.017   1.445   9.192  0.0919 -0.2696 -0.3177
 3427TIP3    H134476   5.007   1.352   9.174  0.3008 -0.6049  1.1709
 3427TIP3    H234477   5.042   1.483   9.108 -2.0726 -1.1996 -1.4415
 3428TIP3   OH234478   5.524   2.671   8.058  0.3416  0.4388  0.3748
 3428TIP3    H134479   5.618   2.681   8.071  0.4400  2.2875 -1.3002
 3428TIP3    H234480   5.516   2.599   7.995  0.8302  1.6858 -1.1808
 3429TIP3   OH234481   5.496   5.649   7.758 -0.2043  0.1783 -0.4007
 3429TIP3    H134482   5.402   5.653   7.770 -0.1145 -1.0180  0.9715
 3429TIP3    H234483   5.531   5.720   7.811 -0.2235 -0.8533  1.0444
 3430TIP3   OH234484   2.635   3.743   7.251  0.2506 -0.2392 -0.5858
 3430TIP3    H134485   2.637   3.825   7.301  0.3076 -1.4988  1.5922
 3430TIP3    H234486   2.595   3.768   7.167  0.1282  1.9797  0.0535
 3431TIP3   OH234487   7.169   2.462   9.354 -0.1300 -0.7394  0.1740
 3431TIP3    H134488   7.090   2.516   9.352  0.0392 -0.5163 -0.5296
 3431TIP3    H234489   7.186   2.449   9.447 -0.8664 -0.5989  0.3361
 3432TIP3   OH234490   5.794   1.128   7.860 -0.3885  0.5383  0.0996
 3432TIP3    H134491   5.761   1.203   7.811 -1.6212 -1.4254 -2.3184
 3432TIP3    H234492   5.842   1.077   7.795 -0.0034 -1.0286  1.5538
 3433TIP3   OH234493   6.239   4.108   7.249  0.3375 -0.2132  0.2505
 3433TIP3    H134494   6.149   4.106   7.218  0.2492  0.3994  0.4614
 3433TIP3    H234495   6.284   4.168   7.189  0.6862 -0.7815 -0.0643
 3434TIP3   OH234496   5.928   6.646   8.980  0.8824 -0.0821 -0.0282
 3434TIP3    H134497   5.906   6.639   9.073 -2.1367  0.8747 -0.5438
 3434TIP3    H234498   5.982   6.724   8.974  0.0604  0.5729  0.8111
 3435TIP3   OH234499   2.665   6.623   7.682  0.6181 -0.5029 -0.1012
 3435TIP3    H134500   2.640   6.567   7.608 -0.7690 -0.9076  0.6265
 3435TIP3    H234501   2.613   6.590   7.755  0.3908  1.2165  0.5611
 3436TIP3   OH234502   7.066   1.050   8.402  0.0051 -0.2747 -0.1729
 3436TIP3    H134503   7.043   1.106   8.327 -1.4729 -1.9626 -1.0545
 3436TIP3    H234504   7.031   1.097   8.478 -2.3921 -0.5388 -1.0243
 3437TIP3   OH234505   0.235   2.195   6.853  0.0094 -0.3248  0.4051
 3437TIP3    H134506   0.306   2.142   6.888  0.0089 -0.3941  0.3024
 3437TIP3    H234507   0.168   2.132   6.826  0.6106 -0.3750 -1.0701
 3438TIP3   OH234508   4.326   7.489   9.735 -0.1530 -0.0173 -0.1602
 3438TIP3    H134509   4.414   7.486   9.698 -0.0373  1.6791 -0.0952
 3438TIP3    H234510   4.321   7.573   9.779 -1.4096 -0.6051  0.9000
 3439TIP3   OH234511   3.914   5.706   7.535 -0.5231  0.4453  0.3212
 3439TIP3    H134512   3.956   5.793   7.531 -2.4112  1.4340  0.7670
 3439TIP3    H234513   3.987   5.645   7.538  0.9249  2.1078  1.7481
 3440TIP3   OH234514   2.220   7.581   7.677  0.3338  0.2825 -0.2166
 3440TIP3    H134515   2.184   7.506   7.724 -1.0269  1.2466  0.3770
 3440TIP3    H234516   2.292   7.546   7.625  1.1828 -1.0282  1.7407
 3441TIP3   OH234517   7.432   5.674   7.385 -0.5527 -0.5012  0.2751
 3441TIP3    H134518   7.523   5.682   7.356 -0.2410 -1.3549  0.9454
 3441TIP3    H234519   7.400   5.764   7.393 -0.0216 -0.2125 -0.7197
 3442TIP3   OH234520   0.666   7.410   8.176  0.1474 -0.5881  0.0255
 3442TIP3    H134521   0.649   7.318   8.197  0.6940 -0.8617 -0.6582
 3442TIP3    H234522   0.718   7.406   8.095  0.2456  0.3206  0.0371
 3443TIP3   OH234523   4.456   1.670   7.869 -0.4873  0.0163  0.1117
 3443TIP3    H134524   4.548   1.645   7.868 -0.8036 -1.2081 -0.4726
 3443TIP3    H234525   4.417   1.616   7.937 -1.1183 -0.8935 -0.9274
 3444TIP3   OH234526   7.498   2.019   9.543 -0.5521  0.5475  0.5641
 3444TIP3    H134527   7.530   2.075   9.614 -0.7648  0.3755  0.7994
 3444TIP3    H234528   7.574   2.005   9.487 -0.6391  1.5581  0.1768
 3445TIP3   OH234529   4.528   7.122   7.234  0.3233  0.3726 -0.2708
 3445TIP3    H134530   4.612   7.152   7.201  0.3524 -0.1462 -0.6808
 3445TIP3    H234531   4.534   7.026   7.234 -0.2615  0.3279 -0.3032
 3446TIP3   OH234532   6.134   2.652   7.231 -0.4287 -0.3758 -0.3374
 3446TIP3    H134533   6.170   2.736   7.201 -1.2757  0.7564  1.6368
 3446TIP3    H234534   6.110   2.606   7.150 -1.8567  2.1379 -1.4516
 3447TIP3   OH234535   2.559   3.141   8.828  0.0235  0.2433  0.6221
 3447TIP3    H134536   2.646   3.179   8.840  0.4701 -0.2338 -0.8720
 3447TIP3    H234537   2.573   3.068   8.767 -1.0297 -1.4426  2.3073
 3448TIP3   OH234538   1.608   0.659   9.656  0.0692  0.3399 -0.3526
 3448TIP3    H134539   1.561   0.583   9.691  0.5959  0.3206  0.3262
 3448TIP3    H234540   1.699   0.646   9.684  0.5502  0.2595 -1.8289
 3449TIP3   OH234541   5.168   6.980   7.123  0.0311  0.8880 -0.3669
 3449TIP3    H134542   5.143   6.889   7.105  2.1249 -0.1010  1.3250
 3449TIP3    H234543   5.087   7.020   7.156 -0.6895 -0.6639 -0.1298
 3450TIP3   OH234544   7.243   0.836   9.282 -0.0851  0.0447  0.8439
 3450TIP3    H134545   7.233   0.791   9.197  0.6788  1.4386 -0.0112
 3450TIP3    H234546   7.304   0.781   9.330 -0.5512 -0.7856  0.5207
 3451TIP3   OH234547   2.274   3.477   8.489  0.2802 -0.0024 -0.2482
 3451TIP3    H134548   2.253   3.556   8.538  1.4723  0.5956 -0.6632
 3451TIP3    H234549   2.255   3.405   8.549 -2.0695  0.5018 -0.3082
 3452TIP3   OH234550   7.053   6.702   6.918 -0.1878  0.1236  0.2388
 3452TIP3    H134551   7.112   6.629   6.937  1.9635  1.3284 -1.3882
 3452TIP3    H234552   7.105   6.780   6.936 -1.7425  1.2516 -0.0069
 3453TIP3   OH234553   7.040   5.454   8.516  0.5292 -0.0524  0.0162
 3453TIP3    H134554   7.004   5.376   8.472  0.4363 -0.3692  0.6412
 3453TIP3    H234555   7.111   5.483   8.459  2.3150 -2.1378  1.0284
 3454TIP3   OH234556   6.994   2.409   7.211  0.1175 -0.3607 -0.2654
 3454TIP3    H134557   6.929   2.466   7.252  2.9395  1.2647  2.2881
 3454TIP3    H234558   7.011   2.449   7.126 -0.8346  0.2474 -0.1788
 3455TIP3   OH234559   7.391   5.923   7.769 -0.2396 -0.2645  0.2872
 3455TIP3    H134560   7.389   5.996   7.831 -0.0562 -1.0161  1.2182
 3455TIP3    H234561   7.484   5.908   7.752 -0.3091  1.1982 -1.7742
 3456TIP3   OH234562   7.530   5.124   9.388 -0.4926  0.2886  0.4388
 3456TIP3    H134563   7.545   5.048   9.445  0.1954  1.3446  1.7017
 3456TIP3    H234564   7.439   5.115   9.361 -0.5055 -0.8439  0.7818
 3457TIP3   OH234565   1.114   5.513   6.814 -0.4603  0.3722 -0.2665
 3457TIP3    H134566   1.200   5.477   6.789 -0.0279  1.9616 -1.1994
 3457TIP3    H234567   1.053   5.441   6.797  0.5623 -0.4766 -0.4888
 3458TIP3   OH234568   6.629   3.768   8.920 -0.0044 -0.2623 -0.3982
 3458TIP3    H134569   6.575   3.718   8.858 -2.5191  0.8604  0.7219
 3458TIP3    H234570   6.584   3.852   8.928  1.6619  0.5561  1.0592
 3459TIP3   OH234571   1.175   3.700   7.692 -0.1935  0.5216  0.1047
 3459TIP3    H134572   1.178   3.790   7.724  0.5111  0.7971 -0.6994
 3459TIP3    H234573   1.126   3.705   7.610 -0.7123  0.0618  0.3778
 3460TIP3   OH234574   0.481   7.368   9.161  0.1535 -0.0403 -0.3761
 3460TIP3    H134575   0.443   7.452   9.190  0.8329  0.0233  0.3740
 3460TIP3    H234576   0.566   7.392   9.124  0.5904 -0.4419  0.3414
 3461TIP3   OH234577   4.999   1.956   7.200 -0.3591 -0.0728 -0.2556
 3461TIP3    H134578   4.983   2.050   7.190  3.1857  0.6014 -0.7583
 3461TIP3    H234579   4.924   1.915   7.157 -2.4063  2.4555  0.6334
 3462TIP3   OH234580   1.315   3.042   8.334  0.2522  0.0611 -0.1449
 3462TIP3    H134581   1.289   3.103   8.265  1.5020 -1.3586 -1.9796
 3462TIP3    H234582   1.410   3.050   8.338  0.1410  0.7299  2.0821
 3463TIP3   OH234583   1.609   5.805   8.715  0.0484 -0.0290  0.1828
 3463TIP3    H134584   1.680   5.741   8.722 -0.1956 -0.1931  1.4316
 3463TIP3    H234585   1.545   5.777   8.780 -0.8009  0.5779 -0.3696
 3464TIP3   OH234586   7.597   2.304   7.498  0.2576 -0.9397  0.2504
 3464TIP3    H134587   7.680   2.350   7.489  1.0745 -1.8998  2.4213
 3464TIP3    H234588   7.544   2.362   7.553  0.1446 -1.1709  0.3834
 3465TIP3   OH234589   1.540   4.785   8.247  0.0524 -0.3126 -0.1104
 3465TIP3    H134590   1.589   4.745   8.175  2.0229  3.1329 -0.9501
 3465TIP3    H234591   1.592   4.768   8.325  1.4541  1.3383 -0.6295
 3466TIP3   OH234592   5.610   1.843   8.290  0.8790  0.0489  0.0929
 3466TIP3    H134593   5.607   1.906   8.362  2.4513 -0.6470  0.8201
 3466TIP3    H234594   5.644   1.893   8.215 -3.0733  1.4490 -1.0438
 3467TIP3   OH234595   5.978   1.628   6.846  0.7462  0.0764 -0.0508
 3467TIP3    H134596   5.960   1.722   6.843 -0.9653 -0.2086  0.5364
 3467TIP3    H234597   5.934   1.597   6.925  1.8343 -1.1343  0.1193
 3468TIP3   OH234598   6.522   3.722   7.430 -0.4483  0.6704  0.4506
 3468TIP3    H134599   6.485   3.669   7.501  0.2757  0.4672  0.6825
 3468TIP3    H234600   6.461   3.796   7.423 -2.9672 -1.4027 -1.6501
 3469TIP3   OH234601   1.596   3.340   9.138  0.1886  0.7123 -0.3524
 3469TIP3    H134602   1.554   3.262   9.102  0.5029  0.2060  0.3623
 3469TIP3    H234603   1.686   3.336   9.105 -0.1205  1.4546 -1.3494
 3470TIP3   OH234604   0.170   3.633   7.708 -0.1793  0.5310  0.7567
 3470TIP3    H134605   0.254   3.599   7.676 -0.2797  0.7608  0.2364
 3470TIP3    H234606   0.131   3.560   7.756  0.4173  0.4942  1.1994
 3471TIP3   OH234607   4.159   6.424   7.293 -0.4667 -0.3495  0.3393
 3471TIP3    H134608   4.202   6.404   7.376 -1.3940 -2.1095  0.4520
 3471TIP3    H234609   4.116   6.342   7.268 -2.2653  0.8284 -0.6448
 3472TIP3   OH234610   7.610   5.614   8.644  0.2335  0.7493 -0.0826
 3472TIP3    H134611   7.638   5.703   8.664  0.1367  0.8630 -0.4340
 3472TIP3    H234612   7.592   5.615   8.550  1.7770 -0.0531 -0.4287
 3473TIP3   OH234613   1.755   2.146   7.798  0.0473  0.6472 -0.3134
 3473TIP3    H134614   1.709   2.229   7.808  1.1326  1.2294  0.0132
 3473TIP3    H234615   1.842   2.170   7.767  0.7775 -0.2649  0.9321
 3474TIP3   OH234616   3.729   1.352   7.745  0.0428  0.3779 -0.0759
 3474TIP3    H134617   3.782   1.273   7.750 -1.4459 -0.6680 -0.1844
 3474TIP3    H234618   3.792   1.424   7.752  1.2639 -0.7963  1.8747
 3475TIP3   OH234619   1.740   3.578   9.507  0.1473 -0.2027  0.3489
 3475TIP3    H134620   1.766   3.669   9.517  1.0255 -0.5407  1.3081
 3475TIP3    H234621   1.822   3.530   9.493 -0.1728 -0.9895  1.0538
 3476TIP3   OH234622   0.591   0.862   9.089 -0.0079  0.1789 -0.0850
 3476TIP3    H134623   0.537   0.875   9.011 -0.5420 -0.7613  0.1134
 3476TIP3    H234624   0.603   0.950   9.124  2.1436  0.9339 -2.4341
 3477TIP3   OH234625   0.378   6.225   7.814  0.4876 -0.1560 -0.2011
 3477TIP3    H134626   0.300   6.230   7.758  0.4725  0.5823 -0.1162
 3477TIP3    H234627   0.450   6.208   7.753  0.2892 -0.6626 -0.2990
 3478TIP3   OH234628   4.707   0.388   8.437  0.7486 -0.0950 -0.0987
 3478TIP3    H134629   4.671   0.336   8.508  0.5147 -0.0145 -0.1574
 3478TIP3    H234630   4.794   0.415   8.468 -0.4425  2.4084  1.4029
 3479TIP3   OH234631   7.540   6.680   9.403  0.0142 -0.0948  0.0519
 3479TIP3    H134632   7.466   6.619   9.402  0.2025 -0.5987  3.4375
 3479TIP3    H234633   7.612   6.632   9.362 -0.9036 -0.5117 -1.0996
 3480TIP3   OH234634   2.573   3.521   7.907 -0.3841 -0.0985  0.1498
 3480TIP3    H134635   2.541   3.513   7.997  0.7012  1.7340  0.7588
 3480TIP3    H234636   2.578   3.431   7.875  0.1679 -0.8926  2.2844
 3481TIP3   OH234637   1.522   1.186   7.026  0.1978  0.1098 -0.3729
 3481TIP3    H134638   1.540   1.093   7.015  1.0219 -0.2550  3.0098
 3481TIP3    H234639   1.430   1.191   7.052  0.1355  0.2806 -0.6122
 3482TIP3   OH234640   6.380   5.837   7.276 -0.1449 -0.4912 -0.2116
 3482TIP3    H134641   6.356   5.912   7.221 -2.2796 -0.7684  0.2281
 3482TIP3    H234642   6.412   5.772   7.214 -0.0105  0.1293 -0.8133
 3483TIP3   OH234643   1.799   5.645   8.392  0.0512 -0.3936 -0.2736
 3483TIP3    H134644   1.750   5.726   8.380  0.1547 -0.2485  0.2512
 3483TIP3    H234645   1.738   5.576   8.367 -1.0948 -0.3393  2.1082
 3484TIP3   OH234646   2.177   2.613   8.154  0.0582  0.2938 -0.2609
 3484TIP3    H134647   2.255   2.605   8.100 -0.1795 -1.5158 -0.3964
 3484TIP3    H234648   2.196   2.688   8.212  1.2919  0.7582 -1.2192
 3485TIP3   OH234649   4.872   7.546   8.349  0.0318 -0.2220  0.3923
 3485TIP3    H134650   4.829   7.551   8.434  1.0641  0.7573  0.8784
 3485TIP3    H234651   4.918   7.630   8.339 -0.8337  0.0799 -1.5576
 3486TIP3   OH234652   3.534   4.296   8.654 -0.2349  0.7181 -0.3731
 3486TIP3    H134653   3.575   4.378   8.683 -2.4239  1.4808  0.7792
 3486TIP3    H234654   3.585   4.271   8.577  1.3085  2.4593 -0.0188
 3487TIP3   OH234655   0.310   2.437   8.457  0.2321  0.8600 -0.7732
 3487TIP3    H134656   0.241   2.422   8.522  1.5110  0.5476  0.5539
 3487TIP3    H234657   0.262   2.459   8.377 -1.4130  0.4164  0.0364
 3488TIP3   OH234658   3.392   3.267   8.541  0.2996 -0.1685  0.2620
 3488TIP3    H134659   3.457   3.336   8.530  0.5579 -0.4869 -0.2140
 3488TIP3    H234660   3.315   3.298   8.495  1.0732 -1.0856 -1.7669
 3489TIP3   OH234661   2.149   1.011   7.953 -0.5968  0.3021  0.7557
 3489TIP3    H134662   2.083   0.947   7.928 -0.2140  0.6825 -1.3600
 3489TIP3    H234663   2.232   0.973   7.924 -0.1499  0.9284  1.1850
 3490TIP3   OH234664   1.322   4.665   8.026  0.3243  0.1609  0.1395
 3490TIP3    H134665   1.369   4.650   8.108  0.7230  0.5731 -0.0053
 3490TIP3    H234666   1.351   4.752   7.998 -1.1751  0.7871  0.4637
 3491TIP3   OH234667   5.343   5.107   9.431 -0.2499  0.1179  0.4829
 3491TIP3    H134668   5.247   5.113   9.436 -0.1685  1.9872  0.1080
 3491TIP3    H234669   5.371   5.118   9.522 -0.3612 -0.3054  0.5750
 3492TIP3   OH234670   3.903   4.300   9.970  0.0912 -0.1464  0.4486
 3492TIP3    H134671   3.872   4.281   9.881  0.4226  1.5340 -0.0596
 3492TIP3    H234672   3.986   4.252   9.976 -0.6472 -1.4794  0.4119
 3493TIP3   OH234673   6.929   2.477   9.067  0.5763 -0.1052 -0.2842
 3493TIP3    H134674   6.927   2.382   9.073 -3.1288 -0.2786 -1.7091
 3493TIP3    H234675   6.924   2.506   9.158  0.3270 -1.3126  0.1113
 3494TIP3   OH234676   6.326   0.580   7.650  0.5872 -0.2082  0.2005
 3494TIP3    H134677   6.233   0.598   7.641  0.2420 -1.7785  0.3695
 3494TIP3    H234678   6.369   0.662   7.625 -0.8180  0.4413 -0.1701
 3495TIP3   OH234679   4.146   7.232   7.473 -0.0371 -0.4659 -0.1872
 3495TIP3    H134680   4.152   7.318   7.432 -2.8963 -1.3264 -2.7477
 3495TIP3    H234681   4.097   7.247   7.554  2.2023  0.6582  1.0723
 3496TIP3   OH234682   6.320   3.658   9.420 -0.3537  0.7578 -0.0228
 3496TIP3    H134683   6.415   3.671   9.417 -0.3968  0.9796 -1.5364
 3496TIP3    H234684   6.308   3.579   9.473  0.6957  0.5868 -0.0162
 3497TIP3   OH234685   5.207   3.867   8.135 -0.5821  0.3470  0.2977
 3497TIP3    H134686   5.190   3.821   8.217  2.0325  0.4965  0.9958
 3497TIP3    H234687   5.176   3.956   8.150  0.8000  0.6439  1.5232
 3498TIP3   OH234688   6.393   2.031   8.762 -0.2461 -0.8453  0.0773
 3498TIP3    H134689   6.308   2.036   8.720  0.0519  0.2540 -0.4271
 3498TIP3    H234690   6.455   2.021   8.690  0.1965  0.2039  0.2906
 3499TIP3   OH234691   0.999   0.345   7.625  0.0480  0.0797 -0.4822
 3499TIP3    H134692   0.920   0.351   7.571 -1.2781 -0.1865  1.3495
 3499TIP3    H234693   0.999   0.255   7.657  0.5121  0.3765  0.3690
 3500TIP3   OH234694   4.591   6.023   7.255  0.0763  0.2929  0.6970
 3500TIP3    H134695   4.557   6.094   7.201 -0.0525  0.3252  0.8188
 3500TIP3    H234696   4.599   5.949   7.195 -2.1784 -0.3324  1.0520
 3501TIP3   OH234697   1.638   7.600   7.576 -0.2530  0.6263  0.7411
 3501TIP3    H134698   1.704   7.561   7.633 -0.6343  1.1815  1.5713
 3501TIP3    H234699   1.688   7.661   7.520  0.2843 -0.7100 -0.2963
 3502TIP3   OH234700   5.653   0.735   7.371  0.3776 -0.6147  0.4129
 3502TIP3    H134701   5.696   0.680   7.437  0.9032 -1.6549 -0.7632
 3502TIP3    H234702   5.713   0.735   7.297 -0.8328 -0.6222 -0.5961
 3503TIP3   OH234703   2.334   6.981   7.843 -0.2547 -0.1660  0.0554
 3503TIP3    H134704   2.335   6.886   7.828  0.8909 -0.5130  2.0180
 3503TIP3    H234705   2.320   6.990   7.937  0.7244  1.5731  0.0753
 3504TIP3   OH234706   1.333   6.486   7.570  0.4543  0.0570 -0.2664
 3504TIP3    H134707   1.319   6.400   7.611 -1.1878 -0.1367 -1.1440
 3504TIP3    H234708   1.301   6.549   7.635  0.9979 -0.0304  0.0915
 3505TIP3   OH234709   2.860   7.494   8.608 -0.0494  0.3618  0.3934
 3505TIP3    H134710   2.934   7.544   8.573 -1.0899  1.7893  0.1130
 3505TIP3    H234711   2.866   7.507   8.703  0.2073  0.2435  0.3944
 3506TIP3   OH234712   7.316   5.302   8.403  0.7300 -0.1847  0.4698
 3506TIP3    H134713   7.343   5.317   8.493  0.4228 -0.5018  0.6177
 3506TIP3    H234714   7.302   5.207   8.397 -1.2145  0.0417  0.6661
 3507TIP3   OH234715   1.185   2.533   6.342 -0.2771  0.5460  0.1059
 3507TIP3    H134716   1.185   2.470   6.269 -0.6925 -1.5745  1.8307
 3507TIP3    H234717   1.278   2.545   6.363 -0.2042  0.1867  0.0052
 3508TIP3   OH234718   3.236   6.646   8.230  0.5230  0.6185  0.1661
 3508TIP3    H134719   3.254   6.641   8.136  1.2218 -0.0568  0.3269
 3508TIP3    H234720   3.226   6.555   8.258  0.1683  0.8199  0.7239
 3509TIP3   OH234721   4.097   3.722   9.116 -0.1031 -0.4151 -0.3487
 3509TIP3    H134722   4.156   3.796   9.130 -0.4569 -0.0871 -0.5649
 3509TIP3    H234723   4.099   3.674   9.198 -0.4375  0.2504  0.0590
 3510TIP3   OH234724   7.358   2.578   8.122  0.2800  0.4897  0.6565
 3510TIP3    H134725   7.324   2.650   8.175 -0.7839  0.0945  0.5281
 3510TIP3    H234726   7.316   2.589   8.037 -0.1561 -0.4760  0.7329
 3511TIP3   OH234727   3.486   2.928   8.257 -0.1199 -0.0884  0.2150
 3511TIP3    H134728   3.435   2.984   8.198 -1.0439 -0.2757  0.8317
 3511TIP3    H234729   3.436   2.926   8.338  0.4709 -0.9281  0.5687
 3512TIP3   OH234730   4.396   2.665   8.710  0.2385  0.4698  0.6047
 3512TIP3    H134731   4.476   2.614   8.723  0.5958  1.4612  2.7475
 3512TIP3    H234732   4.396   2.729   8.782 -2.4742  0.5009  0.6862
 3513TIP3   OH234733   0.361   5.105   7.153 -0.4094  0.4326 -0.2458
 3513TIP3    H134734   0.336   5.169   7.221 -0.3035  0.1432  0.0695
 3513TIP3    H234735   0.352   5.020   7.196 -0.7336  0.2199 -0.7232
 3514TIP3   OH234736   3.760   6.935   7.052  0.4655 -0.2151  0.2029
 3514TIP3    H134737   3.668   6.936   7.078  0.2974  0.1700 -0.3934
 3514TIP3    H234738   3.795   7.018   7.085  0.5353 -0.2438  0.2005
 3515TIP3   OH234739   7.120   2.238   9.186 -0.1353  0.5230  0.2234
 3515TIP3    H134740   7.107   2.147   9.214  0.1484  0.9850  1.9785
 3515TIP3    H234741   7.163   2.280   9.261 -2.0974  2.6200  0.2671
 3516TIP3   OH234742   0.047   0.984   8.643  0.0613 -0.7180  0.2425
 3516TIP3    H134743   0.012   1.038   8.714  1.1100  0.9716 -0.4604
 3516TIP3    H234744  -0.023   0.922   8.624 -0.9514 -0.0301  1.5217
 3517TIP3   OH234745   6.199   4.536   8.077  0.3203  0.3657 -0.1717
 3517TIP3    H134746   6.142   4.492   8.140 -0.2784  2.2036  0.6489
 3517TIP3    H234747   6.141   4.595   8.029  1.1577  0.6078 -0.9111
 3518TIP3   OH234748   6.167   0.894   9.498 -0.1294  0.4118 -0.3406
 3518TIP3    H134749   6.198   0.871   9.410 -0.1679  0.2058 -0.3001
 3518TIP3    H234750   6.163   0.811   9.545  0.2102  0.5635 -0.0387
 3519TIP3   OH234751   0.342   0.028   7.176 -0.3275  0.6863 -0.5551
 3519TIP3    H134752   0.311  -0.056   7.142 -0.6165  0.9078 -0.8488
 3519TIP3    H234753   0.280   0.093   7.141 -0.7103  0.9111  0.4887
 3520TIP3   OH234754   0.498   5.683   8.547 -0.2956 -0.3659 -0.0026
 3520TIP3    H134755   0.504   5.778   8.556 -0.2033 -0.2893 -0.7614
 3520TIP3    H234756   0.405   5.664   8.555 -0.2048 -0.3544  1.3192
 3521TIP3   OH234757   0.486   3.922   8.753 -0.0827  0.1609  0.2051
 3521TIP3    H134758   0.478   4.017   8.745 -1.4904  0.1056  0.7938
 3521TIP3    H234759   0.554   3.899   8.689 -0.5585  1.4027 -0.7947
 3522TIP3   OH234760   6.220   1.123   8.116  0.4664 -0.2414  0.5089
 3522TIP3    H134761   6.161   1.067   8.065  0.3937  0.1129  0.1971
 3522TIP3    H234762   6.304   1.116   8.070  0.6756 -0.7528  0.9575
 3523TIP3   OH234763   4.229   6.825   7.716  0.1844 -0.5401  0.0440
 3523TIP3    H134764   4.222   6.900   7.775 -0.2011 -1.9922  1.9653
 3523TIP3    H234765   4.247   6.863   7.630 -0.3146  1.7391  0.8805
 3524TIP3   OH234766   0.624   4.081   7.246 -0.2743 -0.2658 -0.2469
 3524TIP3    H134767   0.561   4.152   7.259 -0.3531 -0.3768 -0.0069
 3524TIP3    H234768   0.709   4.120   7.267 -0.1638  0.1004 -1.3348
 3525TIP3   OH234769   4.473   4.994   8.000 -0.0397  0.1903 -0.1354
 3525TIP3    H134770   4.412   5.017   7.931  1.0088 -1.1338 -1.6044
 3525TIP3    H234771   4.529   5.071   8.011 -0.3521  0.4857 -0.6292
 3526TIP3   OH234772   7.427   1.763   7.208 -0.0435  0.0030 -0.0598
 3526TIP3    H134773   7.419   1.720   7.123  0.6975  0.8466 -0.5643
 3526TIP3    H234774   7.385   1.701   7.269 -0.1978 -0.8115 -0.9547
 3527TIP3   OH234775   5.747   6.078   7.339  0.0969 -0.1471  0.6708
 3527TIP3    H134776   5.741   6.023   7.261 -1.3976  2.0832 -0.9097
 3527TIP3    H234777   5.684   6.041   7.400 -1.3314  0.1101 -0.5999
 3528TIP3   OH234778   6.886   3.803   8.421  0.5569 -0.0579 -0.4103
 3528TIP3    H134779   6.936   3.754   8.487  1.0763  0.7781 -0.1760
 3528TIP3    H234780   6.806   3.752   8.410  0.7861 -0.5982  0.3275
 3529TIP3   OH234781   0.351   0.834   7.902  0.4456 -0.3592  0.2222
 3529TIP3    H134782   0.297   0.804   7.975  2.2882 -0.1763  1.7600
 3529TIP3    H234783   0.410   0.761   7.885  0.2469 -0.2705 -0.8962
 3530TIP3   OH234784   1.401   5.606   7.321  0.0474 -0.0368 -0.2656
 3530TIP3    H134785   1.343   5.646   7.256 -1.2070 -1.0667  0.1776
 3530TIP3    H234786   1.412   5.674   7.387  0.5442  0.6802 -1.0628
 3531TIP3   OH234787   6.461   5.379   8.463 -0.4696 -0.1636  0.4390
 3531TIP3    H134788   6.549   5.366   8.499  0.0921 -1.1566 -1.1757
 3531TIP3    H234789   6.414   5.298   8.485 -1.1091  0.4940  1.5742
 3532TIP3   OH234790   0.839   3.598   7.218 -0.3603 -0.3479 -0.4444
 3532TIP3    H134791   0.932   3.578   7.231 -0.1925 -0.0604 -1.1434
 3532TIP3    H234792   0.820   3.567   7.130 -0.5821  0.7938 -0.8150
 3533TIP3   OH234793   3.011   4.130   8.038 -0.7345 -0.3458 -0.1327
 3533TIP3    H134794   3.092   4.115   8.086 -0.5034  0.4004 -0.2777
 3533TIP3    H234795   3.033   4.198   7.974 -1.1807 -0.9405 -0.9338
 3534TIP3   OH234796   5.466   0.206   9.541 -0.0068  0.5715 -0.4582
 3534TIP3    H134797   5.464   0.302   9.534 -0.2480  0.5897 -0.1271
 3534TIP3    H234798   5.378   0.182   9.568  0.0756  0.2593 -0.4668
 3535TIP3   OH234799   4.687   3.463   7.392  0.0117 -0.2630 -0.6327
 3535TIP3    H134800   4.647   3.393   7.443  2.3805 -0.4167  1.1722
 3535TIP3    H234801   4.639   3.463   7.309 -1.3805 -2.6434  0.0941
 3536TIP3   OH234802   3.667   2.558   8.375  0.5873  0.1633 -0.3067
 3536TIP3    H134803   3.603   2.609   8.425 -0.5139  0.8564 -2.2961
 3536TIP3    H234804   3.751   2.582   8.413 -0.2108  0.3577  1.4319
 3537TIP3   OH234805   0.631   7.057   8.971 -0.1484 -0.1890 -0.1492
 3537TIP3    H134806   0.667   7.031   9.056 -1.9597 -0.0979  0.6965
 3537TIP3    H234807   0.690   7.126   8.941  1.2106 -1.0409  0.4506
 3538TIP3   OH234808   7.516   6.187   7.471 -0.3171 -0.8927 -0.4173
 3538TIP3    H134809   7.604   6.222   7.458 -0.2526 -0.4856  0.9051
 3538TIP3    H234810   7.458   6.259   7.445 -0.1828  0.3668  2.3831
 3539TIP3   OH234811   6.882   5.049   9.187  0.2304 -0.3106 -0.0856
 3539TIP3    H134812   6.821   5.009   9.125 -0.1655  0.7913 -0.4291
 3539TIP3    H234813   6.839   5.041   9.272 -0.5070  0.6527 -0.3563
 3540TIP3   OH234814   3.185   3.424   8.440  0.2997  0.3998 -0.0921
 3540TIP3    H134815   3.169   3.494   8.503 -1.1325 -0.7364  0.8636
 3540TIP3    H234816   3.124   3.441   8.368  0.1836  0.3284 -0.0114
 3541TIP3   OH234817   4.213   1.387   8.777 -0.5826 -0.6541 -0.1889
 3541TIP3    H134818   4.275   1.345   8.837 -1.2356  0.2175  1.1617
 3541TIP3    H234819   4.190   1.319   8.714  0.9543 -1.2893 -0.1065
 3542TIP3   OH234820   3.849   1.425   8.127  0.0637  0.1392 -0.3870
 3542TIP3    H134821   3.918   1.448   8.190 -1.1136 -1.9549  1.8037
 3542TIP3    H234822   3.799   1.506   8.118  0.8961  0.8014  0.5338
 3543TIP3   OH234823   6.368   6.013   8.509  0.1877 -0.2529  0.4477
 3543TIP3    H134824   6.369   5.952   8.434 -0.7977  0.9554 -0.5814
 3543TIP3    H234825   6.306   5.974   8.570 -0.6856 -0.1643 -0.3477
 3544TIP3   OH234826   4.621   1.491   9.301  0.0245 -0.6263 -0.3066
 3544TIP3    H134827   4.622   1.417   9.240 -0.4683  0.4975 -1.7261
 3544TIP3    H234828   4.529   1.497   9.328  0.0838 -0.5896 -0.1155
 3545TIP3   OH234829   2.644   4.537   7.180 -0.0499  0.2837 -0.4769
 3545TIP3    H134830   2.691   4.479   7.240  0.5643 -0.1482 -1.3437
 3545TIP3    H234831   2.552   4.516   7.194  0.0026  1.0017  1.1057
 3546TIP3   OH234832   6.915   6.177   8.929  0.0685 -0.0008 -0.0821
 3546TIP3    H134833   6.933   6.118   8.856  1.1146  0.1858  0.0100
 3546TIP3    H234834   6.874   6.122   8.996  1.3036 -0.7073  0.1180
 3547TIP3   OH234835   1.615   2.561   8.095  0.0940 -0.0477  0.0237
 3547TIP3    H134836   1.661   2.572   8.012  1.5254 -1.3324  0.5951
 3547TIP3    H234837   1.662   2.491   8.140 -0.3355  0.9255  2.1397
 3548TIP3   OH234838   6.061   3.056   7.805 -0.5954 -0.0228  0.2098
 3548TIP3    H134839   6.092   3.048   7.896  2.1911 -0.3757 -0.6893
 3548TIP3    H234840   6.021   2.971   7.787  0.2123 -0.5250  0.6694
 3549TIP3   OH234841   6.441   4.983   9.205  0.7019  0.6585  0.5322
 3549TIP3    H134842   6.524   4.950   9.172  0.8179  1.1209  0.3469
 3549TIP3    H234843   6.392   5.009   9.127 -0.4719 -1.5148  0.4792
 3550TIP3   OH234844   2.439   4.842   9.456 -0.4174  0.4414  0.8319
 3550TIP3    H134845   2.524   4.879   9.434 -0.7871  2.1125  2.0087
 3550TIP3    H234846   2.393   4.836   9.373 -0.1135  2.1161  0.4999
 3551TIP3   OH234847   5.216   4.582   8.158 -0.3099 -0.7631  0.2056
 3551TIP3    H134848   5.121   4.573   8.149 -0.5856  0.2375  1.7884
 3551TIP3    H234849   5.230   4.588   8.252  1.5408 -2.9125  0.1502
 3552TIP3   OH234850   0.319   2.943   7.383 -1.0518  0.1288  0.2536
 3552TIP3    H134851   0.322   2.857   7.424 -0.7813  0.7690  1.6101
 3552TIP3    H234852   0.411   2.962   7.362 -1.1822 -0.1745 -0.6435
 3553TIP3   OH234853   6.043   0.621   7.882 -0.3775  0.1142  0.3835
 3553TIP3    H134854   6.058   0.635   7.789 -1.7627 -1.0579 -0.0458
 3553TIP3    H234855   6.103   0.550   7.906  1.1372  1.4704  0.8001
 3554TIP3   OH234856   5.570   7.417   9.100  0.0045  1.1658  0.1035
 3554TIP3    H134857   5.623   7.338   9.114 -1.8148 -0.2086 -0.4281
 3554TIP3    H234858   5.610   7.458   9.023  0.4447  0.2866 -0.1497
 3555TIP3   OH234859   0.346   2.154   9.276  0.5063  0.2078 -0.4050
 3555TIP3    H134860   0.264   2.108   9.291  0.1616  1.3766  1.6862
 3555TIP3    H234861   0.329   2.209   9.199 -0.4660 -0.0266 -0.3660
 3556TIP3   OH234862   1.341   1.159   8.128 -0.0945  0.1659  0.0657
 3556TIP3    H134863   1.362   1.116   8.045  0.8687 -2.2406  1.4715
 3556TIP3    H234864   1.404   1.231   8.134  1.0076 -0.7113 -0.5176
 3557TIP3   OH234865   0.414   3.468   8.803 -0.0195  0.2220 -0.5067
 3557TIP3    H134866   0.448   3.475   8.714 -0.0652  0.0389 -0.5396
 3557TIP3    H234867   0.490   3.446   8.856 -0.1346 -0.5282 -0.6317
 3558TIP3   OH234868   5.154   4.375   7.094 -0.3059 -0.6734 -0.2389
 3558TIP3    H134869   5.140   4.294   7.142  0.9876 -0.7761 -0.0015
 3558TIP3    H234870   5.217   4.351   7.026  0.5472  0.2682  0.2116
 3559TIP3   OH234871   2.447   3.964   8.029  0.0417 -0.4958  0.0631
 3559TIP3    H134872   2.485   3.899   7.970 -0.4018  0.4415 -1.3073
 3559TIP3    H234873   2.479   4.048   7.996 -2.9324  0.3429 -1.0549
 3560TIP3   OH234874   7.427   5.908   8.802  0.3682 -0.0808  0.7881
 3560TIP3    H134875   7.367   5.914   8.728  0.3523  0.6723  0.8621
 3560TIP3    H234876   7.475   5.991   8.802 -0.0178  0.1598  1.9489
 3561TIP3   OH234877   3.396   2.183   9.487 -0.4478  0.6587 -0.7254
 3561TIP3    H134878   3.334   2.255   9.502 -1.1798  0.5490 -2.8097
 3561TIP3    H234879   3.466   2.223   9.435 -0.3660  0.0853 -1.0574
 3562TIP3   OH234880   0.945   1.157   9.795  0.3025  0.3409 -0.0556
 3562TIP3    H134881   0.966   1.203   9.714 -0.9156  1.0705  0.0232
 3562TIP3    H234882   1.027   1.158   9.844  0.9214  0.3325 -1.0602
 3563TIP3   OH234883   4.755   0.569   8.174  0.1974 -0.3003  0.6195
 3563TIP3    H134884   4.725   0.611   8.094 -0.0304 -0.9698  0.3369
 3563TIP3    H234885   4.677   0.522   8.206  0.1586  0.3245  1.4799
 3564TIP3   OH234886   3.005   5.131   7.148  0.1041  0.0985 -1.0769
 3564TIP3    H134887   2.935   5.156   7.209 -0.0628 -0.8266 -0.8589
 3564TIP3    H234888   2.985   5.039   7.126  2.1511 -0.7413  0.2955
 3565TIP3   OH234889   6.100   3.841   9.356  0.9684 -0.0708  0.5158
 3565TIP3    H134890   6.097   3.935   9.335  1.5074  0.0050  0.7552
 3565TIP3    H234891   6.189   3.827   9.389  0.7449 -0.5747  0.9093
 3566TIP3   OH234892   4.058   2.534   8.753  0.5337  0.0613  0.1692
 3566TIP3    H134893   4.128   2.533   8.688 -0.5929  0.1366 -1.0920
 3566TIP3    H234894   4.040   2.442   8.772 -0.2608 -0.0382 -0.9322
 3567TIP3   OH234895   2.895   6.691   7.388  0.5929  0.1592 -0.5511
 3567TIP3    H134896   2.872   6.599   7.378 -0.4440  0.5445 -1.9112
 3567TIP3    H234897   2.831   6.725   7.451  0.1434  0.2345 -1.0411
 3568TIP3   OH234898   1.861   1.320   8.433 -0.1654 -0.1613 -0.1348
 3568TIP3    H134899   1.924   1.347   8.500  1.5355 -0.8133 -1.3761
 3568TIP3    H234900   1.778   1.312   8.479  0.5911  1.0030  1.5341
 3569TIP3   OH234901   3.837   7.500   7.907 -0.2918 -0.3453 -0.0015
 3569TIP3    H134902   3.763   7.555   7.931  0.3896  0.9300 -0.6846
 3569TIP3    H234903   3.892   7.556   7.852  0.1427 -1.9192 -1.2498
 3570TIP3   OH234904   1.671   7.120   7.776 -0.0440 -0.7167  0.3095
 3570TIP3    H134905   1.711   7.130   7.690  0.9419 -0.3449  0.8035
 3570TIP3    H234906   1.745   7.113   7.837 -0.7177 -1.5922  1.0635
 3571TIP3   OH234907   7.353   1.741   9.249 -0.0634 -0.0689  0.2849
 3571TIP3    H134908   7.283   1.737   9.184 -1.6548 -0.5400  1.9530
 3571TIP3    H234909   7.343   1.662   9.301  0.9605  0.4513  1.3252
 3572TIP3   OH234910   1.674   7.259   7.275  0.1831 -0.2190 -0.0215
 3572TIP3    H134911   1.617   7.248   7.199  0.5101 -0.5424 -0.2226
 3572TIP3    H234912   1.763   7.251   7.239  0.3365 -0.4272  0.4047
 3573TIP3   OH234913   5.600   7.053   7.275  0.0906  0.8358 -0.3231
 3573TIP3    H134914   5.509   7.082   7.276 -0.1123  0.1924 -0.1576
 3573TIP3    H234915   5.617   7.030   7.184  1.0031  3.7758 -1.0108
 3574TIP3   OH234916   6.706   5.012   8.736 -0.0587 -0.0705  0.4325
 3574TIP3    H134917   6.681   4.923   8.712  0.1381 -0.5023  1.7693
 3574TIP3    H234918   6.801   5.014   8.724 -0.2359  0.4513 -1.0872
 3575TIP3   OH234919   7.494   4.873   9.460 -0.3105  0.1479  0.0916
 3575TIP3    H134920   7.517   4.841   9.373  0.0070  0.2042  0.1536
 3575TIP3    H234921   7.445   4.800   9.500  0.4631 -0.3002  0.2533
 3576TIP3   OH234922   3.805   3.386   7.782 -0.1025 -0.1577  0.1653
 3576TIP3    H134923   3.853   3.326   7.725 -1.0058 -0.3409 -0.4342
 3576TIP3    H234924   3.782   3.460   7.725 -1.0390 -0.3573  0.2594
 3577TIP3   OH234925   6.873   7.503   8.991 -0.4938  0.4091  0.1646
 3577TIP3    H134926   6.940   7.565   8.962 -0.5761 -0.0142 -0.9736
 3577TIP3    H234927   6.846   7.458   8.911 -0.2539 -1.2869  0.9969
 3578TIP3   OH234928   3.834   2.632   8.626 -0.0269 -0.4145 -0.5369
 3578TIP3    H134929   3.854   2.725   8.620 -0.7829 -0.2958 -1.4165
 3578TIP3    H234930   3.914   2.592   8.660 -0.4931  0.8250  2.2086
 3579TIP3   OH234931   6.313   1.673   9.176 -0.3079  0.6099  0.0751
 3579TIP3    H134932   6.339   1.583   9.156  0.1547  0.9959 -1.1888
 3579TIP3    H234933   6.252   1.696   9.105 -0.2849  1.3444  0.2885
 3580TIP3   OH234934   7.265   2.321   7.636  0.0095  0.7320  0.2360
 3580TIP3    H134935   7.339   2.352   7.688  1.2048 -0.9487 -0.3852
 3580TIP3    H234936   7.263   2.378   7.559  0.3683  1.0593  0.4666
 3581TIP3   OH234937   2.076   1.194   8.156 -0.5976 -0.1582  0.0383
 3581TIP3    H134938   2.110   1.144   8.082 -2.1200  0.6753 -1.2818
 3581TIP3    H234939   2.054   1.127   8.221 -3.2809 -1.4397 -1.9697
 3582TIP3   OH234940   6.720   3.317   7.715 -0.0863  0.4386 -0.3344
 3582TIP3    H134941   6.728   3.283   7.805 -0.7529  1.2205  0.0320
 3582TIP3    H234942   6.680   3.246   7.666  0.5004 -0.0832 -0.0732
 3583TIP3   OH234943   5.074   1.579   7.464  0.2872  0.0511 -0.1805
 3583TIP3    H134944   5.162   1.600   7.433  0.8187  0.1362  1.2959
 3583TIP3    H234945   5.066   1.484   7.450 -0.1600  0.3306 -2.1046
 3584TIP3   OH234946   6.058   3.444   8.054  0.1447  0.0731  0.1783
 3584TIP3    H134947   6.127   3.434   7.988  0.4193  3.8927 -0.3202
 3584TIP3    H234948   6.096   3.409   8.134  2.0315  0.4841 -0.4795
 3585TIP3   OH234949   4.999   6.011   9.526 -0.2874 -0.7953  0.3668
 3585TIP3    H134950   4.905   6.014   9.544 -0.7046  3.0857 -1.3938
 3585TIP3    H234951   5.039   6.049   9.605 -0.5430  0.3674 -0.0390
 3586TIP3   OH234952   7.529   4.661   9.188 -0.1287 -0.3705 -0.0986
 3586TIP3    H134953   7.542   4.581   9.138  1.6278 -1.5553  2.0475
 3586TIP3    H234954   7.611   4.710   9.178 -0.9891  0.9777 -0.9664
 3587TIP3   OH234955   4.583   0.964   8.859  0.7326 -0.4536 -0.0773
 3587TIP3    H134956   4.677   0.982   8.865  1.2125 -2.4539 -0.8499
 3587TIP3    H234957   4.576   0.897   8.791 -1.2140 -0.6924  0.3136
 3588TIP3   OH234958   6.972   1.667   7.356 -0.0031  0.1173 -0.4330
 3588TIP3    H134959   7.025   1.696   7.431  0.0991 -0.9446 -0.0784
 3588TIP3    H234960   7.035   1.652   7.286  0.1250 -0.6804 -0.1570
 3589TIP3   OH234961   3.118   1.079   8.213  0.6109 -0.3467  0.4610
 3589TIP3    H134962   3.077   1.111   8.293  2.1139  0.7111  0.8562
 3589TIP3    H234963   3.191   1.140   8.198  0.4061 -0.5583 -1.6717
 3590TIP3   OH234964   7.503   6.227   8.327  0.3971 -0.8292  0.3635
 3590TIP3    H134965   7.536   6.316   8.338 -1.6153 -0.2416  2.1300
 3590TIP3    H234966   7.434   6.235   8.262  1.6694 -1.5651 -1.1678
 3591TIP3   OH234967   6.977   6.587   8.810 -0.2381  0.0708 -0.2518
 3591TIP3    H134968   7.059   6.540   8.820  0.3675  0.4614 -2.7958
 3591TIP3    H234969   6.910   6.518   8.802  0.1267 -0.2760 -0.3130
 3592TIP3   OH234970   0.019   7.129   8.812  0.5195 -0.2263  0.6559
 3592TIP3    H134971   0.076   7.099   8.742 -0.2609  0.7208 -0.4175
 3592TIP3    H234972   0.059   7.094   8.892  1.2675 -1.5613 -0.2646
 3593TIP3   OH234973   7.538   1.379   7.877  0.4760  0.0212 -0.2772
 3593TIP3    H134974   7.559   1.434   7.952 -0.6582  1.7231 -1.1391
 3593TIP3    H234975   7.442   1.377   7.875  0.4902 -1.0942 -0.9213
 3594TIP3   OH234976   5.488   2.457   8.799  0.1133 -0.1358  0.0225
 3594TIP3    H134977   5.546   2.442   8.873  0.4050 -0.5559 -0.2856
 3594TIP3    H234978   5.404   2.421   8.826  0.1396 -0.0189  0.2619
 3595TIP3   OH234979   4.256   0.613   8.074 -0.2728  0.2892  0.3003
 3595TIP3    H134980   4.183   0.593   8.133  0.6384 -1.1166  1.0382
 3595TIP3    H234981   4.257   0.540   8.012 -0.2296  0.9270 -0.4555
 3596TIP3   OH234982   0.183   3.237   8.514 -0.3685 -0.2676  0.3925
 3596TIP3    H134983   0.121   3.305   8.543 -0.7551 -1.2239  1.8963
 3596TIP3    H234984   0.223   3.205   8.595  0.4064 -1.2686 -0.3691
 3597TIP3   OH234985   1.805   4.470   8.341  0.2561 -0.2940  0.3053
 3597TIP3    H134986   1.826   4.552   8.385  0.7875 -1.1887  1.7871
 3597TIP3    H234987   1.886   4.444   8.297 -0.6236  1.2814 -2.4957
 3598TIP3   OH234988   2.478   1.687   9.591  0.2287 -0.2341  0.4796
 3598TIP3    H134989   2.391   1.647   9.597  0.0135  0.1550 -0.0574
 3598TIP3    H234990   2.461   1.781   9.586  0.6950 -0.1393  0.6578
 3599TIP3   OH234991   5.764   3.706   7.077 -0.7362 -0.2435 -0.3682
 3599TIP3    H134992   5.760   3.636   7.142 -0.6225 -0.3417 -0.4662
 3599TIP3    H234993   5.676   3.743   7.075 -0.2253  1.2242  1.4526
 3600TIP3   OH234994   3.519   6.618   8.185  0.2279 -0.1051  0.6255
 3600TIP3    H134995   3.523   6.613   8.280  0.1999  0.2459  0.6443
 3600TIP3    H234996   3.475   6.536   8.159  3.5360 -2.0845  0.6619
 3601TIP3   OH234997   4.573   5.551   7.622  0.2237  0.6303  0.4553
 3601TIP3    H134998   4.517   5.488   7.577  0.9567 -0.5565  1.1107
 3601TIP3    H234999   4.514   5.600   7.678 -0.1114 -1.2969  1.9222
 3602TIP3   OH235000   5.180   1.931   7.664 -0.6052  0.5067  0.1334
 3602TIP3    H135001   5.201   1.931   7.571 -2.0142  0.3325 -0.2064
 3602TIP3    H235002   5.106   1.992   7.672 -0.8561  0.1010  1.0403
 3603TIP3   OH235003   4.939   3.657   8.963  0.1915 -0.2075  0.6521
 3603TIP3    H135004   4.983   3.742   8.967 -1.4559  0.7226  0.0468
 3603TIP3    H235005   4.884   3.662   8.885  0.6163 -2.1439  0.1694
 3604TIP3   OH235006   6.300   3.880   7.386 -0.6874 -0.3186  0.2545
 3604TIP3    H135007   6.278   3.965   7.349 -0.0331 -0.5196 -0.6184
 3604TIP3    H235008   6.259   3.816   7.328 -0.3395 -0.6176  0.3327
 3605TIP3   OH235009   1.527   4.524   9.161  0.9526 -0.0673  0.5689
 3605TIP3    H135010   1.589   4.452   9.150  1.2299  0.0369  1.3618
 3605TIP3    H235011   1.454   4.485   9.209  1.4244  0.3320  1.6440
 3606TIP3   OH235012   4.820   5.332   7.682 -0.6525  0.4583  0.2115
 3606TIP3    H135013   4.895   5.334   7.622 -0.4262  1.5344  0.4926
 3606TIP3    H235014   4.838   5.258   7.740 -0.3202  0.0801 -0.3628
 3607TIP3   OH235015   5.681   6.489   7.643 -0.3990 -0.6310 -0.3207
 3607TIP3    H135016   5.696   6.406   7.690 -2.3460 -1.7957 -1.6545
 3607TIP3    H235017   5.709   6.471   7.554 -0.2311  0.3757 -0.4757
 3608TIP3   OH235018   1.369   6.038   9.337 -0.0499 -0.1669  0.3980
 3608TIP3    H135019   1.434   6.091   9.384 -0.7484  1.3921 -0.3433
 3608TIP3    H235020   1.327   5.986   9.405 -0.8282  1.8176  1.5010
 3609TIP3   OH235021   1.954   4.390   7.673 -0.1517 -0.3655  0.0046
 3609TIP3    H135022   1.922   4.464   7.621  0.0667 -0.6345 -0.5223
 3609TIP3    H235023   2.049   4.399   7.671 -0.0555  2.3699  4.3236
 3610TIP3   OH235024   0.730   5.462   6.958 -0.1194  0.1749 -0.1362
 3610TIP3    H135025   0.746   5.447   7.051 -0.6236  0.8502  0.0668
 3610TIP3    H235026   0.635   5.476   6.953  0.2229  2.7507 -0.3779
 3611TIP3   OH235027   0.446   1.197   7.591  0.1212  0.0936 -0.2318
 3611TIP3    H135028   0.533   1.188   7.629  0.4955 -0.8560 -1.2657
 3611TIP3    H235029   0.386   1.183   7.664  0.8127  1.6122  0.6642
 3612TIP3   OH235030   0.513   7.004   9.511 -0.5074 -0.5869  0.3954
 3612TIP3    H135031   0.489   6.921   9.552  0.5582 -1.0078  0.2068
 3612TIP3    H235032   0.508   6.986   9.417  0.6555 -0.7454  0.3460
 3613TIP3   OH235033   0.475   5.388   9.325 -0.0121 -0.3242 -0.0678
 3613TIP3    H135034   0.383   5.406   9.308  0.2643  0.3701 -0.9428
 3613TIP3    H235035   0.476   5.337   9.406 -1.0742  0.8237  0.7089
 3614TIP3   OH235036   4.888   2.043   7.706  0.0212 -0.3604  0.6744
 3614TIP3    H135037   4.820   2.051   7.639 -0.5783 -0.3612  1.2636
 3614TIP3    H235038   4.949   2.113   7.687 -0.1827 -0.3161  0.1700
 3615TIP3   OH235039   4.293   6.475   7.532 -0.3157 -0.0181 -0.1845
 3615TIP3    H135040   4.362   6.468   7.599  0.2230 -0.1602 -0.7439
 3615TIP3    H235041   4.332   6.529   7.464 -0.6285 -0.3999 -0.6702
 3616TIP3   OH235042   1.071   3.984   9.243  0.1406  0.3562 -0.1615
 3616TIP3    H135043   0.986   4.016   9.274  0.2923 -1.1021  2.0325
 3616TIP3    H235044   1.050   3.905   9.194  0.2490 -0.8044  1.5761
 3617TIP3   OH235045   1.732   3.519   6.682  0.3421 -0.7151 -0.2519
 3617TIP3    H135046   1.800   3.563   6.629  0.4633  0.3532  0.7513
 3617TIP3    H235047   1.773   3.506   6.767 -1.6386  2.9983  1.5352
 3618TIP3   OH235048   6.524   5.474   9.925 -0.1188  0.2120  0.4100
 3618TIP3    H135049   6.448   5.522   9.958  0.4043  0.2590  1.5871
 3618TIP3    H235050   6.496   5.383   9.920  0.0492  0.0687  1.8298
 3619TIP3   OH235051   5.681   3.581   8.990  0.6184 -0.4588  0.0410
 3619TIP3    H135052   5.760   3.529   9.011 -0.6801 -2.7852 -0.4762
 3619TIP3    H235053   5.668   3.636   9.067  2.0809 -0.8953  0.6381
 3620TIP3   OH235054   5.937   2.752   8.323 -0.0960  0.2165 -0.1624
 3620TIP3    H135055   5.883   2.701   8.385  1.5380 -3.0341 -1.1919
 3620TIP3    H235056   6.023   2.757   8.365  0.9190 -1.6706 -1.8420
 3621TIP3   OH235057   5.689   5.215   9.520  0.4296  0.1172 -0.0450
 3621TIP3    H135058   5.683   5.145   9.455  1.2303 -0.7422  0.7753
 3621TIP3    H235059   5.664   5.294   9.472 -1.4153 -0.8322 -0.7619
 3622TIP3   OH235060   6.133   0.546   9.424 -0.5397 -0.1812 -0.2199
 3622TIP3    H135061   6.079   0.482   9.470  0.6222 -0.4807  0.7828
 3622TIP3    H235062   6.222   0.513   9.432  0.1434  1.6985  0.5900
 3623TIP3   OH235063   3.347   6.438   7.296 -0.0478 -0.6611  0.0644
 3623TIP3    H135064   3.358   6.531   7.272 -0.9606 -0.5453  0.0474
 3623TIP3    H235065   3.259   6.417   7.266 -0.1360 -1.3197  0.7762
 3624TIP3   OH235066   0.901   4.364   8.581 -0.5389  0.2625  0.1602
 3624TIP3    H135067   0.925   4.456   8.592 -0.6525  0.6626 -2.3594
 3624TIP3    H235068   0.806   4.363   8.589 -0.5452  0.3724  0.1026
 3625TIP3   OH235069   2.231   6.192   8.470 -0.1566 -0.1599  0.1345
 3625TIP3    H135070   2.158   6.218   8.526 -0.0637 -3.1089  1.7901
 3625TIP3    H235071   2.214   6.101   8.447  1.6806 -0.1351 -1.6496
 3626TIP3   OH235072   1.534   7.390   8.806  0.3072 -0.8427 -0.1369
 3626TIP3    H135073   1.596   7.337   8.756 -0.2926 -0.1839 -1.6500
 3626TIP3    H235074   1.587   7.430   8.875  1.1515 -1.8619 -0.1690
 3627TIP3   OH235075   0.220   3.265   8.824 -0.0218 -0.3951  0.0249
 3627TIP3    H135076   0.250   3.177   8.849 -0.2629 -0.5124 -0.0897
 3627TIP3    H235077   0.293   3.322   8.846 -0.0987 -0.5382  0.6824
 3628TIP3   OH235078   4.870   0.162   7.561  0.3038  0.2997  0.0023
 3628TIP3    H135079   4.817   0.235   7.593  0.4839  0.6652 -0.5060
 3628TIP3    H235080   4.808   0.090   7.549  0.1294  0.3577  0.5338
 3629TIP3   OH235081   7.004   2.631   8.149 -0.1844 -0.1161  0.0622
 3629TIP3    H135082   6.939   2.591   8.207 -1.0578  1.1218 -0.0234
 3629TIP3    H235083   7.077   2.652   8.207  0.6456 -2.4540 -0.0117
 3630TIP3   OH235084   3.518   3.523   8.667  0.3159  0.3017  0.2546
 3630TIP3    H135085   3.542   3.584   8.597  0.6827  0.3437  0.4138
 3630TIP3    H235086   3.482   3.580   8.736 -1.5600  0.1302 -0.5066
 3631TIP3   OH235087   3.165   3.654   8.594 -0.1489 -0.1121  0.2513
 3631TIP3    H135088   3.217   3.672   8.673 -0.4075  0.0181  0.3969
 3631TIP3    H235089   3.074   3.664   8.623 -0.2798 -0.9605  0.1532
 3632TIP3   OH235090   7.233   0.982   6.698 -0.5799 -0.3514 -0.0345
 3632TIP3    H135091   7.149   0.938   6.692 -2.2464  2.2314  2.1006
 3632TIP3    H235092   7.258   0.972   6.790  0.3282  0.8047 -0.1317
 3633TIP3   OH235093   5.377   6.245   7.549 -0.3677 -0.4022 -0.3194
 3633TIP3    H135094   5.290   6.228   7.585 -0.4338  0.7037  0.1074
 3633TIP3    H235095   5.404   6.327   7.591  2.4074 -2.4323  2.3605
 3634TIP3   OH235096   2.207   1.732   8.705 -0.2218 -0.0718 -0.7850
 3634TIP3    H135097   2.264   1.809   8.706  1.4777 -1.2640  0.7223
 3634TIP3    H235098   2.159   1.737   8.788  0.8576 -1.2270 -0.0405
 3635TIP3   OH235099   7.244   1.326   8.552 -0.0477  0.1980  0.4191
 3635TIP3    H135100   7.184   1.379   8.605  0.9504 -0.4849  2.3436
 3635TIP3    H235101   7.232   1.358   8.463 -2.5987  0.6795  0.8504
 3636TIP3   OH235102   6.792   0.409   7.705 -0.3334 -0.4639  0.2151
 3636TIP3    H135103   6.754   0.342   7.647  1.5239 -0.6937 -0.8154
 3636TIP3    H235104   6.833   0.471   7.645 -0.8162  0.8791  1.2184
 3637TIP3   OH235105   4.786   5.703   9.052  0.3025  0.2670 -0.3143
 3637TIP3    H135106   4.819   5.684   8.964  1.1334 -0.1683  0.0829
 3637TIP3    H235107   4.692   5.718   9.039 -0.2049 -2.7266 -0.9048
 3638TIP3   OH235108   0.289   5.151   8.324 -0.3738 -0.6034 -0.3047
 3638TIP3    H135109   0.360   5.116   8.271  0.0555 -0.2743  0.0531
 3638TIP3    H235110   0.312   5.242   8.340 -1.2334 -0.2845 -0.7918
 3639TIP3   OH235111   2.639   7.436   8.456 -0.3873  0.1367 -0.2964
 3639TIP3    H135112   2.713   7.465   8.510  1.1296 -2.1334 -1.0270
 3639TIP3    H235113   2.675   7.367   8.401 -3.1604 -1.3024 -0.4607
 3640TIP3   OH235114   6.613   0.092   8.248  0.2876 -0.3386  0.1936
 3640TIP3    H135115   6.550   0.094   8.320 -0.0064 -0.0925 -0.0632
 3640TIP3    H235116   6.692   0.132   8.284  0.2061 -0.4006  0.4409
 3641TIP3   OH235117   3.969   0.416   7.325  0.1410 -0.1100 -0.1674
 3641TIP3    H135118   3.908   0.355   7.366  0.4512 -0.0850  0.3273
 3641TIP3    H235119   4.021   0.362   7.266 -0.6602 -0.0623 -0.9597
 3642TIP3   OH235120   4.954   5.064   7.194  0.0660  0.0482 -0.4318
 3642TIP3    H135121   4.865   5.098   7.203 -0.1328 -0.0574 -1.8696
 3642TIP3    H235122   4.952   5.011   7.115  1.5708  0.5966 -0.8724
 3643TIP3   OH235123   3.170   6.111   8.127  0.0082  0.1478 -0.6778
 3643TIP3    H135124   3.198   6.113   8.036  2.5379  0.8935  0.0580
 3643TIP3    H235125   3.250   6.105   8.178 -1.3848 -1.9438  1.5156
 3644TIP3   OH235126   5.601   1.571   8.655  0.3581 -0.3780  0.8026
 3644TIP3    H135127   5.583   1.478   8.669  1.4323 -0.8373 -0.5783
 3644TIP3    H235128   5.663   1.594   8.725 -0.2318 -0.5848  1.3996
 3645TIP3   OH235129   1.382   0.478   7.214 -0.5514  0.3123  0.6417
 3645TIP3    H135130   1.327   0.402   7.194  2.7488 -1.8618 -1.1817
 3645TIP3    H235131   1.403   0.468   7.307 -2.0389  0.3781  1.0039
 3646TIP3   OH235132   0.068   2.614   7.862 -0.1244 -0.1725 -0.3979
 3646TIP3    H135133   0.020   2.697   7.857 -2.1476 -1.1268  1.2562
 3646TIP3    H235134   0.002   2.548   7.844  0.7098 -1.5430  1.3183
 3647TIP3   OH235135   5.315   4.476   9.676  0.3117  0.1654  0.1530
 3647TIP3    H135136   5.379   4.521   9.621  0.7066  1.9700  1.9653
 3647TIP3    H235137   5.358   4.468   9.761 -1.3456  0.1420  1.0274
 3648TIP3   OH235138   3.068   1.820   9.291 -0.1317  0.3961  0.3944
 3648TIP3    H135139   3.131   1.857   9.352  1.3073 -0.3571 -0.5854
 3648TIP3    H235140   3.112   1.744   9.253 -2.0108 -0.7678  0.4069
 3649TIP3   OH235141   3.638   7.538   8.186 -0.3730  0.2036  0.4166
 3649TIP3    H135142   3.621   7.594   8.111  0.0667 -1.2644 -0.8262
 3649TIP3    H235143   3.725   7.501   8.170  0.4525  1.0955  2.4758
 3650TIP3   OH235144   2.869   0.716   8.704  0.6356  0.1102  0.0168
 3650TIP3    H135145   2.924   0.788   8.734 -0.1923  1.3762 -1.3209
 3650TIP3    H235146   2.831   0.749   8.622 -0.0626 -1.7215 -0.4323
 3651TIP3   OH235147   2.618   5.123   9.044 -0.1186 -0.2096 -0.0405
 3651TIP3    H135148   2.662   5.206   9.060  0.1389 -0.2039 -0.7353
 3651TIP3    H235149   2.550   5.143   8.980  0.7906 -0.7460 -1.2260
 3652TIP3   OH235150   6.002   6.778   8.611  0.4363  0.2050  0.0560
 3652TIP3    H135151   6.021   6.833   8.535 -1.8961  0.3802 -0.4761
 3652TIP3    H235152   6.002   6.839   8.685  0.6679  0.4003 -0.1031
 3653TIP3   OH235153   7.568   1.142   7.106  0.2698 -0.2011 -0.0834
 3653TIP3    H135154   7.528   1.196   7.038  0.2440 -0.2223 -0.0851
 3653TIP3    H235155   7.618   1.203   7.160 -1.5349  0.1839  1.2488
 3654TIP3   OH235156   0.338   5.575   9.081  0.0541  0.4767  0.0300
 3654TIP3    H135157   0.270   5.550   9.018  0.9769 -1.3518 -0.3032
 3654TIP3    H235158   0.401   5.503   9.079 -0.0796  0.1250  3.3909
 3655TIP3   OH235159   4.666   4.010   9.233 -0.0487 -0.2914  0.1124
 3655TIP3    H135160   4.690   4.034   9.144  0.3137 -0.8899  0.0368
 3655TIP3    H235161   4.626   3.923   9.224  0.2123 -0.4645  0.5514
 3656TIP3   OH235162   4.147   4.709   6.770  0.8785 -0.4665  0.5993
 3656TIP3    H135163   4.235   4.691   6.804  1.0419  2.0736  1.7426
 3656TIP3    H235164   4.146   4.803   6.755 -1.6407 -0.4282  0.5701
 3657TIP3   OH235165   5.032   0.055   7.759  0.0421 -0.1949  0.2731
 3657TIP3    H135166   5.006  -0.036   7.745 -0.6487  0.2694 -1.6750
 3657TIP3    H235167   4.983   0.105   7.695 -0.0120  1.6584  1.6662
 3658TIP3   OH235168   5.262   1.850   7.087 -0.2363  0.6636 -0.0077
 3658TIP3    H135169   5.179   1.897   7.098  0.0392  1.4387 -1.0579
 3658TIP3    H235170   5.243   1.760   7.115 -1.3774  0.8742 -0.0685
 3659TIP3   OH235171   2.491   4.238   7.974 -0.6370 -0.3158  0.2101
 3659TIP3    H135172   2.510   4.324   7.937 -0.8099 -0.1683  0.4576
 3659TIP3    H235173   2.536   4.237   8.058 -1.7703  0.0759  0.8441
 3660TIP3   OH235174   6.246   4.216   9.663  0.2609  0.2698  0.0229
 3660TIP3    H135175   6.235   4.311   9.656  0.1837  0.2654  0.0877
 3660TIP3    H235176   6.159   4.183   9.682  0.3659  0.2274  0.4365
 3661TIP3   OH235177   4.856   5.037   7.961  0.1207 -0.2418 -0.1755
 3661TIP3    H135178   4.900   5.010   8.041  0.5934 -1.2106 -0.7552
 3661TIP3    H235179   4.787   5.096   7.991 -0.5212 -1.5699  1.0707
 3662TIP3   OH235180   5.730   0.257   9.437  0.0620  0.2908 -0.0670
 3662TIP3    H135181   5.732   0.175   9.386  1.8821 -1.5956  2.7423
 3662TIP3    H235182   5.643   0.258   9.477 -0.3271  0.2609 -0.8959
 3663TIP3   OH235183   1.961   3.429   9.439 -0.1437 -0.0390  0.1953
 3663TIP3    H135184   1.981   3.368   9.369  2.9927 -0.2644  1.1589
 3663TIP3    H235185   1.983   3.515   9.403 -0.5880  0.0866  0.2148
 3664TIP3   OH235186   4.319   3.897   9.161  0.2666 -0.8194  0.1970
 3664TIP3    H135187   4.293   3.987   9.143  3.2888  0.0103 -0.5668
 3664TIP3    H235188   4.339   3.896   9.255  0.8802 -0.4901  0.0739
 3665TIP3   OH235189   7.264   4.467   8.358 -0.0618  0.3484  0.3906
 3665TIP3    H135190   7.172   4.477   8.382 -0.2765  0.8386 -0.5870
 3665TIP3    H235191   7.281   4.538   8.295  0.6291 -0.5048 -0.4241
 3666TIP3   OH235192   3.455   0.539   7.664 -0.1814 -0.4217 -0.4066
 3666TIP3    H135193   3.445   0.620   7.614 -0.3132 -0.2206 -0.0524
 3666TIP3    H235194   3.370   0.495   7.655 -1.3552  1.0710  2.2174
 3667TIP3   OH235195   1.085   5.568   8.896 -0.2661 -0.3610 -0.2554
 3667TIP3    H135196   1.007   5.540   8.848 -0.6612  0.1132  0.1067
 3667TIP3    H235197   1.052   5.602   8.979  0.1100  1.9579 -0.9880
 3668TIP3   OH235198   4.174   4.643   9.561  0.5303  0.8447  0.2308
 3668TIP3    H135199   4.243   4.705   9.537  0.6936  0.4295 -0.3990
 3668TIP3    H235200   4.204   4.559   9.524  0.2988  0.4001  1.0364
 3669TIP3   OH235201   3.394   6.477   9.135  0.2657  0.7976  0.8023
 3669TIP3    H135202   3.358   6.520   9.213  0.1347  0.8144  0.7343
 3669TIP3    H235203   3.321   6.426   9.100  0.4304  0.4943  0.8978
 3670TIP3   OH235204   3.526   5.525   7.192  0.2033  0.6547  0.0668
 3670TIP3    H135205   3.596   5.574   7.235 -1.1631  1.6626  1.2451
 3670TIP3    H235206   3.551   5.433   7.204  1.0524  0.9827  0.9736
 3671TIP3   OH235207   0.931   0.206   9.419 -0.3253 -0.6238 -0.1380
 3671TIP3    H135208   0.989   0.164   9.482 -0.5416  0.8177  1.0940
 3671TIP3    H235209   0.989   0.239   9.350  0.6751  2.2496  1.8747
 3672TIP3   OH235210   6.831   4.113   7.760  0.3504 -0.0675 -0.5501
 3672TIP3    H135211   6.742   4.143   7.742  0.4106  0.5772  0.1280
 3672TIP3    H235212   6.838   4.027   7.718 -1.0786 -0.7999  0.6399
 3673TIP3   OH235213   7.357   1.629   8.133  0.5805  0.5358 -0.1399
 3673TIP3    H135214   7.405   1.694   8.083 -0.1633  1.0464 -0.2007
 3673TIP3    H235215   7.265   1.641   8.107  0.2613  0.3895  0.8643
 3674TIP3   OH235216   4.307   0.137   8.500  0.0815  0.4937 -0.3064
 3674TIP3    H135217   4.294   0.231   8.509  0.3986  0.4509  0.7200
 3674TIP3    H235218   4.242   0.098   8.559  1.7391  0.1606  1.4152
 3675TIP3   OH235219   1.310   0.882   9.281 -0.6298 -0.1602  0.4989
 3675TIP3    H135220   1.396   0.907   9.314 -0.8551  0.6222  0.4998
 3675TIP3    H235221   1.287   0.804   9.331  1.3729 -2.2078 -1.5200
 3676TIP3   OH235222   0.244   1.963   7.241  0.2486 -0.1576  0.1791
 3676TIP3    H135223   0.208   1.970   7.329 -0.3981  1.1269 -0.1735
 3676TIP3    H235224   0.319   1.904   7.251  0.9788  0.9767  1.8278
 3677TIP3   OH235225   0.753   5.694   6.673  0.1090  0.4934 -0.1710
 3677TIP3    H135226   0.762   5.603   6.701 -2.3328  0.0268 -0.6211
 3677TIP3    H235227   0.728   5.741   6.752  0.0960  0.5161 -0.1885
 3678TIP3   OH235228   7.009   4.528   8.145 -0.9411 -0.0307  0.1304
 3678TIP3    H135229   7.025   4.517   8.239  0.8860  1.3125  0.0210
 3678TIP3    H235230   6.963   4.448   8.119 -1.9255 -0.2164  2.2421
 3679TIP3   OH235231   2.428   1.811   8.031  0.2378 -0.0360  0.4232
 3679TIP3    H135232   2.512   1.854   8.044  0.5627 -0.7917  0.8422
 3679TIP3    H235233   2.450   1.723   8.000 -0.4054 -0.1669  0.3191
 3680TIP3   OH235234   5.792   1.323   9.001 -0.2521  0.2311 -0.0013
 3680TIP3    H135235   5.715   1.312   8.946  0.2249  0.6933 -0.7908
 3680TIP3    H235236   5.758   1.329   9.090 -0.9885 -1.1849 -0.1676
 3681TIP3   OH235237   6.394   0.043   7.734  0.0826 -0.5306 -0.0902
 3681TIP3    H135238   6.435  -0.005   7.806  1.0587 -2.9839 -2.1026
 3681TIP3    H235239   6.326   0.096   7.776  1.2041 -1.1028  2.6942
 3682TIP3   OH235240   4.473   5.414   9.271 -0.1339 -0.3140  0.1690
 3682TIP3    H135241   4.496   5.394   9.180  0.8004  0.3564  0.2428
 3682TIP3    H235242   4.381   5.440   9.267 -0.1310 -0.3974 -0.5698
 3683TIP3   OH235243   3.382   6.149   8.627 -0.3628 -0.3530  0.5089
 3683TIP3    H135244   3.478   6.147   8.634 -0.3010  1.2030  0.4129
 3683TIP3    H235245   3.356   6.225   8.679 -1.3893  0.4616 -1.1358
 3684TIP3   OH235246   2.936   6.119   8.252  0.0038  0.6876  0.0022
 3684TIP3    H135247   3.023   6.130   8.214 -0.0269  1.3253  0.1102
 3684TIP3    H235248   2.930   6.025   8.270  0.6113  0.6162 -0.1380
 3685TIP3   OH235249   1.245   0.754   8.173  0.1177 -0.4322 -0.2904
 3685TIP3    H135250   1.157   0.723   8.197  0.2703 -1.2869 -0.7669
 3685TIP3    H235251   1.304   0.702   8.227  0.3067  1.4419  1.4090
 3686TIP3   OH235252   0.999   1.390   9.250 -0.2340 -0.2946 -0.0437
 3686TIP3    H135253   0.905   1.402   9.264 -0.1119  1.9670 -0.7850
 3686TIP3    H235254   1.004   1.345   9.166 -0.6357 -3.2388  1.3447
 3687TIP3   OH235255   2.670   2.716   8.439  0.6277  0.1664  0.2029
 3687TIP3    H135256   2.693   2.688   8.527 -1.0355 -1.5262  0.1569
 3687TIP3    H235257   2.652   2.635   8.392 -0.0195  1.1113 -1.2572
 3688TIP3   OH235258   5.894   4.855   9.534  0.2822 -0.3151 -0.1901
 3688TIP3    H135259   5.985   4.868   9.561  0.7538 -2.4866 -0.5461
 3688TIP3    H235260   5.842   4.892   9.605  1.4828 -1.2949  1.2768
 3689TIP3   OH235261   7.540   5.024   8.142  0.2284 -0.1963  0.1158
 3689TIP3    H135262   7.514   4.946   8.093 -0.9485 -0.5029  1.1614
 3689TIP3    H235263   7.507   5.097   8.089  0.1763 -0.4642 -0.2278
 3690TIP3   OH235264   2.191   3.302   9.575  0.0209  0.0951  0.6236
 3690TIP3    H135265   2.219   3.393   9.562  0.1494 -0.2224 -1.7399
 3690TIP3    H235266   2.097   3.303   9.556  0.5751 -0.7496 -2.9568
 3691TIP3   OH235267   1.816   0.246   8.023 -0.0812  0.3240  0.2350
 3691TIP3    H135268   1.836   0.281   8.110  0.2012  0.6718  0.0369
 3691TIP3    H235269   1.884   0.181   8.007 -1.2516 -1.1845  1.0719
 3692TIP3   OH235270   7.031   0.926   7.668 -0.2868 -0.2095 -0.2735
 3692TIP3    H135271   6.939   0.950   7.657 -0.0278  0.2838 -1.4915
 3692TIP3    H235272   7.061   0.905   7.580  0.3080 -2.1568  0.3440
 3693TIP3   OH235273   3.253   6.790   7.902  0.3733 -0.2699  0.0867
 3693TIP3    H135274   3.277   6.881   7.922 -0.1680 -0.4662  1.8402
 3693TIP3    H235275   3.332   6.751   7.866  0.4021  1.0779 -1.4332
 3694TIP3   OH235276   5.409   5.009   9.179  0.0383 -0.6527 -0.0815
 3694TIP3    H135277   5.367   5.055   9.252  0.0743  0.7242 -0.8941
 3694TIP3    H235278   5.441   5.079   9.122  3.0100 -1.6059  0.2301
 3695TIP3   OH235279   2.612   6.174   8.932  0.3229 -0.4925 -1.2887
 3695TIP3    H135280   2.572   6.260   8.918  0.9892  0.4019  1.5605
 3695TIP3    H235281   2.634   6.143   8.844 -1.1500  1.6267 -2.4998
 3696TIP3   OH235282   5.120   2.943   7.145 -0.2232  0.5954 -0.1376
 3696TIP3    H135283   5.207   2.937   7.185  1.3267  0.3829 -3.2555
 3696TIP3    H235284   5.119   2.875   7.078 -3.1275  0.1175  0.2568
 3697TIP3   OH235285   5.847   2.889   8.759  0.6467  0.4567  0.0412
 3697TIP3    H135286   5.898   2.869   8.838 -0.8573  1.2545  1.2847
 3697TIP3    H235287   5.786   2.815   8.751  0.4908  0.5991 -0.0976
 3698TIP3   OH235288   2.882   5.182   8.461  0.2094 -0.3347 -0.0638
 3698TIP3    H135289   2.909   5.183   8.369  0.3223 -0.4843 -0.0333
 3698TIP3    H235290   2.934   5.112   8.500  0.0878 -0.3382  0.0926
 3699TIP3   OH235291   2.076   4.729   9.012 -0.1388 -0.1714  0.0222
 3699TIP3    H135292   2.045   4.762   8.927 -2.4050  1.5381  1.3956
 3699TIP3    H235293   2.000   4.685   9.049  0.5805 -0.2328  1.4697
 3700TIP3   OH235294   1.097   6.785   7.340  0.3903 -0.1214 -0.1075
 3700TIP3    H135295   1.057   6.833   7.267 -0.6739  0.9151  1.1146
 3700TIP3    H235296   1.033   6.717   7.361  0.9726 -0.8090 -0.5027
 3701TIP3   OH235297   1.247   2.054   7.377 -0.5611  0.6757 -0.0566
 3701TIP3    H135298   1.202   1.982   7.421 -1.0100  0.9301 -0.0962
 3701TIP3    H235299   1.340   2.040   7.397 -0.8993  2.0930  2.9630
 3702TIP3   OH235300   6.059   6.105   7.568  0.3735 -1.4022 -0.1868
 3702TIP3    H135301   6.088   6.030   7.517  0.3115 -0.9929 -0.8329
 3702TIP3    H235302   6.104   6.096   7.652  1.5114 -1.3732 -0.7764
 3703TIP3   OH235303   5.279   2.998   8.445  0.4327 -0.0078 -0.5532
 3703TIP3    H135304   5.345   2.941   8.406 -0.8713 -1.3474 -0.9091
 3703TIP3    H235305   5.237   3.040   8.370  0.2160  0.0589 -0.3952
 3704TIP3   OH235306   3.556   2.849   9.393 -0.1027 -0.0259 -0.3323
 3704TIP3    H135307   3.651   2.856   9.403 -0.0545  1.4223 -1.4302
 3704TIP3    H235308   3.529   2.934   9.360 -1.4328 -1.2543 -2.6576
 3705TIP3   OH235309   7.469   4.809   8.813 -0.2503 -0.1720 -0.1949
 3705TIP3    H135310   7.503   4.806   8.902  0.1021 -1.5147 -0.3419
 3705TIP3    H235311   7.509   4.887   8.774 -0.5319  0.5160  0.8475
 3706TIP3   OH235312   5.665   5.409   8.589 -0.5765 -0.0096  0.4165
 3706TIP3    H135313   5.610   5.480   8.557  0.2260  0.6073  0.3829
 3706TIP3    H235314   5.606   5.334   8.598 -1.8455  1.1406  2.2243
 3707TIP3   OH235315   3.644   0.845   7.828  0.6515  0.4896 -0.0314
 3707TIP3    H135316   3.698   0.857   7.750  0.8860  1.3478  0.2596
 3707TIP3    H235317   3.649   0.751   7.845 -0.7654 -0.0216 -2.0070
 3708TIP3   OH235318   1.862   0.094   9.859 -0.6532  0.7813  0.1229
 3708TIP3    H135319   1.806   0.036   9.806 -0.4196 -0.8191  1.5252
 3708TIP3    H235320   1.945   0.047   9.866  0.2322  2.2277 -0.3014
 3709TIP3   OH235321   1.687   6.779   9.126 -0.2339 -0.3055 -0.2472
 3709TIP3    H135322   1.636   6.707   9.163 -1.7533  1.5487  1.5193
 3709TIP3    H235323   1.775   6.743   9.114 -0.7961 -2.2932  1.1018
 3710TIP3   OH235324   4.211   7.205   8.958 -0.1348 -0.0566  0.3701
 3710TIP3    H135325   4.150   7.278   8.969  0.1203  0.2434 -0.1929
 3710TIP3    H235326   4.282   7.223   9.019 -0.2837 -0.0577  0.5432
 3711TIP3   OH235327   3.601   4.656   8.402  0.2067 -0.1777  0.1747
 3711TIP3    H135328   3.683   4.705   8.391 -0.5129  0.8930 -0.6675
 3711TIP3    H235329   3.540   4.719   8.440 -0.1146 -1.1030  1.2591
 3712TIP3   OH235330   4.093   1.433   9.110 -0.0214  0.1729 -0.3342
 3712TIP3    H135331   4.054   1.357   9.151 -1.9607 -1.2714 -4.3277
 3712TIP3    H235332   4.184   1.408   9.095 -0.0271 -0.3824  0.5149
 3713TIP3   OH235333   0.473   6.762   8.586  0.0941 -0.1132 -0.0143
 3713TIP3    H135334   0.403   6.704   8.616  0.3647  0.3267  1.6105
 3713TIP3    H235335   0.552   6.709   8.590  0.0088 -0.3190 -0.8841
 3714TIP3   OH235336   2.672   2.590   7.891  0.1293  0.6119 -0.7742
 3714TIP3    H135337   2.609   2.588   7.819  0.5265  0.3334 -1.1196
 3714TIP3    H235338   2.757   2.581   7.848  0.2689 -1.7689 -0.1350
 3715TIP3   OH235339   3.642   7.433   9.208  0.7302 -0.3794 -0.1064
 3715TIP3    H135340   3.554   7.426   9.243  0.3115 -0.1011 -1.0751
 3715TIP3    H235341   3.690   7.486   9.272  0.2088 -0.5513  0.4291
 3716TIP3   OH235342   5.201   5.648   9.859 -0.2877  0.2242 -0.2266
 3716TIP3    H135343   5.152   5.729   9.872 -1.4135 -0.2300 -1.4516
 3716TIP3    H235344   5.234   5.655   9.769  2.1213  0.6059  0.6078
 3717TIP3   OH235345   4.982   2.441   7.503  0.1271 -0.5938 -0.7002
 3717TIP3    H135346   4.894   2.474   7.519  0.0026 -0.3194 -1.9301
 3717TIP3    H235347   5.036   2.519   7.495  0.3493 -0.7520 -0.7498
 3718TIP3   OH235348   4.082   4.645   7.889 -0.2933  0.2144  0.1704
 3718TIP3    H135349   4.093   4.612   7.978 -0.5215 -1.3925 -0.3565
 3718TIP3    H235350   4.171   4.666   7.860  0.0141 -1.0480  0.1456
 3719TIP3   OH235351   7.232   2.918   7.725 -0.2994  0.2150  0.0826
 3719TIP3    H135352   7.202   2.871   7.802  2.1615  1.0042  1.6476
 3719TIP3    H235353   7.152   2.942   7.678 -1.8390 -0.9804  1.9435
 3720TIP3   OH235354   1.686   6.396   8.197 -0.4648  0.2456  0.2951
 3720TIP3    H135355   1.762   6.447   8.168 -0.6931  0.3926 -0.0576
 3720TIP3    H235356   1.634   6.385   8.117 -0.6208 -0.1878  0.4587
 3721TIP3   OH235357   0.765   4.259   8.970  0.7306  0.9044 -0.0028
 3721TIP3    H135358   0.706   4.236   8.899 -0.9557 -1.5900  2.0045
 3721TIP3    H235359   0.830   4.189   8.972 -0.1296  0.0876  1.7504
 3722TIP3   OH235360   4.762   2.415   6.886 -0.4986  0.5878  0.5849
 3722TIP3    H135361   4.730   2.460   6.964 -1.4688  0.8951  0.0249
 3722TIP3    H235362   4.758   2.480   6.816 -2.1431 -0.3559 -0.2909
 3723TIP3   OH235363   3.479   4.041   7.203 -0.3433  0.5477 -0.1899
 3723TIP3    H135364   3.564   4.084   7.198 -0.4153  0.9074  1.2670
 3723TIP3    H235365   3.497   3.958   7.248 -0.4150 -0.3890 -1.8433
 3724TIP3   OH235366   0.502   2.257   9.689  0.0700  0.1160 -0.2051
 3724TIP3    H135367   0.436   2.317   9.655  0.3329  1.2049  1.1272
 3724TIP3    H235368   0.510   2.189   9.622 -3.2585 -0.7535  0.0853
 3725TIP3   OH235369   6.733   1.304   6.643  0.4440 -0.2034  0.9428
 3725TIP3    H135370   6.806   1.292   6.581  0.7544 -0.8706  1.4256
 3725TIP3    H235371   6.724   1.219   6.686  0.5100  0.3682  2.1184
 3726TIP3   OH235372   2.084   7.395   7.844  0.1653  0.5480  0.7373
 3726TIP3    H135373   2.075   7.454   7.919 -1.9884  1.1545  0.0743
 3726TIP3    H235374   2.046   7.312   7.873  1.6574 -0.0322  1.1139
 3727TIP3   OH235375   6.382   6.366   6.481 -0.6851 -0.2210 -0.6206
 3727TIP3    H135376   6.350   6.286   6.521 -2.1185  0.9656  0.7430
 3727TIP3    H235377   6.345   6.366   6.393 -0.1490 -1.3414 -0.8553
 3728TIP3   OH235378   3.232   4.751   8.243 -0.1732  0.0572 -0.1252
 3728TIP3    H135379   3.251   4.704   8.161  0.3586 -0.0747  0.0657
 3728TIP3    H235380   3.233   4.682   8.310  0.9017  0.3612  0.1990
 3729TIP3   OH235381   3.035   2.466   8.716 -0.1614  0.2128 -0.0727
 3729TIP3    H135382   3.125   2.492   8.735  0.4909 -2.2651  0.6485
 3729TIP3    H235383   3.009   2.412   8.790 -2.0899  0.4441 -0.5098
 3730TIP3   OH235384   4.694   0.562   8.728 -0.0994 -0.5418  0.1054
 3730TIP3    H135385   4.685   0.632   8.664 -0.4269 -1.4486 -0.8595
 3730TIP3    H235386   4.782   0.574   8.765  0.4877 -0.5732 -1.2133
 3731TIP3   OH235387   4.042   6.151   9.481 -0.4579  0.4406 -0.0639
 3731TIP3    H135388   3.968   6.210   9.469 -1.4908 -0.8658 -0.3451
 3731TIP3    H235389   4.014   6.070   9.439  1.1737 -0.0548 -0.2410
 3732TIP3   OH235390   3.921   1.010   7.219 -0.3283  0.0451  0.2635
 3732TIP3    H135391   3.957   1.077   7.161  0.1601 -0.1009  0.3908
 3732TIP3    H235392   3.828   1.007   7.198 -0.1661  0.0444 -0.4612
 3733TIP3   OH235393   3.051   3.950   7.317  0.6559  0.5664  0.3047
 3733TIP3    H135394   2.969   3.999   7.313  0.5105  0.4763  1.5948
 3733TIP3    H235395   3.035   3.873   7.263 -0.6403 -0.1429  1.6026
 3734TIP3   OH235396   0.978   7.559   9.024 -0.4917  0.2732 -0.1608
 3734TIP3    H135397   0.962   7.476   9.069 -0.4079 -1.0757 -2.4742
 3734TIP3    H235398   0.898   7.610   9.038 -0.4956 -0.1042  1.3994
 3735TIP3   OH235399   1.948   0.813   7.819  0.3923  0.8792  0.1788
 3735TIP3    H135400   1.946   0.723   7.788  1.8450  1.1080 -0.6318
 3735TIP3    H235401   1.964   0.865   7.741  0.7883  1.7516  0.8233
 3736TIP3   OH235402   3.060   4.629   6.736 -0.0867  0.0780  0.2727
 3736TIP3    H135403   3.139   4.637   6.681 -0.1707 -1.8545 -0.2080
 3736TIP3    H235404   3.078   4.554   6.792 -1.4644 -0.1721  0.3965
 3737TIP3   OH235405   1.195   2.022   7.721 -0.0333  0.5916 -0.1034
 3737TIP3    H135406   1.200   1.927   7.724  1.6353  0.6472 -0.2098
 3737TIP3    H235407   1.282   2.052   7.748 -0.4271  2.0800 -0.3596
 3738TIP3   OH235408   6.125   1.291   7.744  0.3651  0.2877  0.0605
 3738TIP3    H135409   6.190   1.224   7.719 -1.5474 -1.0747 -1.5521
 3738TIP3    H235410   6.141   1.305   7.838  2.5612 -0.4282 -0.1310
 3739TIP3   OH235411   3.246   4.107   7.726  0.0888 -0.0073 -0.5272
 3739TIP3    H135412   3.200   4.189   7.744  1.6675  1.3274 -2.0739
 3739TIP3    H235413   3.177   4.045   7.703 -1.0616  1.5455 -1.5197
 3740TIP3   OH235414   0.291   5.830   9.196  0.1269 -0.2572  0.1830
 3740TIP3    H135415   0.201   5.860   9.182 -0.3124  0.0698  3.1724
 3740TIP3    H235416   0.293   5.743   9.155 -0.8025  0.6389 -1.9395
 3741TIP3   OH235417   5.482   3.988   8.114  0.3481 -0.1920  0.0105
 3741TIP3    H135418   5.415   3.924   8.140  0.9025 -0.4163  0.9616
 3741TIP3    H235419   5.554   3.934   8.081  0.1468  0.0384 -0.8247
 3742TIP3   OH235420   6.057   7.170   9.005  0.3689  0.0829 -0.6901
 3742TIP3    H135421   6.135   7.212   8.969  1.1317  1.0970  1.9143
 3742TIP3    H235422   6.084   7.138   9.091 -1.9932  0.1965  0.1845
 3743TIP3   OH235423   6.594   0.855   7.274 -0.0983 -0.4232  0.1667
 3743TIP3    H135424   6.576   0.949   7.269  0.1835 -0.4111 -0.8898
 3743TIP3    H235425   6.542   0.817   7.204 -0.0845 -1.0412  0.4875
 3744TIP3   OH235426   3.048   5.209   7.860 -0.5467 -1.0228  0.4265
 3744TIP3    H135427   3.089   5.175   7.939  0.9391 -1.1747 -0.3884
 3744TIP3    H235428   3.088   5.161   7.788  0.4891  1.2895 -0.6609
 3745TIP3   OH235429   7.165   7.243   9.068  0.3155 -0.1834 -0.5038
 3745TIP3    H135430   7.086   7.275   9.110  0.3312  0.8103 -1.1933
 3745TIP3    H235431   7.149   7.254   8.974  0.7601 -1.2029 -0.7190
 3746TIP3   OH235432   5.595   3.694   9.253  0.5491  0.6162 -0.1764
 3746TIP3    H135433   5.501   3.713   9.254  0.6009  0.8840 -0.2112
 3746TIP3    H235434   5.628   3.739   9.331  0.6086  0.3101 -0.0236
 3747TIP3   OH235435   4.559   3.222   8.316 -0.3116 -0.5029 -0.6842
 3747TIP3    H135436   4.549   3.207   8.410 -2.0635  1.6289 -0.4421
 3747TIP3    H235437   4.505   3.155   8.274  0.0065 -1.0962 -0.1538
 3748TIP3   OH235438   3.610   0.785   9.172 -0.1784 -0.0194  0.0896
 3748TIP3    H135439   3.699   0.786   9.207 -0.5664 -0.6531  1.1560
 3748TIP3    H235440   3.582   0.877   9.175  0.5148  0.2177 -0.4817
 3749TIP3   OH235441   6.197   7.000   8.755  0.1218 -1.1009  0.0295
 3749TIP3    H135442   6.246   6.986   8.674 -0.6925  0.3041 -0.7541
 3749TIP3    H235443   6.151   7.083   8.741  1.2882  0.1008  2.6209
 3750TIP3   OH235444   6.106   1.187   7.013  0.1060  0.1551 -0.1294
 3750TIP3    H135445   6.145   1.223   6.933 -1.3948 -2.6730 -2.3453
 3750TIP3    H235446   6.177   1.136   7.053  0.6468  0.9184 -0.1073
 3751TIP3   OH235447   1.139   1.805   7.494  0.7041 -0.0213  0.3409
 3751TIP3    H135448   1.044   1.802   7.508  0.5771  1.5112  0.0211
 3751TIP3    H235449   1.177   1.784   7.579  0.0735 -0.2973  0.5591
 3752TIP3   OH235450   4.576   2.492   8.775  0.1918  0.2932  0.1031
 3752TIP3    H135451   4.665   2.487   8.740  0.3772 -1.6779  0.7065
 3752TIP3    H235452   4.585   2.463   8.866 -0.9732  0.7763  0.3883
 3753TIP3   OH235453   5.156   3.947   9.289 -0.1332 -0.2850  0.2410
 3753TIP3    H135454   5.104   3.983   9.217 -1.0640  0.7947  1.4108
 3753TIP3    H235455   5.096   3.944   9.363  1.1955  0.0809  1.3757
 3754TIP3   OH235456   1.300   7.011   9.135 -0.0201 -0.8945 -0.1698
 3754TIP3    H135457   1.351   6.977   9.209 -0.0991 -0.7273 -0.0360
 3754TIP3    H235458   1.366   7.028   9.067  0.0277 -1.2341 -0.2086
 3755TIP3   OH235459   1.216   2.789   8.332  0.5283  0.3108  0.1655
 3755TIP3    H135460   1.261   2.865   8.368  0.3300  0.2408  0.5800
 3755TIP3    H235461   1.129   2.792   8.372 -0.5386  1.5124 -2.0806
 3756TIP3   OH235462   1.944   1.862   8.964 -0.4967 -0.5487  0.1350
 3756TIP3    H135463   2.037   1.875   8.983 -0.3990  0.2236 -0.7986
 3756TIP3    H235464   1.899   1.909   9.033 -0.2524 -2.4872  1.7012
 3757TIP3   OH235465   5.728   2.254   9.832  0.1273 -0.0672  0.1637
 3757TIP3    H135466   5.777   2.322   9.878  1.0321 -1.8484  2.0066
 3757TIP3    H235467   5.795   2.200   9.790 -0.1373 -2.1555  2.1823
 3758TIP3   OH235468   1.902   2.119   8.625 -0.1188  0.8903 -0.0806
 3758TIP3    H135469   1.807   2.112   8.616 -0.0387 -0.7391  0.1357
 3758TIP3    H235470   1.928   2.042   8.675  1.4717  0.6253 -1.2335
 3759TIP3   OH235471   5.112   4.401   8.883  0.6357  0.7686 -0.7337
 3759TIP3    H135472   5.085   4.375   8.795  0.2911 -0.0559 -0.3915
 3759TIP3    H235473   5.197   4.443   8.871 -0.2059  2.3058 -1.6789
 3760TIP3   OH235474   2.363   2.298   8.821  0.0194  0.1468  0.0278
 3760TIP3    H135475   2.284   2.310   8.768  0.0728 -1.5007 -0.4919
 3760TIP3    H235476   2.421   2.369   8.795 -0.3015 -0.1206 -1.4877
 3761TIP3   OH235477   6.591   6.680   8.195  0.2467  0.0117 -0.1099
 3761TIP3    H135478   6.517   6.623   8.216 -0.3041  0.5855 -0.4451
 3761TIP3    H235479   6.576   6.759   8.245  0.3826  0.3179 -0.5477
 3762TIP3   OH235480   0.911   0.923   9.159 -0.0820 -0.2640  0.3452
 3762TIP3    H135481   0.900   0.951   9.249  0.7023  0.6764  0.1726
 3762TIP3    H235482   0.826   0.938   9.118  0.1037  1.2248  0.4497
 3763TIP3   OH235483   1.263   6.821   8.093 -0.1777 -0.2076  0.7409
 3763TIP3    H135484   1.226   6.824   8.004  1.3331 -1.1356  0.0350
 3763TIP3    H235485   1.350   6.859   8.084 -0.1036 -0.0840  1.8964
 3764TIP3   OH235486   3.169   2.387   8.180 -0.3719 -0.0989  0.4034
 3764TIP3    H135487   3.230   2.381   8.106 -0.3798  1.5917  0.2299
 3764TIP3    H235488   3.189   2.310   8.234  0.9558 -0.3197 -0.3672
 3765TIP3   OH235489   6.500   7.465   8.747  0.1164  0.2976 -0.1777
 3765TIP3    H135490   6.423   7.519   8.763  0.6328  0.6954  1.1114
 3765TIP3    H235491   6.492   7.437   8.656 -2.5657 -1.3123  0.4445
 3766TIP3   OH235492   5.749   7.426   9.691  0.0504  0.0389 -0.0713
 3766TIP3    H135493   5.700   7.367   9.634 -0.4679 -0.5943  0.9908
 3766TIP3    H235494   5.745   7.511   9.647 -2.0367  0.0287 -0.0157
 3767TIP3   OH235495   6.432   7.020   8.929  0.2926 -0.2193 -0.1321
 3767TIP3    H135496   6.487   7.049   8.856  0.3733  0.4662  0.1938
 3767TIP3    H235497   6.344   7.016   8.892  0.0651  1.6655  0.1079
 3768TIP3   OH235498   0.036   5.915   9.168 -0.2267 -0.7819 -0.4249
 3768TIP3    H135499   0.072   6.000   9.193  1.0639 -1.1773 -0.8557
 3768TIP3    H235500  -0.053   5.934   9.140  0.3635  0.5910 -1.4595
 3769TIP3   OH235501   7.574   4.053   9.191  0.6028  0.4099 -0.5919
 3769TIP3    H135502   7.620   3.980   9.233  0.9136  0.6341 -0.5449
 3769TIP3    H235503   7.558   4.115   9.261  0.7028  0.5737 -0.7144
 3770TIP3   OH235504   1.579   7.386   9.209 -1.0087  0.3228 -0.3501
 3770TIP3    H135505   1.487   7.374   9.232 -0.9456  2.6774  1.5462
 3770TIP3    H235506   1.580   7.465   9.155 -0.1726 -0.1411 -1.0317
 3771TIP3   OH235507   1.382   3.853   9.201 -0.6084 -0.1463 -0.2239
 3771TIP3    H135508   1.415   3.764   9.210 -1.3931 -0.2926  1.7612
 3771TIP3    H235509   1.336   3.853   9.117  1.9159 -0.7127 -1.7080
 3772TIP3   OH235510   2.766   6.797   8.442  0.9684 -0.3540 -0.0224
 3772TIP3    H135511   2.851   6.835   8.462  1.4547 -1.9592  1.2337
 3772TIP3    H235512   2.787   6.714   8.399 -0.0023 -0.2245 -0.7867
 3773TIP3   OH235513   4.478   2.423   7.503  0.2632  0.1448 -0.2206
 3773TIP3    H135514   4.422   2.355   7.465 -0.2640  0.5635 -0.2061
 3773TIP3    H235515   4.421   2.499   7.509  0.3694  0.1196  1.3365
 3774TIP3   OH235516   3.995   7.256   7.696  0.2376  0.2671 -0.0185
 3774TIP3    H135517   3.934   7.329   7.685 -0.1761 -0.1326 -0.4302
 3774TIP3    H235518   3.985   7.229   7.787  1.9532  2.0808  0.7696
 3775TIP3   OH235519   1.093   3.888   8.310  0.2615  0.2078 -0.0052
 3775TIP3    H135520   1.089   3.885   8.406 -0.8051 -1.7578 -0.0569
 3775TIP3    H235521   1.143   3.810   8.285 -1.5283 -0.6686 -1.0722
 3776TIP3   OH235522   2.539   2.578   9.426 -0.3562 -0.0972  0.0212
 3776TIP3    H135523   2.507   2.541   9.343  0.1128  0.0210 -0.2179
 3776TIP3    H235524   2.468   2.636   9.455  0.0784  1.0316 -1.0731
 3777TIP3   OH235525   0.678   3.711   9.065  0.3428 -0.5707  0.0223
 3777TIP3    H135526   0.654   3.645   9.000 -0.1918  0.6956 -1.1166
 3777TIP3    H235527   0.614   3.781   9.052  1.4793  0.5861  0.5506
 3778TIP3   OH235528   5.619   2.705   8.795  0.3029  0.1896  0.0772
 3778TIP3    H135529   5.652   2.615   8.796 -2.3150 -0.9170 -1.6326
 3778TIP3    H235530   5.533   2.699   8.835 -0.0214  1.9186 -0.2769
 3779TIP3   OH235531   6.124   1.999   6.930  0.4221  0.6917 -0.0170
 3779TIP3    H135532   6.044   1.956   6.901  1.6489  0.0619 -2.7180
 3779TIP3    H235533   6.107   2.093   6.918 -0.7562  0.7959  1.9285
 3780TIP3   OH235534   4.116   5.305   8.589 -0.3004 -0.0532  0.0896
 3780TIP3    H135535   4.096   5.304   8.682 -0.4152 -0.9650  0.0698
 3780TIP3    H235536   4.210   5.285   8.585 -0.5412 -1.2629 -0.0201
 3781TIP3   OH235537   5.484   4.939   9.651 -0.6935  0.1806  0.0183
 3781TIP3    H135538   5.466   4.898   9.567  1.6457  0.6281 -0.7834
 3781TIP3    H235539   5.398   4.962   9.686 -1.7795 -1.0085 -1.7220
 3782TIP3   OH235540   0.275   0.206   9.460  0.5513  0.2143  0.4625
 3782TIP3    H135541   0.202   0.267   9.447  0.2643 -0.1960  0.0943
 3782TIP3    H235542   0.235   0.130   9.502  0.5640 -0.4160 -0.6227
 3783TIP3   OH235543   2.878   7.067   9.101 -0.3085 -0.4399 -0.1851
 3783TIP3    H135544   2.784   7.083   9.099 -0.3306 -0.0708  1.6901
 3783TIP3    H235545   2.888   6.985   9.149  0.3855  1.0286  2.3757
 3784TIP3   OH235546   1.078   3.323   8.507 -0.1390 -0.3972 -0.3578
 3784TIP3    H135547   1.058   3.359   8.421 -0.3202 -1.2402 -0.6832
 3784TIP3    H235548   1.109   3.234   8.489  1.9974  0.1627  0.2753
 3785TIP3   OH235549   0.858   3.021   9.069  0.0450  0.1016  0.3700
 3785TIP3    H135550   0.786   2.959   9.074 -0.3386  0.5853  1.0183
 3785TIP3    H235551   0.861   3.062   9.156 -0.3408  1.6670 -0.3169
 3786TIP3   OH235552   6.317   5.390   8.764  0.6836 -0.6532  0.0359
 3786TIP3    H135553   6.401   5.399   8.718 -0.1566 -1.0969 -1.6542
 3786TIP3    H235554   6.272   5.320   8.718 -1.1310  0.3955  0.1120
 3787TIP3   OH235555   1.154   3.967   7.844  0.1077 -0.0551 -0.8126
 3787TIP3    H135556   1.210   4.025   7.897 -2.1774  2.0866 -0.5918
 3787TIP3    H235557   1.087   4.024   7.807 -0.1684 -1.9892 -3.6476
 3788TIP3   OH235558   0.496   6.616   7.657 -0.2977  0.2005 -0.2681
 3788TIP3    H135559   0.500   6.689   7.718 -0.6137  0.1902 -0.2335
 3788TIP3    H235560   0.561   6.553   7.690 -0.1067  0.4143 -0.2354
 3789TIP3   OH235561   0.544   7.439   7.760  0.2217 -0.6461  0.1657
 3789TIP3    H135562   0.531   7.477   7.847 -0.2181  1.5267 -0.7660
 3789TIP3    H235563   0.622   7.384   7.769  0.3806 -0.2028  1.8512
 3790TIP3   OH235564   6.923   2.786   7.175 -0.2178 -0.3299 -0.0301
 3790TIP3    H135565   6.865   2.718   7.207  0.0955 -0.8578 -0.5660
 3790TIP3    H235566   6.865   2.858   7.150 -0.5673 -0.5098  0.2544
 3791TIP3   OH235567   3.293   5.744   7.551  0.5748  0.1072 -0.1082
 3791TIP3    H135568   3.309   5.789   7.469  0.9304  0.8004  0.3328
 3791TIP3    H235569   3.226   5.797   7.596  1.6958  0.7683  0.8363
 3792TIP3   OH235570   1.275   1.294   9.115  0.2651  0.8331 -0.0398
 3792TIP3    H135571   1.329   1.358   9.162  1.9698 -0.7992  0.3562
 3792TIP3    H235572   1.216   1.260   9.183 -0.1078  1.3828 -0.0743
 3793TIP3   OH235573   3.336   4.667   8.968 -0.6460 -0.1010  0.2332
 3793TIP3    H135574   3.252   4.639   9.003  0.1273 -0.0357  2.3082
 3793TIP3    H235575   3.389   4.686   9.045  1.3572 -0.3524 -0.9948
 3794TIP3   OH235576   3.398   6.116   8.310 -0.0780  0.4354 -0.1309
 3794TIP3    H135577   3.479   6.065   8.298 -1.3450 -1.3938 -1.4860
 3794TIP3    H235578   3.350   6.069   8.378  0.0769  1.6550  0.8472
 3795TIP3   OH235579   3.248   3.084   9.346  0.4220 -0.0407 -0.0932
 3795TIP3    H135580   3.330   3.116   9.308 -0.7667  2.1487 -1.0095
 3795TIP3    H235581   3.233   3.140   9.421 -1.2791  1.0803 -1.2064
 3796TIP3   OH235582   4.394   2.750   8.970  0.5481  0.0116  0.1158
 3796TIP3    H135583   4.333   2.678   8.983 -0.2724  0.6319 -0.1709
 3796TIP3    H235584   4.389   2.801   9.051 -0.0139  0.5599 -0.2512
 3797TIP3   OH235585   0.695   4.098   7.840 -0.0436 -0.2324  0.8149
 3797TIP3    H135586   0.703   4.109   7.935  3.2265 -0.5349  0.7014
 3797TIP3    H235587   0.763   4.155   7.804 -0.1173 -1.3393 -1.2406
 3798TIP3   OH235588   3.656   6.088   8.617  0.3399  0.4245  0.4025
 3798TIP3    H135589   3.669   5.995   8.632  0.6888  0.8116  2.7834
 3798TIP3    H235590   3.707   6.107   8.538  0.7780 -1.2473  0.2534
 3799TIP3   OH235591   4.886   5.675   9.764  0.3847 -1.0479  0.5278
 3799TIP3    H135592   4.922   5.746   9.817 -0.3510 -0.6593  0.5311
 3799TIP3    H235593   4.944   5.668   9.689  0.2245 -0.1456  0.3087
 3800TIP3   OH235594   1.335   3.050   9.368 -0.2994 -0.0076  0.1532
 3800TIP3    H135595   1.322   2.956   9.379  1.1819 -0.5006 -1.8165
 3800TIP3    H235596   1.283   3.072   9.291 -0.3044  0.7100  0.3582
 3801TIP3   OH235597   1.242   4.195   7.974 -0.1253  0.2132  0.0643
 3801TIP3    H135598   1.168   4.250   7.947  0.3606  0.7112 -0.2851
 3801TIP3    H235599   1.225   4.175   8.066 -1.5735 -1.1098 -0.4511
 3802TIP3   OH235600   6.889   2.883   8.319  0.0231  0.0744 -0.2856
 3802TIP3    H135601   6.954   2.852   8.383  0.1816  0.2427 -0.3644
 3802TIP3    H235602   6.818   2.918   8.372 -0.8614 -1.7897 -0.1505
 3803TIP3   OH235603   6.345   2.571   8.425  0.0640 -0.4341 -0.8424
 3803TIP3    H135604   6.318   2.480   8.440  3.6990 -2.0963 -2.9055
 3803TIP3    H235605   6.372   2.573   8.333 -0.1954  2.8967 -0.9643
 3804TIP3   OH235606   2.595   5.773   6.979  0.0736 -0.2241  0.3109
 3804TIP3    H135607   2.593   5.712   6.905 -0.1154 -0.2215  0.3125
 3804TIP3    H235608   2.555   5.725   7.051  1.5074 -0.7184  0.8008
 3805TIP3   OH235609   2.763   3.515   9.266 -0.0732  0.2499 -0.2835
 3805TIP3    H135610   2.721   3.509   9.351  0.9418 -0.6202  0.1778
 3805TIP3    H235611   2.702   3.565   9.212 -1.0006  0.2833  0.7739
 3806TIP3   OH235612   0.203   5.054   8.049 -0.0567 -0.5080 -0.1029
 3806TIP3    H135613   0.234   5.061   8.139  2.4849  2.5187 -1.0455
 3806TIP3    H235614   0.213   4.961   8.028  3.2228 -0.6801  1.5349
 3807TIP3   OH235615   6.913   0.127   7.150 -0.0379 -0.2275  0.3822
 3807TIP3    H135616   6.958   0.178   7.218 -2.1962  1.5372  0.5898
 3807TIP3    H235617   6.971   0.133   7.074  1.1980 -0.0788  1.2931
 3808TIP3   OH235618   4.525   7.566   9.217  0.5831 -0.4581  0.1362
 3808TIP3    H135619   4.486   7.503   9.277 -0.9428  1.5500  1.3678
 3808TIP3    H235620   4.461   7.577   9.147  0.7044 -0.0613  0.0832
 3809TIP3   OH235621   4.982   4.727   7.349  0.0061 -0.2001 -0.1947
 3809TIP3    H135622   5.058   4.735   7.291 -0.7124 -0.2135 -1.1656
 3809TIP3    H235623   4.909   4.762   7.298 -0.5506  0.3608  0.9367
 3810TIP3   OH235624   5.877   3.621   7.390 -0.2410  0.1393  0.1739
 3810TIP3    H135625   5.947   3.569   7.349 -1.3583  0.1450 -1.8992
 3810TIP3    H235626   5.912   3.710   7.392  0.2865 -0.0681  0.2992
 3811TIP3   OH235627   7.226   0.077   8.540  0.5236  0.0783 -0.0237
 3811TIP3    H135628   7.195   0.124   8.463  0.8089  0.6937  0.2324
 3811TIP3    H235629   7.242   0.146   8.605  2.3681 -0.2144 -0.1211
 3812TIP3   OH235630   0.475   1.801   7.153  0.3783  0.2262  0.6160
 3812TIP3    H135631   0.498   1.753   7.232 -2.1213  0.7369  1.7488
 3812TIP3    H235632   0.513   1.749   7.082 -1.2273 -2.9065  1.8399
 3813TIP3   OH235633   4.197   5.607   8.763 -0.1061 -0.0926  0.4348
 3813TIP3    H135634   4.206   5.512   8.760 -1.0788 -0.3457  3.0628
 3813TIP3    H235635   4.113   5.624   8.721 -0.5607 -0.5565  1.1369
 3814TIP3   OH235636   0.962   6.092   8.394  0.3113  0.0065  0.0436
 3814TIP3    H135637   0.912   6.162   8.435  0.8520  0.5074 -0.1290
 3814TIP3    H235638   1.000   6.044   8.468  1.5331  1.0911  0.1754
 3815TIP3   OH235639   1.143   4.342   7.429 -0.1850 -0.0623  0.3423
 3815TIP3    H135640   1.146   4.255   7.391  1.7332  0.6759 -1.3903
 3815TIP3    H235641   1.228   4.353   7.471  0.0226  1.3367 -0.3902
 3816TIP3   OH235642   2.584   1.011   7.347  0.2201 -0.1258 -0.0064
 3816TIP3    H135643   2.573   0.915   7.347 -0.4156 -0.1003  1.6566
 3816TIP3    H235644   2.632   1.030   7.267 -0.8023 -1.7060 -1.0575
 3817TIP3   OH235645   5.022   5.958   7.623  0.7731 -0.2599 -1.0545
 3817TIP3    H135646   4.961   6.026   7.595  1.3842  0.4831 -0.6306
 3817TIP3    H235647   5.091   5.959   7.557  0.7111 -0.5714 -1.1252
 3818TIP3   OH235648   7.198   2.497   7.431 -0.0924 -0.8791 -0.1176
 3818TIP3    H135649   7.119   2.470   7.384 -0.7967 -1.0510  1.1192
 3818TIP3    H235650   7.250   2.543   7.365 -1.8403  0.4592 -0.6443
 3819TIP3   OH235651   2.800   4.278   8.612 -0.3979 -0.0501 -0.1002
 3819TIP3    H135652   2.843   4.211   8.560  0.5551  0.8096 -0.4650
 3819TIP3    H235653   2.851   4.282   8.693  0.3390  1.0558 -0.5826
 3820TIP3   OH235654   5.076   6.714   7.090  0.0575 -0.6255  0.2132
 3820TIP3    H135655   5.133   6.637   7.090  0.1761 -0.5374  0.0339
 3820TIP3    H235656   5.033   6.712   7.175 -0.1069 -1.0173  0.1215
 3821TIP3   OH235657   3.366   7.308   8.870  0.4100 -0.2447 -0.2084
 3821TIP3    H135658   3.285   7.329   8.917  0.0837 -0.6393 -0.5824
 3821TIP3    H235659   3.359   7.357   8.787  0.5758 -0.2421 -0.2205
 3822TIP3   OH235660   3.992   2.201   8.364 -0.0229 -0.2617  0.4106
 3822TIP3    H135661   3.917   2.191   8.423  0.2247  1.4632  1.0974
 3822TIP3    H235662   3.985   2.292   8.333  0.2107 -0.9279 -1.7506
 3823TIP3   OH235663   3.586   5.092   7.594  0.1514 -0.0848  0.3386
 3823TIP3    H135664   3.560   5.043   7.516  1.5145 -0.0241 -0.1831
 3823TIP3    H235665   3.644   5.032   7.641 -0.4270 -0.0075  1.1642
 3824TIP3   OH235666   3.466   3.243   9.042 -0.5357 -0.7774 -0.8735
 3824TIP3    H135667   3.507   3.206   8.964 -2.0441 -0.0486 -2.0617
 3824TIP3    H235668   3.381   3.276   9.012 -0.3279  1.3531  0.6427
 3825TIP3   OH235669   0.811   7.247   8.829 -0.0921 -0.3890 -0.0851
 3825TIP3    H135670   0.903   7.268   8.813 -0.0251 -1.1807 -0.8073
 3825TIP3    H235671   0.765   7.272   8.749 -0.6319  0.6480  0.5299
 3826TIP3   OH235672   4.238   0.445   8.526  0.1099  0.1683 -0.2673
 3826TIP3    H135673   4.176   0.515   8.506  0.1255  0.9280  2.0178
 3826TIP3    H235674   4.321   0.489   8.542  0.6499 -0.5992 -0.8910
 3827TIP3   OH235675   6.473   5.548   7.426 -0.1450  0.2238  0.0755
 3827TIP3    H135676   6.447   5.490   7.354  0.5599 -3.1089  2.2440
 3827TIP3    H235677   6.400   5.544   7.487 -0.1041  1.7647  0.2515
 3828TIP3   OH235678   4.234   4.030   8.167 -0.3633  0.0760  0.3329
 3828TIP3    H135679   4.217   4.104   8.225  0.7634  0.2635  0.4470
 3828TIP3    H235680   4.273   3.963   8.223  0.2447  0.0618 -0.0886
 3829TIP3   OH235681   1.307   4.937   7.960  0.1094  0.2327 -0.6845
 3829TIP3    H135682   1.277   5.018   8.002 -0.7776  0.9228 -2.5350
 3829TIP3    H235683   1.402   4.941   7.967  0.0001 -0.1177  1.9397
 3830TIP3   OH235684   6.409   3.870   8.517  0.2054 -0.5120 -0.0769
 3830TIP3    H135685   6.497   3.881   8.553 -0.9809  0.9051  2.6913
 3830TIP3    H235686   6.370   3.800   8.569 -1.1965  0.8194  0.7614
 3831TIP3   OH235687   0.512   5.311   9.019 -0.0094 -0.0885 -0.0923
 3831TIP3    H135688   0.529   5.303   9.113  1.0946 -0.7273 -0.3211
 3831TIP3    H235689   0.462   5.232   8.997  0.3316 -0.2890 -0.1578
 3832TIP3   OH235690   5.490   2.820   8.389  0.1617 -0.6418 -0.4876
 3832TIP3    H135691   5.576   2.852   8.415  0.7833 -1.6394 -1.2242
 3832TIP3    H235692   5.488   2.729   8.418 -0.8930 -0.4620  0.0541
 3833TIP3   OH235693   3.796   4.077   9.614  0.6066  0.3159 -0.0132
 3833TIP3    H135694   3.866   4.052   9.675  0.8120 -1.1388 -0.7888
 3833TIP3    H235695   3.816   4.167   9.590  0.7246  0.8027  1.7688
 3834TIP3   OH235696   3.269   1.910   9.457 -0.4914  0.4262 -0.0119
 3834TIP3    H135697   3.338   1.846   9.438 -0.9856  0.0506 -0.6059
 3834TIP3    H235698   3.315   1.991   9.475  0.0717  0.8182 -2.8358
 3835TIP3   OH235699   6.953   4.605   7.206 -0.4394 -0.2772 -0.1395
 3835TIP3    H135700   6.976   4.620   7.114  0.6614 -0.3486  0.1034
 3835TIP3    H235701   6.916   4.516   7.207 -2.8974  0.6582 -0.8924
 3836TIP3   OH235702   6.891   6.299   8.442 -0.5775 -0.8006  0.5679
 3836TIP3    H135703   6.797   6.284   8.453 -0.4597 -2.7145 -0.5260
 3836TIP3    H235704   6.912   6.257   8.359  1.5187 -1.8758  1.5510
 3837TIP3   OH235705   6.432   4.479   7.920  0.2307 -0.1336  0.7072
 3837TIP3    H135706   6.358   4.511   7.971  0.0658 -0.2043  0.5107
 3837TIP3    H235707   6.509   4.512   7.968  0.0779  2.4025 -0.6039
 3838TIP3   OH235708   6.461   6.123   8.006 -0.0114 -0.2142 -0.0070
 3838TIP3    H135709   6.482   6.034   8.035  0.2136 -0.4864 -0.9699
 3838TIP3    H235710   6.541   6.173   8.024  0.9849 -0.9018 -2.2236
 3839TIP3   OH235711   6.762   1.531   7.228 -0.0225 -0.3946 -0.4073
 3839TIP3    H135712   6.733   1.616   7.194  2.0137  0.7404  0.4627
 3839TIP3    H235713   6.838   1.552   7.282  0.6056 -2.8123 -0.2340
 3840TIP3   OH235714   0.124   1.609   8.287  0.1339 -0.8959  0.2217
 3840TIP3    H135715   0.220   1.615   8.291  0.1072  2.2321 -1.0573
 3840TIP3    H235716   0.100   1.565   8.369  2.6010 -1.1813  0.8861
 3841TIP3   OH235717   4.076   5.957   7.541 -0.2294  0.2433  0.3573
 3841TIP3    H135718   4.078   6.053   7.548  0.3771  0.5268 -2.4570
 3841TIP3    H235719   4.154   5.928   7.588 -0.0934  1.1686  0.7298
 3842TIP3   OH235720   6.667   4.806   6.877 -0.8246  0.1783  0.2938
 3842TIP3    H135721   6.723   4.729   6.889 -0.3450  0.6766  1.4879
 3842TIP3    H235722   6.724   4.880   6.899 -1.0783  0.9538 -1.4956
 3843TIP3   OH235723   3.176   4.182   9.468  0.4207 -0.0522  0.1166
 3843TIP3    H135724   3.260   4.175   9.422  0.4629 -2.2288  0.4084
 3843TIP3    H235725   3.200   4.213   9.556  1.0562 -1.3075  0.4218
 3844TIP3   OH235726   1.409   1.072   6.712  0.0167  0.4036  0.5512
 3844TIP3    H135727   1.322   1.091   6.748  0.1974  0.8080  0.7722
 3844TIP3    H235728   1.408   0.977   6.696 -1.2718  0.7031 -1.5794
 3845TIP3   OH235729   3.118   6.376   8.283 -0.5353  0.5031 -0.7642
 3845TIP3    H135730   3.151   6.325   8.209 -1.1020  0.0735 -0.7222
 3845TIP3    H235731   3.118   6.314   8.356 -2.8418  0.0459 -1.0928
 3846TIP3   OH235732   6.517   0.796   7.616  0.2222 -0.7205 -0.2815
 3846TIP3    H135733   6.611   0.809   7.625  0.2096 -1.4366  1.1261
 3846TIP3    H235734   6.480   0.825   7.700 -0.6384 -1.8509 -0.2383
 3847TIP3   OH235735   6.830   6.774   8.119 -0.4301  0.3767  0.2720
 3847TIP3    H135736   6.800   6.840   8.056 -0.4005 -0.3724 -0.5409
 3847TIP3    H235737   6.750   6.735   8.153 -0.4338 -0.1873 -0.3582
 3848TIP3   OH235738   4.619   7.353   8.884 -0.6692  0.1810 -0.1197
 3848TIP3    H135739   4.706   7.354   8.844 -0.6048 -0.4881 -0.0097
 3848TIP3    H235740   4.572   7.425   8.841 -0.2915  0.0947 -0.6906
 3849TIP3   OH235741   4.762   0.321   7.877 -0.3373  0.4322 -0.5875
 3849TIP3    H135742   4.770   0.344   7.785 -1.4205  4.5101  0.1397
 3849TIP3    H235743   4.672   0.346   7.900 -0.3326 -1.1704  1.4339
 3850TIP3   OH235744   2.077   3.285   7.387 -0.5157 -0.4922 -0.0429
 3850TIP3    H135745   2.058   3.210   7.331  2.3696 -2.1844  1.0618
 3850TIP3    H235746   2.152   3.328   7.346 -0.1988 -0.0563  0.9521
 3851TIP3   OH235747   2.298   0.352   9.118 -0.2248  0.3604 -0.3200
 3851TIP3    H135748   2.270   0.414   9.184  1.1007 -0.2610  0.8756
 3851TIP3    H235749   2.363   0.297   9.162  0.2217 -0.4913 -1.9465
 3852TIP3   OH235750   3.699   6.315   8.012  0.3001  0.4512  0.3015
 3852TIP3    H135751   3.679   6.388   7.953 -0.8453 -0.6848 -0.7911
 3852TIP3    H235752   3.741   6.356   8.088  0.4878  2.1311 -0.6582
 3853TIP3   OH235753   3.344   2.575   9.273  0.1719 -0.5289  0.0283
 3853TIP3    H135754   3.337   2.643   9.340  2.0586 -0.2080 -0.0571
 3853TIP3    H235755   3.263   2.584   9.222 -0.0902  0.9881  0.6435
 3854TIP3   OH235756   6.323   5.165   8.508 -0.4047  0.0933  0.1583
 3854TIP3    H135757   6.325   5.100   8.578  0.3220  0.6068  0.6342
 3854TIP3    H235758   6.271   5.125   8.439 -1.3194 -0.3453  1.0680
 3855TIP3   OH235759   6.406   1.941   9.217 -0.3259  0.4813  0.3478
 3855TIP3    H135760   6.376   1.850   9.225 -1.0289  0.8026  1.5565
 3855TIP3    H235761   6.423   1.952   9.123 -1.6851 -0.4416 -0.0354
 3856TIP3   OH235762   6.194   5.924   8.700  0.1154 -0.3712  0.0086
 3856TIP3    H135763   6.265   5.890   8.755  1.3457 -0.4362 -1.5283
 3856TIP3    H235764   6.189   6.017   8.722 -0.8532 -0.7976  1.7065
 3857TIP3   OH235765   2.028   3.551   8.033  0.0687  0.6196  0.0338
 3857TIP3    H135766   1.995   3.640   8.046  3.5175  2.5064 -2.4935
 3857TIP3    H235767   2.118   3.553   8.066  0.4746 -1.7386 -0.7278
 3858TIP3   OH235768   1.868   7.451   9.102 -0.1558 -0.0178 -0.5038
 3858TIP3    H135769   1.774   7.437   9.117  0.0233 -2.0750 -1.0177
 3858TIP3    H235770   1.902   7.480   9.186 -0.6335 -3.0884  0.9028
 3859TIP3   OH235771   2.103   5.053   9.381  0.6018 -0.1564  0.4352
 3859TIP3    H135772   2.056   4.974   9.407  0.3935 -0.3196 -0.4177
 3859TIP3    H235773   2.156   5.075   9.458  0.3049 -0.8485  0.8532
 3860TIP3   OH235774   0.916   0.084   7.283  0.5520  0.2079 -0.3374
 3860TIP3    H135775   0.884   0.018   7.221 -0.8041  1.1671 -0.7168
 3860TIP3    H235776   0.968   0.144   7.229  0.7973  0.0994 -0.2217
 3861TIP3   OH235777   3.256   7.077   7.557  0.2362 -0.0895  0.5810
 3861TIP3    H135778   3.305   7.115   7.630 -0.1167 -1.1729  1.4029
 3861TIP3    H235779   3.164   7.097   7.577  0.2263  0.9190 -0.3583
 3862TIP3   OH235780   0.441   5.978   8.566  0.3083 -0.1715  0.4687
 3862TIP3    H135781   0.500   5.969   8.491  1.3467  0.1810  1.2117
 3862TIP3    H235782   0.361   6.014   8.530  0.8298  0.0887 -0.4619
 3863TIP3   OH235783   2.226   6.512   8.213  0.4428  0.2485 -0.2790
 3863TIP3    H135784   2.278   6.456   8.270  2.8694  1.7619 -0.8638
 3863TIP3    H235785   2.240   6.478   8.125 -0.9431 -0.3050 -0.3196
 3864TIP3   OH235786   7.246   2.775   8.936  0.6239 -0.2100  0.4000
 3864TIP3    H135787   7.176   2.834   8.961  0.2139 -1.1159  1.5280
 3864TIP3    H235788   7.251   2.712   9.008 -0.0508 -2.5295 -1.4442
 3865TIP3   OH235789   4.930   3.195   8.890  0.4983  0.3082  0.0079
 3865TIP3    H135790   4.929   3.141   8.969  0.0614  0.0869 -0.1481
 3865TIP3    H235791   5.021   3.225   8.883  1.1028 -1.5296 -0.6713
 3866TIP3   OH235792   0.822   1.658   9.433  0.4686  1.0481  0.2515
 3866TIP3    H135793   0.797   1.602   9.359  0.2478  0.5582  0.6846
 3866TIP3    H235794   0.863   1.735   9.393  0.9897  0.4720 -0.3484
 3867TIP3   OH235795   4.993   1.528   7.724 -0.2726  0.0527 -0.0476
 3867TIP3    H135796   5.011   1.556   7.634 -0.9120 -0.8413 -0.4796
 3867TIP3    H235797   5.049   1.582   7.778  0.2247  0.5193 -1.0006
 3868TIP3   OH235798   0.657   3.478   8.912  0.3269  0.3362 -0.0916
 3868TIP3    H135799   0.723   3.449   8.848  1.2135  1.2960  0.3722
 3868TIP3    H235800   0.698   3.463   8.997 -0.8643 -0.9693  0.2987
 3869TIP3   OH235801   3.160   5.926   7.673 -0.2202 -0.0581  0.2703
 3869TIP3    H135802   3.187   5.905   7.762  2.0730  0.4671 -0.2388
 3869TIP3    H235803   3.139   6.019   7.676 -0.6534 -0.1543  0.3520
 3870TIP3   OH235804   7.337   2.143   8.317 -0.1651 -0.1621 -0.0890
 3870TIP3    H135805   7.266   2.079   8.318  0.6872 -1.1492  0.4385
 3870TIP3    H235806   7.325   2.192   8.236 -1.2461 -0.5293 -0.1646
 3871TIP3   OH235807   4.776   4.992   7.439 -0.2219 -0.0598  0.1663
 3871TIP3    H135808   4.836   5.067   7.434  2.1045 -1.8452 -0.5912
 3871TIP3    H235809   4.799   4.949   7.522 -0.8898 -0.4469  0.1540
 3872TIP3   OH235810   0.130   3.198   7.264 -0.0394 -0.6144  0.2108
 3872TIP3    H135811   0.089   3.280   7.235 -1.0218 -0.8666  0.8388
 3872TIP3    H235812   0.219   3.202   7.229 -0.1345  0.6306  0.0619
 3873TIP3   OH235813   1.001   2.214   7.805 -0.2923  0.1635  0.6081
 3873TIP3    H135814   1.079   2.166   7.781 -0.3930  0.0988  0.4081
 3873TIP3    H235815   1.001   2.291   7.748 -1.8640 -1.2475 -1.4536
 3874TIP3   OH235816   4.247   3.935   9.877  0.0993 -0.4631 -0.3927
 3874TIP3    H135817   4.248   3.895   9.964  1.7812  0.6956  0.1803
 3874TIP3    H235818   4.337   3.963   9.863 -0.4878  0.8413 -1.8273
 3875TIP3   OH235819   4.969   6.378   8.130 -0.4960 -0.3937  0.3859
 3875TIP3    H135820   4.917   6.349   8.055 -0.6604  0.8911 -0.0149
 3875TIP3    H235821   4.924   6.340   8.206 -0.5797 -1.3369 -0.1250
 3876TIP3   OH235822   4.937   6.602   9.249  0.3703  0.4375 -0.4751
 3876TIP3    H135823   5.012   6.543   9.261 -0.5257 -1.0132 -1.6560
 3876TIP3    H235824   4.863   6.544   9.233 -1.8994  1.5463  4.1156
 3877TIP3   OH235825   6.632   5.591   8.034 -0.0540  0.3378  0.4031
 3877TIP3    H135826   6.646   5.561   7.945 -2.5259 -0.6963  0.2741
 3877TIP3    H235827   6.584   5.520   8.077 -0.0335  1.3194  2.1720
 3878TIP3   OH235828   5.841   1.647   7.974  0.4557 -0.2715 -0.0174
 3878TIP3    H135829   5.795   1.598   7.906 -0.2209  1.4436 -0.8670
 3878TIP3    H235830   5.776   1.658   8.044  0.2624  0.2529 -0.2694
 3879TIP3   OH235831   1.818   2.386   8.139 -0.2370  0.2032 -0.2414
 3879TIP3    H135832   1.846   2.403   8.229  0.4499 -0.4261 -0.3247
 3879TIP3    H235833   1.890   2.337   8.101 -1.1248 -0.7832 -0.7119
 3880TIP3   OH235834   2.642   0.880   8.074 -0.0418  0.1280 -0.5291
 3880TIP3    H135835   2.735   0.889   8.054 -0.1783  1.9704 -0.4561
 3880TIP3    H235836   2.639   0.816   8.146  1.4271  1.8206  1.1588
 3881TIP3   OH235837   3.579   1.221   8.533 -0.0591  0.3782  0.2678
 3881TIP3    H135838   3.663   1.240   8.490 -0.3182 -0.8949 -0.8347
 3881TIP3    H235839   3.556   1.304   8.575  0.9160  1.2675 -0.8483
 3882TIP3   OH235840   0.006   4.270   8.788 -0.2176 -0.2052 -0.0507
 3882TIP3    H135841   0.012   4.363   8.809 -0.4055 -0.0336 -0.7520
 3882TIP3    H235842   0.029   4.226   8.870  1.3493  0.4367 -0.1083
 3883TIP3   OH235843   2.745   5.939   7.739  0.0741 -0.2209 -0.4669
 3883TIP3    H135844   2.756   5.869   7.803  0.6932 -0.4103 -0.7689
 3883TIP3    H235845   2.809   5.919   7.671 -1.6869 -0.9546 -1.9806
 3884TIP3   OH235846   0.996   2.991   7.868  0.0209 -0.1650  0.9081
 3884TIP3    H135847   0.979   3.081   7.898  1.3798  0.8456 -1.1378
 3884TIP3    H235848   1.066   2.960   7.926 -0.2976  0.1679  1.4854
 3885TIP3   OH235849   4.909   4.574   9.709  0.1390  1.0268 -0.1231
 3885TIP3    H135850   4.931   4.650   9.763 -1.2341  1.5493 -0.2684
 3885TIP3    H235851   4.862   4.611   9.634  2.1233  0.3504 -1.8201
 3886TIP3   OH235852   0.584   2.097   7.201 -0.6556 -0.0949 -0.1930
 3886TIP3    H135853   0.566   2.012   7.163 -1.6885 -0.5589  1.2740
 3886TIP3    H235854   0.558   2.160   7.133  0.1389 -0.9079 -1.2919
 3887TIP3   OH235855   5.478   1.170   9.268  0.0811  0.5429 -0.2132
 3887TIP3    H135856   5.492   1.228   9.193 -1.3151  1.2547  0.0413
 3887TIP3    H235857   5.383   1.159   9.273  0.2847 -1.4602  0.0086
 3888TIP3   OH235858   4.070   2.786   8.919 -0.0819  0.5208  0.5037
 3888TIP3    H135859   4.151   2.835   8.903 -0.3469  1.0202  0.6750
 3888TIP3    H235860   4.073   2.713   8.856  0.7881  0.1857  0.9155
 3889TIP3   OH235861   7.569   6.946   9.188  0.3540  0.3461 -0.3912
 3889TIP3    H135862   7.619   6.919   9.265  0.6621  0.6723 -0.4744
 3889TIP3    H235863   7.478   6.946   9.217  0.5423  1.2969  0.2184
 3890TIP3   OH235864   0.625   0.761   8.704  0.0464 -0.4286 -0.4614
 3890TIP3    H135865   0.576   0.834   8.742 -1.1741 -1.7290  0.5931
 3890TIP3    H235866   0.598   0.761   8.612 -0.9712 -0.3216 -0.1847
 3891TIP3   OH235867   6.705   2.682   9.655  0.6912  0.0886 -0.3903
 3891TIP3    H135868   6.663   2.608   9.610 -1.1532  0.6778  0.2561
 3891TIP3    H235869   6.794   2.652   9.673  1.1476 -0.6034 -3.3168
 3892TIP3   OH235870   5.658   7.477   8.126 -0.1791  0.3923  0.2128
 3892TIP3    H135871   5.572   7.445   8.155  0.6639 -1.0149  1.2253
 3892TIP3    H235872   5.651   7.477   8.031 -0.4093 -2.4604  0.1313
 3893TIP3   OH235873   6.631   4.348   7.589 -0.4739  0.8161 -0.6465
 3893TIP3    H135874   6.551   4.329   7.541  0.2757  0.1307 -1.6715
 3893TIP3    H235875   6.701   4.318   7.531  0.4785  0.2651  0.7426
 3894TIP3   OH235876   3.081   4.967   9.047  0.1972  0.3787  0.1246
 3894TIP3    H135877   3.003   4.989   8.996 -0.3088  0.5743  0.9561
 3894TIP3    H235878   3.111   5.052   9.081  0.0404  0.1648  0.8191
 3895TIP3   OH235879   0.918   3.805   9.060  0.2452 -0.2329  0.1468
 3895TIP3    H135880   0.835   3.757   9.056  0.2746 -0.4907  1.8702
 3895TIP3    H235881   0.902   3.884   9.009 -1.2590 -0.0309  0.8801
 3896TIP3   OH235882   4.026   4.659   7.636  0.0984  0.2733  0.2295
 3896TIP3    H135883   4.047   4.646   7.728  1.4986 -1.8370 -0.3202
 3896TIP3    H235884   4.038   4.753   7.621  1.5955  0.3705  1.7841
 3897TIP3   OH235885   5.494   2.031   8.832 -0.2781 -0.0735 -0.2748
 3897TIP3    H135886   5.400   2.047   8.826 -0.8517 -0.6987  3.7699
 3897TIP3    H235887   5.505   1.943   8.795 -0.8723  0.6991 -2.4495
 3898TIP3   OH235888   6.931   6.196   6.715  0.1733 -0.0839  0.3111
 3898TIP3    H135889   6.855   6.239   6.755  0.2140 -0.9715  1.3784
 3898TIP3    H235890   7.006   6.249   6.744  0.0890 -0.0047  0.3859
 3899TIP3   OH235891   2.734   2.377   8.776 -0.3046 -0.0032 -0.4853
 3899TIP3    H135892   2.808   2.419   8.819  0.2273 -0.9094 -0.5061
 3899TIP3    H235893   2.715   2.300   8.830 -1.7497  0.6368 -0.0156
 3900TIP3   OH235894   2.423   3.441   9.267  0.1760  0.3023 -0.3712
 3900TIP3    H135895   2.465   3.485   9.341 -1.7988 -0.6643  1.4159
 3900TIP3    H235896   2.370   3.509   9.225 -0.1777  0.4395  0.2838
 3901TIP3   OH235897   0.504   7.520   8.867  0.1252 -0.6260 -0.0551
 3901TIP3    H135898   0.599   7.507   8.863  0.3616  1.1307 -1.6113
 3901TIP3    H235899   0.491   7.576   8.944  0.1425 -2.0673  1.0373
 3902TIP3   OH235900   2.255   7.623   9.468  0.7223  0.0114  0.1349
 3902TIP3    H135901   2.297   7.704   9.497  0.8571 -0.4447  1.2541
 3902TIP3    H235902   2.220   7.584   9.548 -0.0298 -0.6525 -0.4999
 3903TIP3   OH235903   3.282   0.139   9.151 -0.3207  0.3607  0.0402
 3903TIP3    H135904   3.304   0.201   9.081 -0.3194  0.5244  0.1842
 3903TIP3    H235905   3.312   0.054   9.119 -0.0933  0.4753 -0.0515
 3904TIP3   OH235906   3.907   7.550   8.203 -0.1051 -0.1577  0.5120
 3904TIP3    H135907   3.965   7.568   8.129 -0.5526  1.4264  0.5168
 3904TIP3    H235908   3.964   7.557   8.280 -0.0218 -0.0268  0.4377
 3905TIP3   OH235909   3.707   2.634   8.881  0.6580  0.5105  0.6033
 3905TIP3    H135910   3.684   2.726   8.886 -0.7986  0.1763  0.5278
 3905TIP3    H235911   3.736   2.621   8.791 -1.1138  0.4990 -0.0035
 3906TIP3   OH235912   3.105   5.308   7.542  0.3733 -0.0493  0.2865
 3906TIP3    H135913   3.040   5.286   7.475  0.6703 -1.2530  0.3709
 3906TIP3    H235914   3.175   5.244   7.530  0.4901 -0.2162  1.6548
 3907TIP3   OH235915   2.540   1.814   9.059 -0.5192  0.3661  0.3409
 3907TIP3    H135916   2.555   1.836   9.151 -2.4193  0.5696  0.6243
 3907TIP3    H235917   2.533   1.719   9.058  0.2957  0.2944  0.2543
 3908TIP3   OH235918   6.035   6.722   9.308  0.4474  0.4133 -0.7647
 3908TIP3    H135919   6.066   6.635   9.285  2.2877  1.2698 -1.7124
 3908TIP3    H235920   6.066   6.735   9.398 -0.2442 -0.0700 -0.4475
 3909TIP3   OH235921   5.728   4.942   9.316  0.1462 -0.0222  0.1586
 3909TIP3    H135922   5.724   4.865   9.259 -0.5778 -0.4585  0.7727
 3909TIP3    H235923   5.782   4.913   9.390 -0.8969 -0.2641  0.8438
 3910TIP3   OH235924   7.413   2.473   8.927  0.0902  0.5638  0.1088
 3910TIP3    H135925   7.417   2.377   8.921  0.5152  0.6371 -0.9823
 3910TIP3    H235926   7.338   2.490   8.984 -1.7624 -0.3824 -1.8927
 3911TIP3   OH235927   3.227   6.526   8.548  0.0136 -0.2092 -0.0414
 3911TIP3    H135928   3.162   6.464   8.515  0.2899 -0.3881 -0.2445
 3911TIP3    H235929   3.174   6.597   8.586 -0.3011 -0.3933 -0.1306
 3912TIP3   OH235930   7.501   1.077   6.579  0.1411  0.0699 -0.1306
 3912TIP3    H135931   7.561   1.003   6.583  0.2753  0.1684 -0.3574
 3912TIP3    H235932   7.418   1.042   6.612 -0.6542 -1.0262 -2.9813
 3913TIP3   OH235933   2.254   2.828   8.309 -0.0846 -0.5589  0.3728
 3913TIP3    H135934   2.242   2.806   8.401  0.0659  0.3259  0.6081
 3913TIP3    H235935   2.323   2.895   8.309  0.8738 -1.5097 -0.4965
 3914TIP3   OH235936   5.429   0.657   9.258 -0.2087 -0.2908 -0.0574
 3914TIP3    H135937   5.500   0.622   9.204 -0.4904  1.3325 -1.5489
 3914TIP3    H235938   5.458   0.744   9.284 -1.2323  0.0260  0.0962
 3915TIP3   OH235939   4.361   5.225   7.673  0.3407 -0.0619  0.0912
 3915TIP3    H135940   4.358   5.302   7.616  0.9776  0.9743  1.3955
 3915TIP3    H235941   4.433   5.172   7.639  0.2690  0.1961 -0.4762
 3916TIP3   OH235942   0.552   5.475   8.787 -0.0255 -0.2811  0.1431
 3916TIP3    H135943   0.525   5.426   8.865 -0.9804 -1.0999 -0.6706
 3916TIP3    H235944   0.485   5.455   8.722  0.8016  0.3090 -0.9238
 3917TIP3   OH235945   0.316   6.830   6.716  0.6180 -0.5003 -0.0207
 3917TIP3    H135946   0.221   6.817   6.707  0.6030 -0.0094 -0.6854
 3917TIP3    H235947   0.355   6.747   6.688  0.3227 -1.8508  3.2027
 3918TIP3   OH235948   5.218   1.267   8.003  0.4036  0.4243  0.0473
 3918TIP3    H135949   5.229   1.202   8.072 -0.3077  1.0476  0.7711
 3918TIP3    H235950   5.146   1.322   8.033  0.3935  1.0007 -0.9756
 3919TIP3   OH235951   3.014   1.892   8.361  0.4041 -0.7077  0.1426
 3919TIP3    H135952   2.956   1.892   8.437 -0.4186 -0.7760 -0.4798
 3919TIP3    H235953   3.070   1.815   8.374  0.1170 -0.8483  0.5610
 3920TIP3   OH235954   2.612   3.948   8.606  0.2059  0.1803 -0.1599
 3920TIP3    H135955   2.600   4.042   8.598  1.1654  0.2614 -0.6940
 3920TIP3    H235956   2.543   3.910   8.552 -0.0912  0.5659 -0.0585
 3921TIP3   OH235957   0.739   5.974   9.282  0.4205  0.1786  0.2557
 3921TIP3    H135958   0.726   5.881   9.299  0.7382 -0.2442 -1.5597
 3921TIP3    H235959   0.668   5.997   9.222  0.8307  0.8871  0.0276
 3922TIP3   OH235960   7.390   7.123   8.746 -0.2400 -0.4464 -0.1200
 3922TIP3    H135961   7.388   7.193   8.682  1.9440 -0.0331  0.1739
 3922TIP3    H235962   7.423   7.164   8.826 -1.2258 -1.3132  0.7588
 3923TIP3   OH235963   4.460   3.351   7.228 -0.0600  0.4485  0.1509
 3923TIP3    H135964   4.380   3.315   7.190  0.9633 -0.0024 -1.6988
 3923TIP3    H235965   4.509   3.274   7.257 -0.0192  0.6783  0.6952
 3924TIP3   OH235966   5.387   5.384   7.212  0.3614 -0.2368 -0.0508
 3924TIP3    H135967   5.376   5.476   7.186  0.0852 -0.0823  0.6093
 3924TIP3    H235968   5.467   5.384   7.265 -0.1052 -0.2330  0.6533
 3925TIP3   OH235969   6.364   6.920   8.552  0.6979 -0.3377  0.8616
 3925TIP3    H135970   6.385   6.963   8.469 -1.8518  0.7333  0.6588
 3925TIP3    H235971   6.391   6.829   8.539  2.5220  0.2997 -0.2161
 3926TIP3   OH235972   6.103   1.445   9.511  0.4895  0.0352 -0.0808
 3926TIP3    H135973   6.013   1.425   9.535  0.0769  0.9219 -0.8014
 3926TIP3    H235974   6.152   1.364   9.526 -0.4852 -0.5370  0.0316
 3927TIP3   OH235975   6.301   4.909   7.599  0.1743  0.2009  0.5728
 3927TIP3    H135976   6.221   4.861   7.623  1.5290 -1.5049  1.9159
 3927TIP3    H235977   6.359   4.899   7.674  1.8139  1.0738 -0.5089
 3928TIP3   OH235978   6.545   6.329   7.097 -0.1111  0.4228  0.2643
 3928TIP3    H135979   6.537   6.266   7.169 -0.6726  0.1681 -0.0170
 3928TIP3    H235980   6.460   6.327   7.054  0.5192 -0.1416 -1.0173
 3929TIP3   OH235981   4.122   3.572   9.349 -0.5700 -0.5581 -0.4444
 3929TIP3    H135982   4.068   3.536   9.419 -1.2139  0.5111 -0.3793
 3929TIP3    H235983   4.211   3.568   9.383 -0.7483 -1.0757 -0.0177
 3930TIP3   OH235984   6.450   5.931   9.251 -0.7681 -0.0834  0.0037
 3930TIP3    H135985   6.375   5.917   9.309 -1.7649  1.6672 -0.7583
 3930TIP3    H235986   6.430   6.014   9.207  0.6634 -0.6063 -1.7359
 3931TIP3   OH235987   7.401   0.414   7.846  0.2496  0.3795  0.9035
 3931TIP3    H135988   7.325   0.456   7.886 -0.1216  0.2170  0.3781
 3931TIP3    H235989   7.375   0.324   7.830 -0.4384  0.9484 -1.7097
 3932TIP3   OH235990   7.655   2.619   7.511  0.6471 -0.3830 -0.4757
 3932TIP3    H135991   7.736   2.576   7.485  1.0768 -0.2562  0.6145
 3932TIP3    H235992   7.614   2.557   7.572  0.4155 -0.0128 -0.2541
 3933TIP3   OH235993   1.740   0.650   8.827 -0.0619 -0.0138  0.7712
 3933TIP3    H135994   1.766   0.560   8.808  0.0343  0.2274 -0.2698
 3933TIP3    H235995   1.644   0.649   8.823 -0.0299  0.1349 -0.2376
 3934TIP3   OH235996   2.891   2.014   8.138 -0.4214 -0.3632 -0.8543
 3934TIP3    H135997   2.972   2.064   8.126 -1.3288  1.7772  1.1016
 3934TIP3    H235998   2.914   1.946   8.202 -0.3591  0.9604  0.5992
 3935TIP3   OH235999   3.515   5.799   8.506  0.1243  0.3465 -0.0357
 3935TIP3    H136000   3.524   5.833   8.417 -1.7942 -1.4918 -1.0169
 3935TIP3    H236001   3.598   5.756   8.524  0.1858 -0.0989 -1.3278
 3936TIP3   OH236002   4.445   6.247   8.615 -0.5050  0.0330 -0.3873
 3936TIP3    H136003   4.469   6.157   8.594  3.3907  1.1750 -1.8022
 3936TIP3    H236004   4.429   6.288   8.530  0.2517  1.1964  0.0027
 3937TIP3   OH236005   4.487   1.929   8.426  0.3810  0.5373  0.3756
 3937TIP3    H136006   4.436   1.850   8.405  2.0621 -0.6138  0.3783
 3937TIP3    H236007   4.503   1.923   8.520 -0.9646  1.8476  0.7178
 3938TIP3   OH236008   5.233   5.264   7.428  0.3085 -0.6312  0.4097
 3938TIP3    H136009   5.309   5.255   7.486 -0.1230  2.5864  1.7180
 3938TIP3    H236010   5.270   5.298   7.346  0.4058  0.2999  0.8214
 3939TIP3   OH236011   0.462   1.263   9.848 -0.2136  0.0872  0.5045
 3939TIP3    H136012   0.428   1.352   9.855 -0.0387  0.3096 -1.0886
 3939TIP3    H236013   0.536   1.270   9.788 -2.6196 -1.6810 -3.0806
 3940TIP3   OH236014   0.742   5.477   7.415  0.2691  0.6566 -0.1800
 3940TIP3    H136015   0.726   5.387   7.444 -1.3586  0.6068 -1.0963
 3940TIP3    H236016   0.822   5.472   7.363  0.2318 -0.2490 -0.1704
 3941TIP3   OH236017   0.100   1.226   8.131 -0.1406  0.0963  0.0779
 3941TIP3    H136018   0.033   1.293   8.113 -0.6930  0.0707  1.8747
 3941TIP3    H236019   0.057   1.165   8.191  0.9520 -0.9025 -0.1220
 3942TIP3   OH236020   4.248   6.853   9.464 -0.4995  0.0964  0.5224
 3942TIP3    H136021   4.180   6.877   9.402 -1.2810 -2.1741  0.4093
 3942TIP3    H236022   4.299   6.933   9.477 -0.7635  0.8492 -2.4411
 3943TIP3   OH236023   0.482   5.774   9.368 -0.0179  0.0246 -0.1407
 3943TIP3    H136024   0.540   5.717   9.317 -2.5746 -2.4029 -0.6012
 3943TIP3    H236025   0.405   5.786   9.312 -1.7222 -0.3639  2.0070
 3944TIP3   OH236026   6.960   6.955   7.664  0.3721  0.2463  0.0823
 3944TIP3    H136027   6.970   7.029   7.604 -1.8504  0.9977  0.5429
 3944TIP3    H236028   7.015   6.977   7.739  0.5602  0.9226 -0.2523
 3945TIP3   OH236029   0.160   0.664   8.399 -0.0673 -0.7292  0.0095
 3945TIP3    H136030   0.148   0.616   8.480 -1.7326  1.4943  1.2070
 3945TIP3    H236031   0.228   0.729   8.420  1.2326 -1.6665 -1.1639
 3946TIP3   OH236032   5.456   5.005   7.180 -0.1225  0.3145  0.6971
 3946TIP3    H136033   5.374   5.054   7.170  0.0234  0.6769  1.2355
 3946TIP3    H236034   5.469   4.962   7.096 -0.4399  0.9120  0.3438
 3947TIP3   OH236035   0.587   1.195   8.748 -0.1669  0.0724  0.2990
 3947TIP3    H136036   0.592   1.182   8.653  0.2766 -2.9613  0.6409
 3947TIP3    H236037   0.506   1.150   8.774 -0.5526  1.3122  1.3317
 3948TIP3   OH236038   0.719   7.648   7.461  0.5683  0.6211 -0.1146
 3948TIP3    H136039   0.781   7.705   7.415  0.2577  0.4780 -0.7308
 3948TIP3    H236040   0.647   7.637   7.399  0.6863 -0.5574 -0.0797
 3949TIP3   OH236041   0.030   0.019   8.180 -0.0332  0.2991 -0.1272
 3949TIP3    H136042   0.051   0.086   8.246 -1.4205 -1.6323  2.4156
 3949TIP3    H236043   0.110  -0.033   8.173  0.5504  1.2751 -0.9997
 3950TIP3   OH236044   0.373   2.732   7.571 -0.7059 -1.1405  0.1383
 3950TIP3    H136045   0.414   2.754   7.654 -1.5511 -0.3229  0.3488
 3950TIP3    H236046   0.446   2.704   7.515 -0.0706 -1.2149  0.9858
 3951TIP3   OH236047   4.486   1.355   7.003 -0.0140 -0.2819  0.1100
 3951TIP3    H136048   4.460   1.273   6.961 -1.0977  0.9689 -1.8283
 3951TIP3    H236049   4.411   1.413   6.988  0.4557  0.8902  2.0095
 3952TIP3   OH236050   0.168   6.213   7.628 -0.5705 -0.5887  0.0635
 3952TIP3    H136051   0.074   6.205   7.644 -0.5671 -0.5364  0.1102
 3952TIP3    H236052   0.179   6.301   7.591 -0.9345 -1.6536 -2.7715
 3953TIP3   OH236053   0.798   4.426   7.640 -0.5691  0.0019 -0.1946
 3953TIP3    H136054   0.745   4.462   7.711 -0.8154 -1.1989  0.2621
 3953TIP3    H236055   0.736   4.375   7.588  0.0173 -0.9728  0.0296
 3954TIP3   OH236056   0.218   2.123   8.622 -0.5876 -0.3163  0.2334
 3954TIP3    H136057   0.277   2.128   8.547 -0.1022  1.4943  0.7006
 3954TIP3    H236058   0.191   2.213   8.638 -1.9170 -0.8639  1.2885
 3955TIP3   OH236059   2.556   2.229   9.238  0.3492  0.3202 -0.4337
 3955TIP3    H136060   2.512   2.309   9.208 -0.3123  0.5156  1.0106
 3955TIP3    H236061   2.491   2.184   9.291  1.4215 -0.1205  0.5396
 3956TIP3   OH236062   4.697   5.947   9.504 -0.0028 -0.3676 -0.4694
 3956TIP3    H136063   4.667   5.900   9.426  1.2702 -2.2449  0.0992
 3956TIP3    H236064   4.675   5.889   9.577  0.9828  0.2397  0.3425
 3957TIP3   OH236065   6.175   6.374   7.561  0.3436  0.1375 -0.5374
 3957TIP3    H136066   6.144   6.285   7.548 -0.4747  0.6804 -2.7379
 3957TIP3    H236067   6.144   6.397   7.649 -1.1918 -1.0759 -0.7119
 3958TIP3   OH236068   2.053   5.537   9.091 -0.1340  0.1769 -0.1658
 3958TIP3    H136069   1.993   5.498   9.155  1.4849 -0.4061  1.0823
 3958TIP3    H236070   2.118   5.469   9.075  1.1173  1.3259 -0.1834
 3959TIP3   OH236071   6.820   5.581   8.717  0.9407 -0.0484 -0.4774
 3959TIP3    H136072   6.838   5.495   8.754  0.4067 -0.2359 -0.6443
 3959TIP3    H236073   6.902   5.630   8.728  2.1254 -1.3946 -2.7909
 3960TIP3   OH236074   5.235   6.524   7.173 -0.6809  0.5320  0.1694
 3960TIP3    H136075   5.208   6.484   7.256 -0.4572  1.6258  0.7910
 3960TIP3    H236076   5.324   6.493   7.159 -1.5351 -1.6480 -0.9694
 3961TIP3   OH236077   7.227   2.415   9.620 -0.5448 -0.6010 -0.5570
 3961TIP3    H136078   7.316   2.403   9.586 -0.7665 -3.5177 -0.3606
 3961TIP3    H236079   7.192   2.326   9.627 -3.7873  0.4906 -1.3459
 3962TIP3   OH236080   7.645   3.303   8.881 -0.4481 -0.4306 -0.0015
 3962TIP3    H136081   7.733   3.319   8.848 -1.2622  0.6923 -1.7667
 3962TIP3    H236082   7.636   3.207   8.881  0.3220 -0.5121 -1.0233
 3963TIP3   OH236083   5.498   6.492   7.098  0.7976 -0.4994  0.5849
 3963TIP3    H136084   5.510   6.430   7.171  1.3365 -1.8267 -0.5818
 3963TIP3    H236085   5.508   6.438   7.020 -0.0072  0.8512 -0.4859
 3964TIP3   OH236086   4.473   7.043   9.020 -0.3475 -0.0161 -0.2913
 3964TIP3    H136087   4.459   7.130   9.058 -0.0776 -0.7909  1.7011
 3964TIP3    H236088   4.507   7.060   8.933  2.9552  1.9613  1.2061
 3965TIP3   OH236089   4.316   2.668   9.680  0.0063 -0.3964 -0.1005
 3965TIP3    H136090   4.306   2.694   9.588  0.6283 -0.2315 -0.1235
 3965TIP3    H236091   4.231   2.687   9.719  0.5539  2.2188  0.0206
 3966TIP3   OH236092   2.115   3.506   6.605 -0.2255  0.1301 -0.2176
 3966TIP3    H136093   2.107   3.425   6.553  0.9171  0.3063 -0.6948
 3966TIP3    H236094   2.197   3.495   6.653 -0.6711  0.4972  0.6501
 3967TIP3   OH236095   1.772   4.457   7.948 -0.1825 -0.3171 -0.2633
 3967TIP3    H136096   1.855   4.410   7.954  0.3463  0.5187 -0.7434
 3967TIP3    H236097   1.737   4.433   7.862 -0.2908 -0.4372 -0.1852
 3968TIP3   OH236098   0.583   3.618   7.320 -0.3223 -0.0066 -0.0666
 3968TIP3    H136099   0.523   3.615   7.246 -0.0049  0.1913 -0.3301
 3968TIP3    H236100   0.668   3.639   7.282 -0.3620  1.2504  0.4620
 3969TIP3   OH236101   5.573   5.052   7.958  0.1297  0.1023  0.0204
 3969TIP3    H136102   5.532   5.011   8.034 -1.3199 -0.5187 -1.0496
 3969TIP3    H236103   5.624   5.124   7.995  1.5956 -1.7226  1.8194
 3970TIP3   OH236104   6.452   4.605   8.712 -0.1955  0.0230  0.1265
 3970TIP3    H136105   6.390   4.592   8.784 -2.2581 -0.3801 -1.5885
 3970TIP3    H236106   6.412   4.558   8.638  0.7532  2.0977 -1.8307
 3971TIP3   OH236107   2.006   1.760   7.641 -0.3649  0.2731  0.2397
 3971TIP3    H136108   1.979   1.685   7.588 -0.0345 -0.6794  1.3824
 3971TIP3    H236109   1.926   1.812   7.652 -0.6376 -0.0025 -0.4136
 3972TIP3   OH236110   1.677   5.434   8.260  0.3922 -0.0187 -0.2805
 3972TIP3    H136111   1.650   5.459   8.172 -1.8567 -1.9755 -0.2448
 3972TIP3    H236112   1.712   5.346   8.251 -0.2115 -0.3890  0.8248
 3973TIP3   OH236113   2.800   7.320   8.252 -0.6060 -0.1729 -0.1955
 3973TIP3    H136114   2.775   7.288   8.165  0.9429  0.7300 -1.0095
 3973TIP3    H236115   2.877   7.268   8.276 -1.6574 -1.1740  1.1549
 3974TIP3   OH236116   4.125   2.015   8.137  0.1640 -0.2650  0.5115
 3974TIP3    H136117   4.190   1.986   8.201 -0.2836  0.7528  1.4578
 3974TIP3    H236118   4.119   2.110   8.150 -1.0894 -0.2636  0.0434
 3975TIP3   OH236119   4.218   1.694   8.768 -0.3619 -0.1443  0.1381
 3975TIP3    H136120   4.206   1.603   8.793 -0.4015  0.3737  2.1702
 3975TIP3    H236121   4.312   1.702   8.750 -0.6678 -1.0178 -2.1139
 3976TIP3   OH236122   3.121   5.485   7.886 -0.6318  0.7352 -0.4949
 3976TIP3    H136123   3.211   5.488   7.851 -0.4349  0.7999  0.0056
 3976TIP3    H236124   3.102   5.391   7.895  0.2397  0.7008  1.5124
 3977TIP3   OH236125   5.741   0.327   8.610 -0.0160  0.2436 -0.2867
 3977TIP3    H136126   5.683   0.344   8.536  0.4846 -0.1585 -0.7828
 3977TIP3    H236127   5.817   0.283   8.571  1.1663  1.7923  0.1383
 3978TIP3   OH236128   5.792   4.275   9.278 -0.2279 -0.1653  0.2754
 3978TIP3    H136129   5.742   4.356   9.281  1.0538  0.6463  0.5710
 3978TIP3    H236130   5.730   4.207   9.305 -1.1947  0.7763  0.4826
 3979TIP3   OH236131   7.311   0.348   7.497 -0.0265 -0.3455  0.0062
 3979TIP3    H136132   7.359   0.273   7.533 -0.4207 -0.2872  0.6686
 3979TIP3    H236133   7.347   0.424   7.541  1.5611  0.0774 -1.8798
 3980TIP3   OH236134   3.053   5.339   8.233 -0.7818 -0.0770 -0.2264
 3980TIP3    H136135   3.103   5.302   8.161 -0.9099  0.7558 -0.7544
 3980TIP3    H236136   3.099   5.310   8.312 -0.1861 -0.3357 -0.6626
 3981TIP3   OH236137   3.761   3.794   9.187 -0.0814  0.1399 -0.2427
 3981TIP3    H136138   3.737   3.713   9.232 -0.9950  2.0206  2.9923
 3981TIP3    H236139   3.690   3.809   9.124 -1.0625 -0.4849  0.6805
 3982TIP3   OH236140   2.743   5.430   7.608  0.0107  0.0469  0.0353
 3982TIP3    H136141   2.687   5.395   7.538 -0.7071  1.9570 -0.4093
 3982TIP3    H236142   2.689   5.496   7.651  1.0061  0.0130  1.3793
 3983TIP3   OH236143   1.518   4.556   7.573 -0.3567  0.0248 -0.4257
 3983TIP3    H136144   1.453   4.596   7.515 -2.2256  0.3994  1.8032
 3983TIP3    H236145   1.477   4.475   7.604  0.4650 -0.0292  0.5836
 3984TIP3   OH236146   5.287   0.415   8.544 -0.9584 -0.1386  0.3440
 3984TIP3    H136147   5.309   0.353   8.613  0.2339  0.8719  0.8957
 3984TIP3    H236148   5.358   0.479   8.544 -1.7748  0.8252 -0.7048
 3985TIP3   OH236149   3.183   5.511   6.835 -0.3066  0.7636 -0.2527
 3985TIP3    H136150   3.178   5.604   6.859  0.3305  0.8577 -0.4733
 3985TIP3    H236151   3.164   5.465   6.917 -1.9975  1.0693 -0.4349
 3986TIP3   OH236152   1.560   0.838   9.409 -0.1591 -0.1228 -0.5099
 3986TIP3    H136153   1.559   0.792   9.493 -0.5586  2.1576  0.8267
 3986TIP3    H236154   1.546   0.930   9.433 -1.7500  0.4227 -3.1843
 3987TIP3   OH236155   2.042   6.498   8.599  0.3960  0.5255 -0.3089
 3987TIP3    H136156   2.098   6.567   8.565  0.7298  1.8565  2.5956
 3987TIP3    H236157   1.966   6.544   8.635  0.5031 -0.5814  1.4803
 3988TIP3   OH236158   3.206   4.591   8.457  0.5525  0.0746  0.1200
 3988TIP3    H136159   3.154   4.636   8.523  1.5352 -1.0234  1.6908
 3988TIP3    H236160   3.273   4.543   8.506  0.8555 -1.3989 -1.6070
 3989TIP3   OH236161   2.424   1.222   8.114 -0.8161 -0.1398  0.5487
 3989TIP3    H136162   2.452   1.294   8.170 -0.6557 -0.4158  0.8250
 3989TIP3    H236163   2.439   1.143   8.166 -0.9025 -0.3802  0.2155
 3990TIP3   OH236164   4.470   2.034   7.446 -0.2014  0.2858  0.7815
 3990TIP3    H136165   4.468   1.982   7.526 -0.4608 -0.7839  0.0878
 3990TIP3    H236166   4.488   1.972   7.376  3.1703  1.5939  0.2929
 3991TIP3   OH236167   1.075   6.829   7.907 -0.2087 -0.3914  0.0001
 3991TIP3    H136168   1.019   6.794   7.976 -1.8096 -0.0249 -1.0590
 3991TIP3    H236169   1.073   6.924   7.919  2.3439 -0.4529  1.5204
 3992TIP3   OH236170   1.597   5.263   8.889  0.1166  0.3030 -0.0683
 3992TIP3    H136171   1.672   5.265   8.830  0.6927  0.0126  0.6436
 3992TIP3    H236172   1.619   5.325   8.959  0.2920 -0.7540  0.8453
 3993TIP3   OH236173   1.819   5.601   8.747  0.1707 -0.0063 -0.3461
 3993TIP3    H136174   1.884   5.588   8.677 -0.1105 -1.1215 -0.4175
 3993TIP3    H236175   1.743   5.552   8.718  0.6741 -2.0830  1.5859
 3994TIP3   OH236176   3.924   1.530   7.333  0.6533  0.1293 -0.4396
 3994TIP3    H136177   3.998   1.573   7.291  0.3912  0.7693 -0.2748
 3994TIP3    H236178   3.870   1.603   7.366  0.6629 -0.3366  0.6643
 3995TIP3   OH236179   6.283   4.802   9.372  0.3705  0.1976  0.2344
 3995TIP3    H136180   6.350   4.752   9.418 -0.1640 -0.2432  0.5450
 3995TIP3    H236181   6.326   4.884   9.347  1.0348 -0.1081  0.3776
 3996TIP3   OH236182   5.944   7.101   9.423 -0.3038 -0.3308 -0.5534
 3996TIP3    H136183   5.878   7.086   9.491 -1.5316  0.5579 -1.5144
 3996TIP3    H236184   6.010   7.155   9.465 -0.1734 -1.2168  0.4180
 3997TIP3   OH236185   6.252   1.688   9.677 -0.0620 -0.0331  0.3132
 3997TIP3    H136186   6.246   1.592   9.675 -0.7376  0.0090 -1.1217
 3997TIP3    H236187   6.161   1.717   9.668  0.1516  0.7556  0.6413
 3998TIP3   OH236188   1.778   7.242   8.820 -0.5328 -0.3855  0.4708
 3998TIP3    H136189   1.820   7.173   8.873 -0.8623  0.3967  1.7892
 3998TIP3    H236190   1.847   7.307   8.807 -0.7164 -0.1411  0.7246
 3999TIP3   OH236191   6.310   5.028   7.970 -0.5111 -0.0520  0.4886
 3999TIP3    H136192   6.338   5.004   8.058 -0.5979 -0.3254  0.4419
 3999TIP3    H236193   6.279   5.118   7.979  0.0100  0.1152  0.6196
 4000TIP3   OH236194   5.734   6.686   8.777 -0.5550 -0.3396  0.1556
 4000TIP3    H136195   5.778   6.707   8.859 -0.0849 -0.1316 -0.1425
 4000TIP3    H236196   5.776   6.743   8.712 -0.1709 -1.2562 -0.4201
 4001TIP3   OH236197   6.479   7.361   7.954  0.1523 -0.5103  0.2051
 4001TIP3    H136198   6.514   7.447   7.980 -1.5664  0.8461 -1.6648
 4001TIP3    H236199   6.536   7.332   7.883  1.1736 -1.3397  1.3072
 4002TIP3   OH236200   0.500   5.116   8.163  0.7089  0.1050 -0.1573
 4002TIP3    H136201   0.575   5.078   8.209  0.5941 -0.7065 -0.6138
 4002TIP3    H236202   0.520   5.104   8.070 -0.1132 -0.3872 -0.2841
 4003TIP3   OH236203   0.815   3.912   8.618  0.3480 -0.0607 -0.0175
 4003TIP3    H136204   0.779   3.977   8.558  0.7297 -1.1175 -1.4455
 4003TIP3    H236205   0.908   3.907   8.595  0.3672 -0.9465  0.2052
 4004TIP3   OH236206   0.121   0.182   8.395  0.1243 -0.1165 -0.1612
 4004TIP3    H136207   0.109   0.154   8.486 -0.9632  0.2389 -0.1875
 4004TIP3    H236208   0.063   0.257   8.384  3.0255  2.3506 -0.0793
 4005TIP3   OH236209   7.568   0.181   7.545  0.2716 -0.0573  0.0983
 4005TIP3    H136210   7.611   0.172   7.459  0.9346  0.1950  0.3971
 4005TIP3    H236211   7.639   0.167   7.608 -0.5879 -2.3019  0.6484
 4006TIP3   OH236212   6.841   4.430   8.827 -0.2031  0.1183 -0.1217
 4006TIP3    H136213   6.826   4.375   8.904  1.1980 -0.1283 -0.0120
 4006TIP3    H236214   6.793   4.387   8.757  1.3647 -1.6272 -0.1852
 4007TIP3   OH236215   4.851   3.620   8.438 -0.1648  0.0695 -0.2424
 4007TIP3    H136216   4.796   3.687   8.479  0.1077  0.6258 -0.7745
 4007TIP3    H236217   4.801   3.539   8.448 -0.9361  0.5100 -0.4340
 4008TIP3   OH236218   1.031   5.841   7.241 -0.4571  0.2151  0.2848
 4008TIP3    H136219   1.000   5.762   7.197  2.4603 -1.5556  1.1319
 4008TIP3    H236220   1.046   5.903   7.169  1.7688 -1.7323 -1.0987
 4009TIP3   OH236221   0.913   3.276   8.006 -0.2851 -0.1268 -0.0837
 4009TIP3    H136222   0.953   3.340   7.947  0.2457 -1.5246 -1.3036
 4009TIP3    H236223   0.830   3.253   7.963  0.0821 -1.1183 -0.3005
 4010TIP3   OH236224   0.988   7.453   7.260  0.1587 -0.1374  0.9925
 4010TIP3    H136225   1.036   7.388   7.209  0.2525  0.0891  0.7898
 4010TIP3    H236226   1.004   7.429   7.351 -0.0830 -0.5959  0.9160
 4011TIP3   OH236227   4.652   2.848   8.915  0.7718 -0.4806  0.2325
 4011TIP3    H136228   4.673   2.847   9.008 -2.2895  1.2466  1.0667
 4011TIP3    H236229   4.568   2.801   8.908  0.4717  0.2222 -1.5101
 4012TIP3   OH236230   3.967   5.017   9.503  0.0790 -0.3486  0.3496
 4012TIP3    H136231   4.045   5.033   9.555  0.7832  0.9112 -1.0174
 4012TIP3    H236232   3.897   5.063   9.550  0.8260  1.3287 -0.0927
 4013TIP3   OH236233   4.736   5.753   6.791  0.0254 -0.4056  0.4627
 4013TIP3    H136234   4.803   5.794   6.846  0.6820 -0.3714 -0.3466
 4013TIP3    H236235   4.698   5.685   6.846  0.6565 -0.3643  0.9619
 4014TIP3   OH236236   4.955   4.372   8.441  0.0051  0.5478 -0.2776
 4014TIP3    H136237   4.923   4.288   8.474 -0.5408  0.4180 -1.0854
 4014TIP3    H236238   5.025   4.397   8.501  3.0736 -2.4878 -2.2374
 4015TIP3   OH236239   1.454   5.773   8.930 -0.4176 -0.2775  0.2485
 4015TIP3    H136240   1.378   5.829   8.941 -0.3340 -0.2997  0.9874
 4015TIP3    H236241   1.420   5.683   8.937 -0.2442 -0.2799  1.2005
 4016TIP3   OH236242   2.516   0.428   8.925 -0.4134 -0.2813 -0.2938
 4016TIP3    H136243   2.438   0.436   8.980 -1.1487  1.6124 -1.5173
 4016TIP3    H236244   2.484   0.389   8.844 -0.4231  1.6925 -1.3079
 4017TIP3   OH236245   6.538   7.559   9.320  0.1079  0.1817  0.2091
 4017TIP3    H136246   6.550   7.472   9.358 -0.9816 -0.5615 -1.0491
 4017TIP3    H236247   6.511   7.614   9.393  1.5191 -0.3290  1.1698
 4018TIP3   OH236248   2.896   4.593   7.117 -0.1107 -0.0738 -0.2876
 4018TIP3    H136249   2.893   4.685   7.090  0.4256 -0.4980 -1.9035
 4018TIP3    H236250   2.807   4.574   7.145 -1.4129 -0.1847 -4.0358
 4019TIP3   OH236251   5.957   2.579   7.905 -0.6502  0.1799 -0.2331
 4019TIP3    H136252   5.980   2.507   7.845 -1.7698  0.2878 -0.8241
 4019TIP3    H236253   5.989   2.550   7.990  0.2317 -0.3526 -0.7246
 4020TIP3   OH236254   3.406   2.365   8.050 -0.0331  0.5016  0.0026
 4020TIP3    H136255   3.401   2.328   7.962  0.6424 -1.6952  0.8116
 4020TIP3    H236256   3.499   2.388   8.062  0.1911 -0.6377  0.6330
 4021TIP3   OH236257   1.109   6.578   8.435 -0.1716 -0.1120 -0.5161
 4021TIP3    H136258   1.067   6.500   8.470  1.7242 -1.1299 -0.3773
 4021TIP3    H236259   1.068   6.651   8.482 -1.0576 -1.1154  0.3034
 4022TIP3   OH236260   2.568   5.196   8.788 -0.1619 -0.1952  0.1935
 4022TIP3    H136261   2.611   5.278   8.811 -1.3769  0.3473  0.5891
 4022TIP3    H236262   2.559   5.199   8.692 -0.4442  0.2581  0.2330
 4023TIP3   OH236263   5.714   3.881   7.360 -0.0855  0.3510 -0.0472
 4023TIP3    H136264   5.736   3.825   7.285 -1.5501 -0.8966  0.4080
 4023TIP3    H236265   5.796   3.889   7.409  0.8489  0.9970 -1.6240
 4024TIP3   OH236266   5.062   0.487   7.391  0.0103  0.0640  0.3690
 4024TIP3    H136267   5.129   0.473   7.458  0.3967  0.1580  0.0143
 4024TIP3    H236268   4.993   0.537   7.435  0.9900  1.5696  0.3036
 4025TIP3   OH236269   6.671   4.077   8.364 -0.3152 -0.0326  0.1942
 4025TIP3    H136270   6.766   4.069   8.377 -0.5070 -0.5957  1.3747
 4025TIP3    H236271   6.639   3.987   8.364 -0.9064  0.1707  0.3015
 4026TIP3   OH236272   5.352   4.529   9.240 -0.1239 -0.3760  0.7915
 4026TIP3    H136273   5.274   4.571   9.204 -0.4835 -1.4601  0.2599
 4026TIP3    H236274   5.332   4.517   9.333 -0.1528  0.2787  0.8807
 4027TIP3   OH236275   7.273   6.011   9.340 -0.0300 -0.2818 -0.1662
 4027TIP3    H136276   7.272   6.102   9.369 -2.5343 -0.2344 -0.2256
 4027TIP3    H236277   7.265   5.960   9.420 -1.3818 -0.3350 -0.3201
 4028TIP3   OH236278   1.379   5.839   8.205  0.5806 -0.1306  0.4008
 4028TIP3    H136279   1.402   5.891   8.282  1.6456 -1.8292  1.3028
 4028TIP3    H236280   1.446   5.860   8.141 -0.7630  1.9039 -0.4438
 4029TIP3   OH236281   5.165   6.963   8.448  0.2836 -0.0088  0.6617
 4029TIP3    H136282   5.149   6.924   8.362 -1.8372 -1.7365  1.7427
 4029TIP3    H236283   5.255   6.937   8.469 -0.3153 -2.6323  0.3888
 4030TIP3   OH236284   0.151   2.835   8.103  0.4561 -0.1429 -0.4609
 4030TIP3    H136285   0.120   2.912   8.151 -2.6418 -1.7917  0.4838
 4030TIP3    H236286   0.087   2.824   8.032  0.1786 -2.3416  0.0452
 4031TIP3   OH236287   6.149   1.964   7.461 -0.0806 -1.1650  0.0751
 4031TIP3    H136288   6.173   1.879   7.498  2.0046 -1.4056 -1.6549
 4031TIP3    H236289   6.153   1.951   7.366  1.2501  1.0839 -0.2535
 4032TIP3   OH236290   7.187   5.233   8.169 -0.3380  0.2110 -0.1281
 4032TIP3    H136291   7.272   5.211   8.208 -0.5148 -2.0090 -0.8248
 4032TIP3    H236292   7.207   5.255   8.078 -0.5088 -0.6575 -0.3884
 4033TIP3   OH236293   1.417   7.043   8.251  0.3703  0.4430  0.2583
 4033TIP3    H136294   1.478   7.000   8.191  0.4740  0.5084  0.3169
 4033TIP3    H236295   1.436   7.004   8.336  0.9402  1.1026  0.4412
 4034TIP3   OH236296   7.258   0.607   7.985 -0.3006  0.3358 -0.1475
 4034TIP3    H136297   7.324   0.641   8.046  0.5570 -0.1043 -0.8016
 4034TIP3    H236298   7.200   0.681   7.968  0.6558  1.0452 -0.3799
 4035TIP3   OH236299   5.155   2.625   7.975 -0.0469  0.5351  0.2451
 4035TIP3    H136300   5.179   2.615   8.068  1.6822 -0.1505 -0.2274
 4035TIP3    H236301   5.189   2.712   7.952  1.8769 -0.3179 -0.3512
 4036TIP3   OH236302   5.709   5.720   9.639 -0.6250  0.0249 -0.1037
 4036TIP3    H136303   5.728   5.813   9.625 -0.4420  0.3146  1.8029
 4036TIP3    H236304   5.791   5.684   9.674 -0.3902 -1.0979 -1.7136
 4037TIP3   OH236305   2.901   3.692   7.924 -0.0616  0.0598 -0.2472
 4037TIP3    H136306   2.902   3.777   7.880  1.9579  0.6478  0.8294
 4037TIP3    H236307   2.993   3.675   7.948 -0.7255 -1.3446  1.5935
 4038TIP3   OH236308   1.624   6.599   8.360  0.2746 -0.2113 -0.2054
 4038TIP3    H136309   1.535   6.620   8.330  0.0135 -0.4196  0.3913
 4038TIP3    H236310   1.653   6.529   8.301 -0.3016 -0.7421  0.1212
 4039TIP3   OH236311   7.381   2.209   8.994 -0.9445 -0.6345 -0.3503
 4039TIP3    H136312   7.323   2.231   9.067 -1.8490  0.5379 -1.3925
 4039TIP3    H236313   7.330   2.151   8.939 -0.4631 -1.0625 -0.3519
 4040TIP3   OH236314   1.113   6.222   9.472 -0.0857  0.4038  0.1722
 4040TIP3    H136315   1.017   6.224   9.470 -0.0906  2.2960 -0.6008
 4040TIP3    H236316   1.138   6.302   9.425  1.8898 -0.7528 -0.8501
 4041TIP3   OH236317   2.870   4.798   8.389 -0.2205  0.1873 -0.3936
 4041TIP3    H136318   2.867   4.708   8.421 -0.1325  0.1971 -0.3576
 4041TIP3    H236319   2.779   4.826   8.388 -0.1272  0.6487  1.1463
 4042TIP3   OH236320   5.709   1.679   7.514 -0.0517  0.2648 -0.3100
 4042TIP3    H136321   5.647   1.751   7.522 -0.8155 -0.3063 -0.9099
 4042TIP3    H236322   5.770   1.691   7.587 -1.0676  0.6360  0.5031
 4043TIP3   OH236323   5.140   2.224   8.134  0.1822  0.3115 -0.2704
 4043TIP3    H136324   5.085   2.295   8.100 -0.7267 -0.9599 -1.5731
 4043TIP3    H236325   5.189   2.264   8.206 -1.2170  1.9270 -0.1500
 4044TIP3   OH236326   4.154   7.550   8.041 -0.2297 -0.0906 -0.0713
 4044TIP3    H136327   4.210   7.483   8.002  1.0692  1.9290 -1.9545
 4044TIP3    H236328   4.206   7.586   8.113 -0.2824 -0.0674 -0.0447
 4045TIP3   OH236329   1.692   2.586   7.635 -0.3917  0.1697  0.1987
 4045TIP3    H136330   1.752   2.645   7.590 -0.0217 -1.5818 -1.7357
 4045TIP3    H236331   1.618   2.642   7.661  0.2447  1.5984 -0.9423
 4046TIP3   OH236332   7.020   6.373   8.192  0.2331 -0.2768 -0.3107
 4046TIP3    H136333   7.060   6.382   8.278 -0.0717 -1.6483 -0.0078
 4046TIP3    H236334   7.032   6.459   8.151  0.2063  0.4547  1.1618
 4047TIP3   OH236335   0.366   0.994   9.858 -0.1764  0.5390  0.0244
 4047TIP3    H136336   0.435   0.928   9.852  0.1538  1.0096 -1.7773
 4047TIP3    H236337   0.411   1.077   9.871 -0.5469  0.5729  1.2602
 4048TIP3   OH236338   7.068   6.026   8.292  0.2968 -0.2468 -0.0005
 4048TIP3    H136339   7.118   6.028   8.210 -1.0816 -0.8359 -0.9094
 4048TIP3    H236340   7.133   6.010   8.360  1.1708 -3.5492 -1.3708
 4049TIP3   OH236341   2.868   2.868   8.793  0.6990  0.2706  0.1090
 4049TIP3    H136342   2.850   2.922   8.870 -2.0854  0.3532 -0.4612
 4049TIP3    H236343   2.840   2.923   8.719 -0.1174 -1.1091 -0.6539
 4050TIP3   OH236344   0.854   3.403   8.738  0.5313  0.4232  0.2376
 4050TIP3    H136345   0.867   3.316   8.700  1.4787  0.9495 -0.7149
 4050TIP3    H236346   0.941   3.429   8.769  0.3836  1.2463  0.0080
 4051TIP3   OH236347   7.090   4.816   9.198 -0.5969 -0.1119  0.1792
 4051TIP3    H136348   7.048   4.765   9.129  0.3544 -0.9959  0.2095
 4051TIP3    H236349   7.100   4.904   9.161 -2.5005  0.1563  0.2184
 4052TIP3   OH236350   0.204   1.923   8.100 -0.0786 -0.1091 -0.8632
 4052TIP3    H136351   0.137   1.857   8.119 -1.4923  1.1047 -1.3874
 4052TIP3    H236352   0.279   1.897   8.152 -2.1625  0.4861  2.8055
 4053TIP3   OH236353   5.348   5.763   8.302 -0.1738  0.3236  0.4922
 4053TIP3    H136354   5.412   5.833   8.288  1.3402 -1.2103 -0.6556
 4053TIP3    H236355   5.267   5.797   8.263  0.8393  1.0000 -1.1510
 4054TIP3   OH236356   5.481   1.129   8.203 -0.2051  0.3959 -0.1895
 4054TIP3    H136357   5.551   1.089   8.254 -0.1352 -0.4471 -0.9275
 4054TIP3    H236358   5.520   1.206   8.163  0.4771 -0.3734 -1.0459
 4055TIP3   OH236359   0.693   7.167   7.305  0.1185 -0.1354  0.2705
 4055TIP3    H136360   0.680   7.217   7.386  0.7293 -0.8153  0.8046
 4055TIP3    H236361   0.788   7.172   7.290 -0.0597  0.4783 -0.7394
 4056TIP3   OH236362   5.877   5.859   7.820  0.7088  0.2448 -0.1234
 4056TIP3    H136363   5.961   5.904   7.817  0.3072  1.0946  0.6140
 4056TIP3    H236364   5.882   5.804   7.899  1.7664 -2.2504 -1.8237
 4057TIP3   OH236365   0.577   1.702   8.474  0.0954  0.3261  0.1499
 4057TIP3    H136366   0.575   1.727   8.567  1.0479  3.7586 -0.6218
 4057TIP3    H236367   0.661   1.658   8.463 -0.5291 -1.1987  1.0784
 4058TIP3   OH236368   4.286   5.832   8.563 -0.0976  0.9056  0.3016
 4058TIP3    H136369   4.241   5.815   8.481 -0.6976  2.2564  0.3214
 4058TIP3    H236370   4.224   5.885   8.614  1.2216  2.2454  0.6006
 4059TIP3   OH236371   7.369   3.193   9.463 -0.1806  0.0072  0.3553
 4059TIP3    H136372   7.425   3.239   9.400 -0.9163 -0.1829 -0.4525
 4059TIP3    H236373   7.309   3.261   9.495 -0.3859 -0.0930  0.1819
 4060TIP3   OH236374   1.746   4.710   8.051  0.3424 -0.3315  0.2823
 4060TIP3    H136375   1.688   4.726   7.977  0.0419 -0.5870  0.4578
 4060TIP3    H236376   1.748   4.614   8.060  1.5164 -0.3801 -0.2888
 4061TIP3   OH236377   1.729   2.796   8.480  0.1557  0.0250  0.7198
 4061TIP3    H136378   1.822   2.790   8.459  0.3867  0.0764  1.6920
 4061TIP3    H236379   1.726   2.796   8.576 -0.6926  1.8954  0.7465
 4062TIP3   OH236380   1.781   0.764   9.265 -0.5280  0.6244  0.3619
 4062TIP3    H136381   1.817   0.849   9.240 -0.3768  0.3737 -0.2951
 4062TIP3    H236382   1.688   0.782   9.279 -0.8831  0.5771 -1.5604
 4063TIP3   OH236383   6.849   5.957   7.325  0.3929  0.4167  0.0110
 4063TIP3    H136384   6.864   6.019   7.254  1.1557 -1.1073 -1.2247
 4063TIP3    H236385   6.772   5.990   7.370  0.4919  1.9832 -0.8874
 4064TIP3   OH236386   2.216   7.371   7.387  0.4132 -0.0305 -0.0230
 4064TIP3    H136387   2.275   7.447   7.384  1.9039 -1.1661 -0.6377
 4064TIP3    H236388   2.136   7.401   7.343  1.7595  0.5425 -2.2388
 4065TIP3   OH236389   4.327   0.062   9.776 -0.6697 -0.3957 -0.2381
 4065TIP3    H136390   4.258   0.115   9.816 -2.0508 -1.8620 -0.5795
 4065TIP3    H236391   4.380   0.124   9.727 -0.7482  1.0020  1.3750
 4066TIP3   OH236392   7.174   5.507   8.254 -0.5751 -0.4419 -0.0782
 4066TIP3    H136393   7.123   5.438   8.211  0.0832 -0.3272 -1.0742
 4066TIP3    H236394   7.262   5.470   8.263 -0.1467  0.3545 -0.8651
 4067TIP3   OH236395   3.087   5.370   7.057 -0.4775 -0.1192  0.0074
 4067TIP3    H136396   3.056   5.282   7.077 -0.8524  0.3294  1.5456
 4067TIP3    H236397   3.163   5.383   7.113  0.9677 -0.2278 -1.8157
 4068TIP3   OH236398   6.882   1.896   8.558 -0.6146  0.0584 -0.0086
 4068TIP3    H136399   6.851   1.938   8.478  0.2066  0.8468  0.0626
 4068TIP3    H236400   6.940   1.825   8.528  1.4821  1.7316 -0.1701
 4069TIP3   OH236401   3.926   5.416   6.871 -0.3330  0.3245 -0.2032
 4069TIP3    H136402   3.905   5.387   6.960 -0.0064 -0.4418 -0.3681
 4069TIP3    H236403   3.856   5.478   6.849 -1.3664 -0.7595 -0.0496
 4070TIP3   OH236404   1.863   6.721   8.672 -0.5021 -0.1733  0.5479
 4070TIP3    H136405   1.823   6.672   8.743 -1.0697 -1.4447 -0.5923
 4070TIP3    H236406   1.790   6.742   8.613  0.1189 -0.2708 -0.2834
 4071TIP3   OH236407   6.408   3.675   8.794 -0.5722 -0.4217 -0.6869
 4071TIP3    H136408   6.348   3.725   8.849 -1.2344 -1.1867 -0.6977
 4071TIP3    H236409   6.411   3.588   8.833 -0.5985 -0.8065 -1.5221
 4072TIP3   OH236410   0.258   2.974   8.866 -0.4392 -0.6737  0.1766
 4072TIP3    H136411   0.320   2.977   8.939  0.6134  1.1766 -0.7226
 4072TIP3    H236412   0.172   2.978   8.907  0.1093 -0.4418  1.3432
 4073TIP3   OH236413   0.064   3.887   8.442 -0.1975 -0.1558  0.7421
 4073TIP3    H136414   0.044   3.972   8.480  2.4193  0.7486  0.3080
 4073TIP3    H236415   0.102   3.908   8.356 -1.9484 -1.9277 -0.5526
 4074TIP3   OH236416   7.346   5.413   9.206  0.2561 -0.2366 -0.2836
 4074TIP3    H136417   7.401   5.446   9.277 -0.9790  0.6131  0.3310
 4074TIP3    H236418   7.334   5.320   9.225  2.8356 -0.8828 -1.3864
 4075TIP3   OH236419   7.292   7.026   9.179  0.4101 -0.0278 -0.1463
 4075TIP3    H136420   7.265   7.114   9.155  2.4961  0.9970  1.0228
 4075TIP3    H236421   7.234   6.968   9.128 -0.9606  1.9765 -0.9741
 4076TIP3   OH236422   1.409   7.355   9.767 -0.3816  0.1085 -0.2617
 4076TIP3    H136423   1.416   7.447   9.795 -2.0477  0.1862 -0.0011
 4076TIP3    H236424   1.433   7.357   9.675  0.6798  0.6189  0.0107
 4077TIP3   OH236425   7.412   4.217   8.352 -0.2682 -0.5613  0.0080
 4077TIP3    H136426   7.456   4.258   8.277  3.0687 -1.0898  1.4767
 4077TIP3    H236427   7.365   4.289   8.394  1.9773  0.9257  0.1570
 4078TIP3   OH236428   6.231   7.490   7.618 -0.2686  0.0095  0.9734
 4078TIP3    H136429   6.306   7.448   7.578 -0.0018  1.8550 -0.5772
 4078TIP3    H236430   6.266   7.534   7.695 -0.3066 -1.3755  1.8186
 4079TIP3   OH236431   4.106   4.250   7.355  0.2548  0.0221  1.1620
 4079TIP3    H136432   4.193   4.215   7.333  0.8550  0.8656  2.0853
 4079TIP3    H236433   4.093   4.224   7.446  0.1491  1.0654  1.4537
 4080TIP3   OH236434   2.832   0.824   7.187 -0.4724 -0.4638 -0.9033
 4080TIP3    H136435   2.766   0.799   7.252  0.4860  0.0240  0.3058
 4080TIP3    H236436   2.804   0.910   7.156  0.5927  0.6834  1.1014
 4081TIP3   OH236437   2.373   6.727   8.047  0.6265 -0.1645  0.2053
 4081TIP3    H136438   2.426   6.722   7.967  1.2590  0.8209  0.5509
 4081TIP3    H236439   2.417   6.670   8.109  1.7527  1.2483  0.7405
 4082TIP3   OH236440   4.671   3.630   9.389 -0.1739  0.0495 -0.2420
 4082TIP3    H136441   4.728   3.601   9.460 -1.6174 -0.7945  0.6000
 4082TIP3    H236442   4.711   3.594   9.310  0.3176 -0.7502  0.3616
 4083TIP3   OH236443   3.363   7.042   7.942 -0.1138  0.0941 -0.1492
 4083TIP3    H136444   3.370   7.116   7.882  1.7794 -0.3690 -0.5818
 4083TIP3    H236445   3.416   7.067   8.018  0.1120 -0.5848 -0.0760
 4084TIP3   OH236446   6.150   0.322   7.718  0.0747 -0.3228 -0.4483
 4084TIP3    H136447   6.130   0.267   7.642  0.4612 -0.5302 -0.4001
 4084TIP3    H236448   6.173   0.407   7.680 -1.1689  0.0157 -0.4956
 4085TIP3   OH236449   0.331   2.239   7.613  0.0815  0.0964  0.9618
 4085TIP3    H136450   0.337   2.313   7.674 -0.1393  0.8663  0.0684
 4085TIP3    H236451   0.375   2.167   7.659  1.0066  0.9837  1.5230
 4086TIP3   OH236452   0.177   2.757   8.559  0.0058  0.1644 -0.1758
 4086TIP3    H136453   0.097   2.710   8.535  0.9072 -0.7005 -1.6070
 4086TIP3    H236454   0.234   2.750   8.482  2.2356 -0.9806  1.4287
 4087TIP3   OH236455   5.543   2.621   9.452  0.3106  0.4327 -0.5741
 4087TIP3    H136456   5.599   2.564   9.504 -0.2368 -0.1496 -0.6065
 4087TIP3    H236457   5.579   2.709   9.464 -0.8568  0.6244  2.2668
 4088TIP3   OH236458   6.262   0.370   8.569  0.0993 -0.2977 -0.2934
 4088TIP3    H136459   6.177   0.366   8.527 -0.4643  1.7694  0.5391
 4088TIP3    H236460   6.313   0.431   8.516  0.9399 -1.1768 -0.5313
 4089TIP3   OH236461   2.083   0.895   8.948  0.1992 -0.0666 -0.0385
 4089TIP3    H136462   2.157   0.864   8.895  0.1086 -0.8145  0.2566
 4089TIP3    H236463   2.078   0.832   9.020 -0.1298  0.5310  0.4668
 4090TIP3   OH236464   7.161   7.565   8.294  0.1834  0.2834  0.5761
 4090TIP3    H136465   7.118   7.640   8.251 -0.9088  0.8494  2.4879
 4090TIP3    H236466   7.211   7.522   8.225  0.7537  2.7108 -0.6269
 4091TIP3   OH236467   2.587   5.393   9.591 -0.4678  0.1345  0.0917
 4091TIP3    H136468   2.509   5.447   9.590 -0.9561 -0.5706 -0.4672
 4091TIP3    H236469   2.651   5.445   9.641 -1.3929  0.5567  0.8758
 4092TIP3   OH236470   3.329   3.698   8.804 -0.1957  0.3004  0.6308
 4092TIP3    H136471   3.318   3.681   8.897  2.9312 -0.3360  0.9718
 4092TIP3    H236472   3.333   3.794   8.797  0.7466  0.3250  1.3538
 4093TIP3   OH236473   7.317   6.815   7.270  0.0632 -0.0595  0.3551
 4093TIP3    H136474   7.359   6.852   7.192 -0.2560 -1.6776 -0.6168
 4093TIP3    H236475   7.271   6.737   7.239  2.0713 -2.3145  2.5234
 4094TIP3   OH236476   3.218   7.232   9.500  0.6523 -0.1158  1.2227
 4094TIP3    H136477   3.201   7.252   9.592 -1.1982 -2.3026  1.4404
 4094TIP3    H236478   3.133   7.206   9.465  1.3094  0.6715 -1.1479
 4095TIP3   OH236479   7.008   7.042   8.646  0.0393 -0.4207  0.2100
 4095TIP3    H136480   6.992   6.996   8.728 -1.5441 -0.5438 -0.1269
 4095TIP3    H236481   6.921   7.055   8.609  0.4553  2.4294  0.0264
 4096TIP3   OH236482   1.998   4.067   9.542  0.6500  0.3031  0.2512
 4096TIP3    H136483   1.991   4.107   9.628 -0.6104  1.2157 -0.2489
 4096TIP3    H236484   2.028   4.137   9.484  2.8310 -0.6310  0.1416
 4097TIP3   OH236485   7.537   3.381   8.314  0.3786 -0.0990  0.0298
 4097TIP3    H136486   7.460   3.435   8.331 -0.9020 -2.3288  2.0291
 4097TIP3    H236487   7.604   3.415   8.373 -0.0569  0.0475  0.4513
 4098TIP3   OH236488   1.026   7.080   8.000  0.0338  0.1796  0.1799
 4098TIP3    H136489   1.107   7.132   8.005 -0.3242  1.0254 -1.9356
 4098TIP3    H236490   0.972   7.114   8.071  0.7298  1.0431  0.3159
 4099TIP3   OH236491   7.206   3.055   8.549  0.1414 -0.1180 -0.7035
 4099TIP3    H136492   7.289   3.103   8.547  1.1856 -1.8102 -0.0135
 4099TIP3    H236493   7.140   3.122   8.566  1.3685  1.2518 -1.1057
 4100TIP3   OH236494   7.363   2.483   8.372 -0.2119  0.1119 -0.1363
 4100TIP3    H136495   7.368   2.501   8.278 -0.7000 -0.4277 -0.2710
 4100TIP3    H236496   7.273   2.452   8.385  0.0490 -0.4206  0.4000
 4101TIP3   OH236497   3.462   5.414   8.516 -0.1491  0.2633  0.0777
 4101TIP3    H136498   3.414   5.491   8.545 -2.3387 -1.6020  1.8413
 4101TIP3    H236499   3.430   5.397   8.428 -0.2665  0.9157 -0.0042
 4102TIP3   OH236500   3.030   1.229   7.611  0.5352  0.4566 -0.0386
 4102TIP3    H136501   3.017   1.152   7.555 -2.2798  2.0580 -1.8184
 4102TIP3    H236502   3.023   1.195   7.701  2.5655 -1.7690 -0.6178
 4103TIP3   OH236503   3.530   2.078   8.748  0.3715 -0.4033 -0.2632
 4103TIP3    H136504   3.620   2.057   8.725  0.1663 -0.5410 -0.9721
 4103TIP3    H236505   3.505   2.010   8.811  0.2260 -1.3699 -1.3314
 4104TIP3   OH236506   0.680   2.826   8.119  0.2427  0.1788 -0.1625
 4104TIP3    H136507   0.687   2.810   8.025 -3.0964  1.4894 -0.7824
 4104TIP3    H236508   0.692   2.921   8.128  0.1446  0.1196  0.6772
 4105TIP3   OH236509   5.991   0.406   8.210 -0.2486 -0.1446 -0.0740
 4105TIP3    H136510   6.023   0.353   8.283 -1.0198  2.2275  2.1362
 4105TIP3    H236511   6.066   0.415   8.152  0.0987 -2.9500 -0.2026
 4106TIP3   OH236512   1.462   5.710   7.600  0.2031 -0.1323  0.2426
 4106TIP3    H136513   1.377   5.748   7.577 -1.2294 -1.8724  2.3023
 4106TIP3    H236514   1.525   5.779   7.579 -1.8354  1.7774 -0.0112
 4107TIP3   OH236515   7.505   0.897   9.664  0.1068  0.1259  0.0071
 4107TIP3    H136516   7.470   0.975   9.620  0.7150  0.3763 -0.0355
 4107TIP3    H236517   7.580   0.929   9.714 -0.7950 -0.0845  1.5542
 4108TIP3   OH236518   5.267   6.831   9.415 -0.0582 -0.6619 -0.6897
 4108TIP3    H136519   5.208   6.856   9.344 -0.0156 -1.2659 -0.9512
 4108TIP3    H236520   5.311   6.752   9.382  0.7346 -0.3419 -0.4117
 4109TIP3   OH236521   4.433   4.235   8.856 -0.9636 -0.5551  0.4282
 4109TIP3    H136522   4.510   4.275   8.816 -2.3452  2.6997  0.7401
 4109TIP3    H236523   4.366   4.241   8.788 -1.7880 -0.3439  1.2558
 4110TIP3   OH236524   0.091   2.637   8.291 -0.3236  0.0058  0.5462
 4110TIP3    H136525   0.036   2.564   8.263 -0.3321 -0.1966  1.0759
 4110TIP3    H236526   0.105   2.688   8.212 -1.5721  0.2687  0.4802
 4111TIP3   OH236527   3.186   6.021   9.024  0.2765  0.3834  0.5069
 4111TIP3    H136528   3.103   5.973   9.029 -0.2945  1.0417 -1.4261
 4111TIP3    H236529   3.207   6.021   8.930  3.3390 -1.1580  1.0579
 4112TIP3   OH236530   6.115   3.054   8.397 -0.2860  0.3094  0.4856
 4112TIP3    H136531   6.052   3.124   8.415 -2.3007 -0.8629 -1.5317
 4112TIP3    H236532   6.082   2.979   8.446  0.2781  0.0213  0.4281
 4113TIP3   OH236533   3.217   7.617   8.066  0.6426 -0.1110  0.0690
 4113TIP3    H136534   3.245   7.707   8.084  1.2918 -0.2097 -0.4025
 4113TIP3    H236535   3.138   7.626   8.013  1.1144  0.1910 -0.5934
 4114TIP3   OH236536   7.583   3.749   7.771  0.4860  0.6521 -0.4512
 4114TIP3    H136537   7.676   3.747   7.794  0.5029 -2.8545 -0.3418
 4114TIP3    H236538   7.540   3.698   7.840 -1.5427  2.0306 -0.6107
 4115TIP3   OH236539   2.582   4.798   7.778 -0.1101  0.1601  0.0420
 4115TIP3    H136540   2.489   4.778   7.770 -0.1639  0.4161 -0.0085
 4115TIP3    H236541   2.594   4.878   7.725 -0.0525  0.6745  0.8166
 4116TIP3   OH236542   0.121   0.185   8.663 -0.4438  0.0996  0.5162
 4116TIP3    H136543   0.100   0.251   8.730  0.1792 -1.0980  1.9376
 4116TIP3    H236544   0.192   0.134   8.701  0.9522  0.2833 -1.6997
 4117TIP3   OH236545   0.673   4.601   9.006 -0.3851 -0.4250 -0.2534
 4117TIP3    H136546   0.723   4.624   9.084 -1.1252 -1.9156  0.7166
 4117TIP3    H236547   0.626   4.681   8.983  0.5300  0.2932  0.2767
 4118TIP3   OH236548   4.109   3.759   8.020  0.5812 -0.3096 -0.0300
 4118TIP3    H136549   4.187   3.804   7.988 -0.4658  2.2091  0.7248
 4118TIP3    H236550   4.114   3.767   8.116 -0.7240  0.1339  0.0143
 4119TIP3   OH236551   3.893   0.760   9.192  0.0453  0.4703  0.5248
 4119TIP3    H136552   3.872   0.849   9.164 -1.0484 -0.0828 -0.4666
 4119TIP3    H236553   3.957   0.772   9.262  1.6386  1.9774 -1.0845
 4120TIP3   OH236554   3.114   6.133   7.377 -0.4557  0.3984  0.7054
 4120TIP3    H136555   3.058   6.058   7.397 -0.3826 -0.0312 -0.6125
 4120TIP3    H236556   3.152   6.112   7.292  1.0988  1.0474  1.2160
 4121TIP3   OH236557   2.252   2.158   8.206 -0.5987  1.2119  0.2997
 4121TIP3    H136558   2.252   2.063   8.198  2.3305  1.2026 -0.4994
 4121TIP3    H236559   2.185   2.187   8.144  0.2680 -0.2480 -1.3949
 4122TIP3   OH236560   4.085   7.151   6.935 -0.0980 -0.1433 -0.0633
 4122TIP3    H136561   4.088   7.055   6.934 -1.6778 -0.3607  3.2824
 4122TIP3    H236562   4.166   7.177   6.979 -0.9250 -0.1834  1.5613
 4123TIP3   OH236563   3.060   3.952   9.058  0.0960  0.0344 -0.0153
 4123TIP3    H136564   2.998   4.004   9.007 -0.1681  1.9627  2.1162
 4123TIP3    H236565   3.057   3.990   9.146 -0.2491 -3.7028  1.7895
 4124TIP3   OH236566   4.332   3.050   8.402  0.4714 -0.3273 -0.3084
 4124TIP3    H136567   4.380   2.980   8.358  0.7780  0.5190 -1.3642
 4124TIP3    H236568   4.256   3.066   8.347 -0.8340 -1.3438  1.1136
 4125TIP3   OH236569   5.647   4.183   9.637  0.6542 -0.2366 -0.5806
 4125TIP3    H136570   5.575   4.126   9.663 -2.9820  3.0995 -2.2827
 4125TIP3    H236571   5.643   4.184   9.541  3.2941 -0.1584 -0.7641
 4126TIP3   OH236572   3.815   4.799   7.947  0.0172 -0.0885  0.1137
 4126TIP3    H136573   3.801   4.808   8.041  0.4218  0.0593  0.1655
 4126TIP3    H236574   3.903   4.762   7.940  0.5885  1.2750 -0.2308
 4127TIP3   OH236575   2.526   7.349   8.828 -0.3527  0.1616  0.0282
 4127TIP3    H136576   2.483   7.382   8.907 -0.1789 -1.6965  0.9651
 4127TIP3    H236577   2.609   7.396   8.824 -0.4798  0.4721  0.8194
 4128TIP3   OH236578   1.888   2.395   8.403 -0.0709  0.0166  0.3302
 4128TIP3    H136579   1.951   2.446   8.454 -0.0006 -1.7054  2.0635
 4128TIP3    H236580   1.874   2.315   8.454 -1.6354 -0.8521 -1.3334
 4129TIP3   OH236581   6.406   3.380   8.931  0.5791 -0.0462  0.8198
 4129TIP3    H136582   6.435   3.384   9.022 -1.2215 -0.4189  1.4468
 4129TIP3    H236583   6.335   3.316   8.931 -1.5246  2.1352 -0.2044
 4130TIP3   OH236584   6.942   0.869   8.899  0.5610  0.3230 -0.2934
 4130TIP3    H136585   6.949   0.806   8.970  0.4097  1.0724  0.4012
 4130TIP3    H236586   6.847   0.880   8.886  0.5871  0.0980 -0.6972
 4131TIP3   OH236587   1.412   6.227   7.700 -0.0690  0.3632 -0.6402
 4131TIP3    H136588   1.329   6.188   7.673 -0.3064  0.4442 -0.0455
 4131TIP3    H236589   1.458   6.157   7.745  0.6293  0.0241 -1.8571
 4132TIP3   OH236590   2.202   5.356   7.378 -0.5823  0.0137 -0.1173
 4132TIP3    H136591   2.251   5.352   7.296  1.2655  0.0596  0.9357
 4132TIP3    H236592   2.151   5.437   7.371 -1.6659 -0.7330 -1.8074
 4133TIP3   OH236593   7.659   1.842   7.357  0.1749  0.6008 -0.1644
 4133TIP3    H136594   7.576   1.804   7.329  0.2816 -0.0677  0.4050
 4133TIP3    H236595   7.634   1.910   7.420  0.1019 -0.5449  1.0837
 4134TIP3   OH236596   5.240   2.441   7.776  0.0187 -0.3458 -0.0430
 4134TIP3    H136597   5.212   2.487   7.855 -4.2243 -2.6960  0.1455
 4134TIP3    H236598   5.237   2.507   7.707  2.6672  1.4725  1.4299
 4135TIP3   OH236599   5.784   7.248   8.977  0.0578  0.2064 -0.3748
 4135TIP3    H136600   5.879   7.244   8.968  0.0125  0.5694 -1.0496
 4135TIP3    H236601   5.756   7.313   8.913 -0.5974  0.5023  0.1947
 4136TIP3   OH236602   0.147   4.800   7.106  0.0208  0.2956 -0.4414
 4136TIP3    H136603   0.094   4.879   7.118  0.0438  0.1848  0.4916
 4136TIP3    H236604   0.083   4.730   7.093 -0.0320  0.3137 -0.2808
 4137TIP3   OH236605   0.288   1.061   7.781 -0.7981 -0.0667 -0.2030
 4137TIP3    H136606   0.310   1.125   7.848  1.4790  0.3300 -1.2279
 4137TIP3    H236607   0.310   0.977   7.820  0.9853  0.1948 -0.5452
 4138TIP3   OH236608   4.071   5.938   7.944  0.5284  0.0086  0.5067
 4138TIP3    H136609   4.033   5.918   7.858  0.3487  1.4014  0.2446
 4138TIP3    H236610   4.131   5.865   7.961 -0.4297 -0.9627 -0.1862
 4139TIP3   OH236611   6.451   3.684   7.023  0.7551  0.0477 -0.4378
 4139TIP3    H136612   6.422   3.650   6.938  0.8696 -1.3425  0.0562
 4139TIP3    H236613   6.370   3.694   7.074  0.6646  1.0731 -0.7500
 4140TIP3   OH236614   7.280   1.358   7.939 -0.4119  0.2000  0.3070
 4140TIP3    H136615   7.274   1.341   8.033  0.1738  1.4217  0.5902
 4140TIP3    H236616   7.244   1.446   7.928  0.6924  0.5831 -0.4076
 4141TIP3   OH236617   5.416   6.839   8.501 -0.0620  0.4129 -0.2008
 4141TIP3    H136618   5.506   6.858   8.477 -1.0665  4.2135 -1.6708
 4141TIP3    H236619   5.420   6.811   8.592  2.6768 -1.2256 -0.7298
 4142TIP3   OH236620   1.209   2.632   7.535  0.3817  0.4135  0.2060
 4142TIP3    H136621   1.303   2.614   7.541  0.6349  1.1683 -1.1094
 4142TIP3    H236622   1.193   2.696   7.604  0.5495 -0.6958  1.3115
 4143TIP3   OH236623   4.708   6.417   8.984  0.6939 -0.1165 -0.2033
 4143TIP3    H136624   4.790   6.371   9.001  1.2056  0.7998 -0.1042
 4143TIP3    H236625   4.716   6.498   9.035  0.7900  1.1236 -2.0899
 4144TIP3   OH236626   3.257   4.525   9.402 -0.3673  0.5004  0.1856
 4144TIP3    H136627   3.290   4.461   9.338 -1.3388 -1.9765  2.0009
 4144TIP3    H236628   3.165   4.538   9.377 -0.7369 -0.4400  0.9621
 4145TIP3   OH236629   2.641   3.187   8.119 -0.9718  0.2916  0.7477
 4145TIP3    H136630   2.699   3.240   8.064  0.1931 -1.2025  0.4797
 4145TIP3    H236631   2.590   3.251   8.169 -0.4330  1.6592 -0.3946
 4146TIP3   OH236632   5.119   7.589   8.643  0.0506  0.4360  0.1223
 4146TIP3    H136633   5.148   7.523   8.580  2.0772  1.6231 -0.2873
 4146TIP3    H236634   5.176   7.576   8.719 -1.4932 -0.1288  1.2391
 4147TIP3   OH236635   1.109   3.767   8.030  0.3527  0.2747  0.0369
 4147TIP3    H136636   1.110   3.840   7.968 -0.2483 -1.1742 -1.7723
 4147TIP3    H236637   1.193   3.723   8.018  0.1127 -0.1917  0.0233
 4148TIP3   OH236638   5.349   7.537   7.905 -0.2138  0.4705  0.3755
 4148TIP3    H136639   5.334   7.629   7.882 -1.4865  0.1302 -0.2024
 4148TIP3    H236640   5.443   7.533   7.923  0.6259  1.1627 -3.1133
 4149TIP3   OH236641   0.180   4.503   8.616  0.1092  0.1014  0.9869
 4149TIP3    H136642   0.116   4.459   8.672 -1.0474  1.3284  0.6966
 4149TIP3    H236643   0.132   4.578   8.580  1.8505  1.3225  1.0922
 4150TIP3   OH236644   5.705   2.526   8.963  0.0929 -0.0435  0.0657
 4150TIP3    H136645   5.679   2.526   9.055 -1.2408 -0.3002 -0.2983
 4150TIP3    H236646   5.797   2.498   8.965  0.9612  2.5096  1.5176
 4151TIP3   OH236647   7.166   4.538   7.875 -0.7186 -0.3567  0.2463
 4151TIP3    H136648   7.115   4.583   7.943 -0.4771 -2.0236  1.5919
 4151TIP3    H236649   7.100   4.510   7.812 -1.1485 -0.1894  0.6079
 4152TIP3   OH236650   5.088   6.144   8.296  0.3882 -0.2334  0.6013
 4152TIP3    H136651   5.019   6.209   8.297  1.4272  0.9432 -0.5640
 4152TIP3    H236652   5.162   6.187   8.340  0.9134 -0.8297  0.3218
 4153TIP3   OH236653   6.768   0.745   8.556 -0.2580  0.2384 -0.9735
 4153TIP3    H136654   6.849   0.739   8.607 -0.1145  0.2661 -1.1986
 4153TIP3    H236655   6.700   0.756   8.622 -0.4603 -2.8681 -0.5181
 4154TIP3   OH236656   5.203   4.188   9.054 -0.1091  0.0414  0.8967
 4154TIP3    H136657   5.131   4.194   9.117 -0.0761  2.0888  0.8093
 4154TIP3    H236658   5.180   4.251   8.986  0.2867 -1.4971 -0.7342
 4155TIP3   OH236659   6.409   2.603   9.410  0.0547 -0.1040 -0.8787
 4155TIP3    H136660   6.317   2.576   9.405 -0.4257  1.1738  0.5252
 4155TIP3    H236661   6.451   2.537   9.465 -0.8438  1.1902  1.4807
 4156TIP3   OH236662   0.532   2.865   8.651  0.3751  0.1727  0.1894
 4156TIP3    H136663   0.618   2.826   8.665  0.0157 -0.6263  0.2182
 4156TIP3    H236664   0.540   2.912   8.568  0.5283 -0.8545 -0.4002
 4157TIP3   OH236665   4.887   4.102   8.436 -0.0946  0.4958 -0.1289
 4157TIP3    H136666   4.914   4.011   8.421  0.2520  0.5605  0.0748
 4157TIP3    H236667   4.792   4.098   8.446  0.0552 -0.0406  1.2460
 4158TIP3   OH236668   3.317   4.440   8.686  0.4306 -0.0419 -0.1046
 4158TIP3    H136669   3.229   4.411   8.711  0.2137 -0.6488 -1.4800
 4158TIP3    H236670   3.368   4.359   8.680  1.0109  0.2774  0.3722
 4159TIP3   OH236671   4.276   6.319   9.475  0.6010  0.0138  0.0312
 4159TIP3    H136672   4.334   6.260   9.523 -0.9761 -0.0018  2.0218
 4159TIP3    H236673   4.195   6.269   9.465  0.1867  0.8232 -0.8063
 4160TIP3   OH236674   1.877   0.853   9.520 -0.4856  0.1865 -0.1715
 4160TIP3    H136675   1.800   0.815   9.477 -0.7758  0.4266  0.1292
 4160TIP3    H236676   1.940   0.781   9.525 -2.2136 -1.3175  3.4388
 4161TIP3   OH236677   6.809   5.991   8.172  0.0355 -0.7019 -0.1599
 4161TIP3    H136678   6.796   6.080   8.139  1.2644 -0.2604  0.5015
 4161TIP3    H236679   6.885   5.997   8.230 -0.8039 -1.8571  1.1459
 4162TIP3   OH236680   1.000   7.105   7.247  0.8110  0.2082  0.3871
 4162TIP3    H136681   0.992   7.033   7.184  2.0175 -1.0246  1.5950
 4162TIP3    H236682   1.033   7.178   7.195 -1.3242  0.2463 -1.0647
 4163TIP3   OH236683   2.637   5.216   7.926  0.6097 -0.3365  1.0398
 4163TIP3    H136684   2.696   5.290   7.921  0.6226 -0.3045  1.5569
 4163TIP3    H236685   2.634   5.181   7.837 -0.7394  1.3084  0.4000
 4164TIP3   OH236686   6.989   3.366   7.872 -0.2786  0.0412 -0.0847
 4164TIP3    H136687   7.034   3.434   7.921  1.2113 -1.6109  0.9671
 4164TIP3    H236688   7.016   3.379   7.781 -0.7063  1.3403 -0.0435
 4165TIP3   OH236689   3.792   7.632   9.672 -1.0128 -0.3299  0.1001
 4165TIP3    H136690   3.787   7.546   9.713 -1.6008 -0.3957 -0.1063
 4165TIP3    H236691   3.762   7.619   9.583 -1.4514  0.1591  0.1704
 4166TIP3   OH236692   1.808   1.544   7.399 -0.2156 -0.0183  0.1350
 4166TIP3    H136693   1.754   1.622   7.387  0.8669  0.6156 -0.8873
 4166TIP3    H236694   1.789   1.514   7.488 -1.1198  1.0354  0.3125
 4167TIP3   OH236695   2.496   7.147   7.468  0.0603 -0.1975  0.2257
 4167TIP3    H136696   2.530   7.134   7.557 -1.0760  2.6013  1.1814
 4167TIP3    H236697   2.526   7.234   7.443 -5.0738  2.0711  0.7059
 4168TIP3   OH236698   1.421   2.851   7.928  0.1262 -0.3251  0.0594
 4168TIP3    H136699   1.342   2.886   7.969  0.0469  0.0335 -0.3989
 4168TIP3    H236700   1.424   2.760   7.957 -0.9215 -0.5936 -0.6078
 4169TIP3   OH236701   3.317   3.435   9.257 -0.3471  0.1814 -0.3413
 4169TIP3    H136702   3.226   3.409   9.246  0.1084 -0.6894 -2.8131
 4169TIP3    H236703   3.327   3.514   9.204  0.5459 -0.3259 -0.9581
 4170TIP3   OH236704   6.335   2.356   9.143  0.1138 -0.3738  0.4718
 4170TIP3    H136705   6.411   2.323   9.191  0.6332 -3.2214 -2.0308
 4170TIP3    H236706   6.360   2.350   9.051 -2.4093  0.6631 -0.3681
 4171TIP3   OH236707   2.860   3.899   8.744 -0.1361 -0.6315  0.2979
 4171TIP3    H136708   2.893   3.987   8.763  0.0102 -0.1523 -1.8548
 4171TIP3    H236709   2.773   3.914   8.709 -1.3419 -1.6325  2.6698
 4172TIP3   OH236710   4.311   2.743   7.932 -0.0492 -0.4626 -0.2621
 4172TIP3    H136711   4.254   2.806   7.889 -0.6945 -0.1125  1.0521
 4172TIP3    H236712   4.278   2.738   8.022  0.5030 -2.0609 -0.1163
 4173TIP3   OH236713   5.550   6.979   7.010 -0.2644 -0.5371 -0.0669
 4173TIP3    H136714   5.505   6.896   7.028  0.1601 -0.9717 -0.9345
 4173TIP3    H236715   5.618   6.956   6.947  2.0239 -0.1226  2.1289
 4174TIP3   OH236716   1.947   7.647   8.442  0.1184 -0.2300  0.2306
 4174TIP3    H136717   2.035   7.626   8.474  0.1914  0.1036  0.2606
 4174TIP3    H236718   1.939   7.598   8.360  0.9163  0.8908 -0.5450
 4175TIP3   OH236719   6.972   3.429   7.607 -0.3755 -0.2177 -0.1179
 4175TIP3    H136720   6.956   3.423   7.513 -1.5885 -0.8024  0.0995
 4175TIP3    H236721   6.885   3.422   7.646  0.0843  0.2802  1.0420
 4176TIP3   OH236722   7.214   4.437   9.079 -0.3009 -0.4879 -0.6794
 4176TIP3    H136723   7.304   4.447   9.110 -0.9120 -1.2327  1.5623
 4176TIP3    H236724   7.204   4.342   9.066 -1.3237 -0.6848  1.1825
 4177TIP3   OH236725   6.344   4.491   7.653 -0.2593  0.0194  0.2777
 4177TIP3    H136726   6.370   4.477   7.744 -1.3670  1.2004  0.8133
 4177TIP3    H236727   6.395   4.567   7.625 -0.4565  0.1094  0.1586
 4178TIP3   OH236728   4.349   7.348   8.056  0.6349 -0.0715  0.6029
 4178TIP3    H136729   4.352   7.297   7.975 -0.2892  2.0637 -0.8523
 4178TIP3    H236730   4.435   7.333   8.096  1.2023 -0.9841 -0.8682
 4179TIP3   OH236731   3.354   3.970   8.552  0.2947  0.6519 -0.7984
 4179TIP3    H136732   3.301   3.909   8.501  0.1708 -1.3391  1.5640
 4179TIP3    H236733   3.292   4.010   8.614  0.6917  2.0275 -1.2430
 4180TIP3   OH236734   4.941   6.651   8.139  0.1029 -0.4922 -0.0124
 4180TIP3    H136735   4.886   6.656   8.218  0.1959  0.2982  0.0176
 4180TIP3    H236736   4.976   6.562   8.139  0.6006 -0.3258  1.1945
 4181TIP3   OH236737   1.984   5.720   7.743 -0.1609 -0.1416  0.1766
 4181TIP3    H136738   1.905   5.693   7.790 -0.4143 -0.1090 -0.2288
 4181TIP3    H236739   1.953   5.780   7.675  0.4087  1.2517  1.1144
 4182TIP3   OH236740   0.164   5.520   7.708  0.5120 -0.6243 -0.0473
 4182TIP3    H136741   0.221   5.456   7.751  1.5948 -1.6650 -2.8412
 4182TIP3    H236742   0.221   5.563   7.644 -0.9364  1.0739 -0.2499
 4183TIP3   OH236743   4.272   2.487   9.002 -0.7578  0.2670 -0.1349
 4183TIP3    H136744   4.259   2.425   8.931  0.5509  0.4746 -0.5800
 4183TIP3    H236745   4.193   2.479   9.056 -1.5739 -0.2088 -1.3573
 4184TIP3   OH236746   4.080   1.718   8.044 -0.1978  0.0629 -0.2734
 4184TIP3    H136747   4.059   1.805   8.078 -0.4110  0.3923 -1.2112
 4184TIP3    H236748   4.077   1.728   7.949 -0.7361 -1.0938 -0.4000
 4185TIP3   OH236749   7.636   0.436   8.109  0.0499  0.1363  0.1509
 4185TIP3    H136750   7.622   0.351   8.068  3.1775 -0.8728  0.9035
 4185TIP3    H236751   7.693   0.483   8.048 -1.9728  1.9382 -0.4586
 4186TIP3   OH236752   2.157   1.086   7.514  0.6202  0.4938  0.0140
 4186TIP3    H136753   2.120   1.174   7.517 -0.1629  0.1983 -0.7002
 4186TIP3    H236754   2.250   1.098   7.534  0.4291  1.4219  0.3688
 4187TIP3   OH236755   6.493   3.890   9.336 -0.4467  0.1206  0.1304
 4187TIP3    H136756   6.507   3.805   9.378 -2.0395 -0.7899 -1.0609
 4187TIP3    H236757   6.474   3.950   9.409 -1.9524 -1.1542  0.8517
 4188TIP3   OH236758   1.265   6.253   8.626  0.6321 -0.5815  0.0628
 4188TIP3    H136759   1.278   6.260   8.532 -1.6636 -0.6094 -0.3319
 4188TIP3    H236760   1.308   6.330   8.663 -0.8796  1.0221 -1.3377
 4189TIP3   OH236761   3.821   6.029   8.048 -0.3833 -0.7729 -0.3384
 4189TIP3    H136762   3.907   6.009   8.010  1.3445  0.3316  2.6674
 4189TIP3    H236763   3.799   6.114   8.012  1.2793  0.3137  1.0305
 4190TIP3   OH236764   0.954   5.121   6.697  0.1861  0.4576 -0.0237
 4190TIP3    H136765   0.949   5.216   6.709  0.9895  0.4268  0.6052
 4190TIP3    H236766   0.968   5.087   6.785  0.2544 -0.2229 -0.2977
 4191TIP3   OH236767   0.999   2.175   8.948 -0.3993 -0.1337  0.3202
 4191TIP3    H136768   0.924   2.235   8.944  0.0075  0.5201  1.9602
 4191TIP3    H236769   1.058   2.207   8.879 -0.1990  1.3689  1.1516
 4192TIP3   OH236770   1.401   1.726   7.110 -0.5623 -0.0301  0.3212
 4192TIP3    H136771   1.363   1.813   7.123 -0.5207  0.4990 -2.5505
 4192TIP3    H236772   1.457   1.735   7.033 -0.8011 -2.6729 -0.2576
 4193TIP3   OH236773   0.189   0.398   6.507  0.3191  0.0762 -0.6932
 4193TIP3    H136774   0.103   0.373   6.472  0.8744 -1.1046 -1.2856
 4193TIP3    H236775   0.245   0.323   6.486  1.8402  1.4328 -1.6145
 4194TIP3   OH236776   4.760   3.038   8.016  0.0570  0.1452  0.1288
 4194TIP3    H136777   4.703   3.006   7.945 -0.7866  1.5112  0.1431
 4194TIP3    H236778   4.842   2.991   8.004 -0.9224 -1.5671 -0.1704
 4195TIP3   OH236779   4.148   3.652   8.625  0.1105 -1.0780 -0.4366
 4195TIP3    H136780   4.145   3.651   8.530 -0.5349 -2.1152 -0.4255
 4195TIP3    H236781   4.155   3.560   8.650 -0.4662 -0.8788  0.5292
 4196TIP3   OH236782   6.344   2.917   6.957  0.0582 -0.3998  0.0566
 4196TIP3    H136783   6.417   2.975   6.938 -0.7019  0.0798 -1.5517
 4196TIP3    H236784   6.346   2.852   6.887 -0.1387 -1.3353  0.8827
 4197TIP3   OH236785   3.959   4.701   6.955  0.0857 -0.1155  0.3993
 4197TIP3    H136786   3.917   4.784   6.933  0.9844  0.8417  2.0660
 4197TIP3    H236787   4.021   4.685   6.884 -0.1956  0.5724 -0.0059
 4198TIP3   OH236788   0.917   5.345   9.092  0.1349 -0.5509 -0.4839
 4198TIP3    H136789   0.982   5.380   9.153 -0.7567  0.4859 -0.1016
 4198TIP3    H236790   0.911   5.412   9.023 -0.8641 -0.4088 -0.2680
 4199TIP3   OH236791   4.464   3.622   8.357  0.2591 -0.9904  0.1693
 4199TIP3    H136792   4.431   3.564   8.289 -1.5875  0.2959 -0.1094
 4199TIP3    H236793   4.389   3.676   8.381  1.3612 -0.1192  1.8932
 4200TIP3   OH236794   0.469   6.282   9.137 -0.3378  0.1146 -0.0850
 4200TIP3    H136795   0.562   6.297   9.126 -0.2946  1.2021  1.4785
 4200TIP3    H236796   0.457   6.189   9.115  1.0654 -0.0044 -0.4219
 4201TIP3   OH236797   2.799   0.755   7.849  0.3074  0.5057  0.0580
 4201TIP3    H136798   2.721   0.719   7.806  0.2111  1.9880 -1.0856
 4201TIP3    H236799   2.848   0.678   7.877 -0.6797 -0.4892 -0.8308
 4202TIP3   OH236800   1.693   7.318   8.515  0.4415  0.1672 -0.7954
 4202TIP3    H136801   1.642   7.353   8.442  0.0992  1.3252 -0.0296
 4202TIP3    H236802   1.754   7.388   8.538  0.8947 -0.3766 -0.2960
 4203TIP3   OH236803   2.318   6.569   9.179 -0.1785  0.1135 -0.2930
 4203TIP3    H136804   2.311   6.573   9.084 -4.9487  1.0779 -0.1351
 4203TIP3    H236805   2.272   6.488   9.203  3.0671 -1.4972  1.2962
 4204TIP3   OH236806   7.676   1.536   9.510  0.6137 -0.1786  0.0099
 4204TIP3    H136807   7.630   1.490   9.580 -0.3611 -0.0319 -0.5127
 4204TIP3    H236808   7.628   1.619   9.500  0.2879 -0.5020 -1.2946
 4205TIP3   OH236809   5.279   5.556   7.502  0.8978  0.5607 -0.5253
 4205TIP3    H136810   5.245   5.468   7.517  1.2144  0.4538 -0.4232
 4205TIP3    H236811   5.316   5.554   7.414  0.2818  0.7915 -0.7899
 4206TIP3   OH236812   1.398   3.664   7.876  0.0684 -0.2604  0.2866
 4206TIP3    H136813   1.338   3.649   7.803  1.8712  0.0212 -1.3224
 4206TIP3    H236814   1.434   3.751   7.860  0.6499 -0.2816  1.4064
 4207TIP3   OH236815   2.216   3.064   8.785  0.2557  0.3620  0.1887
 4207TIP3    H136816   2.271   3.023   8.851  0.0442 -0.4644 -0.1371
 4207TIP3    H236817   2.130   3.071   8.827  0.7512  2.4048  1.0007
 4208TIP3   OH236818   7.334   1.090   8.394 -0.2797 -0.2744 -0.8266
 4208TIP3    H136819   7.241   1.073   8.407  0.2150 -0.5888  3.8553
 4208TIP3    H236820   7.354   1.161   8.455  2.7324 -0.7686 -1.1095
 4209TIP3   OH236821   0.003   5.767   7.302 -0.0823 -0.3436 -0.2062
 4209TIP3    H136822   0.056   5.737   7.228  2.3471  0.0287  1.2752
 4209TIP3    H236823   0.040   5.852   7.325 -1.4993  0.0332  0.7931
 4210TIP3   OH236824   2.534   4.497   9.443  0.2620 -0.0834 -0.3496
 4210TIP3    H136825   2.566   4.575   9.399 -0.7358  0.2316 -0.5330
 4210TIP3    H236826   2.460   4.468   9.391  0.4046 -0.9620 -0.0889
 4211TIP3   OH236827   3.795   5.486   8.808  0.0946  0.7339 -0.0188
 4211TIP3    H136828   3.780   5.577   8.833 -0.9780  0.6725 -0.4146
 4211TIP3    H236829   3.708   5.449   8.796  0.5187  0.2110 -1.8565
 4212TIP3   OH236830   0.855   3.501   9.137  0.3081  0.0286 -0.0135
 4212TIP3    H136831   0.942   3.531   9.164  0.9079 -2.0617  0.5574
 4212TIP3    H236832   0.797   3.575   9.158  1.8434  1.2539  0.0994
 4213TIP3   OH236833   0.080   7.351   7.439  0.3763 -0.2129  1.0770
 4213TIP3    H136834   0.065   7.411   7.512 -0.0785  1.2427 -0.1284
 4213TIP3    H236835   0.059   7.404   7.361  1.8975 -1.3329 -0.1689
 4214TIP3   OH236836   4.164   0.874   8.154  0.2663 -0.2234  0.1438
 4214TIP3    H136837   4.165   0.930   8.076  1.0359  0.2105  0.4503
 4214TIP3    H236838   4.207   0.793   8.125 -0.7303 -0.6173 -0.2637
 4215TIP3   OH236839   6.497   2.707   7.910 -0.3255 -0.4847 -0.0077
 4215TIP3    H136840   6.501   2.797   7.943 -0.8335 -1.2628  2.3615
 4215TIP3    H236841   6.407   2.696   7.882 -0.3864 -0.4003  0.1521
 4216TIP3   OH236842   0.963   5.961   7.701  0.2179  0.2777  0.0561
 4216TIP3    H136843   0.883   5.988   7.746  0.5256  1.8354 -0.2798
 4216TIP3    H236844   0.954   5.997   7.613  1.0192 -0.0717 -0.1748
 4217TIP3   OH236845   0.015   1.749   6.743  0.0059  0.0180 -0.2535
 4217TIP3    H136846  -0.053   1.765   6.677  0.3393  0.0293 -0.6001
 4217TIP3    H236847  -0.018   1.675   6.794 -0.8579  0.8325  0.3983
 4218TIP3   OH236848   6.994   6.621   9.117 -0.4957  0.1122 -0.0908
 4218TIP3    H136849   6.988   6.627   9.022 -0.4007  0.2104 -0.0907
 4218TIP3    H236850   7.015   6.710   9.145  0.2596 -0.0788 -0.0370
 4219TIP3   OH236851   4.494   1.183   9.529 -0.2016  0.3502 -0.1122
 4219TIP3    H136852   4.572   1.215   9.483  0.1273 -1.0091 -0.5497
 4219TIP3    H236853   4.508   1.211   9.620  0.5631  0.5447 -0.2773
 4220TIP3   OH236854   6.510   4.035   8.914  0.3040  0.1203  0.1118
 4220TIP3    H136855   6.584   4.015   8.857 -0.1610  1.2430 -0.9421
 4220TIP3    H236856   6.514   4.130   8.925  0.0250 -0.0019  1.4866
 4221TIP3   OH236857   6.935   3.731   8.967 -0.0507 -0.1484 -0.0713
 4221TIP3    H136858   6.859   3.701   8.916 -0.0084  1.4431 -1.1456
 4221TIP3    H236859   6.993   3.655   8.970 -1.2647 -1.1239 -0.0147
 4222TIP3   OH236860   4.254   5.935   9.378  0.3640  0.3322  0.1443
 4222TIP3    H136861   4.270   5.991   9.302  0.9200 -0.7770 -0.5889
 4222TIP3    H236862   4.162   5.908   9.370  0.8661 -1.1876 -1.1632
 4223TIP3   OH236863   2.059   7.526   9.301 -0.2183  0.1822 -0.4332
 4223TIP3    H136864   2.138   7.548   9.350  0.2409  3.2412 -2.2760
 4223TIP3    H236865   2.083   7.449   9.249  1.2431  0.5142 -0.2818
 4224TIP3   OH236866   6.779   4.208   9.404 -0.3056  0.3598  0.4775
 4224TIP3    H136867   6.725   4.250   9.470  1.3651 -0.7114  2.6397
 4224TIP3    H236868   6.854   4.267   9.394 -0.9310  0.9513 -1.1924
 4225TIP3   OH236869   0.733   0.179   7.040 -0.1869 -0.2739 -0.2312
 4225TIP3    H136870   0.776   0.098   7.069  2.2696  0.9557 -0.1601
 4225TIP3    H236871   0.748   0.181   6.946  1.0893  0.7462 -0.0415
 4226TIP3   OH236872   4.037   2.086   7.348  0.1410  0.3046 -0.3003
 4226TIP3    H136873   3.984   2.069   7.270  1.8537  2.4281 -2.0670
 4226TIP3    H236874   3.981   2.140   7.404 -0.2418  0.9680 -1.2935
 4227TIP3   OH236875   5.786   2.373   8.293  0.3656 -0.4301 -0.0655
 4227TIP3    H136876   5.837   2.442   8.335 -1.1960  0.1526  0.9452
 4227TIP3    H236877   5.768   2.310   8.362 -1.9414  0.3736  0.1737
 4228TIP3   OH236878   6.603   3.200   9.249  0.6771 -0.4311 -0.4214
 4228TIP3    H136879   6.608   3.136   9.179 -1.0372 -0.9435 -0.1261
 4228TIP3    H236880   6.692   3.234   9.258  1.0277 -0.7006 -2.4858
 4229TIP3   OH236881   7.095   7.475   6.869  0.2858  0.0071 -0.5940
 4229TIP3    H136882   7.132   7.389   6.891 -0.5082  0.1926  1.7515
 4229TIP3    H236883   7.005   7.470   6.900 -0.3569  1.0413 -2.2420
 4230TIP3   OH236884   1.119   7.349   7.483  0.8353 -0.7133  0.2854
 4230TIP3    H136885   1.066   7.270   7.496  0.9708 -0.8275  0.1403
 4230TIP3    H236886   1.164   7.361   7.566 -0.0082 -0.1784  0.6740
 4231TIP3   OH236887   6.150   3.442   9.543  0.1240 -0.4611  0.6797
 4231TIP3    H136888   6.156   3.424   9.637  1.1109 -1.6941  0.4044
 4231TIP3    H236889   6.113   3.530   9.538  0.4366 -0.2096  2.2389
 4232TIP3   OH236890   3.877   1.935   9.060  0.3953  0.5683  0.2023
 4232TIP3    H136891   3.946   1.926   8.994 -0.2021 -0.1452 -0.3487
 4232TIP3    H236892   3.884   1.856   9.113 -1.5383 -0.8112 -1.4002
 4233TIP3   OH236893   1.828   2.862   9.170 -0.5654  0.0967  0.0025
 4233TIP3    H136894   1.878   2.921   9.114  1.0082 -1.1157  0.0528
 4233TIP3    H236895   1.790   2.918   9.238 -0.3035  1.2161 -0.7576
 4234TIP3   OH236896   7.501   4.565   8.566 -0.0793  0.2677 -0.3490
 4234TIP3    H136897   7.466   4.545   8.480  0.0359  1.4574 -0.6871
 4234TIP3    H236898   7.497   4.661   8.573  1.1301  0.2919  0.4365
 4235TIP3   OH236899   2.402   1.258   8.570 -0.4099 -0.5165  0.4390
 4235TIP3    H136900   2.380   1.264   8.477  0.0093  0.2633  0.3808
 4235TIP3    H236901   2.456   1.336   8.587  0.6886 -1.3804  1.0170
 4236TIP3   OH236902   5.650   7.557   7.845  0.0015 -0.4197 -0.0490
 4236TIP3    H136903   5.644   7.649   7.872  1.9050 -0.1090 -0.5274
 4236TIP3    H236904   5.635   7.558   7.751  0.8825 -0.4581 -0.2000
 4237TIP3   OH236905   4.339   3.585   7.268  0.1348 -0.7095  0.4518
 4237TIP3    H136906   4.399   3.514   7.245 -0.2557 -0.5574 -1.1598
 4237TIP3    H236907   4.396   3.659   7.289  0.5462 -1.4672  2.1668
 4238TIP3   OH236908   5.163   7.018   9.724  0.6480 -0.0086 -0.7833
 4238TIP3    H136909   5.069   7.018   9.744  1.0713 -0.4942  1.5381
 4238TIP3    H236910   5.183   7.109   9.703  0.0312  0.6051  1.0530
 4239TIP3   OH236911   5.483   1.775   7.710 -0.1757 -0.4916 -0.0656
 4239TIP3    H136912   5.421   1.767   7.783 -0.5841 -0.1757 -0.3778
 4239TIP3    H236913   5.432   1.811   7.638  0.1933 -0.9379 -0.5611
 4240TIP3   OH236914   6.422   0.311   9.054  0.0514 -0.1779 -0.3481
 4240TIP3    H136915   6.384   0.320   8.966 -0.0969 -0.0941 -0.2743
 4240TIP3    H236916   6.348   0.294   9.111  0.1169  0.0573 -0.1922
 4241TIP3   OH236917   6.286   1.491   7.902 -0.4098 -0.5191  0.5558
 4241TIP3    H136918   6.241   1.439   7.968  0.3372 -1.4005  0.3987
 4241TIP3    H236919   6.233   1.571   7.893  0.8101  0.8312  4.0314
 4242TIP3   OH236920   5.746   6.299   7.142 -0.0745  0.0194  0.3595
 4242TIP3    H136921   5.660   6.266   7.167 -0.3460  0.7630  0.4329
 4242TIP3    H236922   5.784   6.230   7.088 -1.2692  0.2483 -0.7973
 4243TIP3   OH236923   1.475   2.586   7.380 -0.0731  0.1209 -0.2782
 4243TIP3    H136924   1.391   2.563   7.341 -0.0623  0.8975 -0.7686
 4243TIP3    H236925   1.503   2.506   7.425 -1.5061  0.1181  0.6732
 4244TIP3   OH236926   3.054   3.731   9.468 -0.0843  0.2608 -0.7158
 4244TIP3    H136927   3.127   3.786   9.495 -0.2428  1.4613 -2.5784
 4244TIP3    H236928   3.092   3.643   9.460  1.1322  0.8423 -1.5196
 4245TIP3   OH236929   4.342   4.120   7.271 -1.0138 -0.2272  0.2353
 4245TIP3    H136930   4.408   4.100   7.337 -1.6107 -0.2652  0.8236
 4245TIP3    H236931   4.365   4.064   7.197  1.0192  1.4205 -0.4903
 4246TIP3   OH236932   6.628   0.597   9.393  0.0991  0.9672  1.1491
 4246TIP3    H136933   6.552   0.548   9.424 -1.1993  1.3767 -1.1825
 4246TIP3    H236934   6.610   0.687   9.418  0.0851  0.9766  1.1052
 4247TIP3   OH236935   1.918   7.212   7.638 -0.1832  0.3246  0.2558
 4247TIP3    H136936   2.003   7.199   7.596 -0.9032 -0.9380 -0.8801
 4247TIP3    H236937   1.936   7.203   7.732  0.8554 -0.3913  0.0002
 4248TIP3   OH236938   2.893   3.532   7.681  0.0687 -0.7958  0.0830
 4248TIP3    H136939   2.809   3.487   7.679 -0.8120  0.7363  0.5068
 4248TIP3    H236940   2.911   3.545   7.774 -1.0884  2.0479  0.0244
 4249TIP3   OH236941   7.351   0.959   8.048  0.0619 -0.1122 -0.6897
 4249TIP3    H136942   7.410   0.970   7.974  1.6967  0.5859  0.6640
 4249TIP3    H236943   7.268   0.999   8.020  0.7522  0.4428 -1.9896
 4250TIP3   OH236944   4.256   0.530   9.113  0.0136 -0.4485  0.3810
 4250TIP3    H136945   4.204   0.466   9.065 -1.3677  0.0699  1.1475
 4250TIP3    H236946   4.289   0.589   9.045  0.5084 -1.3932 -0.2224
 4251TIP3   OH236947   5.243   5.283  10.061 -0.1031  0.0393 -0.4326
 4251TIP3    H136948   5.260   5.335  10.139 -0.7833  0.1498 -0.3605
 4251TIP3    H236949   5.315   5.305  10.002  0.3762  0.0097  0.1274
 4252TIP3   OH236950   0.451   6.287   8.398 -0.2898 -0.2072 -0.3411
 4252TIP3    H136951   0.504   6.212   8.372 -0.6413 -0.3910 -0.5217
 4252TIP3    H236952   0.473   6.355   8.334  0.8124  0.1914  0.4304
 4253TIP3   OH236953   6.984   0.901   9.314 -0.0952  0.2887 -0.6559
 4253TIP3    H136954   7.073   0.881   9.343  0.0732  2.0232  0.1633
 4253TIP3    H236955   6.927   0.868   9.384 -0.0025  0.3925 -0.5314
 4254TIP3   OH236956   2.597   3.593   8.597  0.2081  0.0706  0.5200
 4254TIP3    H136957   2.522   3.632   8.551  0.4101  1.2149  1.1174
 4254TIP3    H236958   2.558   3.528   8.655 -0.3620  0.8254  0.9994
 4255TIP3   OH236959   6.075   2.359   7.797  0.0724 -0.0964 -0.6206
 4255TIP3    H136960   6.128   2.347   7.876  1.5334  1.2227 -1.3378
 4255TIP3    H236961   6.108   2.294   7.735  2.7555  2.2751 -1.9272
 4256TIP3   OH236962   4.939   1.990   9.392 -0.2702 -0.4153  0.3809
 4256TIP3    H136963   4.885   1.924   9.436  0.2550 -0.2438  1.3117
 4256TIP3    H236964   5.029   1.965   9.413 -0.0696  1.7188  2.5104
 4257TIP3   OH236965   1.576   4.685   7.846  0.3120  0.2745 -0.4097
 4257TIP3    H136966   1.510   4.638   7.795 -1.2727  0.2009  1.5716
 4257TIP3    H236967   1.640   4.715   7.782 -1.6317  0.3078 -2.4348
 4258TIP3   OH236968   2.370   3.862   8.507  0.8149  0.3270 -0.1256
 4258TIP3    H136969   2.318   3.841   8.429  1.0481  0.5999 -0.3599
 4258TIP3    H236970   2.315   3.922   8.557  1.1384  1.1063 -0.6750
 4259TIP3   OH236971   4.412   5.613   9.793  0.1374  0.1627  0.2131
 4259TIP3    H136972   4.492   5.649   9.754 -0.7339 -0.0189 -1.8577
 4259TIP3    H236973   4.354   5.689   9.803  0.0618  0.0813  0.3950
 4260TIP3   OH236974   6.466   4.916   8.225  0.8858  0.3085 -0.2578
 4260TIP3    H136975   6.525   4.964   8.284  0.8175 -0.4265  0.4367
 4260TIP3    H236976   6.525   4.864   8.170  0.9076 -0.7042  0.6802
 4261TIP3   OH236977   2.768   0.208   9.228  0.0567  0.2790 -0.2786
 4261TIP3    H136978   2.790   0.208   9.135  0.7850 -0.9523 -0.1173
 4261TIP3    H236979   2.852   0.216   9.273  0.0586 -2.3419  0.3024
 4262TIP3   OH236980   6.448   4.094   9.526  0.2776 -0.2407  0.6649
 4262TIP3    H136981   6.381   4.126   9.587 -1.1278 -0.0489 -0.9142
 4262TIP3    H236982   6.529   4.136   9.555 -0.7344  1.4394  1.1829
 4263TIP3   OH236983   4.184   4.765  10.066  0.2505 -0.0712  0.0892
 4263TIP3    H136984   4.136   4.683  10.076 -1.2317  0.9854  3.0975
 4263TIP3    H236985   4.117   4.829  10.041  0.3583  1.0137  2.2630
 4264TIP3   OH236986   1.474   3.578   9.170 -0.4595  0.2403 -0.2681
 4264TIP3    H136987   1.526   3.498   9.159  0.3245  0.8384 -1.0649
 4264TIP3    H236988   1.461   3.585   9.264  0.7885 -0.0143 -0.0597
 4265TIP3   OH236989   6.609   1.773   8.763  0.1713  0.3043  0.3281
 4265TIP3    H136990   6.666   1.847   8.743  0.4421  0.6257  2.1267
 4265TIP3    H236991   6.637   1.704   8.703  1.9439  0.6947  0.6547
 4266TIP3   OH236992   1.110   7.137   9.386 -0.1877 -0.1699 -0.2086
 4266TIP3    H136993   1.153   7.125   9.471  0.2236  1.8703 -0.0721
 4266TIP3    H236994   1.045   7.067   9.382 -0.2014 -0.3387  1.7941
 4267TIP3   OH236995   6.169   2.772   8.467  0.2900 -0.5320 -0.5053
 4267TIP3    H136996   6.205   2.834   8.531 -2.1720 -0.1834  0.6841
 4267TIP3    H236997   6.234   2.702   8.462  1.9997  0.9442 -0.0189
 4268TIP3   OH236998   7.404   3.423   7.473 -0.3194 -0.0791 -0.5196
 4268TIP3    H136999   7.487   3.457   7.505 -0.9919 -0.2071  1.4575
 4268TIP3    H237000   7.344   3.430   7.547 -1.6462 -1.5379 -1.3820
 4269TIP3   OH237001   0.313   5.890   9.599 -0.4778 -0.1926 -0.3228
 4269TIP3    H137002   0.331   5.820   9.537 -1.2773  1.1353 -2.1337
 4269TIP3    H237003   0.218   5.897   9.601 -0.4587 -0.0354  0.8884
 4270TIP3   OH237004   0.353   1.830   8.326 -0.3964 -0.0804 -0.1744
 4270TIP3    H137005   0.281   1.819   8.388 -1.3843  0.1751 -1.2474
 4270TIP3    H237006   0.428   1.792   8.370 -1.4174 -1.3572  0.5376
 4271TIP3   OH237007   6.174   1.926   8.597  0.0801  0.0109  0.3428
 4271TIP3    H137008   6.085   1.919   8.632  0.5736 -0.6491  1.5041
 4271TIP3    H237009   6.172   1.876   8.516 -0.4058 -0.6623  0.7664
 4272TIP3   OH237010   7.192   4.864   8.800 -0.7137  0.0154  0.0323
 4272TIP3    H137011   7.287   4.879   8.800 -0.7204  0.1012  0.7832
 4272TIP3    H237012   7.181   4.781   8.753 -0.4276  0.8913 -1.6390
 4273TIP3   OH237013   1.502   2.343   7.494 -0.0661  0.1792 -0.3744
 4273TIP3    H137014   1.422   2.350   7.546 -1.0540 -1.6711 -1.5201
 4273TIP3    H237015   1.485   2.271   7.434  1.4427  1.4786 -2.5077
 4274TIP3   OH237016   7.146   1.781   9.047  0.0589 -0.3591 -0.1019
 4274TIP3    H137017   7.187   1.730   8.977  1.9414  3.5789 -2.1954
 4274TIP3    H237018   7.052   1.770   9.033  0.3184 -3.7187  0.1108
 4275TIP3   OH237019   0.826   6.699   7.727  0.6770  0.4933 -0.0405
 4275TIP3    H137020   0.892   6.714   7.795 -0.6404 -1.7515  1.9130
 4275TIP3    H237021   0.750   6.750   7.756  0.6987  1.0444 -0.9097
 4276TIP3   OH237022   6.038   2.580   8.639 -0.4410  0.1334 -0.9229
 4276TIP3    H137023   6.094   2.657   8.624 -2.0518  1.1794 -1.7637
 4276TIP3    H237024   5.949   2.612   8.629 -1.3100 -1.2530  1.4614
 4277TIP3   OH237025   5.480   1.975   7.166  0.1401  0.2004 -0.2705
 4277TIP3    H137026   5.399   1.928   7.148  1.4282 -2.3612  0.1243
 4277TIP3    H237027   5.480   2.048   7.104 -0.7365 -1.8989 -2.9557
 4278TIP3   OH237028   1.866   3.312   9.088  0.3375 -0.4935  0.1043
 4278TIP3    H137029   1.953   3.344   9.112 -0.4908  0.1895  2.4784
 4278TIP3    H237030   1.882   3.224   9.054  2.1528  0.4972 -1.8277
 4279TIP3   OH237031   1.269   1.793   9.517 -0.2290  0.1499  0.5117
 4279TIP3    H137032   1.347   1.747   9.546 -0.1832  1.3484  2.4759
 4279TIP3    H237033   1.212   1.725   9.483  0.7870 -1.0305  1.0937
 4280TIP3   OH237034   0.185   6.692   8.002  0.3382 -0.4922  0.3426
 4280TIP3    H137035   0.128   6.769   7.994  1.5882  0.4512  0.1783
 4280TIP3    H237036   0.125   6.618   8.008 -0.8975  0.4670  0.1981
 4281TIP3   OH237037   1.270   7.140   7.341 -0.2995 -0.0898  0.0032
 4281TIP3    H137038   1.291   7.184   7.423 -0.5045 -0.6136  0.3431
 4281TIP3    H237039   1.178   7.116   7.349 -0.0399 -1.1238  0.0965
 4282TIP3   OH237040   1.270   1.828   9.088  0.0695 -0.1575 -1.1996
 4282TIP3    H137041   1.220   1.820   9.169  0.9856  0.3253 -0.5660
 4282TIP3    H237042   1.231   1.763   9.030 -1.0800 -0.0122 -0.6313
 4283TIP3   OH237043   5.439   4.943   6.895  0.1710  0.4409 -0.2210
 4283TIP3    H137044   5.428   4.849   6.881 -0.4629  0.2220  1.5392
 4283TIP3    H237045   5.422   4.982   6.809  0.0611 -1.0107 -0.8937
 4284TIP3   OH237046   0.877   0.534   8.492  0.5873 -0.3759  0.4045
 4284TIP3    H137047   0.936   0.567   8.560 -0.1496 -0.3331  1.0403
 4284TIP3    H237048   0.804   0.496   8.541 -0.7172  1.0514 -0.3532
 4285TIP3   OH237049   2.190   5.647   9.321  0.3385  0.6945  0.8886
 4285TIP3    H137050   2.216   5.735   9.293 -0.0522  1.0098  1.5063
 4285TIP3    H237051   2.132   5.617   9.251  0.1812  1.0737  0.8505
 4286TIP3   OH237052   4.834   6.865   7.526 -0.5461  0.6467 -0.1793
 4286TIP3    H137053   4.765   6.906   7.578 -0.2460  1.7835 -0.6422
 4286TIP3    H237054   4.812   6.887   7.436 -0.3592 -0.2229 -0.4437
 4287TIP3   OH237055   3.976   2.480   8.354 -0.0471 -0.1746  0.2741
 4287TIP3    H137056   4.037   2.469   8.427 -0.7614  0.4765  0.9845
 4287TIP3    H237057   3.980   2.573   8.333 -1.5019  0.0752  0.9803
 4288TIP3   OH237058   4.674   5.519   9.440  0.0982  0.1848  0.3520
 4288TIP3    H137059   4.724   5.438   9.445  0.4254  0.4661  2.9014
 4288TIP3    H237060   4.595   5.495   9.391  1.0283 -1.1812 -0.5408
 4289TIP3   OH237061   4.612   2.455   8.053 -0.8160 -0.4563 -0.4054
 4289TIP3    H137062   4.558   2.418   7.983 -1.7419  0.5893 -0.2742
 4289TIP3    H237063   4.595   2.549   8.049  1.7715  0.0625 -0.9802
 4290TIP3   OH237064   5.178   4.785   7.910 -0.6259 -0.1531 -0.2151
 4290TIP3    H137065   5.105   4.723   7.911 -3.0638  2.4921  2.4721
 4290TIP3    H237066   5.255   4.730   7.891 -2.8153 -3.6131 -0.0008
 4291TIP3   OH237067   1.125   1.362   8.811  0.3613 -0.6772 -0.2792
 4291TIP3    H137068   1.054   1.392   8.754  1.1668  1.9137 -0.0246
 4291TIP3    H237069   1.182   1.310   8.754  0.3464  0.5972 -1.4823
 4292TIP3   OH237070   3.953   6.335   9.101  0.0904 -0.3398  0.2308
 4292TIP3    H137071   3.979   6.396   9.170 -1.9129  0.7879  0.0671
 4292TIP3    H237072   3.995   6.369   9.022 -0.8873  0.8008  0.1707
 4293TIP3   OH237073   3.391   0.208   8.422 -0.0018  0.1224  0.0424
 4293TIP3    H137074   3.474   0.167   8.447 -0.0499 -1.2810 -1.9135
 4293TIP3    H237075   3.413   0.268   8.352 -0.8365 -1.9677 -2.1587
 4294TIP3   OH237076   7.550   5.049   7.568 -0.1086 -0.0485  0.2583
 4294TIP3    H137077   7.476   4.992   7.588  0.5327 -0.8999  0.2156
 4294TIP3    H237078   7.620   4.990   7.542  0.3078  0.8038 -0.6173
 4295TIP3   OH237079   4.753   3.666   8.764  0.3787  0.5245 -0.6409
 4295TIP3    H137080   4.775   3.576   8.742 -2.0484 -0.0468 -1.0897
 4295TIP3    H237081   4.715   3.701   8.683  3.2866  2.7658 -1.2133
 4296TIP3   OH237082   2.452   4.444   9.720 -0.3288  0.0278 -0.0030
 4296TIP3    H137083   2.506   4.472   9.646 -1.4786  0.0045 -0.8793
 4296TIP3    H237084   2.404   4.523   9.745  0.7976  0.3053  1.4199
 4297TIP3   OH237085   3.393   6.368   8.147 -0.2337  0.5759 -0.3186
 4297TIP3    H137086   3.424   6.294   8.200  1.6280  0.6093 -1.2447
 4297TIP3    H237087   3.359   6.327   8.068  1.4378  0.6758 -1.1362
 4298TIP3   OH237088   6.226   1.737   7.841  0.3853  0.5395  0.9078
 4298TIP3    H137089   6.200   1.825   7.814  2.4017  1.0679  0.5350
 4298TIP3    H237090   6.321   1.734   7.827  0.2445 -2.0316 -0.0347
 4299TIP3   OH237091   0.231   1.849   7.785  0.6732 -0.3308 -0.0294
 4299TIP3    H137092   0.236   1.944   7.795  1.2275 -0.0503 -2.4822
 4299TIP3    H237093   0.141   1.828   7.807  0.7057  0.6364  1.1954
 4300TIP3   OH237094   7.294   6.491   8.624 -0.2489  0.5006  0.3404
 4300TIP3    H137095   7.373   6.522   8.667  1.8314 -2.2337 -1.1976
 4300TIP3    H237096   7.250   6.436   8.689  0.2828  0.2670  0.5015
 4301TIP3   OH237097   1.072   3.115   7.021 -0.2540 -0.2840  0.4853
 4301TIP3    H137098   1.072   3.207   7.045 -2.1116 -0.3050  0.7209
 4301TIP3    H237099   1.022   3.110   6.940  1.5916 -0.8680 -0.6863
 4302TIP3   OH237100   4.471   4.131   9.376 -0.0138 -0.1782  0.2643
 4302TIP3    H137101   4.541   4.066   9.375 -0.1960 -0.3730 -0.3426
 4302TIP3    H237102   4.466   4.161   9.285  0.5864  1.2389  0.6556
 4303TIP3   OH237103   0.891   1.462   8.693 -0.6053 -0.3781  0.2057
 4303TIP3    H137104   0.810   1.508   8.675 -1.1076 -1.5381 -0.6117
 4303TIP3    H237105   0.958   1.510   8.644 -1.0406 -0.2490 -0.2663
 4304TIP3   OH237106   1.117   0.310   9.254 -0.0721  0.2752  0.4986
 4304TIP3    H137107   1.077   0.386   9.297  1.2948  0.4676  1.4822
 4304TIP3    H237108   1.161   0.345   9.177 -2.5526 -0.0743 -1.1879
 4305TIP3   OH237109   3.952   1.556   8.653  0.0163  0.4693  0.1535
 4305TIP3    H137110   3.995   1.563   8.738 -0.7661 -1.6069  0.7644
 4305TIP3    H237111   3.860   1.577   8.670 -0.4732 -1.4892  0.2099
 4306TIP3   OH237112   5.909   0.213   7.889 -0.2492  0.6994  0.4784
 4306TIP3    H137113   5.993   0.169   7.899 -1.1393 -0.7766  2.0546
 4306TIP3    H237114   5.930   0.306   7.900  1.6511  0.8067 -2.8496
 4307TIP3   OH237115   6.537   1.994   8.978  0.3989  0.2505 -0.3560
 4307TIP3    H137116   6.629   1.985   8.953  0.3286  2.0639 -1.4347
 4307TIP3    H237117   6.489   1.989   8.896 -0.8084 -3.2169  0.3751
 4308TIP3   OH237118   5.955   3.907   7.482  0.7488 -0.0830 -0.3216
 4308TIP3    H137119   5.965   4.002   7.479 -1.0347  0.2841  2.4330
 4308TIP3    H237120   6.030   3.877   7.533  0.1686  0.1107  0.6623
 4309TIP3   OH237121   2.311   3.196   8.564 -0.4435 -0.5389 -0.6210
 4309TIP3    H137122   2.247   3.167   8.499  0.6741 -0.6094 -1.7298
 4309TIP3    H237123   2.280   3.158   8.647 -2.2538  0.1044 -0.9607
 4310TIP3   OH237124   7.169   0.520   7.713  0.0683 -0.1260 -0.6055
 4310TIP3    H137125   7.083   0.530   7.672 -0.6158 -0.1985  0.7587
 4310TIP3    H237126   7.180   0.599   7.766 -1.3989 -2.2143  3.1267
 4311TIP3   OH237127   0.449   4.627   8.609 -0.3498  0.7177  0.1235
 4311TIP3    H137128   0.366   4.579   8.609  0.4103 -0.6368 -0.5218
 4311TIP3    H237129   0.448   4.675   8.692 -1.1916 -0.3253  0.7487
 4312TIP3   OH237130   3.593   4.038   8.376 -0.0188 -0.0019 -0.0350
 4312TIP3    H137131   3.511   4.063   8.418 -0.6520  1.0481 -1.8137
 4312TIP3    H237132   3.650   4.114   8.388 -0.1781  0.2732 -0.9805
 4313TIP3   OH237133   6.144   2.990   8.068 -0.0455  0.1844 -0.0457
 4313TIP3    H137134   6.188   3.033   8.141  2.4327  0.9221 -1.8434
 4313TIP3    H237135   6.182   2.902   8.066  0.5053  0.4318 -0.8966
 4314TIP3   OH237136   5.727   4.027   6.629 -0.0754  0.2784 -0.0564
 4314TIP3    H137137   5.819   4.041   6.651  0.0269  0.4758 -0.5973
 4314TIP3    H237138   5.704   4.101   6.573 -0.5439  0.1856  0.0078
 4315TIP3   OH237139   0.983   4.457   8.328  0.0389 -0.1850 -0.1314
 4315TIP3    H137140   0.988   4.537   8.380 -0.0753 -1.1817  1.4691
 4315TIP3    H237141   0.970   4.387   8.392 -0.5024 -1.4286 -1.5352
 4316TIP3   OH237142   2.734   4.330   9.561 -0.7493  0.1902 -0.7624
 4316TIP3    H137143   2.743   4.371   9.647 -0.7909 -0.4047 -0.4686
 4316TIP3    H237144   2.662   4.377   9.519  0.4911  1.7837 -1.2473
 4317TIP3   OH237145   4.677   7.436   8.516  0.7231  0.0172 -0.1819
 4317TIP3    H137146   4.659   7.487   8.594 -0.3707 -0.8690  0.1768
 4317TIP3    H237147   4.653   7.346   8.539  0.2372 -0.2439 -1.5645
 4318TIP3   OH237148   6.627   0.379   8.468 -0.2131  0.2512 -1.0771
 4318TIP3    H137149   6.591   0.444   8.528  1.7062 -0.9519  1.5342
 4318TIP3    H237150   6.695   0.425   8.420  0.3056  0.5042 -0.1180
 4319TIP3   OH237151   5.078   5.186   9.858 -0.2454  0.0528 -0.1823
 4319TIP3    H137152   5.103   5.255   9.796  1.2501 -1.4929 -1.4170
 4319TIP3    H237153   5.132   5.201   9.935  1.0538 -0.4630 -0.9667
 4320TIP3   OH237154   5.907   4.064   8.376  0.6673  0.1988 -0.5239
 4320TIP3    H137155   5.910   3.969   8.378  3.3996  0.1934 -0.9492
 4320TIP3    H237156   5.915   4.090   8.468 -0.3581  0.0475 -0.3807
 4321TIP3   OH237157   6.651   3.772   7.767 -0.6280 -0.5469 -0.2885
 4321TIP3    H137158   6.658   3.810   7.679  0.9348 -0.3528 -0.1142
 4321TIP3    H237159   6.615   3.842   7.821 -0.9444 -0.4422 -0.6289
 4322TIP3   OH237160   0.939   3.594   9.552 -0.5443  0.0570  0.7180
 4322TIP3    H137161   1.017   3.614   9.500 -0.9331 -0.1617  0.0293
 4322TIP3    H237162   0.913   3.678   9.589 -0.9311  0.4516 -0.4032
 4323TIP3   OH237163   7.514   2.574   9.649  0.9228 -0.2920 -0.0581
 4323TIP3    H137164   7.527   2.512   9.721  0.6723 -0.0862  0.1656
 4323TIP3    H237165   7.602   2.608   9.630  0.9689 -0.2449  0.2399
 4324TIP3   OH237166   3.327   1.289   8.169 -0.1020  0.0424 -0.4283
 4324TIP3    H137167   3.364   1.321   8.087 -1.1853  1.6591 -0.3295
 4324TIP3    H237168   3.317   1.367   8.224 -1.2345 -0.7005  0.4916
 4325TIP3   OH237169   0.994   3.500   7.813 -0.3287  0.3862 -0.0132
 4325TIP3    H137170   0.991   3.463   7.724 -1.8989  1.6544 -0.5479
 4325TIP3    H237171   1.064   3.564   7.809  0.1873 -0.1770 -0.0766
 4326TIP3   OH237172   6.061   1.979   8.271 -0.0635  0.2400  0.3364
 4326TIP3    H137173   6.087   1.917   8.203 -0.7432 -0.2358  0.5077
 4326TIP3    H237174   6.103   2.062   8.244  2.1945 -0.6205  0.9498
 4327TIP3   OH237175   2.629   3.055   9.110 -0.1271 -0.0123 -0.4664
 4327TIP3    H137176   2.724   3.063   9.101 -0.0959 -2.2831 -3.4740
 4327TIP3    H237177   2.595   3.141   9.084  1.0109  0.9360  0.9536
 4328TIP3   OH237178   3.125   2.797   8.660 -0.5253  0.3197 -0.5874
 4328TIP3    H137179   3.116   2.792   8.565 -0.7651  0.0764 -0.5536
 4328TIP3    H237180   3.048   2.752   8.694 -0.6169  0.7056 -0.2757
 4329TIP3   OH237181   4.906   7.425   8.785 -0.3277  0.2613 -0.0652
 4329TIP3    H137182   4.856   7.507   8.782  0.6515  1.0725  2.8333
 4329TIP3    H237183   4.994   7.450   8.813  0.0462 -1.7558  0.7877
 4330TIP3   OH237184   3.696   5.100   8.834  0.1462 -0.5737  0.4257
 4330TIP3    H137185   3.782   5.097   8.794  0.7915 -0.9600  1.7740
 4330TIP3    H237186   3.646   5.030   8.791  1.0656 -1.5005  0.8321
 4331TIP3   OH237187   6.883   0.429   7.391 -0.1751  0.0223  0.6451
 4331TIP3    H137188   6.799   0.455   7.352  0.3386 -0.1946 -0.6525
 4331TIP3    H237189   6.913   0.507   7.437 -0.0653  0.8089 -0.7164
 4332TIP3   OH237190   4.312   4.415   7.961  0.0020  0.2190 -0.4542
 4332TIP3    H137191   4.371   4.447   8.030 -0.5646  0.2069  0.0428
 4332TIP3    H237192   4.225   4.444   7.989 -0.4548 -1.2417 -0.2892
 4333TIP3   OH237193   6.339   4.113   9.147  0.1192  0.4183  0.7060
 4333TIP3    H137194   6.351   4.054   9.221 -1.1332  0.1726  0.7462
 4333TIP3    H237195   6.401   4.083   9.081  0.0128 -0.4905  1.0052
 4334TIP3   OH237196   0.063   4.739   7.786  0.2965  0.3831 -0.0059
 4334TIP3    H137197   0.157   4.756   7.794  0.0161  2.9739 -1.2792
 4334TIP3    H237198   0.055   4.644   7.798  2.9697  0.1633  0.7751
 4335TIP3   OH237199   0.888   4.183   7.224 -0.1130  0.0488  0.1607
 4335TIP3    H137200   0.922   4.207   7.310 -1.5225 -0.7552  0.9891
 4335TIP3    H237201   0.946   4.114   7.193  0.6064  0.5838  0.2869
 4336TIP3   OH237202   2.032   3.671   9.301  0.2293  0.4356 -0.2406
 4336TIP3    H137203   2.013   3.666   9.207 -1.5391 -0.7144  0.1496
 4336TIP3    H237204   1.967   3.733   9.335 -0.7201 -0.9667  0.5815
 4337TIP3   OH237205   4.520   0.184   7.643  0.0727 -0.2175  0.8393
 4337TIP3    H137206   4.549   0.100   7.609  1.7002  0.6238 -0.0114
 4337TIP3    H237207   4.596   0.242   7.630  0.0245  0.7055  3.9513
 4338TIP3   OH237208   7.473   7.581   8.101  0.2518  0.2418 -0.2614
 4338TIP3    H137209   7.567   7.593   8.117  0.2520 -0.3605  0.2064
 4338TIP3    H237210   7.440   7.670   8.088  0.9138  0.4492 -0.6094
 4339TIP3   OH237211   0.717   3.205   8.481 -0.1238  0.3862  0.3163
 4339TIP3    H137212   0.637   3.183   8.433  0.1520  1.7778 -0.8553
 4339TIP3    H237213   0.709   3.299   8.500  0.3001  0.1137  2.0503
 4340TIP3   OH237214   6.753   2.023   8.329  0.1166 -0.0842 -0.3522
 4340TIP3    H137215   6.804   2.080   8.272  2.0108  0.4214  1.7073
 4340TIP3    H237216   6.732   1.946   8.275  1.0307  0.7537 -1.9561
 4341TIP3   OH237217   3.861   4.714   8.334  0.6114  0.7398  0.0297
 4341TIP3    H137218   3.861   4.663   8.253  0.9790  0.6092  0.1140
 4341TIP3    H237219   3.952   4.740   8.347  0.3385  1.9464 -0.3407
 4342TIP3   OH237220   6.989   5.846   6.744 -0.3121 -0.1233  0.4743
 4342TIP3    H137221   6.987   5.942   6.738 -0.4717 -0.0575  1.4475
 4342TIP3    H237222   6.897   5.820   6.749 -0.3045 -0.3959 -0.5495
 4343TIP3   OH237223   0.059   0.575   9.486  0.2125 -0.1928  0.1267
 4343TIP3    H137224  -0.026   0.620   9.490 -0.4180 -1.1563 -1.5339
 4343TIP3    H237225   0.102   0.598   9.568 -1.5114  0.5986  0.8550
 4344TIP3   OH237226   5.593   0.485   8.082  0.2382 -0.3521 -0.2567
 4344TIP3    H137227   5.542   0.561   8.108  0.2760 -0.2736 -0.4101
 4344TIP3    H237228   5.532   0.411   8.086  0.0591 -0.2258 -0.6420
 4345TIP3   OH237229   4.286   6.537   6.932 -0.1519 -0.1810 -0.5355
 4345TIP3    H137230   4.227   6.485   6.877 -0.4095 -0.7450  0.2565
 4345TIP3    H237231   4.352   6.475   6.962 -0.7289 -0.1829  0.8022
 4346TIP3   OH237232   5.469   0.108   9.061  0.1071  0.1960  0.4237
 4346TIP3    H137233   5.557   0.136   9.038  0.0946  0.2841  0.4790
 4346TIP3    H237234   5.439   0.174   9.123 -1.0296  1.6947 -1.6200
 4347TIP3   OH237235   5.138   2.887   8.136  0.6057  0.2154  0.4551
 4347TIP3    H137236   5.141   2.867   8.230 -2.2850  1.4608  0.9350
 4347TIP3    H237237   5.219   2.935   8.118  1.5866 -0.7342  2.0927
 4348TIP3   OH237238   4.343   5.141   8.192 -0.3918  0.3627 -0.2768
 4348TIP3    H137239   4.438   5.139   8.190 -0.3722 -1.2868  0.1694
 4348TIP3    H237240   4.317   5.175   8.106  0.6117 -1.5171 -1.3943
 4349TIP3   OH237241   3.346   7.063   7.304  0.3996  0.3740  0.7185
 4349TIP3    H137242   3.330   7.087   7.396 -1.3568  2.1819  0.0162
 4349TIP3    H237243   3.417   7.121   7.277  0.8568 -0.0974  0.8837
 4350TIP3   OH237244   3.702   3.023   8.404 -0.2450  0.3489  0.4861
 4350TIP3    H137245   3.677   3.015   8.496 -0.3217 -1.4291  0.3393
 4350TIP3    H237246   3.645   2.962   8.358  0.4264  0.5277 -0.6257
 4351TIP3   OH237247   4.582   4.735   9.795 -0.4040 -0.1258 -0.1129
 4351TIP3    H137248   4.502   4.777   9.825 -0.4155 -0.2599  0.0427
 4351TIP3    H237249   4.598   4.666   9.859  0.5904  0.7690  0.6384
 4352TIP3   OH237250   2.304   2.052   9.236 -0.2787  0.0719  0.5362
 4352TIP3    H137251   2.302   1.980   9.173 -0.8320 -1.1298  1.8550
 4352TIP3    H237252   2.248   2.022   9.308 -1.8557  2.5092  0.4378
 4353TIP3   OH237253   5.874   2.190   9.597 -0.3967 -0.5047  0.4359
 4353TIP3    H137254   5.947   2.251   9.601 -0.9156  0.1599  0.0167
 4353TIP3    H237255   5.864   2.171   9.504 -2.0252  1.0053  0.2492
 4354TIP3   OH237256   3.503   6.614   8.449 -0.3498 -0.0395  0.1410
 4354TIP3    H137257   3.551   6.673   8.507 -0.4700 -0.8442  1.1099
 4354TIP3    H237258   3.411   6.624   8.475 -0.6044  0.7384 -1.0000
 4355TIP3   OH237259   4.904   0.061   8.575 -0.1176 -0.7346  0.2195
 4355TIP3    H137260   4.981   0.013   8.607  0.0416  0.1459  1.2273
 4355TIP3    H237261   4.837   0.045   8.642  1.0392  3.3797  2.6991
 4356TIP3   OH237262   5.434   0.643   8.766 -0.4275  0.1979 -0.2158
 4356TIP3    H137263   5.428   0.679   8.854  1.8290 -1.9968  1.0063
 4356TIP3    H237264   5.509   0.688   8.726 -0.5557  0.1846 -0.4776
 4357TIP3   OH237265   1.339   4.778   9.446  0.5188 -0.2057  0.4156
 4357TIP3    H137266   1.281   4.703   9.437  0.6072 -0.3975  1.3248
 4357TIP3    H237267   1.316   4.816   9.531 -0.1251  1.3254 -0.4044
 4358TIP3   OH237268   2.433   2.604   7.754 -0.2464 -0.2008 -1.0746
 4358TIP3    H137269   2.450   2.583   7.662  0.8487 -1.8873 -0.5318
 4358TIP3    H237270   2.392   2.525   7.789  1.4096 -0.4807  0.3887
 4359TIP3   OH237271   7.514   2.395   9.331 -0.3899  0.3380  0.4159
 4359TIP3    H137272   7.441   2.334   9.338 -2.4439  2.3177 -1.8361
 4359TIP3    H237273   7.564   2.365   9.256  0.8283 -0.6282  1.5573
 4360TIP3   OH237274   1.516   4.085   9.298  0.0945 -0.1934  0.2509
 4360TIP3    H137275   1.466   4.005   9.287  2.2288 -1.6125  0.2450
 4360TIP3    H237276   1.560   4.098   9.213  0.0544  0.7927  0.3651
 4361TIP3   OH237277   5.062   5.799   8.403  0.3179 -0.2829 -0.1478
 4361TIP3    H137278   5.068   5.894   8.413  0.2929 -0.3685  0.7119
 4361TIP3    H237279   5.146   5.766   8.435  0.1507 -0.5859 -0.0183
 4362TIP3   OH237280   7.011   2.183   8.414  0.3695 -0.4337  0.2789
 4362TIP3    H137281   6.965   2.194   8.331  1.2102 -0.4730 -0.1960
 4362TIP3    H237282   7.061   2.102   8.403  0.1960 -0.6396  0.9616
 4363TIP3   OH237283   6.853   2.345   7.654 -0.0279 -0.3876  0.2601
 4363TIP3    H137284   6.772   2.346   7.704  0.3633  0.2765  0.8947
 4363TIP3    H237285   6.884   2.436   7.655  0.7962 -0.6550  0.1498
 4364TIP3   OH237286   4.446   1.884   7.673 -0.5804  0.4712 -0.6879
 4364TIP3    H137287   4.466   1.953   7.737 -0.1414  0.0193 -0.3370
 4364TIP3    H237288   4.461   1.802   7.720  0.6144  0.1233 -1.6312
 4365TIP3   OH237289   4.322   1.888   9.164  0.3663 -0.0143  0.1891
 4365TIP3    H137290   4.261   1.894   9.091 -0.1228 -1.8535  0.3897
 4365TIP3    H237291   4.397   1.840   9.129  1.4899  1.7445  0.0985
 4366TIP3   OH237292   2.852   4.825   7.380 -0.2240  0.1022  0.2858
 4366TIP3    H137293   2.922   4.879   7.416  0.1117 -1.0586  1.4573
 4366TIP3    H237294   2.816   4.877   7.309  1.4193  0.9865  0.0513
 4367TIP3   OH237295   3.055   3.965   7.590  0.1379  0.7383  0.4104
 4367TIP3    H137296   2.982   3.903   7.590  1.9583 -1.5327 -0.0128
 4367TIP3    H237297   3.069   3.986   7.498  2.1633 -1.6566  0.0675
 4368TIP3   OH237298   5.332   3.752   9.617 -0.1085  0.1761  0.1032
 4368TIP3    H137299   5.368   3.748   9.706  1.0984  2.5898 -0.1849
 4368TIP3    H237300   5.264   3.686   9.615 -0.6034  0.4880  3.0305
 4369TIP3   OH237301   4.018   4.102   9.776  0.0512  0.0760 -0.7535
 4369TIP3    H137302   4.077   4.127   9.705  0.1344 -2.2614 -1.6055
 4369TIP3    H237303   4.076   4.068   9.845 -0.0647  1.8580  0.2823
 4370TIP3   OH237304   2.016   7.164   9.495 -0.2201  0.0668  0.6479
 4370TIP3    H137305   2.111   7.173   9.499 -0.0176 -2.1255  3.2575
 4370TIP3    H237306   1.999   7.121   9.411  0.8346  1.9930 -0.6342
 4371TIP3   OH237307   6.341   5.411   7.228 -0.0227  0.3301  0.4253
 4371TIP3    H137308   6.317   5.340   7.168  0.2860  1.2507 -0.8109
 4371TIP3    H237309   6.288   5.485   7.201  0.4087  0.8844  1.0527
 4372TIP3   OH237310   5.574   0.902   7.569  0.0322 -0.1234 -0.0726
 4372TIP3    H137311   5.478   0.912   7.574  0.0491  1.0504 -1.3548
 4372TIP3    H237312   5.589   0.863   7.483  0.5829 -3.4613  1.3882
 4373TIP3   OH237313   3.731   3.705   9.631 -0.2368 -0.0176  0.1342
 4373TIP3    H137314   3.742   3.611   9.618  1.0836 -0.0366  1.1551
 4373TIP3    H237315   3.783   3.746   9.561  1.2849 -0.0947  1.1612
 4374TIP3   OH237316   2.232   1.313   6.767  0.2952 -0.2293 -0.7899
 4374TIP3    H137317   2.156   1.278   6.720  0.0356 -1.7535  0.7022
 4374TIP3    H237318   2.303   1.253   6.746  0.7980  0.4736 -1.1534
 4375TIP3   OH237319   3.916   7.377   8.604  0.2163  0.0664  0.2099
 4375TIP3    H137320   3.985   7.315   8.576 -0.4357 -0.1923 -0.8873
 4375TIP3    H237321   3.848   7.322   8.641 -1.0398 -0.1067 -2.1279
 4376TIP3   OH237322   3.980   5.902   9.382  0.4113 -0.0449  1.1510
 4376TIP3    H137323   4.021   5.824   9.344 -0.0991 -0.0524  0.5906
 4376TIP3    H237324   3.889   5.875   9.397 -0.3625  1.0886 -1.0986
 4377TIP3   OH237325   5.829   3.388   9.377  0.4848 -0.2756 -0.1037
 4377TIP3    H137326   5.774   3.411   9.453 -0.8434  1.1373 -1.4171
 4377TIP3    H237327   5.911   3.434   9.392  1.4577 -2.4613  1.9225
 4378TIP3   OH237328   7.678   7.310   8.102 -0.3067 -0.5333  0.3830
 4378TIP3    H137329   7.668   7.324   8.196  0.3350  0.2599  0.3468
 4378TIP3    H237330   7.615   7.242   8.081 -1.0449 -0.1341  1.2421
 4379TIP3   OH237331   5.267   2.776   7.409  0.0614  0.2239  0.2822
 4379TIP3    H137332   5.327   2.744   7.342 -2.3513  0.5025 -2.1462
 4379TIP3    H237333   5.304   2.861   7.434  0.7789  0.3285 -1.0366
 4380TIP3   OH237334   2.297   2.293   9.423 -0.1832 -0.3983 -0.1520
 4380TIP3    H137335   2.284   2.366   9.362 -0.4825  0.2160  0.6220
 4380TIP3    H237336   2.284   2.215   9.371  1.0895  0.0795 -1.2309
 4381TIP3   OH237337   5.091   3.367   9.800 -0.1049  0.4239 -0.0180
 4381TIP3    H137338   5.005   3.326   9.787 -0.5607  0.8598  1.3573
 4381TIP3    H237339   5.135   3.309   9.862  0.9172 -0.2087 -1.3133
 4382TIP3   OH237340   3.104   0.818   9.294 -0.6845  0.0172  0.1522
 4382TIP3    H137341   3.051   0.741   9.270  2.3664 -2.0779 -0.4996
 4382TIP3    H237342   3.141   0.848   9.211 -1.3510  1.9131  0.4872
 4383TIP3   OH237343   1.609   3.720   8.940 -0.7837 -0.7910 -0.2348
 4383TIP3    H137344   1.704   3.736   8.943 -0.7843 -0.6962 -0.6393
 4383TIP3    H237345   1.588   3.685   9.026 -0.1907 -1.8060 -0.4854
 4384TIP3   OH237346   2.408   5.721   8.218  0.1184  0.0555  0.1354
 4384TIP3    H137347   2.441   5.810   8.230  0.1340  0.1272 -0.4241
 4384TIP3    H237348   2.319   5.732   8.185 -0.5393 -0.1389  1.7380
 4385TIP3   OH237349   2.187   7.320   9.183 -0.0479  0.3324  0.0524
 4385TIP3    H137350   2.200   7.227   9.196  1.5282  0.5670  0.4015
 4385TIP3    H237351   2.193   7.332   9.088 -1.2010 -0.0209 -0.0816
 4386TIP3   OH237352   3.847   0.185   7.348 -0.3308  0.2663 -0.0587
 4386TIP3    H137353   3.807   0.110   7.305  0.1801  0.3707 -0.7238
 4386TIP3    H237354   3.837   0.166   7.442 -1.1705 -0.1055 -0.2070
 4387TIP3   OH237355   7.580   5.428   7.220 -0.3125 -0.0606 -0.3697
 4387TIP3    H137356   7.624   5.343   7.212 -0.3980  0.0398 -2.2551
 4387TIP3    H237357   7.621   5.469   7.296  0.7702 -1.1792 -0.3167
 4388TIP3   OH237358   6.295   1.208   8.884 -0.1027 -0.9690 -0.0590
 4388TIP3    H137359   6.273   1.301   8.888 -0.8224 -1.1642  0.9241
 4388TIP3    H237360   6.284   1.184   8.792  1.2952  0.1847 -0.5622
 4389TIP3   OH237361   4.216   6.604   7.874  0.3207 -0.3156 -0.0611
 4389TIP3    H137362   4.227   6.639   7.962 -1.2860 -1.3982  0.6282
 4389TIP3    H237363   4.211   6.681   7.817 -2.2691  0.6092  1.2764
 4390TIP3   OH237364   1.827   6.468   8.801  0.2611 -0.4404 -0.2416
 4390TIP3    H137365   1.835   6.421   8.883 -1.8379  1.4114  1.1712
 4390TIP3    H237366   1.746   6.435   8.762 -1.6682  2.2320  1.1362
 4391TIP3   OH237367   5.812   1.266   8.448 -0.0894 -0.8000 -0.0272
 4391TIP3    H137368   5.874   1.295   8.381 -1.1048 -0.3851 -0.8163
 4391TIP3    H237369   5.744   1.333   8.448 -0.6590 -1.3608  0.6670
 4392TIP3   OH237370   0.370   4.851   7.250  0.7540 -0.1258  0.3887
 4392TIP3    H137371   0.288   4.808   7.227  0.4166  0.4890  0.4372
 4392TIP3    H237372   0.364   4.866   7.345  0.9998 -0.2408  0.4244
 4393TIP3   OH237373   4.627   2.298   8.268 -0.2019  0.2967  0.1958
 4393TIP3    H137374   4.721   2.293   8.282 -0.2449 -0.7891  0.1969
 4393TIP3    H237375   4.616   2.335   8.181  0.1949  1.4912  0.6396
 4394TIP3   OH237376   4.449   7.347   9.411  0.1705 -0.6723 -0.0077
 4394TIP3    H137377   4.374   7.299   9.446 -0.6274  1.0181  0.6820
 4394TIP3    H237378   4.491   7.385   9.489 -0.0819  0.9429 -0.6330
 4395TIP3   OH237379   2.869   5.737   7.089 -0.1143  0.1088  0.2113
 4395TIP3    H137380   2.832   5.765   7.005  0.7092 -0.1203 -0.2389
 4395TIP3    H237381   2.961   5.763   7.085 -0.0689  0.1243  1.0600
 4396TIP3   OH237382   1.902   7.233   7.143 -0.1744 -0.4673 -0.0310
 4396TIP3    H137383   1.953   7.308   7.113  0.2923 -1.3016 -1.4099
 4396TIP3    H237384   1.864   7.196   7.063 -2.9930  0.1112  0.9215
 4397TIP3   OH237385   5.207   2.169   8.799  0.5963  0.5734  0.0746
 4397TIP3    H137386   5.186   2.262   8.807 -0.0348  0.4658 -0.2827
 4397TIP3    H237387   5.127   2.124   8.827  0.1510  0.1535 -1.7335
 4398TIP3   OH237388   1.849   0.358   8.263 -0.1301 -0.6290 -0.3653
 4398TIP3    H137389   1.874   0.425   8.327  0.5965  1.6756 -2.9016
 4398TIP3    H237390   1.758   0.337   8.284 -0.9354  2.4019 -0.4449
 4399TIP3   OH237391   7.205   5.407   7.951  0.1723  0.0332  0.2531
 4399TIP3    H137392   7.120   5.447   7.969  0.3303  0.5287 -0.0925
 4399TIP3    H237393   7.257   5.477   7.913  1.3720  0.2693  2.2093
 4400TIP3   OH237394   5.529   1.339   8.734 -0.0551 -0.0464 -0.1262
 4400TIP3    H137395   5.454   1.358   8.791 -0.4254 -0.5296 -0.4474
 4400TIP3    H237396   5.514   1.250   8.703  0.0398  0.2818 -1.1341
 4401TIP3   OH237397   7.567   7.154   7.646 -0.2823  0.4903 -0.0747
 4401TIP3    H137398   7.597   7.238   7.612  0.7545 -0.3203 -1.2516
 4401TIP3    H237399   7.487   7.175   7.694 -0.9309  1.9307 -1.6739
 4402TIP3   OH237400   5.878   1.453   8.230 -0.1894 -0.0567  0.3720
 4402TIP3    H137401   5.960   1.442   8.278  0.3188  1.0627 -0.2054
 4402TIP3    H237402   5.861   1.547   8.232  0.0618  0.1028 -1.9444
 4403TIP3   OH237403   7.311   4.168   8.849 -0.0665  0.0718  0.0444
 4403TIP3    H137404   7.374   4.096   8.851  0.2143  0.3199  1.4190
 4403TIP3    H237405   7.247   4.145   8.918 -2.1172 -0.6903 -1.9656
 4404TIP3   OH237406   4.599   2.160   8.871  0.0381 -0.0121 -0.1254
 4404TIP3    H137407   4.679   2.210   8.856  0.7122 -1.3026 -1.0030
 4404TIP3    H237408   4.598   2.145   8.966  2.0899 -1.9030 -0.3166
 4405TIP3   OH237409   7.653   4.607   7.067 -0.1518  0.2995  0.4052
 4405TIP3    H137410   7.644   4.550   6.991  2.6695 -0.8332  0.7866
 4405TIP3    H237411   7.570   4.597   7.114 -0.9081 -1.0976 -1.1181
 4406TIP3   OH237412   2.061   4.273   8.529  0.0679 -0.1028  0.1573
 4406TIP3    H137413   2.135   4.307   8.479  0.0074 -0.4586 -0.1853
 4406TIP3    H237414   1.999   4.243   8.462 -1.1658  1.7666  0.3718
 4407TIP3   OH237415   0.562   5.341   7.770  0.0407 -0.3461 -0.8098
 4407TIP3    H137416   0.590   5.397   7.842  2.8764 -0.6857 -1.5187
 4407TIP3    H237417   0.513   5.400   7.712  0.3897  0.6691 -0.1054
 4408TIP3   OH237418   2.430   0.991   7.948  0.0150  0.2947 -0.6251
 4408TIP3    H137419   2.509   0.957   7.991  0.6295  0.9663 -1.1949
 4408TIP3    H237420   2.408   1.069   7.998  0.5608  0.9137 -1.3308
 4409TIP3   OH237421   4.693   2.797   7.546 -0.2933  0.1801 -0.3173
 4409TIP3    H137422   4.779   2.764   7.571 -0.8360 -0.7855  0.3226
 4409TIP3    H237423   4.698   2.891   7.562  0.6355  0.1286 -0.2796
 4410TIP3   OH237424   4.103   2.933   7.824  0.6030 -0.0534 -0.2177
 4410TIP3    H137425   4.027   2.934   7.765  0.8793 -1.3708 -0.6266
 4410TIP3    H237426   4.068   2.959   7.909 -0.0690  0.5067 -0.6541
 4411TIP3   OH237427   0.748   1.328   9.468 -0.0695  0.1377  0.0508
 4411TIP3    H137428   0.716   1.413   9.439  0.5521  0.2227 -0.3811
 4411TIP3    H237429   0.835   1.345   9.503 -0.6640 -0.0182  1.6770
 4412TIP3   OH237430   0.363   3.136   7.586 -0.1246 -0.1149  0.1949
 4412TIP3    H137431   0.317   3.093   7.514 -0.0544 -0.3029  0.2636
 4412TIP3    H237432   0.443   3.170   7.546 -0.2275  0.0389  0.1193
 4413TIP3   OH237433   6.128   0.908   7.913  0.7424 -0.2546  0.8653
 4413TIP3    H137434   6.048   0.900   7.861 -1.1363  0.2842  3.4286
 4413TIP3    H237435   6.131   0.827   7.964  1.7642 -0.2054  0.8903
 4414TIP3   OH237436   6.271   6.002   9.798 -0.0456  0.3865  0.6283
 4414TIP3    H137437   6.285   6.095   9.780  0.9181  0.2060  0.3622
 4414TIP3    H237438   6.359   5.965   9.801 -0.4439 -0.7319 -0.4290
 4415TIP3   OH237439   4.441   4.171   7.872  0.4263  0.5759  0.6891
 4415TIP3    H137440   4.446   4.186   7.778 -2.9263 -0.4438  0.2388
 4415TIP3    H237441   4.382   4.240   7.904  1.3878  0.8097  2.0577
 4416TIP3   OH237442   2.244   5.211   9.042 -0.1714 -0.5879  0.4903
 4416TIP3    H137443   2.290   5.159   8.976  0.0488 -0.7338  0.7555
 4416TIP3    H237444   2.155   5.176   9.043 -0.6599  0.5028 -0.9005
 4417TIP3   OH237445   5.871   1.706   8.302  0.3395  0.1790 -0.3369
 4417TIP3    H137446   5.798   1.767   8.293 -0.0267 -0.4292 -1.7619
 4417TIP3    H237447   5.949   1.761   8.300 -0.0398  0.7604  0.4004
 4418TIP3   OH237448   5.202   1.929   9.419  0.0106 -0.5284 -0.2521
 4418TIP3    H137449   5.249   1.846   9.412 -0.8014 -1.4233  3.0811
 4418TIP3    H237450   5.240   1.972   9.496 -1.6475  0.7689 -0.1003
 4419TIP3   OH237451   7.620   2.242   9.109  0.4316  0.1197 -0.0064
 4419TIP3    H137452   7.679   2.239   9.034  0.4717  0.1954  0.0214
 4419TIP3    H237453   7.533   2.226   9.073  0.3193  1.0890 -0.2084
 4420TIP3   OH237454   5.567   2.375   7.581  0.3070  0.4773 -0.1648
 4420TIP3    H137455   5.591   2.330   7.662  0.0143  1.6382  0.5886
 4420TIP3    H237456   5.473   2.358   7.572  0.1978  0.9077  0.1165
 4421TIP3   OH237457   1.075   7.297   7.759 -0.4363  0.6366 -0.4770
 4421TIP3    H137458   0.986   7.334   7.767 -1.0382 -1.1367  3.5748
 4421TIP3    H237459   1.061   7.208   7.726 -0.0695  0.6387 -0.6365
 4422TIP3   OH237460   6.095   7.595   7.391 -0.4022  0.1513  0.5452
 4422TIP3    H137461   6.151   7.550   7.454  0.4044 -0.2668 -0.4447
 4422TIP3    H237462   6.128   7.567   7.305 -2.2232 -0.2366 -0.0746
 4423TIP3   OH237463   2.691   6.866   7.032 -0.3518 -0.1168 -0.2204
 4423TIP3    H137464   2.649   6.805   6.972  2.3339 -0.4219 -2.0109
 4423TIP3    H237465   2.760   6.814   7.074 -0.8283  0.6427  1.5802
 4424TIP3   OH237466   0.210   1.588   9.115 -0.3364 -0.2127 -0.2369
 4424TIP3    H137467   0.124   1.629   9.104  1.1674  3.2909 -0.3567
 4424TIP3    H237468   0.216   1.567   9.208 -1.0445  0.1836 -0.0985
 4425TIP3   OH237469   7.567   1.420   8.869 -0.0113  0.5581  0.2085
 4425TIP3    H137470   7.550   1.456   8.782  0.0281 -0.6873 -0.3454
 4425TIP3    H237471   7.484   1.429   8.915  0.6576  3.6782  1.0285
 4426TIP3   OH237472   1.158   3.826   7.189  0.1621  0.0808 -0.0758
 4426TIP3    H137473   1.249   3.856   7.194 -0.7008  2.6545  2.1688
 4426TIP3    H237474   1.162   3.733   7.214  2.1817  0.0944 -0.2224
 4427TIP3   OH237475   6.454   3.052   8.197 -0.0098 -0.3851 -0.1763
 4427TIP3    H137476   6.461   2.995   8.273  0.1794 -1.5968 -1.0782
 4427TIP3    H237477   6.451   3.141   8.233  0.6977 -0.9042  1.2046
 4428TIP3   OH237478   1.001   6.347   8.565  0.2071  0.2722 -0.2118
 4428TIP3    H137479   1.057   6.283   8.609 -0.8574  0.5654  1.6600
 4428TIP3    H237480   0.917   6.303   8.556 -0.1627  0.9566 -0.1287
 4429TIP3   OH237481   6.422   1.405   9.176  0.1638  0.1046 -0.2889
 4429TIP3    H137482   6.511   1.375   9.195 -0.4396 -0.1765  2.4764
 4429TIP3    H237483   6.372   1.325   9.161 -0.7470 -0.2916  3.8634
 4430TIP3   OH237484   2.240   5.263   7.808 -0.5143  0.6143  0.7034
 4430TIP3    H137485   2.147   5.282   7.823 -0.7374 -1.5299  2.6745
 4430TIP3    H237486   2.242   5.169   7.787  1.2799  0.3335  1.9424
 4431TIP3   OH237487   6.919   0.011   7.458 -0.2187 -0.0813  0.1777
 4431TIP3    H137488   6.972   0.081   7.420 -1.0010 -0.6704 -2.1503
 4431TIP3    H237489   6.977  -0.029   7.523  1.7568  0.1095 -1.3642
 4432TIP3   OH237490   3.304   5.117   7.367  0.3361  0.1739  0.6581
 4432TIP3    H137491   3.397   5.094   7.368  0.3804  0.2380 -0.4656
 4432TIP3    H237492   3.295   5.177   7.292 -0.7370 -0.4172  0.2948
 4433TIP3   OH237493   2.042   1.414   7.319 -0.2107  0.4910 -0.2765
 4433TIP3    H137494   2.079   1.406   7.231 -0.8041 -0.1053 -0.4802
 4433TIP3    H237495   1.999   1.499   7.319  0.9903  1.1214 -0.0900
 4434TIP3   OH237496   1.573   1.291   7.554  0.4637  0.0186  0.2309
 4434TIP3    H137497   1.633   1.358   7.587 -1.0242  2.1624 -1.1639
 4434TIP3    H237498   1.504   1.340   7.509 -1.9925 -2.3242  1.1223
 4435TIP3   OH237499   2.248   4.977   7.769 -0.1251  0.0333  0.2448
 4435TIP3    H137500   2.265   4.889   7.736  1.3246  0.1399  0.6682
 4435TIP3    H237501   2.155   4.992   7.750 -0.5221 -1.7714  0.6452
 4436TIP3   OH237502   3.418   5.654   8.049  0.5888  0.8289  0.1676
 4436TIP3    H137503   3.415   5.599   7.970  0.0704 -1.5318  1.7339
 4436TIP3    H237504   3.462   5.735   8.020  0.3999  0.0763 -2.5174
 4437TIP3   OH237505   0.085   0.156   7.328  0.1389 -0.2663 -0.2339
 4437TIP3    H137506   0.101   0.063   7.311  0.2357 -0.5421  1.2524
 4437TIP3    H237507   0.144   0.177   7.400  0.6798  1.1595 -1.0559
 4438TIP3   OH237508   2.207   1.332   7.702 -0.2081  0.2905 -0.1518
 4438TIP3    H137509   2.123   1.291   7.723  0.6261 -1.2044  0.4219
 4438TIP3    H237510   2.247   1.350   7.787  0.9601 -1.0258 -0.3832
 4439TIP3   OH237511   3.140   2.211   9.170  0.0594 -0.0452  0.1498
 4439TIP3    H137512   3.153   2.262   9.250  0.7259 -0.6238  0.4157
 4439TIP3    H237513   3.052   2.174   9.179 -0.9300  1.9503 -0.5698
 4440TIP3   OH237514   7.586   4.668   7.390  0.0599 -0.3431 -0.0360
 4440TIP3    H137515   7.549   4.651   7.476  0.3950 -1.8574 -0.1630
 4440TIP3    H237516   7.661   4.609   7.384  2.8122  2.8477  0.3497
 4441TIP3   OH237517   3.728   4.282   7.020 -0.9678 -0.5654 -0.3118
 4441TIP3    H137518   3.702   4.327   7.101  1.9231  0.6191  0.0870
 4441TIP3    H237519   3.755   4.195   7.050 -1.8840 -0.8631 -0.3341
 4442TIP3   OH237520   5.450   5.197   7.538 -0.2357  0.1256 -0.0160
 4442TIP3    H137521   5.433   5.198   7.632 -0.1638 -0.2857  0.0012
 4442TIP3    H237522   5.530   5.144   7.528 -0.5464 -0.2822 -0.3563
 4443TIP3   OH237523   1.082   1.930   7.999 -0.2341  0.0365  0.2781
 4443TIP3    H137524   1.102   2.014   8.039 -0.8781  0.9412 -1.2203
 4443TIP3    H237525   1.054   1.951   7.910  0.7369 -1.8533 -0.5415
 4444TIP3   OH237526   6.650   2.638   9.237  0.3661 -0.5052 -0.4096
 4444TIP3    H137527   6.664   2.732   9.229  0.7425 -0.4886  0.3675
 4444TIP3    H237528   6.556   2.627   9.223  0.1070  0.1372  0.7267
 4445TIP3   OH237529   1.023   6.956   9.128  0.4137 -0.1063  0.4563
 4445TIP3    H137530   1.119   6.958   9.130  0.4225 -0.1113  2.3787
 4445TIP3    H237531   1.001   6.863   9.123  0.4539 -0.0346 -2.2128
 4446TIP3   OH237532   3.968   7.267   9.170 -0.2091  0.0643  0.0788
 4446TIP3    H137533   4.014   7.336   9.122  1.4605 -0.5572  0.7416
 4446TIP3    H237534   3.905   7.232   9.106  1.8604 -0.6637 -1.6650
 4447TIP3   OH237535   2.225   3.769   7.937 -0.7153 -0.3533 -0.2749
 4447TIP3    H137536   2.248   3.846   7.988 -3.7734  0.1635  0.5096
 4447TIP3    H237537   2.219   3.801   7.847  0.4125 -0.2789 -0.3394
 4448TIP3   OH237538   1.660   2.170   8.934  0.3719 -0.4183  0.3904
 4448TIP3    H137539   1.568   2.151   8.953  0.2587  0.0120  0.2700
 4448TIP3    H237540   1.659   2.213   8.849  0.6089  0.3547  0.7727
 4449TIP3   OH237541   2.638   3.143   8.454  0.5056  0.6038  0.1344
 4449TIP3    H137542   2.594   3.143   8.369 -1.3556  1.0558  1.0464
 4449TIP3    H237543   2.586   3.082   8.507  1.0301  1.1123  1.2530
 4450TIP3   OH237544   5.070   2.254   7.665  0.3083  0.8794  0.1755
 4450TIP3    H137545   5.050   2.320   7.599  1.9170 -1.2439 -2.7031
 4450TIP3    H237546   5.153   2.282   7.704 -0.4644  1.9652  1.0616
 4451TIP3   OH237547   1.856   6.330   7.815 -0.2919 -0.2388  0.1667
 4451TIP3    H137548   1.830   6.392   7.883 -1.8637 -1.4342  0.6993
 4451TIP3    H237549   1.811   6.361   7.736 -0.0177  0.0476  0.1222
 4452TIP3   OH237550   5.449   2.137   7.469 -0.4423 -0.0041  0.4619
 4452TIP3    H137551   5.373   2.188   7.442  0.2621  2.1294  2.2522
 4452TIP3    H237552   5.421   2.091   7.548 -0.2724 -0.2835  0.3607
 4453TIP3   OH237553   6.957   2.815   7.746  0.1101 -0.1972 -0.5540
 4453TIP3    H137554   6.874   2.862   7.757  0.5640  0.2221  1.6270
 4453TIP3    H237555   7.011   2.844   7.820  0.4126 -4.0923  1.0407
 4454TIP3   OH237556   6.834   3.430   9.036 -0.2760  0.0393  0.1042
 4454TIP3    H137557   6.921   3.394   9.047 -0.2499  0.0632 -0.0207
 4454TIP3    H237558   6.820   3.431   8.942  0.0833  1.1904  0.0484
 4455TIP3   OH237559   6.499   2.117   8.415 -0.3060  0.1014  0.1842
 4455TIP3    H137560   6.448   2.048   8.373  0.0556 -0.8748  1.2806
 4455TIP3    H237561   6.590   2.099   8.389 -0.2539  0.4201  0.1377
 4456TIP3   OH237562   0.816   2.534   7.847  0.2302 -0.7218 -0.5008
 4456TIP3    H137563   0.766   2.614   7.829 -1.2669 -1.3765  0.5158
 4456TIP3    H237564   0.769   2.493   7.920  0.7417 -2.7199 -1.2369
 4457TIP3   OH237565   7.021   0.160   9.149  0.4216  0.0076 -0.2536
 4457TIP3    H137566   7.098   0.217   9.155  0.7427 -0.4746  0.2682
 4457TIP3    H237567   7.008   0.148   9.055  0.2837  1.0184 -0.3756
 4458TIP3   OH237568   0.839   5.254   7.221 -0.4158 -0.9217 -0.3289
 4458TIP3    H137569   0.842   5.176   7.165  1.5444  0.2669 -2.0489
 4458TIP3    H237570   0.912   5.308   7.189 -0.1432  0.5084  2.4538
 4459TIP3   OH237571   0.777   5.117   9.138  0.4998 -0.8928 -0.3402
 4459TIP3    H137572   0.717   5.122   9.213  0.5163  0.3164 -0.3770
 4459TIP3    H237573   0.825   5.200   9.142  3.6648 -2.6027  0.8979
 4460TIP3   OH237574   6.365   7.579   8.438 -0.3763 -0.2556 -0.3614
 4460TIP3    H137575   6.307   7.583   8.362  1.4539  1.2867 -1.7763
 4460TIP3    H237576   6.395   7.669   8.451  1.5664 -0.9362  0.3594
 4461TIP3   OH237577   5.869   1.892   6.874  0.6166 -0.0867  0.0812
 4461TIP3    H137578   5.816   1.949   6.819  1.2466  1.0265  0.6046
 4461TIP3    H237579   5.813   1.874   6.950  0.5141  0.0422  0.0372
 4462TIP3   OH237580   2.395   6.387   8.374  0.4557 -0.2794  0.3713
 4462TIP3    H137581   2.477   6.347   8.345  1.9422  0.5987  3.0290
 4462TIP3    H237582   2.338   6.313   8.394  1.2457 -0.9406  0.2129
 4463TIP3   OH237583   2.588   7.058   7.747  0.4176 -0.6483 -0.1047
 4463TIP3    H137584   2.509   7.020   7.786  0.7116 -2.6002 -1.2458
 4463TIP3    H237585   2.629   7.107   7.818 -1.4347 -0.1755  0.7042
 4464TIP3   OH237586   4.417   4.179   8.504 -0.9019  0.1441 -0.0895
 4464TIP3    H137587   4.368   4.104   8.537 -0.8392  0.6923  1.3256
 4464TIP3    H237588   4.358   4.219   8.440 -1.9276  0.2237  0.8561
 4465TIP3   OH237589   5.968   4.654   7.930  0.6813 -0.6684 -0.2968
 4465TIP3    H137590   5.895   4.716   7.940  0.4570 -0.8597 -0.7148
 4465TIP3    H237591   5.931   4.569   7.955  0.9839 -0.6407  0.2527
 4466TIP3   OH237592   4.827   6.852   7.950  0.4433 -0.1718 -0.0121
 4466TIP3    H137593   4.848   6.807   7.868 -0.7247  0.6071 -0.7685
 4466TIP3    H237594   4.844   6.787   8.018 -1.1961 -1.8049 -1.0611
 4467TIP3   OH237595   1.770   5.270   8.014  0.1113 -0.7225 -0.3770
 4467TIP3    H137596   1.858   5.232   8.018  0.4225 -0.0106 -0.2619
 4467TIP3    H237597   1.717   5.213   8.069  0.5091 -1.1461 -0.4250
 4468TIP3   OH237598   7.674   6.984   9.549 -0.6055  0.3358  0.3485
 4468TIP3    H137599   7.653   6.985   9.642 -1.7260 -0.5407  0.1307
 4468TIP3    H237600   7.593   7.012   9.506 -0.8108 -1.3679 -0.4576
 4469TIP3   OH237601   3.056   6.044   9.349  0.1643  0.1166 -0.0576
 4469TIP3    H137602   3.024   5.961   9.313 -0.6617  0.3356  0.1592
 4469TIP3    H237603   3.131   6.019   9.403 -0.4849 -0.5738  0.5400
 4470TIP3   OH237604   5.172   5.403   7.763  0.6960 -0.3901  0.1926
 4470TIP3    H137605   5.137   5.331   7.815  0.3161  0.6105  1.3706
 4470TIP3    H237606   5.267   5.392   7.767  0.6339 -1.0650 -0.0165
 4471TIP3   OH237607   3.287   4.993   8.144 -0.7133  0.0853  0.5560
 4471TIP3    H137608   3.327   4.943   8.215 -0.5672 -1.4763 -0.5677
 4471TIP3    H237609   3.202   4.950   8.130 -0.0519 -0.6999 -1.2834
 4472TIP3   OH237610   1.633   4.670   8.925  1.0472  0.1094  0.2661
 4472TIP3    H137611   1.589   4.662   9.010 -0.3293 -0.9268 -0.4948
 4472TIP3    H237612   1.625   4.763   8.903 -0.2669  0.0639  0.4420
 4473TIP3   OH237613   7.187   5.673   9.234  0.0981 -0.4616  0.0633
 4473TIP3    H137614   7.256   5.606   9.230 -1.3756 -2.2023  1.6230
 4473TIP3    H237615   7.179   5.705   9.144  2.3431 -0.7798 -0.3156
 4474TIP3   OH237616   4.017   3.581   7.249 -0.2816 -0.7892 -0.0329
 4474TIP3    H137617   4.109   3.557   7.252 -0.3075 -1.0810 -1.0641
 4474TIP3    H237618   4.016   3.676   7.257  0.2580 -0.6006 -1.8144
 4475TIP3   OH237619   7.001   1.655   8.349 -0.0694 -0.0697 -0.0488
 4475TIP3    H137620   6.945   1.622   8.278  0.0852 -0.1279 -0.1420
 4475TIP3    H237621   6.993   1.588   8.418 -1.1049  0.5195  0.4363
 4476TIP3   OH237622   4.993   2.911   7.923  0.0979 -0.1721 -0.0970
 4476TIP3    H137623   5.038   2.970   7.862  0.6289 -0.8392 -0.3686
 4476TIP3    H237624   5.052   2.905   7.998 -0.4407  0.4546  0.3816
 4477TIP3   OH237625   6.426   7.058   7.626 -0.0702  0.1043 -0.4264
 4477TIP3    H137626   6.483   7.075   7.551 -0.0587 -1.1428 -0.7159
 4477TIP3    H237627   6.485   7.022   7.693 -0.0438  1.3907  0.2698
 4478TIP3   OH237628   2.355   6.474   8.675 -0.1543 -0.4627 -0.0595
 4478TIP3    H137629   2.286   6.408   8.666  1.0499 -1.6428 -0.8704
 4478TIP3    H237630   2.381   6.495   8.585 -0.2423  0.8434  0.1994
 4479TIP3   OH237631   3.865   0.874   7.648 -0.7872 -0.5635 -0.0881
 4479TIP3    H137632   3.914   0.817   7.707  0.7564 -0.7312 -1.4627
 4479TIP3    H237633   3.929   0.903   7.583 -2.0940  0.7836 -0.8458
 4480TIP3   OH237634   3.431   7.486   7.913  0.3474  0.0620  0.1868
 4480TIP3    H137635   3.379   7.546   7.968 -0.8700 -0.2449 -0.5868
 4480TIP3    H237636   3.493   7.543   7.867  0.5408  0.4723  0.9317
 4481TIP3   OH237637   1.387   7.446   8.521 -0.2668 -0.3870  0.0400
 4481TIP3    H137638   1.443   7.397   8.582 -0.2178 -0.5269 -0.1176
 4481TIP3    H237639   1.430   7.436   8.436  0.0591  0.4128  0.1056
 4482TIP3   OH237640   7.581   0.748   8.395 -0.5003  0.2648  0.2861
 4482TIP3    H137641   7.581   0.819   8.459  0.3283  0.2959  0.2708
 4482TIP3    H237642   7.670   0.714   8.398 -0.5708 -0.0151 -0.5369
 4483TIP3   OH237643   5.504   6.317   6.892  0.3528 -0.0273  0.2949
 4483TIP3    H137644   5.426   6.276   6.927 -0.1839  1.5670  1.0495
 4483TIP3    H237645   5.487   6.325   6.798 -0.1079 -0.2610  0.3579
 4484TIP3   OH237646   6.895   2.221   8.653 -0.0092 -0.0902 -0.0324
 4484TIP3    H137647   6.936   2.215   8.567  0.8714  0.0099  0.3666
 4484TIP3    H237648   6.819   2.278   8.640  1.0360  1.2555 -0.4169
 4485TIP3   OH237649   0.239   4.242   8.577 -0.5179  0.3163 -0.3109
 4485TIP3    H137650   0.226   4.334   8.558 -0.5861 -0.1907 -3.1758
 4485TIP3    H237651   0.154   4.201   8.560  0.1761 -0.6066 -1.7387
 4486TIP3   OH237652   1.769   7.574   8.638 -0.1270 -0.1766  0.0258
 4486TIP3    H137653   1.823   7.541   8.710  0.4624  0.5160 -0.0843
 4486TIP3    H237654   1.831   7.614   8.577 -0.7213  0.2487 -0.3179
 4487TIP3   OH237655   0.865   0.672   8.775  0.0498  0.0698 -0.1531
 4487TIP3    H137656   0.915   0.710   8.703  0.5364  0.4747  0.3903
 4487TIP3    H237657   0.776   0.707   8.763  0.5540  1.6507  0.5004
 4488TIP3   OH237658   1.006   4.563   7.466  0.6209 -0.1788  0.0647
 4488TIP3    H137659   1.048   4.479   7.448 -0.4362 -0.8744  0.6966
 4488TIP3    H237660   1.001   4.567   7.562 -0.5779 -0.0705  0.0204
 4489TIP3   OH237661   1.735   1.777   8.485  0.5960  0.3721 -0.2555
 4489TIP3    H137662   1.760   1.776   8.578  1.5997  2.1344 -0.4614
 4489TIP3    H237663   1.710   1.868   8.468 -0.7181 -0.1924 -1.4415
 4490TIP3   OH237664   4.976   1.244   7.760  0.6813 -0.0420 -0.7590
 4490TIP3    H137665   4.957   1.261   7.668 -2.9030 -0.1605 -0.1668
 4490TIP3    H237666   4.994   1.330   7.797  0.2127  0.2505 -1.1962
 4491TIP3   OH237667   4.492   2.997   8.146 -0.4452 -0.5842 -0.2644
 4491TIP3    H137668   4.417   3.035   8.099  0.8398 -0.2785 -2.1863
 4491TIP3    H237669   4.568   3.021   8.093  0.8086 -2.7380  0.4360
 4492TIP3   OH237670   0.179   0.988   8.405 -0.0785 -0.0213 -0.5465
 4492TIP3    H137671   0.102   0.993   8.349 -0.2532  1.0427 -0.2195
 4492TIP3    H237672   0.144   0.988   8.494  0.2402 -0.9333 -0.4003
 4493TIP3   OH237673   1.954   0.070   9.407  0.5744  1.1161 -0.3642
 4493TIP3    H137674   1.985  -0.017   9.379 -1.3082  0.5995 -0.9747
 4493TIP3    H237675   1.912   0.107   9.329 -0.4069  1.7279  0.4298
 4494TIP3   OH237676   0.397   2.789   9.277  0.0950  0.5358 -0.2339
 4494TIP3    H137677   0.454   2.766   9.350  0.3229  0.2797 -0.4894
 4494TIP3    H237678   0.363   2.876   9.298 -1.2142 -0.2437  1.0270
 4495TIP3   OH237679   1.617   3.844   8.133  0.4379  0.2078  0.4199
 4495TIP3    H137680   1.559   3.799   8.195 -1.5755 -1.3400 -2.3659
 4495TIP3    H237681   1.566   3.850   8.052  3.1858  1.4105 -1.3783
 4496TIP3   OH237682   2.285   5.824   7.285  0.2349  0.3086  0.3758
 4496TIP3    H137683   2.253   5.788   7.368  0.3660  0.5213  0.5180
 4496TIP3    H237684   2.345   5.757   7.252 -2.7076 -1.6602 -1.4784
 4497TIP3   OH237685   7.292   5.699   7.928 -0.2519  0.1733 -0.0506
 4497TIP3    H137686   7.338   5.780   7.906 -0.9123  1.4247  2.7278
 4497TIP3    H237687   7.216   5.727   7.978 -1.5476 -2.1052 -0.6223
 4498TIP3   OH237688   7.575   2.337   7.005 -0.1642 -0.1364 -0.0857
 4498TIP3    H137689   7.596   2.249   7.036 -0.3553 -0.1886 -0.1048
 4498TIP3    H237690   7.494   2.360   7.051  0.2152  0.2723  0.3902
 4499TIP3   OH237691   3.857   5.840   8.656  0.4405 -0.0323 -0.5484
 4499TIP3    H137692   3.906   5.881   8.585  1.2605 -1.0372 -0.5752
 4499TIP3    H237693   3.832   5.754   8.622 -0.1672 -0.0650 -0.0370
 4500TIP3   OH237694   3.690   6.387   7.480  0.6966 -0.3330  0.8305
 4500TIP3    H137695   3.774   6.431   7.469 -0.1912  1.4578  0.9951
 4500TIP3    H237696   3.714   6.295   7.495  2.5925  0.0435  0.4179
 4501TIP3   OH237697   6.861   0.522   8.397  0.1404 -0.3548  0.2590
 4501TIP3    H137698   6.921   0.533   8.323 -0.1209  0.0730  0.1065
 4501TIP3    H237699   6.856   0.609   8.437 -1.6424  0.0419 -0.7157
 4502TIP3   OH237700   1.149   1.565   8.598  0.4216 -0.7523  0.2212
 4502TIP3    H137701   1.149   1.653   8.561  0.3350 -0.9278 -0.2001
 4502TIP3    H237702   1.208   1.570   8.673  0.0339 -0.2125  0.4993
 4503TIP3   OH237703   5.892   2.006   7.871  0.0114  0.1041  0.1428
 4503TIP3    H137704   5.822   1.941   7.866  0.3335 -0.2606  0.3013
 4503TIP3    H237705   5.875   2.053   7.952 -0.1225  0.0990  0.1175
 4504TIP3   OH237706   0.567   1.120   7.018  0.1783  0.0341 -0.3872
 4504TIP3    H137707   0.583   1.133   7.111  0.3420 -1.2975 -0.2054
 4504TIP3    H237708   0.545   1.027   7.010  0.1834  0.1230 -1.6750
 4505TIP3   OH237709   7.662   0.911   8.067  0.3704 -0.5847  0.3101
 4505TIP3    H137710   7.664   0.936   8.160  1.1299 -0.0880  0.1674
 4505TIP3    H237711   7.609   0.980   8.025  2.2324  0.7277 -0.0368
 4506TIP3   OH237712   4.491   6.692   7.647  0.3936 -0.0036  0.3593
 4506TIP3    H137713   4.516   6.756   7.713 -1.6065 -0.4047  1.6062
 4506TIP3    H237714   4.410   6.726   7.609 -0.6062 -1.6258  0.9050
 4507TIP3   OH237715   5.253   2.478   9.139 -0.3738  0.3289 -0.1641
 4507TIP3    H137716   5.348   2.474   9.149 -0.5227 -1.0816  0.9463
 4507TIP3    H237717   5.222   2.529   9.214 -0.5380  0.2497 -0.1765
 4508TIP3   OH237718   2.121   5.151   8.731  0.4822  0.2527  0.1072
 4508TIP3    H137719   2.174   5.155   8.651  0.0405 -0.5729 -0.2350
 4508TIP3    H237720   2.132   5.237   8.770  0.9397  0.5773 -0.6964
 4509TIP3   OH237721   3.353   7.034   9.356 -0.1099 -0.5332  0.3460
 4509TIP3    H137722   3.313   7.089   9.424  0.1106 -1.7423  1.4917
 4509TIP3    H237723   3.444   7.062   9.353  0.3247 -1.6595  1.8537
 4510TIP3   OH237724   1.653   0.608   8.199  0.1366 -0.2075  0.2515
 4510TIP3    H137725   1.600   0.687   8.217  1.2464  0.7071 -0.3504
 4510TIP3    H237726   1.693   0.586   8.283  0.7927  0.6131  0.1605
 4511TIP3   OH237727   2.925   5.905   9.080  0.4512  0.2811 -0.1664
 4511TIP3    H137728   2.900   5.826   9.129 -1.0382  0.1982 -0.9882
 4511TIP3    H237729   2.856   5.968   9.099  2.3814  2.0020  1.6815
 4512TIP3   OH237730   2.725   0.213   8.951 -0.2247 -0.0783  0.0874
 4512TIP3    H137731   2.632   0.236   8.944  0.1894  1.4846 -0.6721
 4512TIP3    H237732   2.762   0.239   8.866  0.9855 -0.2867  0.5407
 4513TIP3   OH237733   1.918   3.668   9.026  0.2600  0.2249  0.0505
 4513TIP3    H137734   1.920   3.717   8.944 -0.0389  0.2854  0.0778
 4513TIP3    H237735   1.993   3.609   9.021 -0.6763 -0.9148 -0.9746
 4514TIP3   OH237736   5.978   5.460   9.130  0.3829 -0.8316 -0.4224
 4514TIP3    H137737   6.043   5.488   9.065 -0.4857  0.7652 -0.6529
 4514TIP3    H237738   5.963   5.368   9.110  1.5828 -0.8761 -1.2250
 4515TIP3   OH237739   0.503   4.495   8.250  0.4543  0.1680 -0.4632
 4515TIP3    H137740   0.497   4.579   8.295 -0.5277  0.2533 -0.7293
 4515TIP3    H237741   0.431   4.443   8.286  0.5470 -0.2659 -0.8904
 4516TIP3   OH237742   2.726   6.277   9.369 -0.1336  0.5266  0.2433
 4516TIP3    H137743   2.780   6.327   9.431 -3.4668 -0.4703  4.4505
 4516TIP3    H237744   2.672   6.344   9.326 -0.6735  1.0482  1.6540
 4517TIP3   OH237745   5.086   4.396   9.416 -0.0226 -0.4710  0.0267
 4517TIP3    H137746   5.069   4.360   9.503  0.3906 -0.4776  0.1085
 4517TIP3    H237747   5.130   4.480   9.433 -0.6723 -0.0865 -0.1670
 4518TIP3   OH237748   1.753   6.119   8.787  0.2878 -0.0008 -0.2480
 4518TIP3    H137749   1.701   6.103   8.709  1.6361 -0.4314 -1.0896
 4518TIP3    H237750   1.722   6.055   8.851 -0.4717  0.0124 -0.5983
 4519TIP3   OH237751   1.301   2.154   8.531  0.7464  0.1163 -0.6019
 4519TIP3    H137752   1.358   2.225   8.501  1.5971 -1.2288 -2.3388
 4519TIP3    H237753   1.230   2.150   8.467  0.8294 -0.7338 -0.6540
 4520TIP3   OH237754   2.872   6.343   7.591  0.3272  0.5776 -0.0573
 4520TIP3    H137755   2.871   6.385   7.505 -0.3377 -0.7366 -0.7133
 4520TIP3    H237756   2.908   6.410   7.649  0.1979  1.7188 -1.2320
 4521TIP3   OH237757   4.138   6.706   8.784  0.2710  0.1642 -0.2189
 4521TIP3    H137758   4.194   6.677   8.711  0.7522 -1.6244  0.8020
 4521TIP3    H237759   4.169   6.794   8.804  0.2449  0.6239 -2.0383
 4522TIP3   OH237760   1.559   6.232   9.448 -0.3267  0.0004  0.4834
 4522TIP3    H137761   1.564   6.321   9.414  0.7119  0.0272  0.6690
 4522TIP3    H237762   1.646   6.195   9.432 -0.8278 -1.0812  0.1472
 4523TIP3   OH237763   4.694   0.967   7.765 -0.0892 -0.3368  0.8879
 4523TIP3    H137764   4.608   0.971   7.724 -0.3749  1.4702  1.5435
 4523TIP3    H237765   4.749   0.920   7.703 -1.1687 -0.0979 -0.2719
 4524TIP3   OH237766   3.039   4.395   8.363 -0.1567 -0.1114 -0.5801
 4524TIP3    H137767   2.950   4.432   8.367  0.5512  1.5485  2.1182
 4524TIP3    H237768   3.096   4.466   8.393  2.1515 -1.1341 -2.2478
 4525TIP3   OH237769   2.986   4.425   6.918 -0.3881  0.5430  0.1805
 4525TIP3    H137770   2.903   4.402   6.875 -0.5619 -0.2573  0.9239
 4525TIP3    H237771   2.960   4.471   6.998 -0.1700 -0.6696  0.9761
 4526TIP3   OH237772   5.453   0.792   7.911 -0.2145 -0.6686 -0.1627
 4526TIP3    H137773   5.368   0.815   7.948  0.4311  0.6091  0.5673
 4526TIP3    H237774   5.440   0.704   7.876 -1.4422 -1.0748  1.1976
 4527TIP3   OH237775   2.326   2.871   9.351 -0.2322 -0.3790  0.1801
 4527TIP3    H137776   2.339   2.948   9.406 -1.3100 -0.4971  0.6366
 4527TIP3    H237777   2.272   2.902   9.278  0.7698 -0.3352 -0.5598
 4528TIP3   OH237778   0.032   3.481   8.515  0.3522 -0.2266 -0.4031
 4528TIP3    H137779  -0.042   3.462   8.573 -0.0039  0.7910 -0.4972
 4528TIP3    H237780   0.085   3.544   8.564  0.9289 -0.6239 -0.5136
 4529TIP3   OH237781   0.467   2.217   8.493  0.3696  0.1853  0.2002
 4529TIP3    H137782   0.434   2.307   8.500 -0.3979 -0.1650  1.5036
 4529TIP3    H237783   0.491   2.207   8.401 -1.1652  1.1678 -0.3527
 4530TIP3   OH237784   5.375   6.103   8.263 -0.2100 -0.5686  0.4274
 4530TIP3    H137785   5.350   6.182   8.311  0.4678  0.4824 -0.8512
 4530TIP3    H237786   5.470   6.111   8.253 -0.2692 -0.9913 -0.6321
 4531TIP3   OH237787   3.603   5.356   7.584 -0.4858 -0.0926  0.2691
 4531TIP3    H137788   3.517   5.395   7.566 -0.4791  0.3265  1.1052
 4531TIP3    H237789   3.586   5.263   7.595 -0.5933 -0.2553 -1.1490
 4532TIP3   OH237790   0.925   4.884   9.045 -0.2087 -0.8643  0.2094
 4532TIP3    H137791   0.900   4.955   9.104  0.9548 -0.6698  0.4896
 4532TIP3    H237792   0.880   4.903   8.963  2.3801  1.9157 -0.7378
 4533TIP3   OH237793   7.146   1.429   9.599 -0.2521 -0.0044  0.4184
 4533TIP3    H137794   7.104   1.345   9.579 -0.4172  0.4093 -1.0877
 4533TIP3    H237795   7.073   1.491   9.607 -0.0147  0.4396 -0.7865
 4534TIP3   OH237796   2.835   5.411   7.881  0.5954 -0.2030 -0.1522
 4534TIP3    H137797   2.915   5.358   7.886  1.4242  0.5175 -3.4070
 4534TIP3    H237798   2.813   5.412   7.788 -1.4886  2.1320  0.2665
 4535TIP3   OH237799   6.335   2.880   9.399  0.0323  0.0847 -0.0511
 4535TIP3    H137800   6.260   2.896   9.342 -0.4986  1.4800  0.9685
 4535TIP3    H237801   6.350   2.786   9.394 -1.4872 -0.1573 -0.6427
 4536TIP3   OH237802   4.556   1.794   9.114  0.6285 -0.6132 -0.0631
 4536TIP3    H137803   4.553   1.733   9.040  2.2891 -1.4500  0.5101
 4536TIP3    H237804   4.649   1.804   9.133  0.2471 -0.2052  1.7530
 4537TIP3   OH237805   1.867   6.275   9.009 -0.6104 -0.2999 -0.0814
 4537TIP3    H137806   1.954   6.239   9.029 -1.0225 -0.0164  2.6745
 4537TIP3    H237807   1.813   6.199   8.989  0.2153 -0.4824 -1.7965
 4538TIP3   OH237808   0.445   0.459   9.635  0.1674  0.2353  0.5359
 4538TIP3    H137809   0.531   0.436   9.672 -1.0545 -1.5901  2.4569
 4538TIP3    H237810   0.400   0.376   9.625 -1.6726  1.2146  0.3087
 4539TIP3   OH237811   0.260   5.718   8.743  0.4081 -0.0446  0.1100
 4539TIP3    H137812   0.177   5.764   8.727 -0.1380  0.1823  3.0231
 4539TIP3    H237813   0.267   5.657   8.669 -2.4715 -0.2235 -0.1488
 4540TIP3   OH237814   4.562   2.738   8.088 -0.2377 -0.1876 -0.1225
 4540TIP3    H137815   4.483   2.708   8.042 -0.7012 -1.2124  1.2420
 4540TIP3    H237816   4.532   2.813   8.140  0.5228  1.6405 -2.2082
 4541TIP3   OH237817   2.310   0.713   8.154 -0.1200 -0.2895  0.4474
 4541TIP3    H137818   2.314   0.618   8.162  0.1207 -0.3031  0.1921
 4541TIP3    H237819   2.219   0.732   8.131 -0.0682 -0.4928  0.0724
 4542TIP3   OH237820   5.273   3.420   7.980  0.0607  0.0389 -0.8973
 4542TIP3    H137821   5.260   3.455   7.892  1.4819  0.6536 -0.8807
 4542TIP3    H237822   5.314   3.491   8.028 -0.8368 -0.2357  0.3293
 4543TIP3   OH237823   7.493   3.752   8.532 -0.6209  0.3821  0.1081
 4543TIP3    H137824   7.576   3.780   8.493 -1.7567  0.6586 -2.3317
 4543TIP3    H237825   7.510   3.751   8.626  1.9530  1.0119 -0.2573
 4544TIP3   OH237826   0.229   3.204   7.828  0.8359 -0.9014  0.7417
 4544TIP3    H137827   0.289   3.180   7.757 -1.7152  0.8452 -2.2823
 4544TIP3    H237828   0.159   3.139   7.824  0.4615 -0.5477  1.3640
 4545TIP3   OH237829   0.912   1.445   7.483 -0.1188  0.6530 -0.2346
 4545TIP3    H137830   0.827   1.480   7.508  0.1083  1.1741 -0.1676
 4545TIP3    H237831   0.957   1.430   7.566 -0.9094 -1.6252 -0.1795
 4546TIP3   OH237832   0.186   3.580   9.222  0.0551  0.0210 -0.0701
 4546TIP3    H137833   0.254   3.648   9.224 -0.5446  0.6455 -0.4348
 4546TIP3    H237834   0.216   3.515   9.284 -0.4655  1.7048  2.0671
 4547TIP3   OH237835   1.204   7.571   8.067  0.5526 -0.5692  0.2359
 4547TIP3    H137836   1.285   7.616   8.090 -0.7995  1.5196  1.2342
 4547TIP3    H237837   1.163   7.626   8.001  0.2386 -1.9654 -0.7754
 4548TIP3   OH237838   1.500   2.784   9.612  0.5871 -0.6005 -0.6491
 4548TIP3    H137839   1.522   2.877   9.624  0.5136 -0.6512 -0.0580
 4548TIP3    H237840   1.499   2.749   9.701  0.9212 -1.2415 -0.8953
 4549TIP3   OH237841   5.499   5.260   9.022 -0.1088 -0.1586  0.2960
 4549TIP3    H137842   5.546   5.340   8.999  0.7543 -0.0312  2.3105
 4549TIP3    H237843   5.458   5.279   9.107 -3.0961 -0.5956 -0.9191
 4550TIP3   OH237844   4.266   3.839   8.349  0.3677  0.1616  0.2501
 4550TIP3    H137845   4.231   3.863   8.435 -0.3352  0.0826 -0.0041
 4550TIP3    H237846   4.215   3.762   8.323 -0.1967  0.8278 -0.7054
 4551TIP3   OH237847   1.458   3.812   8.420 -0.2913 -0.0649  0.6000
 4551TIP3    H137848   1.504   3.792   8.502 -0.6379 -1.9505  0.3808
 4551TIP3    H237849   1.398   3.739   8.408 -0.0832  0.0435 -1.4564
 4552TIP3   OH237850   1.209   0.004   9.084  0.0540  0.0696  0.3516
 4552TIP3    H137851   1.152  -0.072   9.075  0.7161 -0.5337  0.9979
 4552TIP3    H237852   1.156   0.078   9.056 -1.4909 -0.2883  2.1399
 4553TIP3   OH237853   2.809   1.515   8.392  0.2163  0.3802  0.1928
 4553TIP3    H137854   2.853   1.575   8.452  3.1152 -0.4770 -0.8759
 4553TIP3    H237855   2.853   1.431   8.407  1.5815  0.2726 -3.4942
 4554TIP3   OH237856   4.310   6.732   8.568 -0.1313  0.0998  0.5851
 4554TIP3    H137857   4.288   6.695   8.482  1.4947 -1.2967  0.7379
 4554TIP3    H237858   4.343   6.820   8.547  1.9752 -0.8698 -0.4577
 4555TIP3   OH237859   4.825   2.711   8.054 -0.2706  0.8357 -0.2683
 4555TIP3    H137860   4.742   2.757   8.043 -0.8297 -0.1288 -0.2133
 4555TIP3    H237861   4.890   2.768   8.013 -0.4391  3.1490  2.3979
 4556TIP3   OH237862   6.308   0.704   8.880 -0.1755 -0.5275  0.2333
 4556TIP3    H137863   6.363   0.776   8.848 -0.5606 -1.4065 -2.8078
 4556TIP3    H237864   6.221   0.723   8.842 -0.6313 -1.8243  0.5964
 4557TIP3   OH237865   1.195   5.637   7.046 -0.1760  0.8511 -0.3652
 4557TIP3    H137866   1.229   5.643   6.957  1.1557  1.9624  0.1873
 4557TIP3    H237867   1.241   5.706   7.095  1.7797 -1.8548  1.9907
 4558TIP3   OH237868   4.390   5.177   8.611 -0.3361  0.1207 -0.0757
 4558TIP3    H137869   4.472   5.216   8.581 -0.7429  1.2916  0.2812
 4558TIP3    H237870   4.381   5.097   8.559  0.9123  0.0911 -0.2775
 4559TIP3   OH237871   2.125   0.978   8.351 -0.1911 -0.0444 -0.8567
 4559TIP3    H137872   2.199   1.001   8.296 -0.1362 -0.1359 -0.8202
 4559TIP3    H237873   2.150   1.005   8.439 -0.7474  1.1897 -1.0558
 4560TIP3   OH237874   6.089   6.603   8.111 -0.3858 -0.1328 -0.2054
 4560TIP3    H137875   6.156   6.534   8.102 -0.6508 -0.5654  0.9695
 4560TIP3    H237876   6.032   6.590   8.035 -0.5012 -1.2963  0.0588
 4561TIP3   OH237877   1.999   7.023   8.195  0.3544  0.3076 -0.3492
 4561TIP3    H137878   1.974   6.962   8.265  1.1194  0.6358  0.2220
 4561TIP3    H237879   1.920   7.074   8.179  0.5010  1.0671  1.1492
 4562TIP3   OH237880   5.238   5.876   9.461  0.2962 -0.5302  0.1750
 4562TIP3    H137881   5.154   5.910   9.491 -0.0746 -2.9200  2.1700
 4562TIP3    H237882   5.301   5.943   9.486 -0.5730 -0.4639  2.4476
 4563TIP3   OH237883   1.148   2.653   8.790  0.5170  0.2358  0.2332
 4563TIP3    H137884   1.186   2.567   8.808  1.7635  1.1669  2.3768
 4563TIP3    H237885   1.058   2.634   8.763  0.6170 -1.7223  1.1168
 4564TIP3   OH237886   0.269   0.444   8.273 -0.3311  0.1296  0.3958
 4564TIP3    H137887   0.329   0.508   8.235 -1.5246  0.5016 -0.9562
 4564TIP3    H237888   0.230   0.490   8.347 -2.3979  1.6764 -1.5204
 4565TIP3   OH237889   1.000   4.409   9.139  0.3366  0.0657  0.0153
 4565TIP3    H137890   0.923   4.388   9.086  2.1672 -1.4330 -2.3016
 4565TIP3    H237891   1.058   4.333   9.128  1.7368  0.6530  2.5323
 4566TIP3   OH237892   1.417   4.237   8.261 -0.1751 -0.0632  0.1370
 4566TIP3    H137893   1.414   4.153   8.215  0.9241 -0.9092  1.5157
 4566TIP3    H237894   1.476   4.291   8.209 -1.5806  0.2142 -1.2499
 4567TIP3   OH237895   3.459   5.048   7.941  0.1886  0.1457  0.0410
 4567TIP3    H137896   3.546   5.016   7.963 -0.0867 -2.2737 -2.0073
 4567TIP3    H237897   3.405   5.023   8.016  0.8037 -0.4726  0.2868
 4568TIP3   OH237898   5.230   7.643   7.455 -0.0753  0.2748  0.2889
 4568TIP3    H137899   5.185   7.595   7.386 -0.0735  1.0225 -0.2491
 4568TIP3    H237900   5.314   7.666   7.416 -1.0047  2.8374 -0.4099
 4569TIP3   OH237901   4.312   7.199   7.782 -0.0818 -0.1305 -0.0603
 4569TIP3    H137902   4.334   7.172   7.693 -0.7314 -0.7013 -0.0571
 4569TIP3    H237903   4.259   7.278   7.772 -2.5366 -1.7110 -0.3615
 4570TIP3   OH237904   5.190   0.167   9.604  0.6821  0.3728 -0.5324
 4570TIP3    H137905   5.140   0.232   9.655  1.1311 -0.9243  1.6909
 4570TIP3    H237906   5.139   0.155   9.524 -0.0210  2.5785 -0.4891
 4571TIP3   OH237907   2.561   6.048   9.409 -0.0793  0.1438  0.4672
 4571TIP3    H137908   2.604   6.128   9.439  1.0556 -0.7945  1.4479
 4571TIP3    H237909   2.619   6.012   9.342 -0.3885 -0.0655  0.3038
 4572TIP3   OH237910   3.169   6.824   9.350  0.1891 -0.1532 -0.1870
 4572TIP3    H137911   3.231   6.896   9.344 -0.4283  0.2987 -1.3435
 4572TIP3    H237912   3.119   6.827   9.269  0.4437 -2.1734 -0.4879
 4573TIP3   OH237913   3.856   2.724   9.665  0.8083  0.3310 -0.0954
 4573TIP3    H137914   3.791   2.659   9.637  4.3777 -3.0510 -1.6021
 4573TIP3    H237915   3.826   2.807   9.628 -1.6514 -1.4146 -2.3656
 4574TIP3   OH237916   6.788   1.609   7.837  0.1197 -0.7815 -0.4408
 4574TIP3    H137917   6.831   1.568   7.761 -1.7028 -1.3737 -1.2073
 4574TIP3    H237918   6.826   1.564   7.912  1.5739 -0.5683 -1.0131
 4575TIP3   OH237919   0.904   4.247   7.964  0.4997 -0.1943 -0.5513
 4575TIP3    H137920   0.958   4.222   8.040 -0.3656 -0.9843 -0.1679
 4575TIP3    H237921   0.833   4.299   8.001  0.9184  0.7547 -1.0415
 4576TIP3   OH237922   1.957   0.912   7.538 -0.0437  0.2050  0.6506
 4576TIP3    H137923   2.042   0.954   7.528  0.4400 -0.7954  0.4952
 4576TIP3    H237924   1.897   0.984   7.557  0.3386  1.2878 -1.8860
 4577TIP3   OH237925   7.334   6.411   7.408  0.4125  0.2062 -0.4068
 4577TIP3    H137926   7.242   6.434   7.396  0.2091  0.4927  1.4118
 4577TIP3    H237927   7.373   6.488   7.449  0.9020 -0.7560  1.0187
 4578TIP3   OH237928   2.631   4.957   9.301 -0.1577  0.0096  0.2165
 4578TIP3    H137929   2.685   4.880   9.281 -0.7384 -0.1894 -0.6177
 4578TIP3    H237930   2.652   5.020   9.232 -1.3342 -0.2538 -0.3984
 4579TIP3   OH237931   3.093   3.106   8.632  0.1132  0.5435 -0.0774
 4579TIP3    H137932   3.030   3.043   8.598 -0.9464  0.2454  2.2260
 4579TIP3    H237933   3.148   3.128   8.557 -0.1647 -2.2647 -1.2325
 4580TIP3   OH237934   5.968   5.164   7.291  1.0686 -0.2636  0.1927
 4580TIP3    H137935   5.901   5.100   7.314  1.1880 -0.9677 -1.2572
 4580TIP3    H237936   6.042   5.144   7.348 -0.5071  1.7339  3.1628
 4581TIP3   OH237937   2.272   6.986   8.133 -0.1393  0.4414 -0.2022
 4581TIP3    H137938   2.289   6.891   8.131 -0.1449  0.4366 -0.0178
 4581TIP3    H237939   2.177   6.993   8.140 -0.2445  0.4685 -1.3591
 4582TIP3   OH237940   0.331   1.177   8.889  0.6397 -0.0594 -0.0286
 4582TIP3    H137941   0.334   1.209   8.979 -0.4518 -2.7609  1.0765
 4582TIP3    H237942   0.249   1.213   8.854  0.4901  0.0882  0.4577
 4583TIP3   OH237943   3.332   2.954   7.354 -0.5398  0.3445 -0.1859
 4583TIP3    H137944   3.297   2.866   7.341  2.1576 -0.8344 -0.1450
 4583TIP3    H237945   3.359   2.955   7.446  1.1695  0.4872 -0.6622
 4584TIP3   OH237946   0.110   7.048   9.063 -0.2657 -0.2960 -0.2623
 4584TIP3    H137947   0.154   7.103   9.127  0.1916  1.1427 -1.7656
 4584TIP3    H237948   0.027   7.024   9.106 -1.1348  2.7124 -0.0369
 4585TIP3   OH237949   1.008   1.323   7.772 -0.3382  0.1257 -0.1849
 4585TIP3    H137950   1.072   1.273   7.722  0.0103  0.6335 -0.2539
 4585TIP3    H237951   0.964   1.258   7.827  1.6527  0.0366  1.4080
 4586TIP3   OH237952   1.185   4.889   8.738  0.2377  0.7108  0.4489
 4586TIP3    H137953   1.214   4.865   8.649 -2.2195  0.9017 -0.4774
 4586TIP3    H237954   1.137   4.813   8.769 -0.8234  1.4688  0.7020
 4587TIP3   OH237955   3.725   7.565   8.494  0.0701  0.5726 -0.6226
 4587TIP3    H137956   3.730   7.543   8.401 -1.2790 -0.4336 -0.4806
 4587TIP3    H237957   3.758   7.487   8.539 -2.5241 -0.3848 -0.1910
 4588TIP3   OH237958   6.769   4.340   8.573 -0.0388  0.3382 -0.1333
 4588TIP3    H137959   6.834   4.280   8.538  1.3342  1.6219  0.1124
 4588TIP3    H237960   6.710   4.358   8.500  0.4099 -0.1327 -0.6193
 4589TIP3   OH237961   5.426   6.476   7.668  0.7161 -0.6786  0.0653
 4589TIP3    H137962   5.429   6.493   7.762 -0.2150  0.9133 -0.1578
 4589TIP3    H237963   5.511   6.504   7.635  0.3695  0.6195  0.1938
 4590TIP3   OH237964   2.722   6.054   9.182 -0.2383 -0.5497 -0.3355
 4590TIP3    H137965   2.667   6.100   9.119 -1.6771 -0.7550  0.7136
 4590TIP3    H237966   2.737   6.118   9.252  0.1475 -0.7700 -0.2135
 4591TIP3   OH237967   3.061   0.237   8.893 -0.2873  0.1248  0.4491
 4591TIP3    H137968   3.157   0.241   8.896 -0.1511 -1.5847 -0.3749
 4591TIP3    H237969   3.032   0.322   8.926  1.5429  1.6151 -1.5361
 4592TIP3   OH237970   0.501   4.671   8.046 -0.2177 -0.4763  0.4354
 4592TIP3    H137971   0.510   4.582   8.080  1.4843 -0.5886 -0.2134
 4592TIP3    H237972   0.589   4.694   8.016 -0.8224  1.0956 -0.2240
 4593TIP3   OH237973   1.957   2.838   8.673 -0.8013  0.0680  0.4332
 4593TIP3    H137974   1.926   2.779   8.742  1.4616 -2.4383 -0.5520
 4593TIP3    H237975   1.971   2.922   8.719 -0.6870 -1.1218  2.7158
 4594TIP3   OH237976   0.004   5.394   7.956  0.5537  0.5759 -0.0416
 4594TIP3    H137977   0.073   5.411   8.020  0.0473 -1.3020  1.0526
 4594TIP3    H237978   0.038   5.321   7.903 -0.6256 -0.4750  0.6097
 4595TIP3   OH237979   4.817   5.222   9.777 -0.3114 -0.0272 -0.5582
 4595TIP3    H137980   4.906   5.230   9.813 -0.2193  0.4106 -0.8836
 4595TIP3    H237981   4.764   5.279   9.832 -0.5431 -0.8646  0.1176
 4596TIP3   OH237982   2.424   1.094   8.793  0.0865 -0.0052  0.3084
 4596TIP3    H137983   2.470   1.156   8.849 -1.3919 -0.5334  2.2396
 4596TIP3    H237984   2.387   1.148   8.723  0.6602  0.9422  0.7117
 4597TIP3   OH237985   1.307   1.099   8.393  0.0042 -0.6489 -0.2619
 4597TIP3    H137986   1.337   1.085   8.303 -1.2260 -0.7822 -0.6728
 4597TIP3    H237987   1.259   1.182   8.389  1.2231  0.1178  0.6142
 4598TIP3   OH237988   2.025   2.188   7.733 -0.3934 -0.3419  0.3656
 4598TIP3    H137989   2.088   2.120   7.708  0.7170  0.9862 -0.5973
 4598TIP3    H237990   2.033   2.255   7.665 -1.8951  0.4888  0.9530
 4599TIP3   OH237991   0.226   7.534   8.213 -0.2143  0.2912 -0.4300
 4599TIP3    H137992   0.279   7.563   8.286  1.2982  0.6248 -1.6162
 4599TIP3    H237993   0.162   7.473   8.252 -1.0238  2.2476  1.5075
 4600TIP3   OH237994   1.792   2.232   9.319 -0.8600 -0.1692  0.2957
 4600TIP3    H137995   1.813   2.320   9.287  0.7663 -1.0545 -1.2525
 4600TIP3    H237996   1.713   2.244   9.371 -2.1143  1.8693 -1.8716
 4601TIP3   OH237997   5.611   3.214   8.458 -0.9994 -0.2678  0.0924
 4601TIP3    H137998   5.642   3.224   8.368 -1.6465  0.0316 -0.1064
 4601TIP3    H237999   5.615   3.120   8.476 -3.2358 -0.6710 -1.1389
 4602TIP3   OH238000   3.139   3.644   8.027  0.0457 -0.6806 -0.3561
 4602TIP3    H138001   3.226   3.682   8.015  0.5040 -1.3791  0.6242
 4602TIP3    H238002   3.155   3.552   8.046 -0.7548 -0.4525  1.7833
 4603TIP3   OH238003   7.286   2.639   7.669 -0.4191  0.2996  0.1065
 4603TIP3    H138004   7.237   2.593   7.600 -0.8822 -2.1303  1.9201
 4603TIP3    H238005   7.223   2.646   7.741  1.0408 -0.3692  1.4925
 4604TIP3   OH238006   2.539   7.084   8.127 -0.1771 -0.1583 -0.4296
 4604TIP3    H138007   2.446   7.058   8.122 -0.3220  0.2453  0.1041
 4604TIP3    H238008   2.582   7.007   8.164 -0.4837  0.0660  0.4102
 4605TIP3   OH238009   7.618   1.077   8.321  0.0606 -0.5000 -0.1038
 4605TIP3    H138010   7.524   1.059   8.321 -0.0896  0.1384  1.1746
 4605TIP3    H238011   7.628   1.150   8.383  1.4554 -0.8576  0.1222
 4606TIP3   OH238012   4.907   1.549   9.434 -0.1971  0.6079 -0.0172
 4606TIP3    H138013   4.975   1.517   9.493 -2.0768 -1.3224  1.2444
 4606TIP3    H238014   4.939   1.529   9.346  0.9336 -0.0636  0.5368
 4607TIP3   OH238015   6.822   0.468   9.269  0.3743 -0.0641 -0.2104
 4607TIP3    H138016   6.758   0.512   9.326  0.9590 -0.2236  0.5890
 4607TIP3    H238017   6.798   0.376   9.273 -0.0491  0.0068 -0.8502
 4608TIP3   OH238018   5.295   3.689   9.044  0.3057  0.1116 -0.3853
 4608TIP3    H138019   5.231   3.621   9.024  2.5233 -1.9113 -1.1245
 4608TIP3    H238020   5.296   3.695   9.139 -1.8602  1.1718 -0.3710
 4609TIP3   OH238021   3.620   6.416   8.719 -0.4553 -0.3986  0.0679
 4609TIP3    H138022   3.591   6.377   8.636 -0.0250 -0.4775 -0.0449
 4609TIP3    H238023   3.555   6.386   8.783  0.4307 -2.1961  0.2053
 4610TIP3   OH238024   1.841   0.406   8.739  0.7463  0.2498 -0.1779
 4610TIP3    H138025   1.913   0.468   8.730  1.6174 -0.9273 -2.2438
 4610TIP3    H238026   1.826   0.374   8.650 -2.3810  0.4487  0.1840
 4611TIP3   OH238027   1.124   6.194   9.157 -0.6491  0.5625  0.2069
 4611TIP3    H138028   1.191   6.201   9.224 -0.2327  1.4213 -0.2880
 4611TIP3    H238029   1.169   6.216   9.075 -0.8721 -1.4921 -0.5368
 4612TIP3   OH238030   5.555   4.187   8.299  0.6425 -0.0369  0.0163
 4612TIP3    H138031   5.590   4.244   8.230  0.9166 -0.0540  0.1408
 4612TIP3    H238032   5.533   4.106   8.253  1.4809 -0.3043  0.0645
 4613TIP3   OH238033   5.178   3.500   9.564  0.0224 -0.3330  0.1057
 4613TIP3    H138034   5.146   3.458   9.644 -0.4757 -1.0625 -0.4630
 4613TIP3    H238035   5.129   3.457   9.493 -0.1757  0.8896 -0.5319
 4614TIP3   OH238036   5.414   1.508   9.464  0.6141  0.8746  0.1316
 4614TIP3    H138037   5.359   1.443   9.508  1.2038  0.7686  0.7267
 4614TIP3    H238038   5.360   1.587   9.462 -0.2225  0.2944 -0.8690
 4615TIP3   OH238039   3.451   7.055   8.867  0.0252  0.0759 -0.1012
 4615TIP3    H138040   3.397   7.134   8.867 -3.6703 -2.1935 -0.7638
 4615TIP3    H238041   3.422   7.006   8.943  1.1928 -1.2958 -0.4913
 4616TIP3   OH238042   1.928   5.643   9.435 -0.1664 -0.2945 -0.3195
 4616TIP3    H138043   2.017   5.625   9.404 -0.0509  0.5807 -0.5264
 4616TIP3    H238044   1.904   5.565   9.485 -0.1520 -1.5519 -2.1618
 4617TIP3   OH238045   5.553   2.299   8.157  0.1247  0.7462  0.4425
 4617TIP3    H138046   5.638   2.320   8.195 -0.0958  1.1215  0.7360
 4617TIP3    H238047   5.549   2.348   8.076  0.3492  0.4153  0.2282
 4618TIP3   OH238048   2.197   1.587   9.283  0.0540 -0.4170  0.3821
 4618TIP3    H138049   2.109   1.550   9.272  0.3881 -1.0114 -0.3864
 4618TIP3    H238050   2.205   1.601   9.378 -0.0600 -2.4074  0.7252
 4619TIP3   OH238051   1.095   6.424   8.166  0.3635  0.0919 -0.6113
 4619TIP3    H138052   1.142   6.342   8.153  0.0800 -0.2239  0.2485
 4619TIP3    H238053   1.144   6.468   8.236 -1.8621 -1.3056  2.0284
 4620TIP3   OH238054   4.477   5.621   8.650  0.2643  0.0714 -0.4162
 4620TIP3    H138055   4.384   5.608   8.633 -0.2040  1.4012  0.9379
 4620TIP3    H238056   4.480   5.683   8.723  2.1424 -2.3483  1.7539
 4621TIP3   OH238057   1.984   4.741   8.681  0.0024 -0.2016 -0.8303
 4621TIP3    H138058   2.073   4.757   8.650 -0.0284  0.6687 -0.4977
 4621TIP3    H238059   1.960   4.821   8.727  0.1101 -1.4418  1.5900
 4622TIP3   OH238060   6.169   3.759   7.902  0.3020  0.0459  0.4983
 4622TIP3    H138061   6.189   3.765   7.809 -0.5765  0.3886  0.3115
 4622TIP3    H238062   6.076   3.736   7.905  0.5898 -1.1021  1.2980
 4623TIP3   OH238063   4.838   4.727   8.851 -0.2628  0.0412 -0.1860
 4623TIP3    H138064   4.791   4.775   8.919 -0.3348  0.9651 -0.8673
 4623TIP3    H238065   4.909   4.683   8.897  0.2682  1.4142  0.3537
 4624TIP3   OH238066   3.715   7.173   8.266  0.0575 -0.1923  0.2985
 4624TIP3    H138067   3.666   7.228   8.327 -0.0765 -1.4681  1.3901
 4624TIP3    H238068   3.660   7.167   8.188 -0.4812  0.2164  0.6491
 4625TIP3   OH238069   5.979   1.852   9.321  0.1416 -0.3788 -0.1572
 4625TIP3    H138070   6.054   1.908   9.344  0.6933 -0.8367 -0.8423
 4625TIP3    H238071   5.973   1.858   9.226 -0.3559 -0.7799 -0.1507
 4626TIP3   OH238072   2.912   1.928   8.670 -0.2635  0.7876 -0.7163
 4626TIP3    H138073   2.874   2.007   8.632 -0.6653  2.1784  2.3456
 4626TIP3    H238074   2.845   1.896   8.731  0.1225 -1.6429 -1.4653
 4627TIP3   OH238075   2.609   6.167   8.645  0.0316 -0.2610  0.3344
 4627TIP3    H138076   2.670   6.125   8.584  1.0608  0.0922  1.1091
 4627TIP3    H238077   2.616   6.260   8.627  0.0574 -0.1827  0.7356
 4628TIP3   OH238078   0.307   4.395   7.683  0.1663  0.1631  0.0020
 4628TIP3    H138079   0.375   4.329   7.689 -1.1979 -1.3838 -0.7088
 4628TIP3    H238080   0.339   4.457   7.618  1.0326 -0.3485 -0.0765
 4629TIP3   OH238081   4.861   5.089   8.889 -0.0086  0.0277 -0.3261
 4629TIP3    H138082   4.858   5.157   8.822  0.4048 -0.9341 -1.3462
 4629TIP3    H238083   4.937   5.035   8.866  0.7727  0.2724  1.5206
 4630TIP3   OH238084   1.196   4.262   6.838 -0.1511 -0.6719  0.0210
 4630TIP3    H138085   1.254   4.240   6.911  0.5708  0.2541 -0.2556
 4630TIP3    H238086   1.185   4.179   6.791  0.0598 -1.0941  0.6987
 4631TIP3   OH238087   6.313   1.687   7.391  0.6429 -0.2486 -0.5947
 4631TIP3    H138088   6.375   1.702   7.320  1.6676  1.8890  0.6480
 4631TIP3    H238089   6.364   1.642   7.458  0.0116 -1.1517 -0.6990
 4632TIP3   OH238090   0.214   4.071   8.874 -0.0900  0.2860 -0.1594
 4632TIP3    H138091   0.234   4.085   8.781 -1.7818  0.5475 -0.5208
 4632TIP3    H238092   0.152   3.998   8.875 -1.3811  1.3480  0.5897
 4633TIP3   OH238093   3.851   6.836   8.917 -0.5775 -0.0284  0.1278
 4633TIP3    H138094   3.902   6.912   8.889 -0.7968  0.1904  0.3282
 4633TIP3    H238095   3.771   6.840   8.865  0.1686 -1.1272 -1.2059
 4634TIP3   OH238096   3.089   4.300   7.851  0.4910  0.4115  0.1745
 4634TIP3    H138097   3.004   4.343   7.858 -0.2941 -1.2309  1.7533
 4634TIP3    H238098   3.153   4.370   7.864 -0.6936  1.3079  1.4097
 4635TIP3   OH238099   1.178   2.244   8.757 -0.4989 -0.2293  0.1098
 4635TIP3    H138100   1.249   2.299   8.789 -0.4026 -1.1335  1.5653
 4635TIP3    H238101   1.209   2.209   8.674  0.1714  0.4882  0.0473
 4636TIP3   OH238102   6.610   2.408   9.560  0.2464  0.0686  0.5897
 4636TIP3    H138103   6.690   2.364   9.589  0.2504 -0.5337 -0.2917
 4636TIP3    H238104   6.565   2.343   9.506 -1.6895 -0.2007  2.4044
 4637TIP3   OH238105   4.659   4.474   8.349 -0.0997  0.2410  0.2708
 4637TIP3    H138106   4.608   4.476   8.430 -0.8733  2.3522 -0.2051
 4637TIP3    H238107   4.742   4.517   8.371 -0.3990  1.0263 -0.0666
 4638TIP3   OH238108   6.856   7.139   9.190 -0.8133 -0.0211  0.4023
 4638TIP3    H138109   6.895   7.222   9.218 -0.3430 -0.1821  0.2358
 4638TIP3    H238110   6.766   7.161   9.167 -0.6979  0.4385  0.3815
 4639TIP3   OH238111   7.358   2.444   7.119 -0.2257 -0.1265 -0.0534
 4639TIP3    H138112   7.415   2.519   7.106 -0.3391  0.2480  1.5220
 4639TIP3    H238113   7.280   2.479   7.161 -0.6314 -1.0010 -0.0426
 4640TIP3   OH238114   5.573   4.125   9.362 -0.7928  0.0135  0.1136
 4640TIP3    H138115   5.495   4.179   9.354  0.5258  1.8029 -1.5458
 4640TIP3    H238116   5.582   4.082   9.277 -0.5859 -1.0752  0.6696
 4641TIP3   OH238117   3.597   4.616   8.136 -0.2716  0.1839 -0.2020
 4641TIP3    H138118   3.577   4.618   8.230  0.1156 -0.6573 -0.0924
 4641TIP3    H238119   3.621   4.706   8.115 -2.5944  0.9293 -0.0010
 4642TIP3   OH238120   5.474   0.848   7.017 -0.1729  0.2859  0.1863
 4642TIP3    H138121   5.446   0.866   7.107  0.1492 -0.2223  0.3914
 4642TIP3    H238122   5.393   0.851   6.966 -0.3158  0.8853  0.4391
 4643TIP3   OH238123   6.536   6.968   8.315 -0.6913  0.6298  0.2457
 4643TIP3    H138124   6.524   7.034   8.247 -0.9012 -0.9668 -1.3317
 4643TIP3    H238125   6.616   6.995   8.360 -1.5517  2.7395  0.6246
 4644TIP3   OH238126   6.653   0.103   7.859  0.3180  0.0130 -0.4934
 4644TIP3    H138127   6.701   0.120   7.779  0.1596  0.0691 -0.5769
 4644TIP3    H238128   6.568   0.146   7.847 -0.4444 -1.5737 -1.0877
 4645TIP3   OH238129   0.361   3.371   8.023 -0.3362 -0.3680  0.0967
 4645TIP3    H138130   0.397   3.429   7.956  0.7167 -1.2224 -0.1051
 4645TIP3    H238131   0.312   3.305   7.973  0.4162 -0.9829  0.1590
 4646TIP3   OH238132   6.459   0.607   8.591 -0.3590 -0.5616 -0.8193
 4646TIP3    H138133   6.430   0.695   8.565  0.5449  0.0052 -0.0068
 4646TIP3    H238134   6.512   0.622   8.670 -0.0319 -1.8207 -0.7776
 4647TIP3   OH238135   5.473   6.660   7.346 -0.2813 -1.0198 -0.1114
 4647TIP3    H138136   5.467   6.680   7.253  1.3517  0.4287  0.0519
 4647TIP3    H238137   5.550   6.603   7.353 -0.0496 -0.6380  0.4282
 4648TIP3   OH238138   2.359   1.413   8.837  0.0011  0.3203 -0.0333
 4648TIP3    H138139   2.397   1.463   8.764  1.2862  0.8178  0.9514
 4648TIP3    H238140   2.352   1.477   8.908 -3.4119  0.4696 -0.3480
 4649TIP3   OH238141   6.153   7.227   8.582 -0.3205  0.1015  0.3426
 4649TIP3    H138142   6.188   7.304   8.626  1.2453 -0.2170 -0.3003
 4649TIP3    H238143   6.182   7.235   8.492 -1.9207 -0.1985 -0.2370
 4650TIP3   OH238144   0.671   4.838   8.284  0.4094  0.3464 -0.1470
 4650TIP3    H138145   0.587   4.792   8.276  1.2920 -1.4889  0.5957
 4650TIP3    H238146   0.705   4.840   8.195 -0.0032  0.2284 -0.3093
 4651TIP3   OH238147   5.441   1.426   8.179  0.0268  0.0486  0.8316
 4651TIP3    H138148   5.477   1.491   8.239 -1.4570  1.1544  0.5663
 4651TIP3    H238149   5.517   1.396   8.129  0.8334  1.1597  1.3413
 4652TIP3   OH238150   6.335   3.827   6.721  0.2558  0.4910 -0.0801
 4652TIP3    H138151   6.307   3.751   6.771  1.4629  0.1907  0.1580
 4652TIP3    H238152   6.338   3.797   6.630  0.8132  0.2198  0.0237
 4653TIP3   OH238153   6.212   5.522   9.002 -0.5988 -0.8773  0.4249
 4653TIP3    H138154   6.219   5.484   8.914 -0.1557 -2.8102  1.2297
 4653TIP3    H238155   6.294   5.569   9.014 -1.0146  0.1323 -0.4763
 4654TIP3   OH238156   2.888   1.234   8.149  0.0635  0.3712 -0.3179
 4654TIP3    H138157   2.853   1.233   8.059 -0.9462 -0.0353  0.0642
 4654TIP3    H238158   2.966   1.179   8.145  0.6175  1.1897 -1.1675
 4655TIP3   OH238159   1.992   5.092   9.115 -0.8941  0.4562  0.0096
 4655TIP3    H138160   1.903   5.119   9.139 -0.6647  1.4025 -0.1583
 4655TIP3    H238161   2.041   5.096   9.197 -0.7141  1.1909 -0.1244
 4656TIP3   OH238162   4.526   5.212   9.458 -0.7826 -0.3560 -0.2985
 4656TIP3    H138163   4.533   5.252   9.371  0.6265 -0.6556 -0.3473
 4656TIP3    H238164   4.455   5.260   9.500  1.4388  3.0168  0.0394
 4657TIP3   OH238165   6.468   4.887   7.808  0.1834 -0.1124  0.2035
 4657TIP3    H138166   6.432   4.942   7.878 -2.4770 -1.3409 -0.0923
 4657TIP3    H238167   6.503   4.811   7.854  1.0967  0.3839  0.3675
 4658TIP3   OH238168   4.411   4.221   7.588 -0.1274 -0.3339  0.7670
 4658TIP3    H138169   4.332   4.184   7.628  0.2474 -0.8193  1.0631
 4658TIP3    H238170   4.447   4.151   7.535  0.1815 -0.1611  0.7428
 4659TIP3   OH238171   4.251   1.328   7.969  0.1442 -0.0747  0.2799
 4659TIP3    H138172   4.322   1.298   7.913  0.8946 -0.5602  1.4601
 4659TIP3    H238173   4.206   1.247   7.996  1.2804 -0.0927  2.3017
 4660TIP3   OH238174   7.281   2.105   7.898 -0.0139 -0.0839  0.0279
 4660TIP3    H138175   7.375   2.124   7.893 -0.1217  0.4509 -0.0354
 4660TIP3    H238176   7.239   2.187   7.875 -0.5109 -0.8639 -2.0156
 4661TIP3   OH238177   5.463   4.521   8.586 -0.6337  0.0637  0.5645
 4661TIP3    H138178   5.530   4.572   8.632 -0.7024 -0.2568  1.0348
 4661TIP3    H238179   5.481   4.431   8.611  0.7154 -0.4054 -1.8302
 4662TIP3   OH238180   6.477   5.014   6.651 -1.6101  0.1625  0.5543
 4662TIP3    H138181   6.489   5.108   6.664  0.5047 -0.2924  2.5427
 4662TIP3    H238182   6.481   5.002   6.556  0.4883  1.8517  0.3405
 4663TIP3   OH238183   1.562   2.354   7.775  0.0400 -0.0504  0.6206
 4663TIP3    H138184   1.599   2.434   7.738 -0.0570  0.8775  2.4453
 4663TIP3    H238185   1.471   2.353   7.745  0.8752 -1.3124 -2.2244
 4664TIP3   OH238186   2.666   4.002   9.916 -0.3115  0.5087 -0.1509
 4664TIP3    H138187   2.666   4.005  10.012  1.8608 -0.9924 -0.0278
 4664TIP3    H238188   2.662   4.094   9.890  0.0085  1.0061  1.4169
 4665TIP3   OH238189   6.775   6.582   7.557 -0.2038 -0.0228 -0.0011
 4665TIP3    H138190   6.699   6.626   7.595 -1.0160 -0.4732 -1.0318
 4665TIP3    H238191   6.737   6.514   7.501  0.9066  0.9372 -1.9943
 4666TIP3   OH238192   2.629   3.797   7.866  0.7457 -0.3256 -0.2912
 4666TIP3    H138193   2.633   3.705   7.892  0.4770 -0.0690  0.7148
 4666TIP3    H238194   2.718   3.830   7.876  0.5977 -0.1667  0.5905
 4667TIP3   OH238195   2.789   7.495   7.832  0.4476 -0.3602 -0.3586
 4667TIP3    H138196   2.770   7.481   7.739 -0.9303 -0.5662 -0.0571
 4667TIP3    H238197   2.789   7.408   7.870 -0.2842 -0.1755  0.0714
 4668TIP3   OH238198   5.812   5.729   9.046 -0.6982 -0.3791 -0.3481
 4668TIP3    H138199   5.872   5.770   8.984 -0.8739  2.6854  1.3533
 4668TIP3    H238200   5.853   5.645   9.067  0.6736 -0.3182 -2.5741
 4669TIP3   OH238201   7.170   3.923   7.727  0.6512  0.2386  0.0850
 4669TIP3    H138202   7.235   3.878   7.674  1.6203  2.2309 -0.5159
 4669TIP3    H238203   7.189   3.897   7.817  1.2125 -0.4881 -0.2400
 4670TIP3   OH238204   4.787   4.402   9.037 -0.0371  0.6192 -0.1586
 4670TIP3    H138205   4.724   4.457   9.084 -0.1885  1.6909 -1.5470
 4670TIP3    H238206   4.866   4.456   9.031  0.2954  0.1259 -0.3162
 4671TIP3   OH238207   6.397   0.765   8.043 -1.0940  0.6774 -0.3172
 4671TIP3    H138208   6.456   0.694   8.065 -2.5993 -0.7575 -0.7378
 4671TIP3    H238209   6.343   0.776   8.121 -0.8914  1.3529 -0.2649
 4672TIP3   OH238210   0.695   3.236   7.885 -0.3707 -0.6849  0.7955
 4672TIP3    H138211   0.707   3.232   7.790  1.7021 -0.5893  1.0038
 4672TIP3    H238212   0.618   3.182   7.902 -1.7477  0.5699 -1.0599
 4673TIP3   OH238213   0.054   3.196   9.278 -0.2208 -0.1297 -0.1890
 4673TIP3    H138214   0.084   3.113   9.316  0.9533 -0.7331 -2.3158
 4673TIP3    H238215   0.119   3.218   9.211 -2.0303  1.0018 -1.6789
 4674TIP3   OH238216   4.723   0.559   9.258  0.2351 -0.8744  0.2407
 4674TIP3    H138217   4.752   0.485   9.204  1.2927 -0.3670  0.0857
 4674TIP3    H238218   4.685   0.621   9.195  1.4367 -0.2983  0.0387
 4675TIP3   OH238219   2.768   6.896   7.598 -0.1422 -0.1405 -0.1606
 4675TIP3    H138220   2.717   6.820   7.624 -0.5009  0.3298  0.5085
 4675TIP3    H238221   2.721   6.971   7.633  0.1849  0.4064 -0.8519
 4676TIP3   OH238222   1.676   0.809   8.487 -0.4337  0.6100  0.5374
 4676TIP3    H138223   1.756   0.846   8.448  1.3068 -3.4576 -0.3199
 4676TIP3    H238224   1.694   0.808   8.581  0.9452 -0.8652  0.3098
 4677TIP3   OH238225   1.386   3.292   8.544 -0.4191 -0.9417  0.4257
 4677TIP3    H138226   1.367   3.251   8.628 -2.6125  0.6169  0.7790
 4677TIP3    H238227   1.468   3.340   8.559 -2.4442  2.1651  2.9117
 4678TIP3   OH238228   6.627   6.404   7.402 -0.5380  0.2606  0.3386
 4678TIP3    H138229   6.586   6.318   7.413  0.9918 -0.5972 -0.4610
 4678TIP3    H238230   6.590   6.437   7.320  0.0260 -0.3173 -0.1550
 4679TIP3   OH238231   4.002   5.107   8.838 -0.1459  0.0683  0.2347
 4679TIP3    H138232   4.000   5.078   8.930 -3.3241 -1.2104 -0.1186
 4679TIP3    H238233   4.036   5.032   8.790 -0.1524  0.0941  0.1900
 4680TIP3   OH238234   7.238   3.454   9.455 -0.0041  0.4546 -0.3714
 4680TIP3    H138235   7.227   3.546   9.478 -1.9656  0.6395 -1.8335
 4680TIP3    H238236   7.149   3.420   9.449  0.6620 -2.0910  2.0092
 4681TIP3   OH238237   7.339   0.889   7.398 -0.2819 -0.0787  0.0523
 4681TIP3    H138238   7.334   0.954   7.469 -1.3996  0.3544 -0.3994
 4681TIP3    H238239   7.399   0.822   7.431 -1.1520 -0.1456  1.6248
 4682TIP3   OH238240   6.088   6.407   8.961 -0.2982  0.0668  0.3553
 4682TIP3    H138241   6.037   6.488   8.957  1.2002  1.0677  0.7348
 4682TIP3    H238242   6.166   6.430   9.012 -0.2017 -1.8333  1.1465
 4683TIP3   OH238243   3.177   3.092   8.365  0.0914  0.3584 -0.0701
 4683TIP3    H138244   3.249   3.090   8.302 -0.2647  0.0709 -0.4758
 4683TIP3    H238245   3.102   3.124   8.315 -0.3045 -0.2951  0.0838
 4684TIP3   OH238246   4.532   7.046   8.147 -0.0624  0.0525 -0.4607
 4684TIP3    H138247   4.533   7.106   8.221 -0.3630  1.0399 -1.2360
 4684TIP3    H238248   4.622   7.046   8.114 -0.1807  0.5508 -0.8087
 4685TIP3   OH238249   5.644   3.760   8.341  0.4095  0.1690 -0.0794
 4685TIP3    H138250   5.732   3.730   8.364 -0.4129 -1.1932  1.4996
 4685TIP3    H238251   5.617   3.814   8.415  0.6765  2.3691 -1.5114
 4686TIP3   OH238252   3.872   0.372   7.712  0.5622 -0.2841 -0.4949
 4686TIP3    H138253   3.832   0.292   7.676 -0.8877  0.8804 -1.6215
 4686TIP3    H238254   3.853   0.439   7.647  1.5184  1.0526  0.5517
 4687TIP3   OH238255   6.953   5.274   9.738  0.4630  0.1611 -0.1115
 4687TIP3    H138256   6.890   5.249   9.671  0.9206  0.3697 -0.6315
 4687TIP3    H238257   6.925   5.228   9.817  0.0960 -0.3305 -0.5261
 4688TIP3   OH238258   5.334   3.747   9.326  0.7544  0.3321  0.3085
 4688TIP3    H138259   5.264   3.801   9.288 -0.3967 -0.8182  0.7376
 4688TIP3    H238260   5.320   3.754   9.421  0.0040 -1.4299  0.3564
 4689TIP3   OH238261   6.508   2.848   8.380 -0.1359  0.5016 -0.1518
 4689TIP3    H138262   6.460   2.780   8.428  0.6785  0.2558  0.3365
 4689TIP3    H238263   6.543   2.905   8.448  1.0399  0.1481 -0.4453
 4690TIP3   OH238264   0.615   3.445   8.198  0.1333 -0.4877 -0.3325
 4690TIP3    H138265   0.528   3.419   8.168 -0.0914  0.6833 -0.7260
 4690TIP3    H238266   0.641   3.517   8.141  1.1874 -0.5366  0.0521
 4691TIP3   OH238267   6.705   7.553   7.625 -0.0673  0.1779 -0.4278
 4691TIP3    H138268   6.679   7.645   7.623 -0.9549  0.0035  1.2662
 4691TIP3    H238269   6.786   7.552   7.676  0.5685  0.1507 -1.4353
 4692TIP3   OH238270   1.454   7.079   6.840 -0.4031 -0.1347  0.0942
 4692TIP3    H138271   1.457   6.986   6.819 -0.2986  0.1829 -1.3986
 4692TIP3    H238272   1.363   7.096   6.862 -0.9572 -0.1384 -1.9946
 4693TIP3   OH238273   4.747   2.439   9.523  0.1050 -0.7161 -0.4171
 4693TIP3    H138274   4.661   2.449   9.564  0.1988 -1.3470 -0.0638
 4693TIP3    H238275   4.781   2.528   9.519  0.1613 -0.6527  1.0352
 4694TIP3   OH238276   0.571   4.046   9.208 -0.4339 -0.3670  0.1245
 4694TIP3    H138277   0.577   4.141   9.219 -2.0498 -0.1701 -0.5814
 4694TIP3    H238278   0.604   4.011   9.291  0.4442  0.7753  0.2930
 4695TIP3   OH238279   0.329   7.106   8.306 -0.0953  0.2772  0.2694
 4695TIP3    H138280   0.321   7.014   8.283  1.3909 -0.0895  1.1017
 4695TIP3    H238281   0.317   7.153   8.223 -1.2917 -0.6187 -0.0866
 4696TIP3   OH238282   5.208   5.929   8.115  0.0806 -0.7458 -0.2873
 4696TIP3    H138283   5.229   6.013   8.158  0.2440 -0.3497 -1.1277
 4696TIP3    H238284   5.137   5.950   8.055  0.9072 -0.9626 -1.3563
 4697TIP3   OH238285   1.810   6.372   7.217  0.3599 -0.1117  0.4920
 4697TIP3    H138286   1.716   6.389   7.230 -0.2465  1.2374 -4.0277
 4697TIP3    H238287   1.853   6.443   7.264 -1.0394  0.8287  0.4307
 4698TIP3   OH238288   6.387   6.042   7.726 -0.2814 -0.0812  0.3459
 4698TIP3    H138289   6.426   6.110   7.780 -0.4265 -0.1955  0.5947
 4698TIP3    H238290   6.397   5.962   7.777  0.4878 -0.3718 -0.2232
 4699TIP3   OH238291   3.635   6.560   9.031  0.0604  0.0225 -0.9402
 4699TIP3    H138292   3.629   6.602   8.946  1.6050  0.0137 -1.0860
 4699TIP3    H238293   3.544   6.544   9.057 -0.5315  2.0524 -1.5570
 4700TIP3   OH238294   7.478   2.338   7.951 -0.5254 -0.4158 -0.3324
 4700TIP3    H138295   7.502   2.387   8.029 -0.8634  0.9934 -1.0855
 4700TIP3    H238296   7.561   2.311   7.913 -0.3002  0.1856 -0.2753
 4701TIP3   OH238297   3.292   1.887   8.575  0.1485 -0.7521 -0.4570
 4701TIP3    H138298   3.332   1.943   8.642 -1.3208  0.3529 -0.4451
 4701TIP3    H238299   3.341   1.906   8.495  0.5988 -0.5334 -0.1311
 4702TIP3   OH238300   5.476   7.210   7.882  0.1767 -0.7150 -0.1776
 4702TIP3    H138301   5.387   7.247   7.877  0.7189  0.6868  0.0504
 4702TIP3    H238302   5.513   7.225   7.795  0.5292 -0.3829  0.0270
 4703TIP3   OH238303   1.306   2.949   7.018  0.0245 -0.3642  0.0810
 4703TIP3    H138304   1.320   2.901   7.100  0.1534 -1.8761 -0.7840
 4703TIP3    H238305   1.223   2.994   7.031  0.6572  0.4875  1.5044
 4704TIP3   OH238306   7.098   0.907   9.643 -0.2296 -0.0380  0.0365
 4704TIP3    H138307   7.156   0.837   9.674 -0.0419  0.6296  1.2593
 4704TIP3    H238308   7.157   0.977   9.617 -0.4505  0.1488  0.0369
 4705TIP3   OH238309   0.502   0.606   8.103 -0.5115 -0.3984  0.3652
 4705TIP3    H138310   0.556   0.685   8.098  1.0065 -1.3247  1.4484
 4705TIP3    H238311   0.492   0.579   8.011  1.3846 -0.5331  0.1711
 4706TIP3   OH238312   6.676   6.794   8.977  0.8028  0.1499  0.4762
 4706TIP3    H138313   6.600   6.785   8.919 -0.2885  0.5365  1.8014
 4706TIP3    H238314   6.646   6.760   9.061  1.3938  2.2575  1.5963
 4707TIP3   OH238315   5.502   5.558   9.201 -0.3954  0.4495  0.4168
 4707TIP3    H138316   5.537   5.559   9.112  1.5057 -1.8838  1.0275
 4707TIP3    H238317   5.410   5.583   9.191  0.3912  2.9770 -1.7872
 4708TIP3   OH238318   1.067   4.263   8.788 -0.2957 -0.1029  0.0881
 4708TIP3    H138319   1.037   4.302   8.705  0.9085  1.0602  0.1548
 4708TIP3    H238320   1.116   4.334   8.830 -1.6016 -0.3709  2.2269
 4709TIP3   OH238321   7.100   3.939   7.169 -0.1402  0.1558  0.2326
 4709TIP3    H138322   7.195   3.943   7.168 -0.1536  1.5742  1.4980
 4709TIP3    H238323   7.072   4.026   7.195 -1.7119 -0.7720  1.9304
 4710TIP3   OH238324   2.468   4.595   8.029  0.1116 -0.2603  0.0541
 4710TIP3    H138325   2.376   4.588   8.003 -0.2829 -2.0218  1.7348
 4710TIP3    H238326   2.517   4.560   7.954 -0.3736  2.4097 -1.6519
 4711TIP3   OH238327   2.038   1.666   7.153 -0.2812  0.1818  0.0314
 4711TIP3    H138328   1.986   1.632   7.080  1.2580 -3.1063  0.2969
 4711TIP3    H238329   2.128   1.661   7.122  0.2658  0.5461  1.5237
 4712TIP3   OH238330   1.843   3.682   8.471  0.4285  0.2828  0.1876
 4712TIP3    H138331   1.904   3.638   8.412  0.2241  0.6131 -0.2727
 4712TIP3    H238332   1.757   3.673   8.430  0.4395  1.4685 -0.1422
 4713TIP3   OH238333   7.202   5.005   9.029 -0.2118 -0.5232  0.0842
 4713TIP3    H138334   7.189   4.941   8.959 -2.2329 -0.4326  0.3287
 4713TIP3    H238335   7.295   5.029   9.022  0.0396 -1.7628 -1.4649
 4714TIP3   OH238336   2.372   3.085   9.548  0.5452  0.4221  0.1227
 4714TIP3    H138337   2.304   3.146   9.576  0.1212 -0.1722  0.3964
 4714TIP3    H238338   2.403   3.121   9.464 -1.5592 -0.4141 -1.0855
 4715TIP3   OH238339   2.443   3.584   7.386 -0.2568  0.0166  0.3941
 4715TIP3    H138340   2.513   3.602   7.324  0.4653  0.7511  1.3743
 4715TIP3    H238341   2.487   3.579   7.471 -1.3186 -0.0648  0.9606
 4716TIP3   OH238342   3.525   4.530   9.437  0.1138  0.0222  0.6952
 4716TIP3    H138343   3.531   4.452   9.381  0.2196 -0.4328  1.3301
 4716TIP3    H238344   3.431   4.548   9.442  0.0098 -0.6456  1.3204
 4717TIP3   OH238345   0.072   0.350   9.336 -0.3993 -0.0166 -0.2281
 4717TIP3    H138346   0.050   0.365   9.244 -0.6095 -0.3001 -0.2281
 4717TIP3    H238347   0.072   0.437   9.375  0.3339  0.1727 -0.6340
 4718TIP3   OH238348   1.791   6.501   9.135 -0.4632 -0.0339 -0.2607
 4718TIP3    H138349   1.867   6.523   9.189 -0.8122  0.0376  0.2077
 4718TIP3    H238350   1.809   6.412   9.104  0.1264  0.2350 -0.7091
 4719TIP3   OH238351   7.628   2.226   9.671 -0.0401  0.1076  0.1264
 4719TIP3    H138352   7.678   2.222   9.752  0.7537  0.5177 -0.3264
 4719TIP3    H238353   7.664   2.302   9.625  0.0507 -0.5745 -0.9475
 4720TIP3   OH238354   5.505   3.661   7.842 -0.2459  0.2464  0.0837
 4720TIP3    H138355   5.597   3.655   7.817 -0.3648 -0.2784 -0.2378
 4720TIP3    H238356   5.506   3.659   7.938  0.0202 -0.7136  0.0684
 4721TIP3   OH238357   7.254   1.668   8.831 -0.0736 -0.2537 -0.1779
 4721TIP3    H138358   7.296   1.592   8.872  0.4416  0.0910 -0.0494
 4721TIP3    H238359   7.185   1.631   8.776  0.4998 -0.8468 -0.5117
 4722TIP3   OH238360   7.346   1.472   9.019 -0.1353  0.1121 -0.0841
 4722TIP3    H138361   7.293   1.393   9.029  0.5509 -0.4272 -0.5340
 4722TIP3    H238362   7.404   1.472   9.095  1.6707 -1.2847 -1.3657
 4723TIP3   OH238363   6.581   3.661   9.455 -0.0480 -0.0629 -0.4993
 4723TIP3    H138364   6.673   3.663   9.430 -0.5270 -0.2779 -2.3734
 4723TIP3    H238365   6.561   3.567   9.467  0.1829  0.0322  0.8638
 4724TIP3   OH238366   7.161   5.767   8.377  0.4086 -0.4992 -0.1222
 4724TIP3    H138367   7.240   5.789   8.329 -0.1258 -2.1472 -1.8706
 4724TIP3    H238368   7.148   5.674   8.362 -1.9868 -0.2407 -0.1169
 4725TIP3   OH238369   4.395   0.623   8.890  0.3262  0.5870 -0.4102
 4725TIP3    H138370   4.450   0.567   8.835  1.4193  2.5636 -1.4965
 4725TIP3    H238371   4.355   0.684   8.828 -2.1911 -0.0294  0.5263
 4726TIP3   OH238372   0.376   3.026   9.371 -0.1784  0.1196 -0.5060
 4726TIP3    H138373   0.327   3.063   9.444 -1.5165 -0.7274 -0.9242
 4726TIP3    H238374   0.467   3.047   9.390 -0.6155  1.0346  0.7372
 4727TIP3   OH238375   1.601   0.946   8.996 -0.2173  0.1000  0.4068
 4727TIP3    H138376   1.649   0.989   9.067  1.9854  1.1126 -1.5406
 4727TIP3    H238377   1.670   0.920   8.934 -1.8748 -2.3856 -0.5392
 4728TIP3   OH238378   2.477   3.364   8.689  0.1955 -0.0949 -0.3496
 4728TIP3    H138379   2.431   3.305   8.628  0.5618 -1.1820  0.3938
 4728TIP3    H238380   2.512   3.306   8.757  0.6027  0.9896  0.3964
 4729TIP3   OH238381   5.134   7.216   8.246 -0.4489  0.2772 -0.1204
 4729TIP3    H138382   5.141   7.284   8.180 -1.4422 -0.5174 -1.0774
 4729TIP3    H238383   5.039   7.201   8.256 -0.2975 -0.0645  1.0144
 4730TIP3   OH238384   0.389   6.888   9.042 -0.2375 -0.3540  0.0343
 4730TIP3    H138385   0.460   6.826   9.057 -0.4522 -0.2311  1.7952
 4730TIP3    H238386   0.383   6.938   9.123 -0.0332  2.0523 -1.3446
 4731TIP3   OH238387   0.823   0.846   8.444  0.3516 -0.3662 -0.2781
 4731TIP3    H138388   0.843   0.872   8.354 -0.1034 -0.2153 -0.3369
 4731TIP3    H238389   0.908   0.844   8.487  0.5450 -0.1703 -0.6406
 4732TIP3   OH238390   6.775   0.125   9.603 -0.7701  0.3313 -0.7969
 4732TIP3    H138391   6.839   0.055   9.615 -1.4214 -0.0821  0.3980
 4732TIP3    H238392   6.826   0.206   9.608 -0.2999 -0.0037 -0.1577
 4733TIP3   OH238393   6.898   6.848   8.824 -0.2584  0.8627  0.2939
 4733TIP3    H138394   6.936   6.762   8.808 -0.7782  0.7458 -0.3591
 4733TIP3    H238395   6.819   6.830   8.874  0.6202  1.1216  1.8346
 4734TIP3   OH238396   6.974   7.316   9.532 -0.2706 -0.6667 -0.3897
 4734TIP3    H138397   6.944   7.317   9.441  1.4164 -2.0654 -1.0228
 4734TIP3    H238398   6.894   7.312   9.584 -1.2837  0.5056 -1.7797
 4735TIP3   OH238399   7.202   1.051   9.107  0.0310 -0.1697  0.5527
 4735TIP3    H138400   7.194   0.983   9.039 -1.1157 -0.1721  0.6556
 4735TIP3    H238401   7.202   1.003   9.189  0.8244 -0.1295  0.5826
 4736TIP3   OH238402   1.057   0.561   9.353 -0.0290 -0.1679 -0.0420
 4736TIP3    H138403   1.027   0.573   9.262  0.6317 -1.0928 -0.4037
 4736TIP3    H238404   0.978   0.574   9.406 -0.3443  0.7899 -0.7092
 4737TIP3   OH238405   1.988   7.677   7.562 -0.2998 -0.2574 -0.5163
 4737TIP3    H138406   2.073   7.634   7.561  0.2188  0.6613  0.9829
 4737TIP3    H238407   1.939   7.635   7.491  1.2640 -1.0476 -1.1767
 4738TIP3   OH238408   6.189   0.244   9.200  0.3356 -0.0229 -0.1898
 4738TIP3    H138409   6.163   0.311   9.263  0.4282 -0.2090  0.0486
 4738TIP3    H238410   6.160   0.161   9.239 -2.2128  0.0426 -1.6716
 4739TIP3   OH238411   0.130   1.532   7.534 -0.2431  0.7910 -0.4402
 4739TIP3    H138412   0.069   1.487   7.475  2.1250 -0.6105 -1.9871
 4739TIP3    H238413   0.146   1.468   7.604  1.8806 -0.3057 -1.7965
 4740TIP3   OH238414   3.126   1.498   9.467 -0.5004  0.8137 -0.3185
 4740TIP3    H138415   3.057   1.435   9.449  0.8625 -0.7519 -0.3344
 4740TIP3    H238416   3.120   1.515   9.560 -0.7855  0.5231 -0.2822
 4741TIP3   OH238417   4.949   4.280   7.362  0.3755 -0.1944  0.2166
 4741TIP3    H138418   4.984   4.192   7.349  1.0218  0.0237  0.4470
 4741TIP3    H238419   5.026   4.334   7.380  0.0144  0.4824 -0.2433
 4742TIP3   OH238420   7.423   2.954   9.582  0.2129  0.2864  0.4154
 4742TIP3    H138421   7.404   2.957   9.676 -0.3838  0.1561  0.3032
 4742TIP3    H238422   7.417   3.044   9.553  0.7921  0.3800  0.5751
 4743TIP3   OH238423   5.448   6.374   9.398  0.1679  0.1645 -0.5459
 4743TIP3    H138424   5.429   6.397   9.489  0.8434  0.7444 -0.5445
 4743TIP3    H238425   5.373   6.322   9.371 -0.6477  1.0551 -0.0525
 4744TIP3   OH238426   0.287   7.448   7.102  0.1613 -0.0057 -0.7826
 4744TIP3    H138427   0.365   7.402   7.136  0.2729  1.1923  0.7007
 4744TIP3    H238428   0.300   7.451   7.008  1.0503 -1.3716 -0.7338
 4745TIP3   OH238429   5.872   2.172   9.295  0.3030  0.2789  0.0947
 4745TIP3    H138430   5.838   2.083   9.298 -0.6590  0.6280 -0.1305
 4745TIP3    H238431   5.964   2.162   9.271  0.4832 -0.7081  1.0978
 4746TIP3   OH238432   2.410   7.609   8.758  0.2418  0.3076  0.1490
 4746TIP3    H138433   2.441   7.579   8.844  0.5256  4.1362  1.6169
 4746TIP3    H238434   2.486   7.652   8.719 -0.9978  2.7844  0.2216
 4747TIP3   OH238435   4.290   1.427   8.404 -0.0127 -0.1291  0.0532
 4747TIP3    H138436   4.337   1.487   8.345  0.6244 -0.7698 -0.0991
 4747TIP3    H238437   4.294   1.342   8.360  0.4929 -0.6179  1.0172
 4748TIP3   OH238438   5.296   5.052   8.346 -0.3937  0.2062  0.1341
 4748TIP3    H138439   5.250   5.020   8.269  0.5482  1.9585 -1.2110
 4748TIP3    H238440   5.232   5.042   8.417 -1.8743  0.0843 -1.1530
 4749TIP3   OH238441   3.713   7.620   7.296 -0.2139  0.0806 -0.1672
 4749TIP3    H138442   3.634   7.628   7.349 -0.3117  0.5310 -0.3775
 4749TIP3    H238443   3.706   7.533   7.256 -0.6289  0.1383 -0.2238
 4750TIP3   OH238444   0.466   7.511   8.032 -0.1453  0.1770 -0.2975
 4750TIP3    H138445   0.375   7.510   8.061 -0.5770 -1.5637 -1.5667
 4750TIP3    H238446   0.514   7.465   8.100 -0.5054 -0.4149 -0.4414
 4751TIP3   OH238447   4.912   1.286   8.866 -0.5017 -0.0084 -0.1763
 4751TIP3    H138448   4.898   1.191   8.873 -0.3163  0.0411  0.9616
 4751TIP3    H238449   4.997   1.294   8.824  0.6569 -0.4044  1.9465
 4752TIP3   OH238450   4.881   3.663   7.350  0.1099 -0.4707  0.3911
 4752TIP3    H138451   4.823   3.734   7.377  0.7226  1.3590 -2.6129
 4752TIP3    H238452   4.822   3.591   7.327 -0.8181  0.4140 -0.0739
 4753TIP3   OH238453   4.011   3.245   9.430  0.0902  0.2652  0.4899
 4753TIP3    H138454   4.079   3.266   9.494  0.1670  1.1283  0.1355
 4753TIP3    H238455   4.059   3.211   9.355  0.1342  0.8648  0.2437
 4754TIP3   OH238456   6.777   0.334   7.035  0.2848 -0.7193 -0.1528
 4754TIP3    H138457   6.802   0.254   7.081 -0.0195 -0.7173  0.0202
 4754TIP3    H238458   6.684   0.347   7.057  0.4349 -0.0999  0.1428
 4755TIP3   OH238459   2.158   5.681   8.136  0.1715 -0.3401 -0.0082
 4755TIP3    H138460   2.121   5.764   8.105  0.5661  0.7615  2.2991
 4755TIP3    H238461   2.086   5.619   8.128  0.0219  0.0422 -2.2654
 4756TIP3   OH238462   2.779   0.046   7.974  0.1384 -0.1323  0.0194
 4756TIP3    H138463   2.810   0.016   8.059 -0.3570  0.9395  0.6073
 4756TIP3    H238464   2.748  -0.033   7.930 -0.2555 -0.6192  1.1326
 4757TIP3   OH238465   4.164   1.184   8.593 -0.0598  0.2469  0.1174
 4757TIP3    H138466   4.133   1.260   8.544 -0.9059  0.1436  0.4786
 4757TIP3    H238467   4.217   1.135   8.529  0.4441  1.0874 -0.1334
 4758TIP3   OH238468   6.947   2.571   9.663 -0.5568  0.1033 -0.4507
 4758TIP3    H138469   7.012   2.503   9.684 -2.0192 -0.6566  2.0045
 4758TIP3    H238470   6.994   2.654   9.676  0.0647 -0.4371  0.8952
 4759TIP3   OH238471   5.587   4.341   7.412 -0.1128 -0.1647  0.2124
 4759TIP3    H138472   5.525   4.409   7.386 -1.2297 -0.5699  1.7122
 4759TIP3    H238473   5.635   4.378   7.486  1.3103  0.0571 -0.7846
 4760TIP3   OH238474   1.598   2.844   8.992 -0.1911  0.0039  0.0968
 4760TIP3    H138475   1.669   2.841   9.056 -0.8512 -2.8153  0.7959
 4760TIP3    H238476   1.526   2.886   9.038  0.2984  0.8696  0.1025
 4761TIP3   OH238477   6.738   4.529   7.782 -0.0503  0.5170  0.1230
 4761TIP3    H138478   6.758   4.469   7.854 -1.4395 -0.0226  0.0955
 4761TIP3    H238479   6.681   4.479   7.724  0.5786  1.1415 -1.0686
 4762TIP3   OH238480   3.580   3.703   8.455 -0.7765  0.1258 -0.1805
 4762TIP3    H138481   3.631   3.674   8.379  0.3222 -0.4249  0.7362
 4762TIP3    H238482   3.536   3.782   8.426  0.4662  0.5159 -1.0678
 4763TIP3   OH238483   0.973   1.273   9.012  0.1234  0.7439  0.3652
 4763TIP3    H138484   1.035   1.307   8.948 -2.3722  0.1136 -2.6329
 4763TIP3    H238485   0.928   1.201   8.967 -3.3936  1.7519  1.8943
 4764TIP3   OH238486   6.298   2.243   6.716  0.2931 -0.1582  0.5114
 4764TIP3    H138487   6.216   2.241   6.764 -0.4139  0.5931 -0.6075
 4764TIP3    H238488   6.342   2.162   6.739 -1.7336 -1.6290 -0.5048
 4765TIP3   OH238489   6.879   0.776   9.516 -0.3272 -0.5155  0.3658
 4765TIP3    H138490   6.931   0.794   9.595 -0.4619 -2.2239  0.8976
 4765TIP3    H238491   6.789   0.784   9.545 -0.3737 -0.7996  0.3060
 4766TIP3   OH238492   1.584   0.458   9.095  0.2655  0.3035 -0.3923
 4766TIP3    H138493   1.641   0.479   9.022  0.0662  2.5660  0.0355
 4766TIP3    H238494   1.499   0.496   9.071 -0.4970 -1.1050 -0.0579
 4767TIP3   OH238495   5.516   7.113   8.909  0.0032 -0.0961 -0.0953
 4767TIP3    H138496   5.605   7.138   8.885 -0.2652  0.8311 -0.1728
 4767TIP3    H238497   5.465   7.124   8.829 -0.1039 -1.0386 -0.1621
 4768TIP3   OH238498   6.933   2.260   6.989  0.8279 -0.4007 -0.0489
 4768TIP3    H138499   6.897   2.186   7.038 -0.3699 -0.9116 -1.6125
 4768TIP3    H238500   6.862   2.286   6.929  1.7925  0.9760 -0.6534
 4769TIP3   OH238501   0.859   5.732   9.481  0.1205 -0.0154  0.1725
 4769TIP3    H138502   0.933   5.682   9.448  0.3909 -0.3573  1.2795
 4769TIP3    H238503   0.782   5.679   9.460  0.3294 -0.4476  0.4971
 4770TIP3   OH238504   7.634   0.862   6.854 -0.4535 -0.0543 -0.5880
 4770TIP3    H138505   7.656   0.946   6.893 -2.0115 -1.0785  2.8383
 4770TIP3    H238506   7.648   0.876   6.760  0.9492  3.4615 -0.0352
 4771TIP3   OH238507   4.634   5.258   8.527 -0.3223 -0.3629 -0.3040
 4771TIP3    H138508   4.641   5.266   8.432  0.0063  0.4542 -0.2225
 4771TIP3    H238509   4.704   5.198   8.551  0.4958  0.5128 -0.4486
 4772TIP3   OH238510   2.591   5.856   8.927  0.2124  0.3141 -0.3206
 4772TIP3    H138511   2.547   5.775   8.952 -4.3502  2.9631  1.4916
 4772TIP3    H238512   2.650   5.875   9.001  2.1018 -1.6388 -1.2124
 4773TIP3   OH238513   3.722   3.494   9.253  0.4316 -0.1044  0.1775
 4773TIP3    H138514   3.652   3.507   9.189 -0.3875  0.9431  1.2140
 4773TIP3    H238515   3.786   3.438   9.209 -0.1532  0.4750 -1.4870
 4774TIP3   OH238516   5.217   1.192   9.278 -0.2620 -0.1182 -0.4360
 4774TIP3    H138517   5.176   1.197   9.365  0.7132  1.8468 -0.0381
 4774TIP3    H238518   5.143   1.188   9.217 -1.0589  1.4123  0.3629
 4775TIP3   OH238519   6.032   1.113   8.330  0.8577  0.6769 -0.2301
 4775TIP3    H138520   5.991   1.094   8.246 -0.4183  0.5781  0.3893
 4775TIP3    H238521   6.121   1.077   8.323 -0.3674 -2.6751 -0.2679
 4776TIP3   OH238522   4.714   5.340   8.293 -0.0451 -0.0824  0.2045
 4776TIP3    H138523   4.805   5.355   8.269 -0.0485  1.3483  0.9846
 4776TIP3    H238524   4.680   5.426   8.317 -2.1794 -0.2233 -1.8916
 4777TIP3   OH238525   1.432   3.905   7.164  0.4038  0.8638  1.2271
 4777TIP3    H138526   1.418   3.966   7.236 -1.1458  0.4164  1.3506
 4777TIP3    H238527   1.525   3.883   7.167  1.2425  3.8526  0.6584
 4778TIP3   OH238528   7.233   3.312   7.080 -0.2614 -0.3629 -0.3264
 4778TIP3    H138529   7.241   3.227   7.036  1.5982 -0.0537 -0.6647
 4778TIP3    H238530   7.168   3.359   7.028 -0.2015 -1.0384 -1.0352
 4779TIP3   OH238531   6.132   7.164   7.417  0.5372  0.3728 -0.1333
 4779TIP3    H138532   6.212   7.130   7.377  1.7885 -0.2589  2.6768
 4779TIP3    H238533   6.120   7.111   7.496 -3.3413 -0.3253 -0.9819
 4780TIP3   OH238534   0.437   7.261   8.492 -0.2552 -0.4280 -0.0763
 4780TIP3    H138535   0.406   7.349   8.468  1.2597 -0.4731 -2.4772
 4780TIP3    H238536   0.378   7.202   8.445 -1.1801 -0.7543  1.4209
 4781TIP3   OH238537   4.395   1.249   7.722  0.2791 -0.2509  0.2598
 4781TIP3    H138538   4.353   1.205   7.648 -1.3142  0.1321  0.8894
 4781TIP3    H238539   4.484   1.267   7.692  0.0766 -1.2763 -1.0666
 4782TIP3   OH238540   6.784   4.076   8.806  0.3002 -0.2214  0.0354
 4782TIP3    H138541   6.823   4.069   8.893 -0.4148 -0.8754  0.3163
 4782TIP3    H238542   6.859   4.087   8.747  0.8511 -0.6695  0.6357
 4783TIP3   OH238543   0.233   1.600   6.582  0.7785  0.1702  0.3136
 4783TIP3    H138544   0.181   1.565   6.510  0.4247 -0.4674  0.8670
 4783TIP3    H238545   0.177   1.666   6.622  2.0028  2.5578 -1.6494
 4784TIP3   OH238546   3.373   7.422   9.309  0.1546  0.1459 -0.4775
 4784TIP3    H138547   3.341   7.497   9.359  0.3719 -0.5659  0.7641
 4784TIP3    H238548   3.350   7.346   9.362  1.9354 -0.5337 -0.6025
 4785TIP3   OH238549   3.995   6.600   8.391 -0.2757 -0.0387 -0.3749
 4785TIP3    H138550   3.976   6.683   8.435 -0.8890 -0.4438  0.1366
 4785TIP3    H238551   4.086   6.609   8.363  0.5026 -0.1435  1.8774
 4786TIP3   OH238552   7.253   7.574   6.653 -0.3907  0.2851 -0.3133
 4786TIP3    H138553   7.297   7.643   6.703  0.2070 -1.3042  1.4639
 4786TIP3    H238554   7.187   7.539   6.713 -0.9871 -0.4017 -1.3455
 4787TIP3   OH238555   0.367   2.508   7.288  0.1803 -0.0197 -0.6000
 4787TIP3    H138556   0.408   2.576   7.342 -1.6445  2.8210 -2.5037
 4787TIP3    H238557   0.413   2.427   7.312  5.2116  2.3793 -0.8592
 4788TIP3   OH238558   5.214   5.564   9.139  0.0889  0.2416 -0.3498
 4788TIP3    H138559   5.238   5.476   9.168  1.4386  0.4364 -0.8070
 4788TIP3    H238560   5.135   5.585   9.188  0.0328 -1.0293  0.1318
 4789TIP3   OH238561   5.630   0.815   8.583  0.5885  0.3115 -0.6745
 4789TIP3    H138562   5.661   0.878   8.517 -2.2574  3.1244  0.3998
 4789TIP3    H238563   5.677   0.839   8.663  1.3243 -0.6488 -0.8020
 4790TIP3   OH238564   1.070   0.639   8.988  0.3433  0.0309 -0.3023
 4790TIP3    H138565   1.090   0.727   9.019  0.1503  0.2738 -0.8622
 4790TIP3    H238566   1.010   0.652   8.915  0.0528 -0.5802 -0.1852
 4791TIP3   OH238567   2.897   5.826   8.327 -0.1521 -0.1591  0.4390
 4791TIP3    H138568   2.944   5.762   8.382 -0.9748 -0.3838  0.9032
 4791TIP3    H238569   2.834   5.773   8.278 -1.0084  0.3054  1.0059
 4792TIP3   OH238570   5.273   0.655   9.033  0.2675 -0.0736 -0.0475
 4792TIP3    H138571   5.330   0.657   9.111 -0.2893 -2.5450  0.5137
 4792TIP3    H238572   5.184   0.660   9.068  0.0173 -1.0541 -0.5125
 4793TIP3   OH238573   5.222   4.756   9.078  0.7884 -0.5680  0.2766
 4793TIP3    H138574   5.186   4.829   9.128  0.1647 -0.2997 -0.5444
 4793TIP3    H238575   5.280   4.797   9.014 -0.6735 -0.6536 -1.1421
 4794TIP3   OH238576   4.788   6.744   7.045 -0.4489 -0.0627  0.5963
 4794TIP3    H138577   4.742   6.715   6.967  0.6825  1.0344 -0.5349
 4794TIP3    H238578   4.880   6.721   7.028 -0.4021 -1.5250  2.4548
 4795TIP3   OH238579   6.867   3.771   9.291  0.0723 -0.0491  0.0332
 4795TIP3    H138580   6.797   3.719   9.250 -1.2275  0.2616  1.7186
 4795TIP3    H238581   6.831   3.860   9.294  0.5387  0.1132  0.9232
 4796TIP3   OH238582   4.380   3.138   8.678 -0.1907 -0.2644  0.3597
 4796TIP3    H138583   4.470   3.115   8.702  0.0851  0.7953  0.4015
 4796TIP3    H238584   4.366   3.098   8.592  0.0365 -1.1049  0.7016
 4797TIP3   OH238585   5.288   6.330   8.395 -0.4618  0.1328  0.3752
 4797TIP3    H138586   5.231   6.396   8.356  1.3011  0.9397 -0.9892
 4797TIP3    H238587   5.303   6.361   8.484  1.3057  2.3375 -0.5945
 4798TIP3   OH238588   1.833   1.106   9.430  0.0796  0.3158 -0.0102
 4798TIP3    H138589   1.849   1.018   9.464  0.8941  0.6621  0.5276
 4798TIP3    H238590   1.797   1.155   9.504  2.6237  1.2997  0.6870
 4799TIP3   OH238591   7.172   3.588   8.918  0.1779  0.2696  0.1801
 4799TIP3    H138592   7.226   3.601   8.995 -0.7029  0.6915  0.7448
 4799TIP3    H238593   7.185   3.496   8.895  1.4676  0.4716  0.0168
 4800TIP3   OH238594   4.386   2.095   8.237 -0.2276  0.3033  0.1976
 4800TIP3    H138595   4.459   2.120   8.180  0.4681 -1.8178  0.0597
 4800TIP3    H238596   4.422   2.026   8.293 -2.5853 -2.2995 -1.2462
 4801TIP3   OH238597   5.904   3.148   8.104  0.3256 -0.5249 -0.1189
 4801TIP3    H138598   5.960   3.224   8.088 -0.8440  0.6732  1.2159
 4801TIP3    H238599   5.965   3.076   8.121  1.4597  0.4324 -0.0377
 4802TIP3   OH238600   2.538   3.279   7.449 -0.6126 -0.4853  0.0037
 4802TIP3    H138601   2.489   3.208   7.489  2.1961 -1.7972  1.4098
 4802TIP3    H238602   2.496   3.292   7.364 -2.0883 -2.8628  0.2813
 4803TIP3   OH238603   4.717   6.940   8.459 -0.1784 -0.4324  0.0466
 4803TIP3    H138604   4.754   6.977   8.379 -1.2874 -0.6587 -0.5885
 4803TIP3    H238605   4.792   6.898   8.503  0.7388  0.9651 -0.1018
 4804TIP3   OH238606   5.780   7.271   8.262  1.0374 -0.1888  0.2025
 4804TIP3    H138607   5.769   7.366   8.259 -1.2256 -0.3386  1.2278
 4804TIP3    H238608   5.737   7.239   8.182  0.2865 -0.4069  0.6772
 4805TIP3   OH238609   7.023   5.868   7.932  0.2821  0.0493 -0.0577
 4805TIP3    H138610   6.996   5.819   8.009 -0.1088 -1.2719 -1.0107
 4805TIP3    H238611   7.069   5.945   7.967 -0.0952 -0.4020  1.4753
 4806TIP3   OH238612   5.116   6.589   7.621 -0.0154  0.2039 -0.2299
 4806TIP3    H138613   5.188   6.542   7.579  0.7724  2.5665 -1.7131
 4806TIP3    H238614   5.159   6.660   7.669 -1.2300  0.2884  0.7921
 4807TIP3   OH238615   1.733   2.020   9.147 -0.4103  0.1464  0.2776
 4807TIP3    H138616   1.709   2.089   9.085  1.1571 -0.3417 -0.9453
 4807TIP3    H238617   1.757   2.066   9.227 -0.4682  0.9320 -0.1488
 4808TIP3   OH238618   6.810   3.134   8.848 -0.2375  0.1024 -0.6852
 4808TIP3    H138619   6.899   3.140   8.882 -0.0956  0.9376 -1.1758
 4808TIP3    H238620   6.761   3.090   8.918  0.5714 -0.4389 -0.4483
 4809TIP3   OH238621   6.979   5.598   7.682 -0.0746 -1.0986  0.0098
 4809TIP3    H138622   6.942   5.561   7.762  1.6506  0.6047  1.6803
 4809TIP3    H238623   6.963   5.693   7.690  2.9706 -0.4841  0.0079
 4810TIP3   OH238624   1.624   4.942   8.791 -0.4711 -0.3505 -0.2381
 4810TIP3    H138625   1.697   5.003   8.779 -0.8521 -0.0880 -1.3218
 4810TIP3    H238626   1.586   4.967   8.875  2.2749 -2.2321  1.7492
 4811TIP3   OH238627   6.586   5.007   7.565 -0.1572  0.4944 -0.2066
 4811TIP3    H138628   6.635   4.925   7.573 -0.6297 -0.0285 -2.2511
 4811TIP3    H238629   6.520   5.001   7.635  0.4533 -0.3969  0.3165
 4812TIP3   OH238630   1.526   4.207   7.940  0.7070 -0.5534 -0.2600
 4812TIP3    H138631   1.567   4.225   7.855  0.0462 -1.9366 -0.9194
 4812TIP3    H238632   1.463   4.278   7.951  2.9318  1.3901  0.6002
 4813TIP3   OH238633   4.574   1.363   7.263 -0.4748 -0.1286 -0.0410
 4813TIP3    H138634   4.540   1.353   7.174  0.1424 -1.8795 -0.1105
 4813TIP3    H238635   4.599   1.456   7.269 -1.3962  0.2245 -1.3579
 4814TIP3   OH238636   1.309   4.126   8.824 -0.2147 -0.2474  0.1647
 4814TIP3    H138637   1.363   4.198   8.791  1.6487 -1.5420  0.2483
 4814TIP3    H238638   1.219   4.157   8.813  0.5174  2.4138  0.9508
 4815TIP3   OH238639   6.317   0.549   8.355 -0.0753 -0.4537  0.2820
 4815TIP3    H138640   6.369   0.521   8.279 -0.1517  0.4013 -0.1003
 4815TIP3    H238641   6.380   0.593   8.412 -0.3215  0.3400 -0.0519
 4816TIP3   OH238642   7.133   0.377   8.556  0.3413  0.3586 -0.6672
 4816TIP3    H138643   7.101   0.459   8.520  1.1945  1.0320  0.0564
 4816TIP3    H238644   7.054   0.329   8.581 -0.1455  1.3541 -0.2551
 4817TIP3   OH238645   6.234   1.210   8.593 -0.0313  0.2478 -0.5382
 4817TIP3    H138646   6.259   1.137   8.536 -0.8391 -0.8633  0.4922
 4817TIP3    H238647   6.299   1.278   8.574  0.8564 -0.8001 -1.3844
 4818TIP3   OH238648   6.521   5.149   7.032 -0.0727  0.1891  0.5091
 4818TIP3    H138649   6.567   5.207   6.971 -1.4671  0.3536 -0.4386
 4818TIP3    H238650   6.583   5.136   7.104  0.4738  2.4568  0.5289
 4819TIP3   OH238651   7.248   2.719   9.649  0.1948  0.3953  0.3179
 4819TIP3    H138652   7.254   2.623   9.656 -0.4076  0.3844  0.6797
 4819TIP3    H238653   7.320   2.742   9.590 -0.9990 -0.4931 -1.5922
 4820TIP3   OH238654   6.523   4.058   7.611  0.0554 -0.0753  0.5534
 4820TIP3    H138655   6.498   4.118   7.681  0.9789 -0.0132  0.8410
 4820TIP3    H238656   6.482   4.095   7.533 -2.5248 -1.1459  1.3197
 4821TIP3   OH238657   1.324   5.895   9.569 -0.3706  0.2724  0.6680
 4821TIP3    H138658   1.328   5.976   9.620 -0.0034 -0.3712  1.6677
 4821TIP3    H238659   1.233   5.866   9.577 -0.5504  0.6732  0.1526
 4822TIP3   OH238660   7.380   1.930   7.661  0.2811 -0.2691 -0.1612
 4822TIP3    H138661   7.353   1.983   7.735  0.7863 -0.8994  0.4831
 4822TIP3    H238662   7.302   1.878   7.639 -0.6764  1.6688 -1.6829
 4823TIP3   OH238663   3.944   0.047   9.314 -0.4727  0.2333 -0.7156
 4823TIP3    H138664   3.958   0.141   9.320  0.0655  0.3200 -2.5730
 4823TIP3    H238665   4.017   0.008   9.361 -1.0737  0.7136  0.6719
 4824TIP3   OH238666   5.096   3.649   7.196 -0.7089 -0.3240 -0.2158
 4824TIP3    H138667   5.110   3.738   7.166  0.2780  0.9443  3.4399
 4824TIP3    H238668   5.029   3.657   7.265  0.5101 -2.0773  1.2738
 4825TIP3   OH238669   0.552   5.429   8.064 -0.0837 -0.2419  0.3669
 4825TIP3    H138670   0.529   5.336   8.073 -0.7681 -0.3638 -2.0938
 4825TIP3    H238671   0.631   5.439   8.117  0.2975 -2.3541  0.2940
 4826TIP3   OH238672   0.363   1.782   7.476  0.5441  0.4480 -0.6004
 4826TIP3    H138673   0.406   1.852   7.524 -1.8234 -0.5411  3.3856
 4826TIP3    H238674   0.435   1.734   7.435  2.5227  2.8675 -0.2160
 4827TIP3   OH238675   1.945   7.468   8.842  0.5673 -1.0173  0.0116
 4827TIP3    H138676   2.035   7.500   8.856  0.4437 -0.0414 -1.2647
 4827TIP3    H238677   1.915   7.446   8.930  2.4298 -2.4459  0.3615
 4828TIP3   OH238678   6.884   3.889   7.619 -0.7065  0.7118  0.1230
 4828TIP3    H138679   6.832   3.855   7.546 -0.7028 -1.2050  0.9737
 4828TIP3    H238680   6.969   3.909   7.579 -1.2715  1.4843 -0.7571
 4829TIP3   OH238681   6.157   5.704   9.229 -0.1194 -0.3966  0.2294
 4829TIP3    H138682   6.192   5.639   9.168 -1.0688 -0.8715  0.1633
 4829TIP3    H238683   6.123   5.653   9.302  0.2297  0.1114  0.7549
 4830TIP3   OH238684   2.256   1.748   6.819 -0.3520 -0.0340  0.9182
 4830TIP3    H138685   2.176   1.697   6.822 -0.6858  0.4756  0.7459
 4830TIP3    H238686   2.322   1.687   6.785 -0.7067 -0.3971  0.8784
 4831TIP3   OH238687   6.584   1.602   7.534  0.3495  0.5637 -0.0731
 4831TIP3    H138688   6.624   1.525   7.493  0.0487  1.0422 -1.2988
 4831TIP3    H238689   6.623   1.676   7.488 -0.4634  1.0914  0.0777
 4832TIP3   OH238690   6.235   4.486   9.654  0.4246 -0.0343 -0.2102
 4832TIP3    H138691   6.145   4.508   9.633  0.2748 -0.2417  0.1913
 4832TIP3    H238692   6.252   4.531   9.737  1.3916  1.7546 -1.3205
 4833TIP3   OH238693   0.645   6.519   8.529  0.3362  0.6475  0.1597
 4833TIP3    H138694   0.624   6.436   8.572 -0.5038 -0.7777 -2.7005
 4833TIP3    H238695   0.627   6.503   8.436 -0.8457  4.3543 -0.4394
 4834TIP3   OH238696   1.787   4.691   8.494  0.0336  0.1213  0.6519
 4834TIP3    H138697   1.859   4.719   8.550  0.3984  1.0275 -0.2441
 4834TIP3    H238698   1.709   4.699   8.549  0.4588  0.4013  1.2176
 4835TIP3   OH238699   1.100   0.031   7.590  0.2113  0.5834  0.5345
 4835TIP3    H138700   1.081   0.039   7.683 -2.5542 -2.5305  0.4206
 4835TIP3    H238701   1.123  -0.060   7.577 -0.2525  0.7215 -1.9121
 4836TIP3   OH238702   5.266   4.701   8.429  0.2085  0.0154  0.6825
 4836TIP3    H138703   5.276   4.631   8.493  3.2150 -1.0344 -0.7480
 4836TIP3    H238704   5.329   4.767   8.456 -1.6049  1.6178  1.1991
 4837TIP3   OH238705   5.809   2.760   8.078  0.0218  0.6759  0.3512
 4837TIP3    H138706   5.861   2.761   8.159  1.6815  1.0325 -0.6686
 4837TIP3    H238707   5.859   2.705   8.018 -1.2232  0.3545 -0.4269
 4838TIP3   OH238708   7.588   6.835   8.026  0.2669  0.5902 -0.0772
 4838TIP3    H138709   7.658   6.896   8.047 -0.1220  0.7107  0.9240
 4838TIP3    H238710   7.509   6.874   8.063 -0.1748 -0.0030 -0.3599
 4839TIP3   OH238711   2.725   1.051   8.345  0.6576  0.0376  0.3354
 4839TIP3    H138712   2.777   1.124   8.311  1.6507 -0.9722 -0.4267
 4839TIP3    H238713   2.671   1.024   8.271  0.2614  0.0188  0.6270
 4840TIP3   OH238714   7.539   3.092   9.106 -0.4531 -0.0304 -0.2658
 4840TIP3    H138715   7.581   3.143   9.175 -0.6860  1.7579 -1.3891
 4840TIP3    H238716   7.608   3.034   9.075  1.6325  3.3236 -2.5549
 4841TIP3   OH238717   5.369   2.101   7.745  0.1190  0.7866  0.6116
 4841TIP3    H138718   5.354   2.113   7.839  0.3851 -0.4995  0.8360
 4841TIP3    H238719   5.287   2.065   7.712  0.3330  0.3810  0.5210
 4842TIP3   OH238720   0.378   7.583   8.445 -0.1897  0.1013  0.3134
 4842TIP3    H138721   0.468   7.613   8.454 -0.7358  2.4721 -1.1733
 4842TIP3    H238722   0.329   7.630   8.513 -0.4818 -0.3663  0.4362
 4843TIP3   OH238723   1.778   3.095   7.767  0.1077 -0.8390  0.0439
 4843TIP3    H138724   1.779   3.119   7.859  2.4141  0.0656 -0.1698
 4843TIP3    H238725   1.792   3.000   7.767  0.8707 -0.7290  0.5952
 4844TIP3   OH238726   3.035   5.656   8.067  0.4433  0.4460  0.0992
 4844TIP3    H138727   2.972   5.603   8.116  0.0143 -0.1657 -1.0915
 4844TIP3    H238728   3.057   5.602   7.991 -0.5722  2.2755 -1.5671
 4845TIP3   OH238729   7.284   1.826   6.776  0.3519  0.1411  0.2623
 4845TIP3    H138730   7.342   1.786   6.841 -1.5277 -1.0683  1.2826
 4845TIP3    H238731   7.307   1.919   6.778  2.1356 -0.2593  0.7073
 4846TIP3   OH238732   2.998   3.044   9.252  0.5349  0.3044 -0.1402
 4846TIP3    H138733   2.938   3.028   9.325  0.6290  0.4514 -0.0293
 4846TIP3    H238734   3.083   3.058   9.294  0.7842 -0.5684 -0.3361
 4847TIP3   OH238735   6.302   5.179   6.844  0.4455 -0.7961  0.0220
 4847TIP3    H138736   6.366   5.163   6.913  0.1800  0.8144  0.7043
 4847TIP3    H238737   6.350   5.226   6.776  0.5613 -1.8493 -0.6564
 4848TIP3   OH238738   2.481   4.112   8.329 -0.6193  0.3432  0.3804
 4848TIP3    H138739   2.400   4.063   8.323  0.8950 -2.2324 -0.8980
 4848TIP3    H238740   2.506   4.129   8.238  0.8539 -0.0367  0.6794
 4849TIP3   OH238741   0.802   6.182   8.656  0.3726 -0.2011 -0.2160
 4849TIP3    H138742   0.831   6.150   8.742  0.7133 -0.1429 -0.3061
 4849TIP3    H238743   0.710   6.202   8.668  0.2849 -0.6954 -0.0038
 4850TIP3   OH238744   1.189   6.517   7.310  0.2742  0.8136 -0.4569
 4850TIP3    H138745   1.229   6.491   7.394 -0.7554 -0.1274 -0.2377
 4850TIP3    H238746   1.174   6.611   7.320 -0.5133  0.5900  0.7273
 4851TIP3   OH238747   1.439   5.073   7.079 -0.2928  0.1649  0.5776
 4851TIP3    H138748   1.367   5.028   7.122 -0.3477 -0.4063 -0.0911
 4851TIP3    H238749   1.510   5.009   7.078 -1.2118 -1.0345 -2.8307
 4852TIP3   OH238750   0.318   0.005   8.741 -0.4431 -0.2588 -0.0500
 4852TIP3    H138751   0.406   0.044   8.747 -1.2614  1.8460 -0.5821
 4852TIP3    H238752   0.312  -0.053   8.817  0.2687  2.0450  1.9015
 4853TIP3   OH238753   5.392   6.258   9.707 -0.0955  0.1201  0.4147
 4853TIP3    H138754   5.383   6.350   9.685 -2.2426 -0.0813  0.2523
 4853TIP3    H238755   5.428   6.258   9.796 -0.5351  1.1207  0.6034
 4854TIP3   OH238756   4.498   5.406   9.962  0.6031 -0.4794 -0.2198
 4854TIP3    H138757   4.594   5.411   9.958  0.6490 -0.8243  0.3555
 4854TIP3    H238758   4.468   5.484   9.915  1.1873  1.4911  2.4642
 4855TIP3   OH238759   6.172   5.500   8.392 -0.3721 -0.5931  0.1844
 4855TIP3    H138760   6.260   5.470   8.415 -0.3726  0.8525  2.3486
 4855TIP3    H238761   6.118   5.422   8.399  0.6137 -1.3922 -0.6550
 4856TIP3   OH238762   5.284   6.757   9.689 -0.0130 -0.1841  0.1516
 4856TIP3    H138763   5.256   6.840   9.728 -2.3598 -1.1152  0.5665
 4856TIP3    H238764   5.289   6.775   9.595 -0.8648  0.3325  0.2012
 4857TIP3   OH238765   5.500   3.898   8.524 -0.6175 -0.0774 -0.2122
 4857TIP3    H138766   5.469   3.810   8.502  1.7111 -0.4583 -2.4591
 4857TIP3    H238767   5.465   3.914   8.611 -1.4005 -3.0812  0.1535
 4858TIP3   OH238768   5.347   0.005   8.446  0.7493  0.1804 -0.2150
 4858TIP3    H138769   5.371   0.033   8.534 -1.5636 -1.8902  1.1817
 4858TIP3    H238770   5.291   0.075   8.413 -0.8161 -0.3179  1.2156
 4859TIP3   OH238771   6.365   4.378   9.203 -0.3962  0.4921  0.3852
 4859TIP3    H138772   6.365   4.283   9.202  0.3458  0.4896 -0.2367
 4859TIP3    H238773   6.391   4.401   9.293 -0.5910  0.1117  0.5407
 4860TIP3   OH238774   7.503   3.686   8.809  0.2190  1.1669  0.6078
 4860TIP3    H138775   7.549   3.644   8.882 -1.4000  1.1973  1.7037
 4860TIP3    H238776   7.416   3.705   8.844 -0.5508  1.3344 -1.3075
 4861TIP3   OH238777   5.370   0.676   8.290  0.3740 -0.1539  0.4592
 4861TIP3    H138778   5.371   0.771   8.300 -2.1924  0.0276 -0.2912
 4861TIP3    H238779   5.349   0.662   8.198 -1.0623 -1.4011  0.9353
 4862TIP3   OH238780   2.406   2.349   7.901 -0.0031 -0.2990 -0.0999
 4862TIP3    H138781   2.313   2.370   7.898  0.3453  1.2536 -1.2646
 4862TIP3    H238782   2.413   2.266   7.854 -0.8884 -0.8943  0.7842
 4863TIP3   OH238783   3.377   5.668   8.710 -0.1244 -0.1381  0.0595
 4863TIP3    H138784   3.302   5.630   8.665  0.2003 -1.4335  0.5657
 4863TIP3    H238785   3.422   5.720   8.643 -0.1623 -1.2809 -0.8697
 4864TIP3   OH238786   1.307   6.863   7.522 -0.1338  0.5450  0.1453
 4864TIP3    H138787   1.221   6.845   7.483 -0.9237  2.9723  0.5752
 4864TIP3    H238788   1.366   6.872   7.448 -1.3985  4.0787 -0.6319
 4865TIP3   OH238789   3.532   1.486   8.647 -0.3994  0.3451  0.5427
 4865TIP3    H138790   3.441   1.514   8.639 -0.8204 -0.8730  0.8729
 4865TIP3    H238791   3.583   1.560   8.614 -1.5589  0.4922 -1.0310
 4866TIP3   OH238792   1.576   7.030   9.051 -0.2415  0.0283  0.1147
 4866TIP3    H138793   1.606   6.940   9.064  0.9345  0.2568 -0.8859
 4866TIP3    H238794   1.655   7.081   9.035 -1.0764  0.6263 -2.8037
 4867TIP3   OH238795   1.138   7.402   9.588 -0.5259  0.7707  0.2629
 4867TIP3    H138796   1.216   7.454   9.603  0.5316 -1.0755  1.5223
 4867TIP3    H238797   1.121   7.359   9.671 -1.6905 -0.4454 -0.5574
 4868TIP3   OH238798   4.602   1.595   8.389 -0.4030 -0.2201  0.1137
 4868TIP3    H138799   4.563   1.632   8.309 -1.3701 -0.1109  0.6102
 4868TIP3    H238800   4.617   1.503   8.368 -1.9208 -0.5266  0.2191
 4869TIP3   OH238801   3.457   4.655   7.671 -0.7309  0.3353  0.8597
 4869TIP3    H138802   3.445   4.611   7.755  0.6693 -1.7873  0.0098
 4869TIP3    H238803   3.551   4.651   7.654 -1.0019  0.5294 -0.9178
 4870TIP3   OH238804   7.493   2.958   7.587  0.1072  0.7575  0.6626
 4870TIP3    H138805   7.406   2.959   7.627  0.7141 -0.0043  2.0843
 4870TIP3    H238806   7.550   3.000   7.652  0.6284  2.3747 -0.7655
 4871TIP3   OH238807   6.738   4.897   8.109 -0.0548 -0.4014  0.5009
 4871TIP3    H138808   6.808   4.884   8.173 -0.8730 -1.1238  1.2776
 4871TIP3    H238809   6.768   4.971   8.056  1.9174 -1.5104 -0.0684
 4872TIP3   OH238810   1.842   5.011   8.428 -0.3983  0.0946  0.3805
 4872TIP3    H138811   1.874   4.944   8.368  0.0127  0.6687 -0.0585
 4872TIP3    H238812   1.916   5.072   8.438 -0.3638 -0.1312  1.6898
 4873TIP3   OH238813   0.256   0.674   9.655  0.0072  0.6814  0.0342
 4873TIP3    H138814   0.321   0.605   9.650 -0.0287  0.6839 -0.5113
 4873TIP3    H238815   0.302   0.754   9.629 -0.4528  0.5132 -1.3634
 4874TIP3   OH238816   7.218   5.609   6.797 -0.2398  0.0092 -0.8710
 4874TIP3    H138817   7.250   5.635   6.711 -1.0650 -0.5362 -1.3551
 4874TIP3    H238818   7.139   5.557   6.779 -0.2709 -0.3428  0.1955
 4875TIP3   OH238819   6.499   0.241   9.319  0.4878 -0.0885 -0.5611
 4875TIP3    H138820   6.594   0.230   9.321  0.3442 -1.4996 -0.4857
 4875TIP3    H238821   6.476   0.231   9.227  0.5026  1.2914 -0.7333
 4876TIP3   OH238822   2.926   7.649   9.719  0.6729  0.9585  0.3399
 4876TIP3    H138823   2.892   7.561   9.701  1.7298  0.3993  0.9959
 4876TIP3    H238824   2.921   7.657   9.814  0.5061  1.6586  0.2789
 4877TIP3   OH238825   5.210   5.000   9.670 -0.1475  0.7264  0.6177
 4877TIP3    H138826   5.154   5.046   9.733  0.6702  0.6305  1.4318
 4877TIP3    H238827   5.197   4.907   9.691 -2.4146  0.4445 -1.5367
 4878TIP3   OH238828   6.653   1.540   6.768  0.2405  0.2987  0.7470
 4878TIP3    H138829   6.662   1.460   6.716  0.1206 -0.5217  1.9456
 4878TIP3    H238830   6.677   1.610   6.708 -0.0047 -0.5979 -0.4428
 4879TIP3   OH238831   0.667   6.785   8.244  0.4600  0.1372  0.6125
 4879TIP3    H138832   0.702   6.811   8.330  0.1292 -2.3641  1.5931
 4879TIP3    H238833   0.573   6.801   8.251  0.3757 -0.4409  0.8977
 4880TIP3   OH238834   6.476   1.535   8.832 -0.4653  0.1771 -0.0964
 4880TIP3    H138835   6.452   1.621   8.799 -0.4247  0.8515  1.5485
 4880TIP3    H238836   6.392   1.492   8.849 -0.4868  0.2494 -0.0210
 4881TIP3   OH238837   4.850   1.541   8.901  0.7218 -0.2519  0.2421
 4881TIP3    H138838   4.895   1.563   8.819 -0.1992 -1.4991 -0.6359
 4881TIP3    H238839   4.859   1.446   8.909 -1.9189 -0.6240 -0.1368
 4882TIP3   OH238840   2.523   6.451   8.932 -0.1812 -0.3288  0.1983
 4882TIP3    H138841   2.479   6.425   8.851 -0.5938 -0.2079  0.3828
 4882TIP3    H238842   2.525   6.546   8.929  2.6495 -0.3354 -1.1905
 4883TIP3   OH238843   2.876   4.832   8.096  0.0983  0.3915  0.3316
 4883TIP3    H138844   2.805   4.778   8.132  1.4715 -0.6588  1.5906
 4883TIP3    H238845   2.865   4.917   8.139 -1.3800  0.8112 -0.7841
 4884TIP3   OH238846   0.319   7.456   9.567 -0.0736 -0.4651 -0.4022
 4884TIP3    H138847   0.401   7.484   9.526 -0.0416  1.1418  0.6419
 4884TIP3    H238848   0.326   7.361   9.573  0.3178 -0.6998 -3.1814
 4885TIP3   OH238849   5.881   5.190   7.038  0.1404 -0.0246 -0.5249
 4885TIP3    H138850   5.789   5.181   7.061  0.5611 -4.0453  0.2548
 4885TIP3    H238851   5.926   5.201   7.122  0.6157 -1.9064 -0.4941
 4886TIP3   OH238852   6.399   0.051   9.464 -0.7535  0.1345 -0.2370
 4886TIP3    H138853   6.435   0.087   9.545  0.3412  0.0719 -0.6840
 4886TIP3    H238854   6.435   0.106   9.394 -0.4416 -0.7342 -0.7931
 4887TIP3   OH238855   0.430   3.574   7.847  0.0956 -0.4492 -0.0881
 4887TIP3    H138856   0.440   3.564   7.752 -0.8852 -0.9263 -0.1552
 4887TIP3    H238857   0.452   3.666   7.864  0.6880 -0.4726 -0.7167
 4888TIP3   OH238858   4.480   5.691   9.073  0.2815 -0.1287  0.1829
 4888TIP3    H138859   4.422   5.736   9.012 -0.6587  0.0296  1.1659
 4888TIP3    H238860   4.476   5.599   9.047  0.8760  0.0932 -0.7581
 4889TIP3   OH238861   6.357   2.859   7.243 -0.1723  0.8301  0.3387
 4889TIP3    H138862   6.423   2.794   7.221 -1.9491 -1.0876  0.3806
 4889TIP3    H238863   6.357   2.920   7.169  3.7622  2.8211  1.7295
 4890TIP3   OH238864   0.329   3.419   8.372  0.1872 -0.2736 -0.0276
 4890TIP3    H138865   0.269   3.365   8.424 -1.3580  1.7839  0.4676
 4890TIP3    H238866   0.340   3.370   8.290 -0.2404 -1.8443  0.8108
 4891TIP3   OH238867   4.976   6.314   9.550 -0.2513 -0.0381 -0.4096
 4891TIP3    H138868   4.987   6.381   9.618  1.8832  0.1025 -0.8295
 4891TIP3    H238869   4.881   6.302   9.544 -0.6393  1.9794  0.6127
 4892TIP3   OH238870   2.835   4.930   7.830  0.2954  0.1045  0.2982
 4892TIP3    H138871   2.842   4.934   7.926  1.0159  0.4160  0.2436
 4892TIP3    H238872   2.744   4.906   7.813 -0.1976  1.3422  1.0393
 4893TIP3   OH238873   7.174   1.104   7.888  0.3587  0.1517 -0.0932
 4893TIP3    H138874   7.208   1.193   7.902 -0.8208  0.6737 -0.4152
 4893TIP3    H238875   7.097   1.116   7.833 -1.1357 -0.8224  1.6484
 4894TIP3   OH238876   3.968   6.469   7.951  0.0149 -0.1120 -0.2487
 4894TIP3    H138877   4.027   6.527   7.903 -0.5356  0.2510 -0.4963
 4894TIP3    H238878   3.964   6.390   7.898 -0.3147  0.1523 -0.6164
 4895TIP3   OH238879   0.698   4.536   9.422  0.1975  0.0303 -0.6146
 4895TIP3    H138880   0.723   4.588   9.498 -0.1814 -0.2795 -0.2723
 4895TIP3    H238881   0.753   4.568   9.351  0.4989  0.3750 -0.2250
 4896TIP3   OH238882   5.210   1.536   8.294  0.0626 -0.2201 -0.3012
 4896TIP3    H138883   5.208   1.487   8.377  0.8163  0.6574  0.2547
 4896TIP3    H238884   5.280   1.495   8.243 -0.4133 -0.7730 -0.5151
 4897TIP3   OH238885   0.407   1.616   8.901  0.0340 -0.5591 -0.0565
 4897TIP3    H138886   0.323   1.599   8.945 -0.2912  0.3521 -0.3209
 4897TIP3    H238887   0.389   1.687   8.840  0.4206 -1.9723 -1.8898
 4898TIP3   OH238888   0.412   3.139   6.954  0.0695  0.4518  0.2369
 4898TIP3    H138889   0.443   3.196   7.025  0.6802  1.3482 -0.7199
 4898TIP3    H238890   0.347   3.192   6.908  1.1536  0.6829 -1.0917
 4899TIP3   OH238891   3.772   5.204   9.311 -0.1145  0.4140 -0.3132
 4899TIP3    H138892   3.733   5.265   9.374  2.0660  0.3481  1.2352
 4899TIP3    H238893   3.754   5.117   9.348 -0.2229  0.2872 -0.6587
 4900TIP3   OH238894   1.698   4.069   8.489 -0.5652 -0.8103 -0.2391
 4900TIP3    H138895   1.631   4.135   8.473 -0.9231 -1.2330 -0.5214
 4900TIP3    H238896   1.671   3.994   8.435  0.3243 -0.8566 -0.6431
 4901TIP3   OH238897   6.466   1.044   7.933  0.0842 -0.0574  0.0363
 4901TIP3    H138898   6.485   0.956   7.965  0.3210  0.1511  0.4821
 4901TIP3    H238899   6.544   1.094   7.954 -0.2220  0.3645  0.1798
 4902TIP3   OH238900   1.158   3.175   9.215 -0.0582 -0.0631 -0.0787
 4902TIP3    H138901   1.102   3.242   9.254  0.6596  0.2601  0.4109
 4902TIP3    H238902   1.149   3.188   9.121  0.7419  1.2893  0.0199
 4903TIP3   OH238903   3.638   5.025   9.083  0.3204 -0.2813  0.2147
 4903TIP3    H138904   3.711   5.047   9.025  1.3163 -0.5374  1.3368
 4903TIP3    H238905   3.562   5.020   9.025  1.7225 -3.5089 -1.6175
 4904TIP3   OH238906   6.705   6.480   6.827  0.9326 -0.0611  0.4899
 4904TIP3    H138907   6.699   6.441   6.915 -0.5559  0.8220  0.8107
 4904TIP3    H238908   6.615   6.478   6.794  1.2276  0.9877 -0.4127
 4905TIP3   OH238909   7.293   7.474   9.225  0.0079 -0.1040  0.2010
 4905TIP3    H138910   7.214   7.425   9.204 -0.6330  1.3173 -0.8774
 4905TIP3    H238911   7.330   7.497   9.139  1.6978 -0.8688  0.6751
 4906TIP3   OH238912   7.495   0.846   8.654 -0.9086  0.1209 -0.1546
 4906TIP3    H138913   7.452   0.930   8.639 -1.3854 -0.1719 -0.4540
 4906TIP3    H238914   7.425   0.789   8.687 -0.1280  0.4410  2.1707
 4907TIP3   OH238915   0.304   6.515   8.723 -0.4955 -0.1403 -0.1986
 4907TIP3    H138916   0.347   6.536   8.805 -2.7634  1.4362  0.6693
 4907TIP3    H238917   0.232   6.456   8.748 -0.5744 -0.5028 -1.2174
 4908TIP3   OH238918   2.489   2.568   7.491 -0.5460 -0.4888  0.1588
 4908TIP3    H138919   2.573   2.566   7.445 -0.5906 -0.3662  0.0719
 4908TIP3    H238920   2.436   2.502   7.446  0.1798 -2.0467  1.5216
 4909TIP3   OH238921   6.115   5.956   9.173  0.1040 -0.7033 -0.3324
 4909TIP3    H138922   6.124   5.869   9.212  0.6883  0.1505  1.5505
 4909TIP3    H238923   6.094   5.939   9.081 -2.2144 -2.8311  0.4753
 4910TIP3   OH238924   6.705   5.842   6.776  0.4882 -0.0893  0.1761
 4910TIP3    H138925   6.674   5.917   6.827  0.6734  0.3992 -0.4232
 4910TIP3    H238926   6.648   5.770   6.803 -0.4129  0.5233 -0.0502
 4911TIP3   OH238927   1.400   3.232   7.587  0.3893  0.2473 -0.3819
 4911TIP3    H138928   1.324   3.203   7.537  0.3683  0.4967 -0.5003
 4911TIP3    H238929   1.449   3.153   7.606  0.0849  0.0814 -0.2814
 4912TIP3   OH238930   5.697   6.488   7.354 -0.5332 -0.5541  0.2598
 4912TIP3    H138931   5.708   6.420   7.287  0.3067  0.1852 -0.3753
 4912TIP3    H238932   5.766   6.551   7.336 -1.0150  0.2486  1.1270
 4913TIP3   OH238933   0.377   1.266   9.171  0.5599  0.0123  0.0986
 4913TIP3    H138934   0.345   1.355   9.187 -1.4987 -0.6749  0.1250
 4913TIP3    H238935   0.337   1.213   9.240 -0.0770 -1.2847 -1.2005
 4914TIP3   OH238936   4.881   6.683   7.737 -0.6401  0.0208  0.5085
 4914TIP3    H138937   4.967   6.650   7.711 -0.1077  1.3222  0.5636
 4914TIP3    H238938   4.862   6.754   7.677 -1.2168  0.4216  1.1463
 4915TIP3   OH238939   5.222   6.384   7.997 -0.2466  0.0760  1.1569
 4915TIP3    H138940   5.213   6.479   7.982  0.1247 -0.0150  0.2818
 4915TIP3    H238941   5.147   6.362   8.052 -1.8611  0.4304 -0.7695
 4916TIP3   OH238942   1.351   0.784   6.763 -0.4702 -0.0817 -0.1230
 4916TIP3    H138943   1.258   0.782   6.739 -0.2497 -0.9942 -0.9579
 4916TIP3    H238944   1.356   0.729   6.842 -1.1168  2.5449  1.8948
 4917TIP3   OH238945   4.316   6.178   7.833 -0.5047  0.1823 -0.3448
 4917TIP3    H138946   4.271   6.161   7.750  1.3726  0.3059 -1.4493
 4917TIP3    H238947   4.350   6.267   7.823  0.2864 -0.0414  0.3073
 4918TIP3   OH238948   7.179   3.340   8.301  0.5286 -0.0252  0.2762
 4918TIP3    H138949   7.223   3.416   8.340  0.2327  0.0542  0.4520
 4918TIP3    H238950   7.086   3.361   8.305  0.1513 -1.7294  3.2580
 4919TIP3   OH238951   5.187   4.950   7.681  0.3388  0.4218 -0.6225
 4919TIP3    H138952   5.229   4.950   7.767  1.6397  1.3816 -1.2194
 4919TIP3    H238953   5.185   4.858   7.655 -1.1404 -0.0198  0.9050
 4920TIP3   OH238954   4.652   5.195   8.058 -0.3334 -0.4568 -0.0394
 4920TIP3    H138955   4.653   5.250   8.136  0.1416 -0.6863  0.1216
 4920TIP3    H238956   4.643   5.256   7.985 -1.1037 -0.2693  0.2151
 4921TIP3   OH238957   6.290   4.228   8.438  0.8081  0.9376  0.2787
 4921TIP3    H138958   6.317   4.176   8.363  0.4160 -0.1002  0.8267
 4921TIP3    H238959   6.365   4.224   8.498  0.3246 -0.0539  0.8426
 4922TIP3   OH238960   3.981   3.045   8.427 -0.0501 -0.6371 -0.0181
 4922TIP3    H138961   3.988   3.123   8.482  2.0428 -1.0078  0.3487
 4922TIP3    H238962   3.888   3.034   8.412 -0.4215  1.8528  0.0215
 4923TIP3   OH238963   2.811   5.713   7.514 -0.2049 -0.0151  0.0493
 4923TIP3    H138964   2.854   5.671   7.588 -1.6184 -0.4873  0.6249
 4923TIP3    H238965   2.840   5.663   7.438  1.5430  0.6928  0.1928
 4924TIP3   OH238966   4.705   1.998   8.281 -0.5552  0.1551 -0.3731
 4924TIP3    H138967   4.636   1.965   8.338 -1.3809  1.1966 -0.7527
 4924TIP3    H238968   4.760   2.051   8.339  0.7170 -1.7226  0.2156
 4925TIP3   OH238969   0.901   3.139   7.317 -0.2458  0.4669 -0.2624
 4925TIP3    H138970   0.902   3.110   7.408 -1.0180 -1.3846 -0.8011
 4925TIP3    H238971   0.958   3.216   7.316  1.3431 -0.5920  1.4154
 4926TIP3   OH238972   6.049   7.380   7.771 -0.5044  0.3428  0.6814
 4926TIP3    H138973   6.105   7.388   7.693 -0.3232  1.0169  0.8700
 4926TIP3    H238974   5.996   7.460   7.770  1.0867  1.5123  2.4583
 4927TIP3   OH238975   4.079   4.984   9.072  0.5124 -0.0130 -0.2143
 4927TIP3    H138976   4.153   4.954   9.020  1.1757  1.0933  0.0374
 4927TIP3    H238977   4.086   4.936   9.155 -0.4414 -1.6414 -1.0258
 4928TIP3   OH238978   1.872   3.850   8.832  0.0933  0.2294  0.4183
 4928TIP3    H138979   1.903   3.794   8.760  1.0497  1.0170  0.2016
 4928TIP3    H238980   1.866   3.937   8.794 -1.5265  0.2835  0.7235
 4929TIP3   OH238981   6.933   3.784   7.926 -0.2189  0.0765  0.5894
 4929TIP3    H138982   6.907   3.797   7.835  0.7682 -3.0563 -0.2511
 4929TIP3    H238983   6.997   3.713   7.923  2.8630  2.4254  3.3351
 4930TIP3   OH238984   4.066   0.500   8.231 -0.1600 -0.0605 -0.6658
 4930TIP3    H138985   4.032   0.412   8.214  0.0201 -0.2577 -0.0497
 4930TIP3    H238986   4.046   0.515   8.323  0.3600  0.2966 -0.6102
 4931TIP3   OH238987   5.764   5.837   7.517 -0.1751 -0.0030 -0.3358
 4931TIP3    H138988   5.687   5.891   7.533 -0.5667 -0.4381 -0.7322
 4931TIP3    H238989   5.837   5.888   7.554 -0.2758  1.6347 -2.2164
 4932TIP3   OH238990   3.834   4.462   7.846  0.4992 -0.1629  0.6439
 4932TIP3    H138991   3.903   4.396   7.855  0.9958  0.1874 -0.3474
 4932TIP3    H238992   3.862   4.534   7.903  1.2214  0.1657 -0.0891
 4933TIP3   OH238993   4.971   2.292   9.414  0.4820 -0.1727  0.3382
 4933TIP3    H138994   4.927   2.207   9.405 -1.2930  0.6456  0.9048
 4933TIP3    H238995   4.907   2.348   9.456  1.8176  1.3306  0.4656
 4934TIP3   OH238996   0.488   7.533   7.349  0.3540  0.7706 -0.6820
 4934TIP3    H138997   0.445   7.608   7.308  1.5434  2.1452  0.4578
 4934TIP3    H238998   0.521   7.481   7.276  0.1530  1.7588 -1.4958
 4935TIP3   OH238999   4.511   1.116   8.051 -0.4311 -0.4414  0.2416
 4935TIP3    H139000   4.584   1.073   8.094 -0.1605 -0.4129 -0.1896
 4935TIP3    H239001   4.551   1.180   7.992 -0.8218  1.0647  1.5272
 4936TIP3   OH239002   7.114   1.922   8.355  0.3662 -0.2612  0.3172
 4936TIP3    H139003   7.121   1.940   8.261 -2.0083  1.4502  0.3747
 4936TIP3    H239004   7.083   1.831   8.359 -1.1224  0.1493 -0.6924
 4937TIP3   OH239005   3.791   6.270   9.402  0.2838 -0.2081  0.7304
 4937TIP3    H139006   3.719   6.314   9.446 -0.9414 -0.9096 -0.4954
 4937TIP3    H239007   3.752   6.236   9.321  1.6596 -1.8059  0.7010
 4938TIP3   OH239008   6.408   4.470   8.249 -0.2616 -0.6849 -0.1047
 4938TIP3    H139009   6.342   4.514   8.195 -2.4692 -1.6870  1.6120
 4938TIP3    H239010   6.416   4.383   8.211  0.7981 -0.2851 -0.8447
 4939TIP3   OH239011   7.138   1.682   7.123 -0.2783  0.2386  0.4496
 4939TIP3    H139012   7.084   1.715   7.051  0.9382  2.4396  0.4750
 4939TIP3    H239013   7.221   1.658   7.081 -0.1188  0.0054  0.8984
 4940TIP3   OH239014   6.552   3.973   7.923 -0.3935 -0.1009  0.1274
 4940TIP3    H139015   6.475   3.980   7.980  0.0866  1.4371  0.6323
 4940TIP3    H239016   6.545   4.047   7.863  0.1565 -0.5588 -0.5223
 4941TIP3   OH239017   5.697   7.498   8.859 -0.5678 -0.5269 -0.7235
 4941TIP3    H139018   5.725   7.459   8.776  0.8713 -0.5901 -0.2336
 4941TIP3    H239019   5.775   7.542   8.892 -0.6539 -1.7921  1.3372
 4942TIP3   OH239020   5.321   4.826   8.788  0.0946  0.2144 -0.6585
 4942TIP3    H139021   5.354   4.738   8.807  0.1306 -0.1172 -2.1367
 4942TIP3    H239022   5.388   4.865   8.731  0.7107  1.6926  1.0038
 4943TIP3   OH239023   7.183   6.270   9.472  0.3352  0.0640 -0.3155
 4943TIP3    H139024   7.113   6.254   9.409  0.6234  2.1829 -1.2508
 4943TIP3    H239025   7.150   6.233   9.554 -1.6123  0.4063 -0.8863
 4944TIP3   OH239026   1.506   2.708   8.766 -0.0852 -0.0565  0.0173
 4944TIP3    H139027   1.514   2.764   8.843  0.7188 -0.3997  0.1938
 4944TIP3    H239028   1.591   2.665   8.759  0.3753  1.0148 -1.8688
 4945TIP3   OH239029   1.495   0.557   7.842 -0.2113 -0.6283 -0.0204
 4945TIP3    H139030   1.478   0.524   7.754 -2.0214  0.8995 -0.2973
 4945TIP3    H239031   1.524   0.647   7.829 -0.8492 -0.2671  0.9515
 4946TIP3   OH239032   2.612   3.767   9.204  0.2213  0.0801 -1.1092
 4946TIP3    H139033   2.697   3.766   9.249 -0.6369  0.6398  0.6354
 4946TIP3    H239034   2.580   3.856   9.215 -0.8716 -0.2919 -1.1752
 4947TIP3   OH239035   3.232   5.571   8.468  0.7893 -0.5484 -0.3887
 4947TIP3    H139036   3.145   5.589   8.502  0.2040 -2.8724 -0.5451
 4947TIP3    H239037   3.241   5.630   8.393 -0.8796 -0.6954 -0.7365
 4948TIP3   OH239038   7.037   4.666   9.409  0.0608 -0.0870  0.2108
 4948TIP3    H139039   7.123   4.641   9.445  0.1096 -2.0921 -1.1003
 4948TIP3    H239040   7.057   4.737   9.347  0.5967  0.2797  0.7891
 4949TIP3   OH239041   0.354   7.144   9.172  0.5645 -0.0047 -0.4734
 4949TIP3    H139042   0.285   7.162   9.235  0.2786 -0.6659 -0.5899
 4949TIP3    H239043   0.414   7.219   9.180  0.6610 -0.1821  0.7438
 4950TIP3   OH239044   4.474   7.206   8.387  0.0493  0.2917  0.4943
 4950TIP3    H139045   4.439   7.117   8.388  0.1390  0.2524  0.1996
 4950TIP3    H239046   4.403   7.260   8.424 -0.3550  0.2234 -0.1694
 4951TIP3   OH239047   1.994   4.305   7.961  0.8129  0.4040  0.0944
 4951TIP3    H139048   2.057   4.233   7.965  0.1924 -0.3132 -1.5696
 4951TIP3    H239049   2.040   4.375   7.915  0.4430 -0.1329 -1.1540
 4952TIP3   OH239050   6.067   1.603   8.661 -0.4933 -0.4561  0.1830
 4952TIP3    H139051   6.002   1.532   8.667 -0.6202 -0.2207  1.9509
 4952TIP3    H239052   6.015   1.682   8.650 -0.3987 -0.4662 -0.4094
 4953TIP3   OH239053   5.977   0.145   8.539  1.0122 -0.3193 -0.0435
 4953TIP3    H139054   5.945   0.068   8.492  0.2900 -1.2884  1.9636
 4953TIP3    H239055   6.039   0.110   8.603 -0.5250  0.5304  1.9910
 4954TIP3   OH239056   1.320   0.848   8.524  0.0450  0.5373 -0.3080
 4954TIP3    H139057   1.343   0.894   8.444 -0.3130 -0.1833 -0.8350
 4954TIP3    H239058   1.396   0.860   8.581 -0.0182  1.7142 -0.4454
 4955TIP3   OH239059   1.675   4.118   7.379 -0.1625  0.2167  0.3045
 4955TIP3    H139060   1.760   4.160   7.390  0.5486 -1.1607  0.2309
 4955TIP3    H239061   1.689   4.051   7.312 -1.6368  0.8323 -0.6677
 4956TIP3   OH239062   7.566   6.322   8.012  0.7596 -0.1111 -0.0769
 4956TIP3    H139063   7.495   6.362   8.063  0.1986  0.3639 -1.2006
 4956TIP3    H239064   7.646   6.357   8.053  0.3319  0.2058  0.5220
 4957TIP3   OH239065   4.088   7.463   9.014  0.0769 -0.3150 -0.2995
 4957TIP3    H139066   4.048   7.528   8.956  0.9445  0.2040 -0.3442
 4957TIP3    H239067   4.166   7.507   9.048  0.9342 -1.4940 -0.6878
 4958TIP3   OH239068   2.953   6.811   9.165 -0.1309 -1.1064  0.3318
 4958TIP3    H139069   2.998   6.768   9.092 -0.1332  1.6145 -1.3975
 4958TIP3    H239070   2.874   6.758   9.178 -0.1459 -1.6554 -1.6562
 4959TIP3   OH239071   3.658   0.173   8.362  0.4620  0.1161  0.3641
 4959TIP3    H139072   3.703   0.202   8.283  0.2232 -0.1835  0.1164
 4959TIP3    H239073   3.723   0.121   8.409  1.1798  1.7533  1.2398
 4960TIP3   OH239074   0.766   0.286   7.491  0.2151  0.2855  0.0275
 4960TIP3    H139075   0.701   0.224   7.521  0.5978  0.6144  1.6211
 4960TIP3    H239076   0.758   0.286   7.395 -1.4310 -0.3924  0.1471
 4961TIP3   OH239077   6.113   1.384   8.371  0.4979 -0.3537 -0.7654
 4961TIP3    H139078   6.107   1.288   8.372 -0.1642 -0.3292  0.9390
 4961TIP3    H239079   6.191   1.403   8.423  0.0857  0.0413 -0.2794
 4962TIP3   OH239080   3.045   3.591   9.213  0.2225  0.1334 -0.1318
 4962TIP3    H139081   3.027   3.637   9.295  0.1595 -0.6349  0.2945
 4962TIP3    H239082   2.963   3.546   9.193 -1.0228  3.0699 -2.5027
 4963TIP3   OH239083   7.235   6.183   9.019  0.0466 -0.4820 -0.2073
 4963TIP3    H139084   7.184   6.126   9.076 -2.8833  1.3507 -0.7841
 4963TIP3    H239085   7.245   6.264   9.069  2.2089 -0.6581 -0.2585
 4964TIP3   OH239086   2.851   2.957   8.530 -0.1689 -0.2357 -0.3542
 4964TIP3    H139087   2.789   2.996   8.469  1.4862  0.6676 -1.5101
 4964TIP3    H239088   2.854   2.865   8.505 -0.5327 -0.1523 -0.7121
 4965TIP3   OH239089   7.294   6.098   8.467 -0.1382  0.1809 -0.4921
 4965TIP3    H139090   7.341   6.123   8.547 -0.2175  0.4006 -0.5135
 4965TIP3    H239091   7.363   6.084   8.402 -0.1199  0.9260 -0.6409
 4966TIP3   OH239092   3.052   1.817   7.200 -0.0345  0.0600 -0.0890
 4966TIP3    H139093   3.109   1.792   7.127  1.6576 -0.3259  1.2958
 4966TIP3    H239094   3.108   1.808   7.278 -1.5059  1.3337  1.1724
 4967TIP3   OH239095   5.705   2.561   7.805  0.5174 -0.0762 -0.3588
 4967TIP3    H139096   5.785   2.581   7.853 -0.2338  1.0055  0.4880
 4967TIP3    H239097   5.731   2.565   7.713  1.4535  0.1860 -0.0902
 4968TIP3   OH239098   5.722   6.302   7.849 -0.2538  0.1360  0.1321
 4968TIP3    H139099   5.637   6.263   7.865 -0.3144  0.6573  1.1703
 4968TIP3    H239100   5.769   6.237   7.796 -1.0728 -0.4087  0.0582
 4969TIP3   OH239101   4.120   1.062   7.888  0.2201 -0.1639  0.4729
 4969TIP3    H139102   4.094   1.066   7.795  0.0665  1.3654  0.5590
 4969TIP3    H239103   4.040   1.084   7.936  0.3579 -0.7236  0.9755
 4970TIP3   OH239104   3.121   0.828   7.794  0.3196 -0.0437 -0.0716
 4970TIP3    H139105   3.059   0.890   7.834 -1.8922 -1.2695 -1.3752
 4970TIP3    H239106   3.126   0.755   7.856 -1.4025 -0.9654 -0.9542
 4971TIP3   OH239107   1.039   4.359   7.034  0.5416 -0.0650 -0.3449
 4971TIP3    H139108   1.083   4.319   6.959 -0.5477 -0.3263 -0.8657
 4971TIP3    H239109   0.997   4.285   7.079 -0.2708  0.2972 -0.4882
 4972TIP3   OH239110   5.849   7.544   7.497 -0.3273 -0.0019  0.0914
 4972TIP3    H139111   5.865   7.565   7.588  0.6031  0.8732 -0.2603
 4972TIP3    H239112   5.927   7.574   7.450 -0.0777 -1.8488 -0.7999
 4973TIP3   OH239113   1.859   3.025   7.465 -0.1928 -0.2817  0.3376
 4973TIP3    H139114   1.878   3.066   7.380  1.1769  1.6138  1.4577
 4973TIP3    H239115   1.928   3.058   7.522 -0.8152 -1.8852  2.0971
 4974TIP3   OH239116   6.116   5.623   8.147 -0.7031  0.0889  0.2658
 4974TIP3    H139117   6.123   5.559   8.218  1.2207 -1.3810 -1.1271
 4974TIP3    H239118   6.175   5.694   8.172 -0.0557 -0.4081  0.1835
 4975TIP3   OH239119   7.349   5.422   7.445 -0.5787  0.2042  0.2887
 4975TIP3    H139120   7.352   5.355   7.377 -2.8875 -0.9112  1.1942
 4975TIP3    H239121   7.380   5.501   7.401 -2.5844 -0.2992 -2.3399
 4976TIP3   OH239122   4.113   5.530   9.527 -0.9624  0.0973  0.7330
 4976TIP3    H139123   4.066   5.582   9.463  1.7340  2.5390  0.5441
 4976TIP3    H239124   4.054   5.457   9.547 -2.9466  0.6060 -2.5690
 4977TIP3   OH239125   5.669   4.095   8.542 -0.7387  0.4142 -0.5453
 4977TIP3    H139126   5.616   4.016   8.547  0.6956 -0.5562 -0.1393
 4977TIP3    H239127   5.655   4.127   8.452 -1.3183 -0.2994 -0.7218
 4978TIP3   OH239128   4.467   3.676   7.879 -0.1098  0.3598 -0.6456
 4978TIP3    H139129   4.451   3.605   7.941  1.1436  0.1614 -0.5238
 4978TIP3    H239130   4.407   3.746   7.906  1.3306  0.8099  1.6854
 4979TIP3   OH239131   7.493   6.895   8.912 -0.1934  0.1906  0.2353
 4979TIP3    H139132   7.526   6.927   8.996 -0.7054  0.3945  0.3656
 4979TIP3    H239133   7.490   6.972   8.856 -0.4887  0.1874  0.2430
 4980TIP3   OH239134   6.608   2.783   8.944  0.1939 -0.3481 -0.3158
 4980TIP3    H139135   6.593   2.689   8.952  0.9805 -0.3896  0.9523
 4980TIP3    H239136   6.700   2.791   8.920  0.5128  0.1022  0.9441
 4981TIP3   OH239137   4.527   0.681   7.993 -0.6035  0.1445 -0.1600
 4981TIP3    H139138   4.532   0.762   7.943  1.9973  1.7271  2.3477
 4981TIP3    H239139   4.446   0.688   8.044  0.7820  2.4892  1.9047
 4982TIP3   OH239140   5.347   1.871   8.523 -0.2042 -0.0952 -1.0706
 4982TIP3    H139141   5.440   1.875   8.544  0.1513 -0.8692 -2.3795
 4982TIP3    H239142   5.323   1.961   8.502 -0.4280  0.6021  1.8159
 4983TIP3   OH239143   7.011   6.082   7.545 -0.2259  0.0695  0.0762
 4983TIP3    H139144   7.011   6.010   7.608 -1.3092 -0.9340 -1.0075
 4983TIP3    H239145   6.939   6.060   7.485  0.1824  1.4651 -0.9562
 4984TIP3   OH239146   3.340   4.860   9.296  0.5737 -0.3018 -0.4471
 4984TIP3    H139147   3.318   4.948   9.265 -3.2603 -1.3592 -1.1125
 4984TIP3    H239148   3.335   4.867   9.392 -0.7124  0.0257 -0.5212
 4985TIP3   OH239149   1.768   1.375   7.960  0.3386 -0.5383 -0.1596
 4985TIP3    H139150   1.840   1.313   7.953  0.1731 -0.7333 -0.1196
 4985TIP3    H239151   1.800   1.442   8.020  0.0995 -1.1590  0.6689
 4986TIP3   OH239152   5.409   5.792   7.984  0.1120 -0.2826  0.3387
 4986TIP3    H139153   5.345   5.721   7.976 -1.1815  0.8204  0.4453
 4986TIP3    H239154   5.357   5.867   8.013  1.5298  0.5746  0.7462
 4987TIP3   OH239155   1.287   2.598   9.155  0.2243 -0.2951  0.4520
 4987TIP3    H139156   1.249   2.554   9.231 -1.0446  2.7201  1.7177
 4987TIP3    H239157   1.219   2.591   9.087  0.2134 -0.6370  0.4973
 4988TIP3   OH239158   1.051   1.799   8.493  0.0092 -0.0534  0.1543
 4988TIP3    H139159   1.131   1.834   8.452 -0.1192 -0.1133 -0.1472
 4988TIP3    H239160   1.000   1.877   8.516  0.2507 -0.0085  0.5405
 4989TIP3   OH239161   7.514   3.993   8.781 -0.0819  0.1882  0.0463
 4989TIP3    H139162   7.588   4.011   8.723  0.9930 -0.9025  1.0423
 4989TIP3    H239163   7.545   3.926   8.841 -1.7791 -0.0613  0.7152
 4990TIP3   OH239164   6.661   5.395   6.963 -0.1955 -0.2031  0.2741
 4990TIP3    H139165   6.608   5.475   6.960  1.3407  0.8648  0.2115
 4990TIP3    H239166   6.746   5.424   6.997  0.3632 -1.8436  0.3593
 4991TIP3   OH239167   6.945   4.999   7.419 -0.4910  0.2426 -0.0762
 4991TIP3    H139168   6.894   4.922   7.393 -0.3694 -0.1299  0.7556
 4991TIP3    H239169   6.927   5.064   7.350 -2.3863  0.2644  0.3591
 4992TIP3   OH239170   4.747   6.036   7.814 -0.0092  0.0594  0.0713
 4992TIP3    H139171   4.715   6.008   7.728 -0.9706 -1.3365  0.8592
 4992TIP3    H239172   4.674   6.023   7.873  1.2063 -0.7645  1.4562
 4993TIP3   OH239173   0.446   0.540   9.380  0.5600  0.7669  0.1709
 4993TIP3    H139174   0.451   0.505   9.469  0.4706  0.7587  0.1733
 4993TIP3    H239175   0.521   0.598   9.373 -0.2292  1.8994  0.7572
 4994TIP3   OH239176   0.854   5.430   8.784  0.3376 -0.2315 -0.0395
 4994TIP3    H139177   0.762   5.457   8.792  0.7557  0.9447  1.2411
 4994TIP3    H239178   0.850   5.339   8.755 -1.2554 -0.3715  0.5110
 4995TIP3   OH239179   1.644   5.407   9.128 -0.1994 -0.1354 -0.0687
 4995TIP3    H139180   1.732   5.408   9.164 -0.5166 -0.1789  0.7481
 4995TIP3    H239181   1.603   5.487   9.163  0.3291  1.3653 -2.6186
 4996TIP3   OH239182   2.040   6.248   8.705  0.2626 -0.1642  0.1828
 4996TIP3    H139183   2.024   6.340   8.682 -0.5198 -0.5176 -0.7534
 4996TIP3    H239184   1.954   6.215   8.731  0.5860 -0.5839  0.7455
 4997TIP3   OH239185   7.179   5.129   7.458  0.5515 -0.2915 -0.0597
 4997TIP3    H139186   7.107   5.069   7.440  1.7041 -1.7172 -0.1910
 4997TIP3    H239187   7.145   5.191   7.522 -0.8219 -0.8107 -0.2682
 4998TIP3   OH239188   2.406   6.843   8.347 -0.4766  0.3430  0.3205
 4998TIP3    H139189   2.458   6.838   8.267 -1.8520  0.8616 -0.6526
 4998TIP3    H239190   2.378   6.934   8.351 -0.1736  0.3997  1.5829
 4999TIP3   OH239191   3.181   4.271   7.086 -0.0943 -0.0806  0.4336
 4999TIP3    H139192   3.133   4.266   7.168 -0.9938 -0.7149 -0.1166
 4999TIP3    H239193   3.117   4.302   7.022  0.2970 -0.6816 -0.2591
 5000TIP3   OH239194   3.541   7.261   8.067 -0.3700 -0.1734 -0.4781
 5000TIP3    H139195   3.600   7.232   7.998 -0.9780 -0.9420 -0.6844
 5000TIP3    H239196   3.519   7.351   8.043  2.1151  0.8229  0.5657
 5001TIP3   OH239197   5.347   1.227   7.112  0.0966 -0.0848 -0.1097
 5001TIP3    H139198   5.339   1.174   7.192  0.3764 -0.0954 -0.0895
 5001TIP3    H239199   5.259   1.225   7.074 -0.1689  0.3524  0.4721
 5002TIP3   OH239200   3.292   2.923   8.892  0.1678  0.0873  0.5121
 5002TIP3    H139201   3.293   2.856   8.960  1.2539 -0.2265  0.2075
 5002TIP3    H239202   3.231   2.890   8.827 -0.1846 -0.0453  0.9039
 5003TIP3   OH239203   2.245   4.003   9.345 -0.0014  0.7142  0.1853
 5003TIP3    H139204   2.174   3.950   9.382 -0.1651  0.4406 -0.4996
 5003TIP3    H239205   2.220   4.093   9.365 -0.2060  0.5823  0.5320
 5004TIP3   OH239206   1.729   1.147   8.131 -0.3065  0.0682  0.1558
 5004TIP3    H139207   1.747   1.203   8.055 -2.5241 -0.1302 -0.5672
 5004TIP3    H239208   1.669   1.198   8.185 -0.0873 -0.4837  0.9466
 5005TIP3   OH239209   4.203   2.280   8.099 -0.3975  0.4801 -0.1588
 5005TIP3    H139210   4.242   2.340   8.035 -0.2067 -2.7306 -3.3405
 5005TIP3    H239211   4.277   2.229   8.132 -0.8295  0.3667  0.6516
 5006TIP3   OH239212   5.129   4.946   6.861 -0.3176 -1.0573  0.2209
 5006TIP3    H139213   5.182   4.929   6.938  0.2201 -3.8602 -0.6469
 5006TIP3    H239214   5.140   5.040   6.844  1.1927 -0.7882  2.3011
 5007TIP3   OH239215   4.877   1.810   7.880 -0.4796 -0.1840  0.0710
 5007TIP3    H139216   4.962   1.780   7.911 -0.6955  0.2435  1.0955
 5007TIP3    H239217   4.898   1.869   7.807 -0.0374 -2.3313 -1.6284
 5008TIP3   OH239218   7.134   0.209   8.305  0.6703 -0.8768  0.4870
 5008TIP3    H139219   7.044   0.234   8.327  0.5204 -0.7812 -0.2031
 5008TIP3    H239220   7.186   0.285   8.330  0.8557 -1.6733  2.7759
 5009TIP3   OH239221   3.459   6.915   9.098 -0.1633 -0.6716 -0.0145
 5009TIP3    H139222   3.415   6.944   9.178 -0.5617  0.9261 -0.7797
 5009TIP3    H239223   3.545   6.885   9.128  0.7777  2.4818  0.7498
 5010TIP3   OH239224   4.337   4.389   9.655  0.5165 -0.4306 -0.1477
 5010TIP3    H139225   4.429   4.385   9.631  0.1430  0.9180 -1.9963
 5010TIP3    H239226   4.335   4.445   9.733  1.2693 -0.6213  0.0080
 5011TIP3   OH239227   0.187   5.388   9.258  0.0291  0.0180  0.6272
 5011TIP3    H139228   0.135   5.468   9.252 -0.6940 -0.4348  0.8128
 5011TIP3    H239229   0.170   5.342   9.176  0.1233 -0.1474  0.7001
 5012TIP3   OH239230   4.321   6.084   8.956  0.5252 -0.4066 -0.7929
 5012TIP3    H139231   4.243   6.073   9.011 -0.1409  0.7292 -1.4924
 5012TIP3    H239232   4.292   6.139   8.884  3.0355  4.3869  1.3646
 5013TIP3   OH239233   4.028   0.481   8.785 -0.2144  0.0888 -0.4619
 5013TIP3    H139234   4.062   0.505   8.699  0.8666  2.0910  0.4509
 5013TIP3    H239235   3.965   0.550   8.805  0.3181  0.2404  0.7736
 5014TIP3   OH239236   3.633   7.348   8.956  0.2327 -0.2203 -0.1048
 5014TIP3    H139237   3.626   7.374   9.048 -0.6352  0.0661 -0.2459
 5014TIP3    H239238   3.544   7.324   8.930  0.1917  1.0173 -1.2516
 5015TIP3   OH239239   6.042   4.594   8.572  0.2552 -0.2322 -0.2435
 5015TIP3    H139240   6.074   4.682   8.590 -0.8057  0.5658 -1.9896
 5015TIP3    H239241   6.070   4.542   8.648 -0.6528  1.9715  1.7171
 5016TIP3   OH239242   4.670   7.418   7.924  0.1632  0.5105  0.2540
 5016TIP3    H139243   4.717   7.498   7.903  0.7305  0.0364 -0.3502
 5016TIP3    H239244   4.680   7.407   8.018 -0.6727  1.6096  0.4897
 5017TIP3   OH239245   2.827   2.494   8.229  0.1192 -0.0398  0.0566
 5017TIP3    H139246   2.863   2.477   8.316 -0.1227 -1.0838 -0.0248
 5017TIP3    H239247   2.872   2.431   8.172 -0.9840 -0.5994 -0.2433
 5018TIP3   OH239248   3.531   0.076   8.938  0.7840  0.1040 -0.5364
 5018TIP3    H139249   3.512   0.088   8.845 -0.6027  1.2419 -0.1421
 5018TIP3    H239250   3.521  -0.018   8.952 -0.4921  0.0969 -1.2623
 5019TIP3   OH239251   3.043   0.222   9.314  0.3587 -0.0798 -0.1554
 5019TIP3    H139252   3.119   0.187   9.269  2.2900  1.9052  1.3357
 5019TIP3    H239253   3.034   0.168   9.393  0.6663  0.0807 -0.0072
 5020TIP3   OH239254   4.545   7.377   6.911 -0.2903  1.0976  0.0595
 5020TIP3    H139255   4.576   7.418   6.992  0.2904  1.0808 -0.1471
 5020TIP3    H239256   4.450   7.389   6.912 -0.4680 -0.1765  1.4377
 5021TIP3   OH239257   0.511   7.048   7.985  0.2748 -0.0675  0.4159
 5021TIP3    H139258   0.448   7.117   8.005  1.6522  1.0543  1.1011
 5021TIP3    H239259   0.564   7.041   8.065  0.8720 -1.1237 -0.0521
 5022TIP3   OH239260   0.587   2.078   9.519 -0.6657 -0.3885  0.0303
 5022TIP3    H139261   0.593   1.987   9.546 -0.2645 -0.0087  1.2881
 5022TIP3    H239262   0.531   2.076   9.441  1.1598 -1.9445 -1.3454
 5023TIP3   OH239263   1.774   3.112   8.570 -0.0606  0.0575  0.3904
 5023TIP3    H139264   1.729   3.196   8.580  0.0391  0.1804 -0.2012
 5023TIP3    H239265   1.765   3.070   8.656  0.2033  0.8242  0.7920
 5024TIP3   OH239266   3.869   6.182   8.770  0.7704  0.2337  0.0424
 5024TIP3    H139267   3.880   6.258   8.712  1.8160  0.2638  0.2517
 5024TIP3    H239268   3.784   6.145   8.745  0.7892  0.7716 -0.8879
 5025TIP3   OH239269   3.043   0.038   9.497 -0.1315  0.3457 -0.2822
 5025TIP3    H139270   3.009   0.013   9.583  0.1682  1.3264  0.1342
 5025TIP3    H239271   3.138   0.039   9.509  0.1200 -2.1222 -1.3620
 5026TIP3   OH239272   0.505   4.723   7.585  0.2786  0.1500  0.5631
 5026TIP3    H139273   0.550   4.771   7.516  0.1773  0.2156  0.5422
 5026TIP3    H239274   0.455   4.656   7.539 -2.0298  1.9175  0.2922
 5027TIP3   OH239275   4.350   2.317   8.816 -0.4969 -0.2388 -0.1322
 5027TIP3    H139276   4.405   2.241   8.836 -0.1674 -0.2976 -1.1669
 5027TIP3    H239277   4.412   2.386   8.792 -0.8535 -0.2489 -1.1345
 5028TIP3   OH239278   1.094   4.653   8.849  0.1797  0.3595 -0.3738
 5028TIP3    H139279   1.019   4.609   8.809  0.3042  0.8894 -1.2194
 5028TIP3    H239280   1.153   4.582   8.873  0.5325  0.0601 -2.0252
 5029TIP3   OH239281   6.706   2.504   8.031 -0.0375 -0.0509  0.0771
 5029TIP3    H139282   6.718   2.593   8.064 -3.1665  1.1785 -1.6088
 5029TIP3    H239283   6.678   2.454   8.108  1.2778  0.5014  0.9489
 5030TIP3   OH239284   5.049   3.928   8.970  0.0847  0.5128  0.2104
 5030TIP3    H139285   5.125   3.984   8.988  0.1561  0.4228  0.1906
 5030TIP3    H239286   5.048   3.919   8.874  1.1677 -1.0134  0.2956
 5031TIP3   OH239287   3.081   0.807   8.371  0.2394 -0.7724 -0.0482
 5031TIP3    H139288   3.103   0.782   8.460  0.7463 -0.8011 -0.1773
 5031TIP3    H239289   3.108   0.899   8.364 -2.3320  0.1365  0.6673
 5032TIP3   OH239290   3.123   6.191   7.675 -0.5190 -0.1781 -0.2970
 5032TIP3    H139291   3.104   6.187   7.581 -0.0416 -1.8460 -0.3556
 5032TIP3    H239292   3.092   6.277   7.702  0.6157  0.9101 -2.2483
 5033TIP3   OH239293   0.895   4.005   8.856 -0.0025  0.4500  0.0130
 5033TIP3    H139294   0.857   3.960   8.780  1.2438 -0.3787 -0.1470
 5033TIP3    H239295   0.964   4.060   8.820 -0.4343  1.2675  0.3978
 5034TIP3   OH239296   3.151   5.748   6.919  0.3604 -0.1374  0.3210
 5034TIP3    H139297   3.160   5.840   6.895  0.1672 -0.5323 -1.4891
 5034TIP3    H239298   3.214   5.734   6.989  1.6230  0.9934 -0.5295
 5035TIP3   OH239299   2.483   2.118   8.977 -0.0798 -0.9002  0.2056
 5035TIP3    H139300   2.500   2.118   9.071  1.2865 -1.2347 -0.0190
 5035TIP3    H239301   2.427   2.194   8.963 -2.4703 -2.2549  1.6140
 5036TIP3   OH239302   7.650   1.328   9.729 -0.2146  0.8699  0.0177
 5036TIP3    H139303   7.730   1.324   9.782  1.3102  1.1037 -2.1252
 5036TIP3    H239304   7.667   1.268   9.656 -1.6906  1.5200 -0.8948
 5037TIP3   OH239305   6.901   7.337   7.014  0.0566  0.4681  0.2824
 5037TIP3    H139306   6.922   7.371   7.101 -1.1354  0.2029  0.7000
 5037TIP3    H239307   6.958   7.261   7.004 -2.7162 -2.2435  2.7543
 5038TIP3   OH239308   0.740   6.234   9.120  0.0655  0.1808  0.2657
 5038TIP3    H139309   0.800   6.160   9.128 -0.9418 -0.6183  0.6061
 5038TIP3    H239310   0.775   6.284   9.046  0.7241 -0.6643 -0.0253
 5039TIP3   OH239311   2.436   2.471   9.193 -0.5853 -0.5570 -0.0515
 5039TIP3    H139312   2.471   2.495   9.107  0.4412  1.9819  0.9954
 5039TIP3    H239313   2.346   2.503   9.193 -0.2847  0.3156  0.1259
 5040TIP3   OH239314   0.933   5.852   8.259  0.4296 -0.2740 -0.5234
 5040TIP3    H139315   0.938   5.934   8.309  1.7546 -1.1729  0.8867
 5040TIP3    H239316   1.013   5.850   8.207  0.1960 -0.4827 -0.8824
 5041TIP3   OH239317   5.608   0.957   9.598  0.5804 -0.3267 -0.0636
 5041TIP3    H139318   5.662   0.886   9.634 -0.8413 -0.9513  0.9266
 5041TIP3    H239319   5.671   1.016   9.557  1.8791 -1.7675 -0.2460
 5042TIP3   OH239320   6.408   1.579   8.350 -0.0403  0.0364  0.0223
 5042TIP3    H139321   6.480   1.640   8.368 -0.3793 -0.0069  1.7429
 5042TIP3    H239322   6.412   1.516   8.422 -0.1595 -1.5621 -1.3106
 5043TIP3   OH239323   2.405   6.180   7.065 -0.3884 -0.0674 -0.4110
 5043TIP3    H139324   2.361   6.260   7.037 -0.2427 -0.5666 -2.2141
 5043TIP3    H239325   2.336   6.114   7.069 -0.6582  0.2624  1.8681
 5044TIP3   OH239326   7.143   7.539   8.658 -0.5121 -0.4756  0.4864
 5044TIP3    H139327   7.131   7.572   8.747 -1.0377  0.5805  0.0531
 5044TIP3    H239328   7.156   7.619   8.605  0.7561 -1.1332 -0.2389
 5045TIP3   OH239329   4.713   6.854   7.283  0.7727 -0.1233  0.1376
 5045TIP3    H139330   4.732   6.829   7.193 -1.8603 -0.2167 -0.4703
 5045TIP3    H239331   4.638   6.800   7.308 -0.6759  2.2229  1.1977
 5046TIP3   OH239332   7.157   2.640   7.149 -0.0772  0.1679  0.2941
 5046TIP3    H139333   7.224   2.708   7.145 -0.4353  0.4622 -2.0599
 5046TIP3    H239334   7.074   2.686   7.139 -0.4890 -0.4155  0.9148
 5047TIP3   OH239335   3.722   7.619   9.412  0.1184 -0.1541  0.5904
 5047TIP3    H139336   3.801   7.667   9.387 -0.4480  0.7787  0.5501
 5047TIP3    H239337   3.651   7.661   9.362 -0.2271 -1.8161 -0.3903
 5048TIP3   OH239338   3.751   1.691   8.059 -0.2911 -0.1226 -0.0854
 5048TIP3    H139339   3.768   1.706   7.966  1.6917  0.3897  0.2964
 5048TIP3    H239340   3.777   1.773   8.102 -1.3663 -0.2715  0.9052
 5049TIP3   OH239341   3.946   5.406   8.188  0.1001  0.1014 -0.3187
 5049TIP3    H139342   3.859   5.443   8.176  0.5970  1.2682 -0.4460
 5049TIP3    H239343   3.947   5.327   8.134 -1.0039 -0.1431 -0.0000
 5050TIP3   OH239344   5.609   3.094   9.434  0.0035 -0.9136  0.0843
 5050TIP3    H139345   5.567   3.155   9.495  2.5743  1.1358  0.0054
 5050TIP3    H239346   5.548   3.086   9.361 -0.3987  1.7434  0.0507
 5051TIP3   OH239347   4.025   0.344   9.391  0.1038 -0.0726 -0.6349
 5051TIP3    H139348   4.094   0.408   9.409 -0.0005 -0.0566 -0.2794
 5051TIP3    H239349   4.019   0.293   9.472 -2.7388  2.1780  0.7353
 5052TIP3   OH239350   3.994   4.241   7.906  0.7409  0.0992 -0.2611
 5052TIP3    H139351   4.048   4.230   7.985  1.2569 -1.2323 -0.7618
 5052TIP3    H239352   3.924   4.176   7.916 -0.8124  1.7901  0.3677
 5053TIP3   OH239353   3.828   5.314   7.119  0.3665  0.5901  0.0737
 5053TIP3    H139354   3.750   5.264   7.145  1.1410 -0.5830  0.2047
 5053TIP3    H239355   3.893   5.248   7.096  1.2704  1.5522 -0.2358
 5054TIP3   OH239356   2.167   3.948   9.072 -0.1198 -0.3116 -0.5304
 5054TIP3    H139357   2.072   3.946   9.067 -0.1952  2.2088 -1.9707
 5054TIP3    H239358   2.186   3.987   9.157 -0.5515  1.6551 -1.2649
 5055TIP3   OH239359   2.888   3.945   7.830  1.0360 -0.5060  0.5530
 5055TIP3    H139360   2.950   3.969   7.761  1.8268 -0.7228  1.1746
 5055TIP3    H239361   2.903   4.008   7.900 -1.3002  1.1255 -0.2806
 5056TIP3   OH239362   1.490   6.800   6.821 -0.5138  0.5869  0.7718
 5056TIP3    H139363   1.420   6.737   6.836  1.4762 -1.6859  1.0926
 5056TIP3    H239364   1.552   6.786   6.892  0.6867  1.9493  0.0636
 5057TIP3   OH239365   7.131   3.597   7.958  0.4014  0.1713  0.6089
 5057TIP3    H139366   7.207   3.585   7.901  1.3631 -0.5701  1.9960
 5057TIP3    H239367   7.169   3.607   8.046 -1.1098 -0.2730  1.3354
 5058TIP3   OH239368   5.729   4.972   9.758 -0.1522 -0.0720  0.6437
 5058TIP3    H139369   5.698   4.972   9.849 -1.4927  1.1491  0.2186
 5058TIP3    H239370   5.650   4.961   9.706  0.2801  1.7127 -0.4452
 5059TIP3   OH239371   4.152   1.052   6.959  0.6220 -0.4123  0.2213
 5059TIP3    H139372   4.243   1.078   6.945  0.6643 -0.1112  1.0153
 5059TIP3    H239373   4.101   1.115   6.907  0.6698  1.9783  2.8291
 5060TIP3   OH239374   3.615   2.283   9.339 -0.0790 -0.4642  0.0834
 5060TIP3    H139375   3.610   2.378   9.328  0.9843 -0.4104 -0.0867
 5060TIP3    H239376   3.646   2.252   9.254 -1.4517 -1.0770 -0.2056
 5061TIP3   OH239377   6.666   1.363   8.379 -0.3174 -0.2530  0.4460
 5061TIP3    H139378   6.734   1.403   8.324 -0.1275 -0.5310  0.4785
 5061TIP3    H239379   6.697   1.376   8.469 -1.9232  2.6770  0.7108
 5062TIP3   OH239380   2.821   1.036   7.552 -0.1524 -0.2366  0.3521
 5062TIP3    H139381   2.734   1.018   7.518 -0.2735 -1.1250  1.0997
 5062TIP3    H239382   2.881   0.995   7.490 -0.1481  1.7971 -1.0904
 5063TIP3   OH239383   0.586   2.480   8.002 -0.0934 -0.4291  0.1395
 5063TIP3    H139384   0.580   2.415   8.071 -0.7831 -0.2047  0.2995
 5063TIP3    H239385   0.517   2.544   8.023  1.6979  1.3446  1.0191
 5064TIP3   OH239386   3.887   6.408   8.203 -0.2423  0.2657 -0.3429
 5064TIP3    H139387   3.940   6.461   8.263 -0.4950  1.5745 -1.2166
 5064TIP3    H239388   3.922   6.429   8.116 -0.9521 -0.3334 -0.7823
 5065TIP3   OH239389   1.552   3.752   8.667  0.3910  1.0710  0.3896
 5065TIP3    H139390   1.504   3.674   8.693 -0.5810  1.9474  1.3072
 5065TIP3    H239391   1.602   3.777   8.746 -0.8731  2.4914  0.7993
 5066TIP3   OH239392   6.232   5.530   7.586 -0.0465  0.4791 -0.0234
 5066TIP3    H139393   6.230   5.626   7.577  0.7042  0.3850 -1.4173
 5066TIP3    H239394   6.139   5.504   7.584 -0.2119  1.0880 -0.7660
 5067TIP3   OH239395   4.804   5.599   6.364  0.3909 -0.3107 -0.4277
 5067TIP3    H139396   4.847   5.587   6.448  1.5224  0.1514 -0.9226
 5067TIP3    H239397   4.876   5.602   6.300 -0.1470  2.9786 -1.0252
 5068TIP3   OH239398   0.212   0.127   7.587 -0.1310 -0.2034 -0.4672
 5068TIP3    H139399   0.153   0.099   7.658  2.8292  1.4669  3.0051
 5068TIP3    H239400   0.278   0.059   7.582  1.2831  1.0001  0.6114
 5069TIP3   OH239401   4.660   0.232   9.407 -0.4509  0.2238 -0.7770
 5069TIP3    H139402   4.698   0.145   9.421 -1.2049 -0.1341 -0.9275
 5069TIP3    H239403   4.727   0.280   9.358 -0.0516 -0.2903 -0.7381
 5070TIP3   OH239404   0.717   5.746   7.942 -0.0859 -0.3826 -0.3819
 5070TIP3    H139405   0.647   5.699   7.898  1.0080 -1.7652 -0.7208
 5070TIP3    H239406   0.779   5.678   7.968 -0.3989  0.4014  2.8482
 5071TIP3   OH239407   0.251   1.838   8.781 -0.0360  0.0709  0.5279
 5071TIP3    H139408   0.186   1.870   8.844 -0.9224 -0.6992  0.0292
 5071TIP3    H239409   0.334   1.876   8.811 -0.7743  1.4132  0.9387
 5072TIP3   OH239410   5.885   6.260   9.093 -0.3769  0.1544 -0.4891
 5072TIP3    H139411   5.963   6.273   9.040 -0.3102  1.5510 -0.0853
 5072TIP3    H239412   5.813   6.255   9.030 -0.1065  0.1646 -0.7956
 5073TIP3   OH239413   1.887   5.332   8.535 -0.2901 -0.3499 -0.7442
 5073TIP3    H139414   1.922   5.420   8.542  0.0022 -0.3951 -1.5486
 5073TIP3    H239415   1.937   5.291   8.464 -1.1552 -0.7976 -1.1253
 5074TIP3   OH239416   4.840   3.536   9.198  0.0508  0.5659  0.0312
 5074TIP3    H139417   4.873   3.594   9.130  0.6463 -1.1972 -1.2543
 5074TIP3    H239418   4.760   3.499   9.161 -1.2953  1.8165  1.5431
 5075TIP3   OH239419   6.068   6.155   7.891 -0.2333  0.4527  0.2002
 5075TIP3    H139420   6.111   6.070   7.890 -0.3746  0.3420 -2.2754
 5075TIP3    H239421   5.998   6.146   7.954 -1.3008 -1.8638 -1.2089
 5076TIP3   OH239422   5.631   0.587   9.079  0.1676 -0.7947 -0.4322
 5076TIP3    H139423   5.692   0.529   9.124  1.1671  0.7560  0.3106
 5076TIP3    H239424   5.664   0.590   8.989  1.9441  0.8535  0.1886
 5077TIP3   OH239425   3.872   0.489   9.207 -0.1583  0.2145  0.0094
 5077TIP3    H139426   3.908   0.577   9.210 -0.1468  0.2245 -0.3928
 5077TIP3    H239427   3.927   0.438   9.266 -0.3243  0.5304  0.4468
 5078TIP3   OH239428   4.229   0.963   8.407  0.5646 -0.1271 -0.2505
 5078TIP3    H139429   4.226   0.909   8.327 -2.4196 -1.8267  0.8466
 5078TIP3    H239430   4.145   0.947   8.450  1.6855  1.4245  2.8301
 5079TIP3   OH239431   5.245   0.391   8.947  0.0682 -0.1561 -0.0065
 5079TIP3    H139432   5.264   0.484   8.957  0.3078 -0.4498  3.2267
 5079TIP3    H239433   5.313   0.359   8.886  0.5718  1.5596 -0.4047
 5080TIP3   OH239434   6.106   1.897   7.189 -0.4518 -0.1932  1.0100
 5080TIP3    H139435   6.139   1.808   7.192  3.0957  0.9930  2.5436
 5080TIP3    H239436   6.122   1.926   7.099 -0.2577 -0.6437  0.9008
 5081TIP3   OH239437   1.980   1.218   7.854  0.2819  0.4358 -0.0240
 5081TIP3    H139438   1.913   1.191   7.792 -0.9653  0.6073  1.2020
 5081TIP3    H239439   2.023   1.136   7.880  0.6658  0.3424 -0.9164
 5082TIP3   OH239440   5.337   1.630   8.646  0.0684  0.3921  0.1427
 5082TIP3    H139441   5.430   1.610   8.655  0.0665  0.3411  0.0529
 5082TIP3    H239442   5.335   1.709   8.591  0.1000  0.9853  0.9858
 5083TIP3   OH239443   4.127   0.114   7.423  0.4130  0.2319  0.4559
 5083TIP3    H139444   4.051   0.123   7.365 -0.5642 -1.7675  1.3399
 5083TIP3    H239445   4.202   0.124   7.365 -0.4862  1.7484 -0.5317
 5084TIP3   OH239446   7.525   6.952   7.424 -0.3595 -0.2287 -0.0964
 5084TIP3    H139447   7.559   6.938   7.512 -1.1079  0.2752  0.2862
 5084TIP3    H239448   7.430   6.960   7.436 -0.2390  3.0414 -0.4950
 5085TIP3   OH239449   1.003   2.377   7.502 -0.5810 -0.1771 -0.0995
 5085TIP3    H139450   0.921   2.378   7.454  0.9146  0.4439 -2.8706
 5085TIP3    H239451   1.040   2.464   7.487  1.1468 -0.8572 -0.0093
 5086TIP3   OH239452   3.981   1.258   7.380  0.7341 -0.1687  0.0536
 5086TIP3    H139453   3.994   1.227   7.291 -2.3984 -0.5835 -0.3672
 5086TIP3    H239454   3.954   1.349   7.370  1.2599  0.0684  0.6795
 5087TIP3   OH239455   6.674   1.763   8.408  0.0161  0.2855  0.3384
 5087TIP3    H139456   6.620   1.842   8.416  0.1268  0.3710  0.2438
 5087TIP3    H239457   6.710   1.767   8.320  0.5253  0.4517  0.5515
 5088TIP3   OH239458   7.066   5.999   9.161 -0.3733  0.4921  0.3892
 5088TIP3    H139459   7.128   5.967   9.226 -0.3195 -0.6743 -0.2140
 5088TIP3    H239460   7.035   5.920   9.117  0.2743  1.3127 -1.6247
 5089TIP3   OH239461   6.549   3.403   9.492  0.5681  0.0920 -0.4207
 5089TIP3    H139462   6.608   3.336   9.527 -0.3832  0.4528  2.0799
 5089TIP3    H239463   6.467   3.357   9.473  0.1671  0.3747  0.5599
 5090TIP3   OH239464   1.628   3.570   8.344 -0.5532  0.0915  0.1757
 5090TIP3    H139465   1.675   3.536   8.268 -1.7025  1.8021 -1.3795
 5090TIP3    H239466   1.548   3.517   8.348  0.3234 -1.2170  1.3671
 5091TIP3   OH239467   5.248   3.347   8.605  0.0064  0.0570  0.0203
 5091TIP3    H139468   5.344   3.351   8.612 -0.0736  0.7430  0.7726
 5091TIP3    H239469   5.220   3.306   8.687 -0.3676  0.2077 -0.0327
 5092TIP3   OH239470   0.307   1.269   7.945  0.3420 -0.6955 -0.0189
 5092TIP3    H139471   0.232   1.245   8.000 -0.4167  0.9509 -0.2607
 5092TIP3    H239472   0.367   1.313   8.004 -0.0947  0.3244 -0.3114
 5093TIP3   OH239473   1.170   5.615   7.710  0.0228  0.1346 -0.0319
 5093TIP3    H139474   1.204   5.600   7.798  2.0273 -2.0114 -1.0354
 5093TIP3    H239475   1.141   5.529   7.681  0.2343  0.5990 -1.7521
 5094TIP3   OH239476   5.658   1.884   7.876  0.5207  0.1596 -0.0688
 5094TIP3    H139477   5.636   1.844   7.792  1.1234  1.7962 -1.0442
 5094TIP3    H239478   5.577   1.878   7.927  0.2242 -1.1017 -0.6474
 5095TIP3   OH239479   7.213   6.476   9.101 -0.2034  0.0606 -0.3156
 5095TIP3    H139480   7.124   6.509   9.113 -1.2235 -2.1999 -1.0319
 5095TIP3    H239481   7.257   6.543   9.049 -2.1191  0.3757 -1.6452
 5096TIP3   OH239482   4.022   4.538  10.043 -0.0673 -0.2415 -0.1505
 5096TIP3    H139483   3.953   4.602  10.060 -2.4811 -2.7775  0.2887
 5096TIP3    H239484   3.975   4.458  10.020  2.8154 -1.5990 -1.8348
 5097TIP3   OH239485   5.499   2.437   7.895  0.3120  0.2637  0.1676
 5097TIP3    H139486   5.571   2.457   7.835  0.7381 -0.0023  0.5854
 5097TIP3    H239487   5.430   2.401   7.839  1.9755 -3.4039  0.1912
 5098TIP3   OH239488   3.277   5.355   7.265  0.4950 -0.1149  0.6170
 5098TIP3    H139489   3.355   5.410   7.257 -0.0231  0.5733  0.1526
 5098TIP3    H239490   3.210   5.414   7.301 -0.1817 -0.3112 -0.2742
 5099TIP3   OH239491   4.864   6.976   9.689 -0.1646 -0.4098 -0.0626
 5099TIP3    H139492   4.795   6.932   9.737  0.4573 -1.1087  0.2011
 5099TIP3    H239493   4.873   6.926   9.607 -1.1531  0.7137 -0.9010
 5100TIP3   OH239494   6.117   3.273   9.017  0.1904 -0.2535 -0.1744
 5100TIP3    H139495   6.023   3.287   9.005  0.0696 -1.6187 -0.9721
 5100TIP3    H239496   6.130   3.281   9.112 -0.2526  2.4414 -0.2476
 5101TIP3   OH239497   1.140   0.587   7.842 -0.2696 -0.4397 -0.7936
 5101TIP3    H139498   1.181   0.528   7.905 -2.2924 -0.9507  0.1311
 5101TIP3    H239499   1.099   0.529   7.778 -1.3715 -0.0508 -0.4667
 5102TIP3   OH239500   0.744   2.184   7.727 -0.1280 -0.3187  0.9572
 5102TIP3    H139501   0.713   2.263   7.682  0.1702 -0.8136 -0.1548
 5102TIP3    H239502   0.825   2.212   7.771  0.0122 -0.0247  0.5187
 5103TIP3   OH239503   1.458   3.509   8.759  0.0065  0.2399  0.0403
 5103TIP3    H139504   1.476   3.544   8.847 -0.3425  2.0424 -0.5563
 5103TIP3    H239505   1.373   3.466   8.767 -0.0760  0.4920  0.5754
 5104TIP3   OH239506   2.430   2.874   7.653  0.3119 -0.7814  0.2801
 5104TIP3    H139507   2.508   2.877   7.597  0.2001 -0.3094  0.1475
 5104TIP3    H239508   2.450   2.806   7.717 -0.2901 -2.6438 -1.3959
 5105TIP3   OH239509   6.075   2.848   6.979  0.7858 -0.5772  0.2011
 5105TIP3    H139510   6.035   2.935   6.969 -1.0317 -1.6007 -2.7393
 5105TIP3    H239511   6.169   2.864   6.970  0.5342  1.1383  0.2827
 5106TIP3   OH239512   7.110   4.687   7.565 -0.0729  0.5203  0.1724
 5106TIP3    H139513   7.056   4.610   7.550 -0.6356  0.9372  0.0228
 5106TIP3    H239514   7.056   4.743   7.621 -0.4621  1.6469 -1.2842
 5107TIP3   OH239515   7.614   2.531   8.746  0.2088  0.0973  0.9600
 5107TIP3    H139516   7.548   2.508   8.812 -0.3549  0.1215  0.4114
 5107TIP3    H239517   7.566   2.581   8.681  0.5301 -0.7998  0.0078
 5108TIP3   OH239518   1.229   4.532   7.152 -0.4585 -0.2412 -0.6394
 5108TIP3    H139519   1.161   4.479   7.112 -0.2732 -0.1579 -1.0658
 5108TIP3    H239520   1.282   4.564   7.079 -0.4545  0.3723 -0.3790
 5109TIP3   OH239521   0.285   7.237   8.063  0.2823 -0.1275  0.6628
 5109TIP3    H139522   0.215   7.294   8.096  0.3882 -0.3410  1.2758
 5109TIP3    H239523   0.291   7.258   7.970 -0.4096  0.0941  0.6597
 5110TIP3   OH239524   0.285   5.697   7.523 -0.2140 -0.4033 -0.1888
 5110TIP3    H139525   0.258   5.788   7.532 -1.1348 -0.5062 -1.5753
 5110TIP3    H239526   0.320   5.691   7.434 -0.7056 -1.5256 -0.3356
 5111TIP3   OH239527   0.117   2.549   9.112  0.2739  0.2919  0.0846
 5111TIP3    H139528   0.161   2.614   9.168  2.4103  1.1798 -2.3837
 5111TIP3    H239529   0.025   2.575   9.112  0.8886  2.7048  0.0777
 5112TIP3   OH239530   0.069   1.152   9.541 -0.0703 -0.4312  0.0627
 5112TIP3    H139531   0.057   1.065   9.578 -2.4722 -0.4909 -0.6653
 5112TIP3    H239532   0.137   1.142   9.475  0.5463 -1.4563  0.8368
 5113TIP3   OH239533   3.593   0.800   8.866  0.0920  0.2580 -0.3880
 5113TIP3    H139534   3.560   0.824   8.953 -0.4530 -0.8836 -0.2515
 5113TIP3    H239535   3.597   0.882   8.818 -0.9429  0.7232  0.2759
 5114TIP3   OH239536   4.661   2.259   7.736  0.2354  0.0451 -0.1426
 5114TIP3    H139537   4.681   2.233   7.646 -0.0661  0.1955 -0.2546
 5114TIP3    H239538   4.736   2.228   7.787  0.5840  0.2871 -0.5031
 5115TIP3   OH239539   2.417   6.937   8.879  0.0566  0.0993 -0.0904
 5115TIP3    H139540   2.409   6.842   8.888  2.2778 -0.1855 -0.5100
 5115TIP3    H239541   2.420   6.953   8.785  0.0329  0.5562 -0.0169
 5116TIP3   OH239542   2.775   6.244   8.072  0.7602  0.2767 -0.2489
 5116TIP3    H139543   2.773   6.207   7.983 -1.5917 -1.8990  0.5723
 5116TIP3    H239544   2.838   6.190   8.119  4.4522  3.3561 -1.1260
 5117TIP3   OH239545   7.346   0.445   8.364  0.8206 -0.3819 -0.6243
 5117TIP3    H139546   7.321   0.528   8.405  0.8900 -0.5004 -0.3390
 5117TIP3    H239547   7.309   0.449   8.276 -1.8346 -1.3253  0.3513
 5118TIP3   OH239548   4.367   0.131   8.877 -0.4145 -0.5518  1.0562
 5118TIP3    H139549   4.449   0.082   8.876 -0.5242 -0.7298  0.5524
 5118TIP3    H239550   4.393   0.221   8.897 -0.1982 -0.7800  1.8281
 5119TIP3   OH239551   1.878   2.840   7.741  0.1520  0.1074 -0.0664
 5119TIP3    H139552   1.870   2.779   7.815  0.3813 -1.4067 -1.2385
 5119TIP3    H239553   1.919   2.788   7.671  0.4793  1.6604 -1.0787
 5120TIP3   OH239554   1.911   4.010   7.950  0.4153 -0.2638  0.4521
 5120TIP3    H139555   2.002   4.029   7.972  0.6115 -1.7005  1.0075
 5120TIP3    H239556   1.862   4.083   7.986  1.3318  0.5502  0.1247
 5121TIP3   OH239557   4.670   7.668   7.518  0.6742  0.0905 -0.0507
 5121TIP3    H139558   4.639   7.595   7.572  0.2361 -0.0724 -0.5152
 5121TIP3    H239559   4.679   7.631   7.430 -2.3366  1.2272 -0.9693
 5122TIP3   OH239560   2.889   2.285   7.714 -0.0067  0.0433  0.3086
 5122TIP3    H139561   2.795   2.268   7.708  0.0866 -0.3422 -0.1220
 5122TIP3    H239562   2.895   2.381   7.718 -0.3699  0.1299 -0.7973
 5123TIP3   OH239563   7.477   6.154   8.675 -0.0327 -0.3150  0.0443
 5123TIP3    H139564   7.449   6.244   8.689  1.0844  0.1752 -0.7584
 5123TIP3    H239565   7.570   6.154   8.697 -0.6791 -2.1310  3.7039
 5124TIP3   OH239566   4.787   2.763   8.653  0.1084  0.6342  0.5080
 5124TIP3    H139567   4.767   2.746   8.746 -0.6683  0.7016  0.3587
 5124TIP3    H239568   4.752   2.687   8.607  2.3041 -0.4006  0.4455
 5125TIP3   OH239569   5.878   7.004   8.351  0.2621  0.3384 -0.0958
 5125TIP3    H139570   5.901   6.946   8.278  1.7584 -0.0493  0.6356
 5125TIP3    H239571   5.837   7.080   8.310  0.5777 -0.1159 -1.2950
 5126TIP3   OH239572   1.929   1.676   9.542  0.0348  0.4156  0.1204
 5126TIP3    H139573   1.874   1.613   9.494  0.1821 -0.1814  0.7171
 5126TIP3    H239574   1.887   1.684   9.627  0.0084  1.1550  0.0452
 5127TIP3   OH239575   3.479   4.514   7.922 -0.3086  0.1821 -0.7381
 5127TIP3    H139576   3.459   4.426   7.953 -0.9475  0.0487 -1.4813
 5127TIP3    H239577   3.492   4.566   8.002  0.7867 -0.7250 -0.2997
 5128TIP3   OH239578   0.210   4.317   8.087  0.2906  0.1010  0.3664
 5128TIP3    H139579   0.158   4.236   8.087  1.8588 -0.9979  2.2432
 5128TIP3    H239580   0.291   4.294   8.041  0.0711  1.1538 -0.6046
 5129TIP3   OH239581   2.675   3.954   7.433  0.1568 -0.0342 -0.1709
 5129TIP3    H139582   2.631   4.024   7.482 -1.1028 -1.0181  0.1406
 5129TIP3    H239583   2.743   4.000   7.383 -0.5935  1.4114  0.0643
 5130TIP3   OH239584   2.834   3.816   9.343 -0.2772  0.3112 -0.1085
 5130TIP3    H139585   2.889   3.786   9.415 -0.3867 -0.8818 -0.5070
 5130TIP3    H239586   2.878   3.894   9.310  0.9008 -0.3248 -0.0906
 5131TIP3   OH239587   4.698   6.225   9.511 -0.3886  0.0382 -0.6649
 5131TIP3    H139588   4.717   6.133   9.495 -1.1439 -0.0084 -1.3493
 5131TIP3    H239589   4.609   6.238   9.478 -1.0039  0.5975  1.0980
 5132TIP3   OH239590   7.262   6.964   8.160 -0.1843  0.1487  0.2774
 5132TIP3    H139591   7.254   6.902   8.088  1.6025  0.4505 -0.2558
 5132TIP3    H239592   7.233   6.916   8.237  0.7280 -1.2208 -0.1901
 5133TIP3   OH239593   1.563   5.490   8.685  0.0085  0.1913 -0.0197
 5133TIP3    H139594   1.559   5.398   8.658 -1.4341  0.9091 -2.5192
 5133TIP3    H239595   1.496   5.497   8.753  0.8097 -0.7895  0.9031
 5134TIP3   OH239596   7.204   4.304   7.117  0.1377  0.0278  0.2012
 5134TIP3    H139597   7.112   4.304   7.143  0.3638  0.0038  1.0386
 5134TIP3    H239598   7.221   4.213   7.093 -0.3004  0.2201 -0.9042
 5135TIP3   OH239599   2.586   1.905   9.299  0.2370 -0.4165  0.1539
 5135TIP3    H139600   2.664   1.898   9.354  1.4894  2.6576 -0.9978
 5135TIP3    H239601   2.521   1.947   9.355  0.7676  0.6171  0.0334
 5136TIP3   OH239602   1.345   4.321   9.291  0.2245  0.1556  0.4105
 5136TIP3    H139603   1.399   4.246   9.315  0.0668  0.4908  1.9840
 5136TIP3    H239604   1.276   4.285   9.235  0.8821 -0.6345  0.0954
 5137TIP3   OH239605   1.567   5.000   8.011 -0.3422  0.0906 -0.4353
 5137TIP3    H139606   1.644   5.004   7.955 -0.7503 -1.2057 -1.1443
 5137TIP3    H239607   1.601   4.994   8.100  0.3590  0.2304 -0.6900
 5138TIP3   OH239608   7.419   2.779   9.225  0.3205  0.2386  0.2826
 5138TIP3    H139609   7.385   2.700   9.266 -0.6253  0.5621  0.1460
 5138TIP3    H239610   7.372   2.850   9.268  0.1215  0.6461 -0.5834
 5139TIP3   OH239611   1.333   7.036   7.728 -0.1118  0.1473 -0.0503
 5139TIP3    H139612   1.323   6.992   7.644  1.6986  0.8552 -0.6675
 5139TIP3    H239613   1.383   7.115   7.709 -1.8395  1.6838  1.2986
 5140TIP3   OH239614   6.167   5.289   7.895 -0.7245 -0.0186  0.2812
 5140TIP3    H139615   6.087   5.341   7.902 -0.1203  1.1311 -0.8112
 5140TIP3    H239616   6.141   5.209   7.851 -1.1161  0.7958 -1.0092
 5141TIP3   OH239617   2.863   7.000   7.947  1.0543  0.2066  0.3470
 5141TIP3    H139618   2.901   6.956   7.871  1.4717 -0.5843  0.9928
 5141TIP3    H239619   2.884   6.942   8.020 -0.3527  0.3710  0.8983
 5142TIP3   OH239620   3.825   4.204   7.466 -0.2891 -0.4040 -0.2970
 5142TIP3    H139621   3.885   4.130   7.476  0.1429 -0.2567 -1.6331
 5142TIP3    H239622   3.771   4.201   7.545  2.5932  0.5184  1.8740
 5143TIP3   OH239623   6.367   5.486   7.818 -0.0847 -0.1800  0.1120
 5143TIP3    H139624   6.311   5.486   7.740  0.0027 -0.8527  0.0430
 5143TIP3    H239625   6.314   5.446   7.886  0.5274 -1.4246 -0.1212
 5144TIP3   OH239626   4.337   3.896   7.939 -0.3215 -0.1279  0.1362
 5144TIP3    H139627   4.411   3.947   7.908  0.0940 -0.5540  0.4220
 5144TIP3    H239628   4.298   3.949   8.009  0.3290 -0.3619  0.6829
 5145TIP3   OH239629   7.293   1.979   9.692  0.0540  0.2315  0.1009
 5145TIP3    H139630   7.233   1.930   9.635  0.3073  0.8279 -0.6998
 5145TIP3    H239631   7.371   1.993   9.638 -0.4523  2.5406 -0.1205
 5146TIP3   OH239632   0.654   6.538   7.220 -0.5713 -0.1279  0.3055
 5146TIP3    H139633   0.673   6.628   7.192 -0.4670 -0.0901  0.4989
 5146TIP3    H239634   0.604   6.501   7.148 -2.0281  0.5954  0.8922
 5147TIP3   OH239635   6.241   6.257   9.376  0.0407  0.3015  0.0161
 5147TIP3    H139636   6.168   6.311   9.405  0.6080  1.2667 -0.3019
 5147TIP3    H239637   6.264   6.291   9.289 -0.5108 -1.4077 -0.8561
 5148TIP3   OH239638   0.519   1.923   8.122  0.3893  0.6405 -0.0356
 5148TIP3    H139639   0.499   2.012   8.149 -0.3657  0.4537  0.0243
 5148TIP3    H239640   0.489   1.868   8.194 -1.3137  0.1623 -1.0436
 5149TIP3   OH239641   2.439   1.408   9.326 -0.7102  0.1791  0.5403
 5149TIP3    H139642   2.455   1.320   9.293 -0.5222  0.7299 -0.9249
 5149TIP3    H239643   2.344   1.412   9.341 -0.8490 -0.0156 -0.2302
 5150TIP3   OH239644   5.427   7.364   7.276  0.4398  0.4802  0.1220
 5150TIP3    H139645   5.471   7.417   7.209  0.0664  1.5197  0.6698
 5150TIP3    H239646   5.377   7.299   7.227 -0.0193  1.3778 -0.6345
 5151TIP3   OH239647   2.480   5.600   8.990 -0.0045 -0.3730 -0.4464
 5151TIP3    H139648   2.466   5.516   9.033  0.7707  0.2813  1.2029
 5151TIP3    H239649   2.405   5.653   9.016 -0.7166 -0.6579 -1.8405
 5152TIP3   OH239650   2.101   0.199   8.992  0.0785 -0.0552 -0.0344
 5152TIP3    H139651   2.172   0.251   9.029  0.4202  0.3085 -1.1735
 5152TIP3    H239652   2.102   0.219   8.898 -2.2114  0.8041  0.0561
 5153TIP3   OH239653   3.057   1.453   7.932  0.0945  0.2034 -0.3857
 5153TIP3    H139654   3.032   1.365   7.904 -0.2545  0.2635 -0.2633
 5153TIP3    H239655   3.085   1.443   8.023 -1.1379  0.4217  0.0365
 5154TIP3   OH239656   4.947   2.954   8.534  0.1278 -0.5077  0.2473
 5154TIP3    H139657   4.908   3.015   8.472  0.0204  1.0630  1.7558
 5154TIP3    H239658   4.879   2.890   8.552 -0.9395  0.7657  0.9744
 5155TIP3   OH239659   0.108   0.357   6.787 -0.3923 -0.4839  0.3256
 5155TIP3    H139660   0.147   0.366   6.700  2.6168  1.1347  1.6671
 5155TIP3    H239661   0.092   0.448   6.814  1.1604 -0.7475  2.3650
 5156TIP3   OH239662   1.215   0.861   7.759  0.7435 -0.0290  0.3492
 5156TIP3    H139663   1.251   0.927   7.818  0.4054  0.1217  0.3929
 5156TIP3    H239664   1.217   0.780   7.810  3.4671 -0.6235 -0.5353
 5157TIP3   OH239665   1.090   2.881   8.949  0.3049 -0.7171  0.7439
 5157TIP3    H139666   1.005   2.909   8.982  0.4309 -0.8634  1.1994
 5157TIP3    H239667   1.071   2.807   8.892  0.1315 -0.8148  0.9257
 5158TIP3   OH239668   6.096   2.386   9.726  0.4416 -0.1493 -0.6275
 5158TIP3    H139669   6.175   2.341   9.697  1.8409  0.4458  1.9943
 5158TIP3    H239670   6.094   2.467   9.675  2.6960  0.7883  0.6547
 5159TIP3   OH239671   4.914   2.635   7.171  0.0005 -0.2091 -0.3772
 5159TIP3    H139672   4.953   2.695   7.235  0.3323 -0.6543 -0.1626
 5159TIP3    H239673   4.837   2.599   7.215  1.1302 -1.7569  0.3989
 5160TIP3   OH239674   4.204   3.370   8.679 -0.5212 -0.1287 -0.4969
 5160TIP3    H139675   4.268   3.304   8.653  2.1986  1.4083  1.7684
 5160TIP3    H239676   4.216   3.380   8.773 -0.6628  3.5933 -0.7152
 5161TIP3   OH239677   1.926   3.980   7.556 -0.1807  0.1669 -0.3173
 5161TIP3    H139678   1.912   4.053   7.495 -0.6911  0.9654  0.7091
 5161TIP3    H239679   1.868   3.911   7.525 -0.4756  0.5866 -0.7121
 5162TIP3   OH239680   3.969   7.070   8.218 -0.2946  0.1667 -0.3671
 5162TIP3    H139681   3.895   7.102   8.270 -0.1939 -0.2673  0.0456
 5162TIP3    H239682   4.037   7.051   8.283  0.5391  1.5016 -0.8143
 5163TIP3   OH239683   5.614   4.541   9.322 -0.0247 -0.4384 -0.5181
 5163TIP3    H139684   5.541   4.564   9.265 -0.1404  1.6408  0.3598
 5163TIP3    H239685   5.692   4.576   9.278  0.0975 -0.3455 -0.2372
 5164TIP3   OH239686   1.709   1.496   8.631  0.9477  0.2553 -0.3829
 5164TIP3    H139687   1.750   1.436   8.694  0.4274 -0.0554 -0.3360
 5164TIP3    H239688   1.723   1.583   8.669  1.0680  0.1089 -0.0845
 5165TIP3   OH239689   0.387   4.127   8.017  0.0289  0.1076  0.0781
 5165TIP3    H139690   0.359   4.054   8.072 -1.6721 -0.2043 -1.1243
 5165TIP3    H239691   0.467   4.159   8.058 -0.0222 -1.4630  1.4885
 5166TIP3   OH239692   1.657   3.278   9.401 -0.1209  0.8097 -0.1387
 5166TIP3    H139693   1.628   3.294   9.312  1.3072  0.8236 -0.6119
 5166TIP3    H239694   1.748   3.306   9.403 -0.1620  0.9334  1.3617
 5167TIP3   OH239695   4.977   0.557   9.078  0.1761 -0.0590 -0.7590
 5167TIP3    H139696   4.970   0.525   8.988 -2.8652 -0.6766 -0.4225
 5167TIP3    H239697   4.938   0.487   9.131  1.6063  0.4372  1.0419
 5168TIP3   OH239698   4.906   0.556   9.468 -0.0689 -0.3089 -0.2712
 5168TIP3    H139699   4.945   0.643   9.478  1.0623 -0.9985  2.1526
 5168TIP3    H239700   4.831   0.570   9.410 -0.0610  2.3310  0.2205
 5169TIP3   OH239701   5.362   2.123   8.019  0.1065 -0.3057  0.0094
 5169TIP3    H139702   5.289   2.164   8.066  0.1693  0.8770 -0.8981
 5169TIP3    H239703   5.440   2.170   8.048  0.2968 -0.3782 -0.3779
 5170TIP3   OH239704   0.371   5.839   8.199  0.2969 -0.1895  0.2952
 5170TIP3    H139705   0.461   5.834   8.231  0.4061  1.2448  0.2712
 5170TIP3    H239706   0.375   5.901   8.126 -0.8662  0.6134  0.8813
 5171TIP3   OH239707   5.428   0.112   8.726 -0.2978 -0.5488 -0.3791
 5171TIP3    H139708   5.467   0.068   8.802 -0.7444 -0.9453 -0.3719
 5171TIP3    H239709   5.488   0.183   8.705  1.1112 -1.9027 -1.1550
 5172TIP3   OH239710   7.584   1.295   8.490 -0.0983 -0.1603 -0.1491
 5172TIP3    H139711   7.672   1.330   8.502 -0.4014  0.2788  0.8235
 5172TIP3    H239712   7.525   1.369   8.504 -0.6583 -0.5926 -0.1445
 5173TIP3   OH239713   4.910   0.188   8.827 -0.1585 -0.3343  0.2123
 5173TIP3    H139714   4.827   0.146   8.805  0.3936 -1.4701  0.2040
 5173TIP3    H239715   4.924   0.167   8.920  0.4125 -0.6956  0.0530
 5174TIP3   OH239716   6.002   5.630   8.778  0.1008 -0.1861 -0.2513
 5174TIP3    H139717   6.017   5.660   8.688  1.9087 -0.4593 -0.0705
 5174TIP3    H239718   6.082   5.653   8.825 -0.4953 -0.7822  1.0993
 5175TIP3   OH239719   5.537   0.560   8.476  1.1666  0.4712 -0.0466
 5175TIP3    H139720   5.470   0.599   8.419  0.7836  0.7056  0.5580
 5175TIP3    H239721   5.592   0.634   8.502  1.4553  0.3331 -0.2612
 5176TIP3   OH239722   1.884   5.740   8.968 -0.4659 -0.3360  0.1803
 5176TIP3    H139723   1.943   5.670   8.998 -0.4580 -0.9125 -1.1063
 5176TIP3    H239724   1.846   5.706   8.887 -0.9443  0.9137 -0.1396
 5177TIP3   OH239725   0.048   1.003   7.687  0.1864 -0.2285  0.2107
 5177TIP3    H139726   0.053   0.908   7.689  1.5299 -0.3368 -2.8825
 5177TIP3    H239727   0.138   1.032   7.707  0.0322  0.3586  0.0816
 5178TIP3   OH239728   2.829   1.862   9.440  0.5683  0.6051 -0.3206
 5178TIP3    H139729   2.829   1.947   9.483  1.0487  0.9323 -0.9492
 5178TIP3    H239730   2.921   1.845   9.419  0.5990 -0.5135  0.6402
 5179TIP3   OH239731   7.219   6.255   7.605 -0.8471  0.5101  0.0475
 5179TIP3    H139732   7.136   6.210   7.589 -0.2755 -1.3374  1.7245
 5179TIP3    H239733   7.267   6.246   7.523 -1.7375  0.2483 -0.4579
 5180TIP3   OH239734   5.220   2.443   8.863  0.0526  0.1196  0.3671
 5180TIP3    H139735   5.159   2.517   8.862 -0.0154  0.1092 -1.9226
 5180TIP3    H239736   5.236   2.427   8.956  0.2409  3.1379  0.9795
 5181TIP3   OH239737   5.962   5.198   9.069 -0.4808 -0.8147  0.1575
 5181TIP3    H139738   5.878   5.201   9.116  1.0006 -0.0130  3.0358
 5181TIP3    H239739   6.015   5.137   9.120  0.6927 -1.4133 -1.6885
 5182TIP3   OH239740   1.424   2.619   8.465  0.2187 -0.0929 -1.0044
 5182TIP3    H139741   1.475   2.683   8.515  1.6884 -0.9022 -1.4160
 5182TIP3    H239742   1.351   2.670   8.429  1.5249  1.4368 -1.5999
 5183TIP3   OH239743   0.554   6.079   7.668 -0.2048  0.4396  0.1801
 5183TIP3    H139744   0.578   6.000   7.620  0.8696  0.5591  0.5074
 5183TIP3    H239745   0.634   6.106   7.712 -0.6785  1.4535  0.4471
 5184TIP3   OH239746   2.972   1.490   8.845 -0.0938 -0.7279  1.0978
 5184TIP3    H139747   2.991   1.534   8.928 -0.0179 -0.4492  0.9331
 5184TIP3    H239748   2.876   1.487   8.841 -0.0983 -0.6932  1.1684
 5185TIP3   OH239749   5.172   0.345   7.615  0.0286  0.0361 -0.1892
 5185TIP3    H139750   5.130   0.359   7.700  0.2375  1.2093 -0.2759
 5185TIP3    H239751   5.242   0.283   7.633 -1.7786 -2.1229 -0.0621
 5186TIP3   OH239752   1.283   3.246   7.861 -0.1387  0.1210  0.1650
 5186TIP3    H139753   1.300   3.269   7.770 -0.2271  1.6022  0.4929
 5186TIP3    H239754   1.348   3.295   7.911  0.0877 -0.8942  0.8898
 5187TIP3   OH239755   2.375   4.476   7.198 -0.5239  0.0102 -0.4927
 5187TIP3    H139756   2.307   4.498   7.134 -1.6826 -0.5677  0.5134
 5187TIP3    H239757   2.343   4.513   7.280 -1.1895 -2.9475  0.6789
 5188TIP3   OH239758   5.055   5.169   7.814  0.0558  0.3128  0.7114
 5188TIP3    H139759   5.063   5.122   7.731  0.5392  1.4814  0.0747
 5188TIP3    H239760   4.981   5.127   7.858  0.3927 -0.9503  0.1193
 5189TIP3   OH239761   1.530   1.106   9.460  0.2942 -0.2097  0.1802
 5189TIP3    H139762   1.597   1.131   9.397 -0.4880 -0.5697 -0.8163
 5189TIP3    H239763   1.475   1.184   9.469  0.1669 -0.2904  0.1037
 5190TIP3   OH239764   5.033   7.108   9.438 -0.6388 -0.5572  0.4082
 5190TIP3    H139765   5.129   7.110   9.443 -0.6803  1.4080  1.2610
 5190TIP3    H239766   5.006   7.059   9.515 -0.3342 -0.0602  0.8403
 5191TIP3   OH239767   7.114   0.271   9.512 -0.7569 -0.0439 -0.2300
 5191TIP3    H139768   7.183   0.253   9.447 -0.8373  0.5485 -0.4900
 5191TIP3    H239769   7.080   0.357   9.486 -2.4704 -0.8911 -0.8859
 5192TIP3   OH239770   0.342   0.905   9.539 -0.1241  0.5653  0.1138
 5192TIP3    H139771   0.304   0.963   9.605 -0.5501  1.2261 -0.6963
 5192TIP3    H239772   0.435   0.904   9.559 -0.5254 -1.4173  2.4044
 5193TIP3   OH239773   0.541   6.288   8.647 -0.3464  0.4309  0.2466
 5193TIP3    H139774   0.484   6.351   8.690 -0.7438  1.7534 -2.0406
 5193TIP3    H239775   0.504   6.278   8.559  0.5251 -1.9585  0.0556
 5194TIP3   OH239776   1.341   5.485   9.208 -0.4537 -0.2289  0.0704
 5194TIP3    H139777   1.386   5.424   9.150  0.4288 -1.4378  1.9426
 5194TIP3    H239778   1.396   5.563   9.210 -0.1206 -0.4585 -0.1637
 5195TIP3   OH239779   0.669   1.618   8.762  0.2078  0.0425 -0.0567
 5195TIP3    H139780   0.726   1.607   8.838  1.7080 -3.7756 -1.5327
 5195TIP3    H239781   0.581   1.600   8.795  0.5434  0.4548  1.1203
 5196TIP3   OH239782   5.900   3.106   8.621 -0.0546 -0.5437  0.4446
 5196TIP3    H139783   5.879   3.018   8.655 -2.8153  0.1321  0.6696
 5196TIP3    H239784   5.901   3.162   8.699  0.3383 -0.1255  0.1439
 5197TIP3   OH239785   2.289   4.403   8.672 -0.3162 -0.0745 -0.6291
 5197TIP3    H139786   2.313   4.314   8.699  1.0543  0.7312  1.0439
 5197TIP3    H239787   2.199   4.414   8.704  0.9339  0.5335  3.2867
 5198TIP3   OH239788   5.298   1.797   8.249 -0.2594  0.0110  0.4544
 5198TIP3    H139789   5.344   1.834   8.324  1.5853  0.3513 -0.7769
 5198TIP3    H239790   5.258   1.717   8.283  1.3395 -0.3552  1.6102
 5199TIP3   OH239791   7.469   1.541   8.634  0.5839 -0.4422  0.3130
 5199TIP3    H139792   7.382   1.573   8.610  0.9492  0.3155 -0.0514
 5199TIP3    H239793   7.511   1.617   8.675  0.8340 -1.0105  1.1353
 5200TIP3   OH239794   2.406   5.443   9.214 -0.1764  0.0385 -0.1927
 5200TIP3    H139795   2.369   5.466   9.299 -0.2617 -1.0477  0.0747
 5200TIP3    H239796   2.395   5.348   9.208  1.5612 -0.1778 -0.5795
 5201TIP3   OH239797   6.196   2.012   9.411  0.3900 -0.0559  0.4110
 5201TIP3    H139798   6.201   2.058   9.494  2.7345  2.3998 -0.9217
 5201TIP3    H239799   6.287   1.993   9.388 -0.3224 -2.7289 -0.6012
 5202TIP3   OH239800   0.172   0.391   8.852  0.0463 -0.4405 -0.5710
 5202TIP3    H139801   0.197   0.436   8.771  1.0303 -0.7859 -0.4765
 5202TIP3    H239802   0.246   0.405   8.911 -1.6315  1.9237  1.2035
 5203TIP3   OH239803   3.089   2.699   9.274  0.2157 -0.1489 -0.0245
 5203TIP3    H139804   3.133   2.719   9.357  1.3805  1.0422 -0.8729
 5203TIP3    H239805   2.996   2.713   9.292  0.6498  3.3619  0.3391
 5204TIP3   OH239806   2.270   3.871   8.840  0.3410 -0.0458 -0.1638
 5204TIP3    H139807   2.245   3.946   8.787  0.0979 -1.1225 -1.6223
 5204TIP3    H239808   2.235   3.891   8.927 -2.0049  0.3723 -1.1338
 5205TIP3   OH239809   3.235   4.558   7.850  0.8486  0.2354  0.3221
 5205TIP3    H139810   3.311   4.534   7.903 -0.1391 -1.9885  0.8396
 5205TIP3    H239811   3.195   4.631   7.898  1.4990  0.0329  1.1949
 5206TIP3   OH239812   3.606   5.270   7.988 -0.5731 -0.2234  0.2299
 5206TIP3    H139813   3.688   5.223   7.970  0.3185  1.5016 -0.3886
 5206TIP3    H239814   3.538   5.213   7.951  0.3967 -1.3198  0.0511
 5207TIP3   OH239815   3.829   5.507   7.948 -0.0686 -0.4125  0.2639
 5207TIP3    H139816   3.810   5.574   8.013 -1.9897 -0.7591  0.1478
 5207TIP3    H239817   3.746   5.496   7.901  0.7407 -1.5041 -0.9837
 5208TIP3   OH239818   2.134   4.611   9.398 -0.4604  0.7162 -1.1513
 5208TIP3    H139819   2.193   4.562   9.340  0.2971  1.1306 -0.7364
 5208TIP3    H239820   2.163   4.702   9.391 -1.0210  0.9196 -0.8995
 5209TIP3   OH239821   0.738   6.635   8.765  0.2836 -0.0682 -0.2675
 5209TIP3    H139822   0.696   6.594   8.690 -1.0870 -0.1415  0.5101
 5209TIP3    H239823   0.712   6.727   8.760  0.8403  0.0895 -0.3174
 5210TIP3   OH239824   6.427   0.445   9.488 -0.2386  0.0662 -0.1462
 5210TIP3    H139825   6.459   0.384   9.422  1.7572 -0.5674  1.3053
 5210TIP3    H239826   6.403   0.390   9.562 -1.6286  0.8194 -0.0051
 5211TIP3   OH239827   5.968   5.663   8.487  0.3808  0.7919 -0.3952
 5211TIP3    H139828   6.023   5.585   8.481  1.0020  1.3279 -2.4674
 5211TIP3    H239829   5.896   5.647   8.426  0.3659  1.7121 -0.6393
 5212TIP3   OH239830   5.895   3.449   9.094 -0.0055  0.3077 -0.6342
 5212TIP3    H139831   5.883   3.406   9.178 -1.9174  1.4636 -0.2486
 5212TIP3    H239832   5.988   3.468   9.089  0.9516 -3.7088 -0.8257
 5213TIP3   OH239833   4.539   5.986   8.570  0.3849 -0.2457 -0.2844
 5213TIP3    H139834   4.565   5.963   8.481  1.3035 -0.0440 -0.0721
 5213TIP3    H239835   4.472   5.922   8.593  2.4867 -2.4481  0.1038
 5214TIP3   OH239836   0.193   3.645   8.298  0.3718  0.4375  0.1739
 5214TIP3    H139837   0.244   3.565   8.311 -2.5454 -2.2942 -2.7947
 5214TIP3    H239838   0.134   3.649   8.373  0.1806 -0.6076  0.0949
 5215TIP3   OH239839   2.390   1.519   6.717  0.3119  0.5286 -0.2355
 5215TIP3    H139840   2.437   1.458   6.660 -1.1435 -1.5526  0.6727
 5215TIP3    H239841   2.309   1.473   6.739 -2.1486  3.8298 -1.5650
 5216TIP3   OH239842   4.172   7.050   7.256 -0.4870 -0.2877  0.2394
 5216TIP3    H139843   4.166   7.103   7.336 -1.8332  1.2645 -0.8134
 5216TIP3    H239844   4.214   7.109   7.193 -0.6903 -1.0073 -0.5762
 5217TIP3   OH239845   3.442   3.666   9.647  0.0193 -0.2301 -0.4808
 5217TIP3    H139846   3.427   3.582   9.602  0.1603  0.5798 -2.1139
 5217TIP3    H239847   3.534   3.685   9.632  0.5581 -0.8206  1.7980
 5218TIP3   OH239848   3.793   1.749   7.796  0.4967 -0.5262  0.0586
 5218TIP3    H139849   3.885   1.775   7.789 -0.2628  2.0243 -2.6515
 5218TIP3    H239850   3.777   1.698   7.717 -0.3727 -1.2666  0.6886
 5219TIP3   OH239851   4.164   4.896   8.716 -0.5614  0.3033  0.1957
 5219TIP3    H139852   4.181   4.870   8.625 -1.8216 -0.0645  0.0444
 5219TIP3    H239853   4.127   4.818   8.757 -1.8731  1.0284  0.4641
 5220TIP3   OH239854   4.937   2.761   7.672 -0.6161 -0.3189 -0.5550
 5220TIP3    H139855   5.026   2.726   7.684  0.0943  1.3825 -0.4990
 5220TIP3    H239856   4.915   2.798   7.757 -0.9810  0.1033 -0.8295
 5221TIP3   OH239857   6.755   2.974   7.801  0.2891  0.2040 -0.3849
 5221TIP3    H139858   6.800   3.054   7.829 -2.1165  1.3090  0.6271
 5221TIP3    H239859   6.686   2.962   7.866  0.1971 -2.3994 -0.8611
 5222TIP3   OH239860   6.047   1.173   9.198  0.3876  0.0053  0.4539
 5222TIP3    H139861   6.007   1.088   9.216  0.0148  0.3977  1.6362
 5222TIP3    H239862   5.976   1.236   9.212  0.6450  0.5138 -0.4497
 5223TIP3   OH239863   0.185   3.688   8.628 -0.0830 -0.6523 -0.3766
 5223TIP3    H139864   0.155   3.777   8.609 -0.6046 -0.7962 -0.2375
 5223TIP3    H239865   0.221   3.693   8.717  0.0421 -0.5484 -0.4316
 5224TIP3   OH239866   1.488   7.268   8.095 -0.1865  0.1755 -0.1350
 5224TIP3    H139867   1.448   7.264   8.008 -0.0318  1.5480 -0.3051
 5224TIP3    H239868   1.445   7.199   8.145 -1.1258  0.1388 -0.9625
 5225TIP3   OH239869   6.009   5.240   8.427  0.0575 -0.3088  0.7269
 5225TIP3    H139870   5.919   5.254   8.456 -0.0151 -0.1018  0.4134
 5225TIP3    H239871   6.049   5.187   8.496 -0.3799 -0.6256  0.7400
 5226TIP3   OH239872   2.972   4.347   9.393  0.4568 -0.2054  0.1316
 5226TIP3    H139873   3.053   4.311   9.431  1.1727  1.5927  0.3874
 5226TIP3    H239874   2.912   4.353   9.467 -0.3510 -2.5083 -0.2346
 5227TIP3   OH239875   4.831   3.619   8.111 -0.3896 -0.2056 -0.0509
 5227TIP3    H139876   4.757   3.680   8.120 -0.9515 -0.6025 -1.6027
 5227TIP3    H239877   4.860   3.603   8.201 -1.8850  0.3427  0.5700
 5228TIP3   OH239878   3.071   6.455   7.767  0.0958  0.2168  0.0232
 5228TIP3    H139879   3.034   6.479   7.852 -2.6082  0.7294 -1.1982
 5228TIP3    H239880   3.092   6.538   7.724  0.3633 -0.0021 -0.2829
 5229TIP3   OH239881   1.496   6.018   7.296 -0.1141 -1.3221  0.1860
 5229TIP3    H139882   1.549   6.029   7.375 -0.2961 -2.5372  0.5124
 5229TIP3    H239883   1.556   6.031   7.223  0.2848 -1.1828  0.5417
 5230TIP3   OH239884   5.415   6.137   9.174 -0.7326  0.8704 -0.0812
 5230TIP3    H139885   5.453   6.108   9.091 -1.1566 -0.4068  0.1500
 5230TIP3    H239886   5.490   6.169   9.225 -0.6072  2.7837 -1.3543
 5231TIP3   OH239887   7.249   7.138   9.778 -0.0490  0.1661 -0.2852
 5231TIP3    H139888   7.218   7.140   9.687 -1.5981 -0.7029  0.1893
 5231TIP3    H239889   7.229   7.050   9.809 -1.7782  1.1476  1.6197
 5232TIP3   OH239890   5.412   0.639   7.235  0.0770 -0.4828 -0.1478
 5232TIP3    H139891   5.502   0.642   7.202  0.5434 -0.5763  1.0668
 5232TIP3    H239892   5.383   0.730   7.231  0.4226 -0.3638 -0.0218
 5233TIP3   OH239893   4.738   7.216   7.071  0.4917 -0.0858 -0.2223
 5233TIP3    H139894   4.683   7.208   6.993  0.6707 -0.4152 -0.3192
 5233TIP3    H239895   4.776   7.303   7.066 -2.3780  1.3962  1.4015
 5234TIP3   OH239896   6.424   5.608   6.686 -0.6713  0.1186  0.8997
 5234TIP3    H139897   6.452   5.687   6.641  0.2901  0.1466  1.5154
 5234TIP3    H239898   6.451   5.621   6.777  0.1826 -1.2090  0.8706
 5235TIP3   OH239899   5.143   6.523   9.728  0.1172 -0.0775  0.0251
 5235TIP3    H139900   5.117   6.537   9.818 -0.6369 -0.8176 -0.0637
 5235TIP3    H239901   5.179   6.607   9.699  0.3927  0.1522  1.0134
 5236TIP3   OH239902   6.564   5.862   8.094  0.2562 -0.0314 -0.2410
 5236TIP3    H139903   6.648   5.902   8.114  1.2586 -2.2196  0.1876
 5236TIP3    H239904   6.585   5.772   8.071 -2.1300 -1.2571  1.9013
 5237TIP3   OH239905   2.543   3.797   8.824  0.1901 -0.6462 -0.0817
 5237TIP3    H139906   2.571   3.850   8.749 -0.0240  1.3126  1.1367
 5237TIP3    H239907   2.451   3.822   8.837 -0.7353 -3.2701 -0.9925
 5238TIP3   OH239908   7.075   5.309   9.337 -0.1945 -0.4354 -1.1301
 5238TIP3    H139909   7.065   5.332   9.245  1.2321 -0.4276 -1.3131
 5238TIP3    H239910   7.036   5.382   9.385  1.3949  0.8639 -1.7281
 5239TIP3   OH239911   6.075   5.793   9.876 -0.2584  0.2836  0.4073
 5239TIP3    H139912   5.993   5.843   9.874 -0.1989  0.3850 -1.0809
 5239TIP3    H239913   6.141   5.854   9.843  0.1000 -0.3080  0.0257
 5240TIP3   OH239914   3.634   1.314   6.885 -0.5082 -0.6144  0.3698
 5240TIP3    H139915   3.553   1.347   6.846  0.9509 -0.2441 -2.6879
 5240TIP3    H239916   3.681   1.393   6.913 -0.1939 -0.6181 -0.1260
 5241TIP3   OH239917   7.355   0.311   9.391  0.2759  0.2206  0.0378
 5241TIP3    H139918   7.416   0.378   9.361  0.1232  1.6601  2.6193
 5241TIP3    H239919   7.411   0.237   9.417  0.7200  0.6164  0.2169
 5242TIP3   OH239920   1.897   6.620   8.219  0.1057  0.2786  0.6017
 5242TIP3    H139921   1.900   6.538   8.268 -3.5062  0.6435  1.7547
 5242TIP3    H239922   1.916   6.687   8.285  3.1833  0.5319 -0.3634
 5243TIP3   OH239923   7.005   6.706   7.510 -0.0840  0.1754 -0.0506
 5243TIP3    H139924   7.013   6.790   7.554 -2.3630 -0.1773  1.1797
 5243TIP3    H239925   6.914   6.680   7.523  0.1879 -1.8416 -1.6071
 5244TIP3   OH239926   5.551   5.528   8.900 -0.6727  0.0462 -0.1722
 5244TIP3    H139927   5.474   5.580   8.878 -0.2647 -0.1133 -2.1574
 5244TIP3    H239928   5.622   5.566   8.847  0.6699  0.2789  1.7021
 5245TIP3   OH239929   0.316   6.372   9.351  0.2577  0.7005 -0.3181
 5245TIP3    H139930   0.350   6.353   9.264 -0.2529  1.4059 -0.6776
 5245TIP3    H239931   0.356   6.305   9.407 -0.2939 -0.4595 -1.2733
 5246TIP3   OH239932   2.900   4.846   6.954  0.1627  0.0349  0.3945
 5246TIP3    H139933   2.853   4.926   6.934 -1.4930 -1.0188 -0.1025
 5246TIP3    H239934   2.934   4.815   6.870 -0.0833 -0.3191  0.4233
 5247TIP3   OH239935   6.330   3.564   6.820 -0.5041 -0.2168  0.0798
 5247TIP3    H139936   6.235   3.556   6.828 -0.8680  1.2602 -1.8709
 5247TIP3    H239937   6.360   3.476   6.795 -1.2643 -0.8088  1.1803
 5248TIP3   OH239938   2.955   0.722   7.574 -0.4359 -0.2114  0.8798
 5248TIP3    H139939   2.973   0.790   7.640 -1.4636 -0.0828  1.0496
 5248TIP3    H239940   2.863   0.734   7.552  0.2635  0.8531 -1.8788
 5249TIP3   OH239941   6.657   2.677   7.707 -0.0357  0.0917  0.0566
 5249TIP3    H139942   6.734   2.646   7.754  0.8084  1.1056 -0.6151
 5249TIP3    H239943   6.597   2.706   7.775  0.7365  0.5569  0.5501
 5250TIP3   OH239944   2.583   5.216   8.495 -0.4295  0.3378  0.3080
 5250TIP3    H139945   2.566   5.217   8.400  0.1538 -0.9196  0.1689
 5250TIP3    H239946   2.678   5.219   8.502 -0.3959 -0.9598  0.7866
 5251TIP3   OH239947   7.345   4.547   7.106 -0.4325  0.6404  0.4235
 5251TIP3    H139948   7.314   4.567   7.017 -0.1109 -2.2210 -0.4510
 5251TIP3    H239949   7.320   4.455   7.119  1.2198  0.4193  2.5468
 5252TIP3   OH239950   1.258   2.103   8.127  0.0601 -0.3387  0.8180
 5252TIP3    H139951   1.308   2.173   8.085  1.1473 -1.4101  0.3015
 5252TIP3    H239952   1.199   2.150   8.187 -0.9267  1.1852 -1.2004
 5253TIP3   OH239953   4.418   7.303   9.131  0.4442  0.4399  0.3592
 5253TIP3    H139954   4.429   7.303   9.226  0.9507 -0.1400  0.3068
 5253TIP3    H239955   4.479   7.370   9.100  0.1204  0.7828  0.4546
 5254TIP3   OH239956   6.691   5.737   7.436  0.2279  0.4001  0.4245
 5254TIP3    H139957   6.625   5.672   7.460 -0.4460  0.9654  0.1421
 5254TIP3    H239958   6.721   5.773   7.519  2.2665 -1.8305  0.7438
 5255TIP3   OH239959   2.488   6.166   7.450 -0.3598 -0.3621  0.4168
 5255TIP3    H139960   2.561   6.193   7.393 -0.5160 -0.7139  0.0416
 5255TIP3    H239961   2.485   6.071   7.441 -1.0534 -0.3298  0.1879
 5256TIP3   OH239962   5.674   2.398   9.537  0.2348  0.2821  0.0881
 5256TIP3    H139963   5.637   2.346   9.466  1.2959 -1.4779  0.7408
 5256TIP3    H239964   5.710   2.333   9.598  2.6135  1.8023  0.4383
 5257TIP3   OH239965   4.981   2.758   7.390 -0.1359  0.2584  0.5020
 5257TIP3    H139966   5.075   2.777   7.391 -0.1034  0.0751  1.0311
 5257TIP3    H239967   4.951   2.780   7.478 -0.3491 -0.8841  0.7202
 5258TIP3   OH239968   5.466   2.252   7.090 -0.2813 -0.7514  0.2038
 5258TIP3    H139969   5.384   2.292   7.120 -1.9520 -3.7723  0.0240
 5258TIP3    H239970   5.493   2.306   7.016 -1.6434  0.7804  0.7581
 5259TIP3   OH239971   5.499   4.922   8.195 -0.3120 -0.5575  0.2814
 5259TIP3    H139972   5.552   4.862   8.248  1.4174  2.0314  1.7155
 5259TIP3    H239973   5.438   4.961   8.258  0.2952  0.9676 -0.0272
 5260TIP3   OH239974   2.466   2.549   8.074  0.6523  0.0424 -0.1351
 5260TIP3    H139975   2.414   2.478   8.037 -0.9748  2.0879 -1.9983
 5260TIP3    H239976   2.540   2.559   8.014  1.9473 -1.2277  1.1623
 5261TIP3   OH239977   3.967   5.539   8.587 -0.1737 -0.2966 -0.1829
 5261TIP3    H139978   3.907   5.510   8.656 -0.6123 -0.5031 -0.6459
 5261TIP3    H239979   4.024   5.464   8.571 -0.3269 -0.3840 -0.3198
 5262TIP3   OH239980   0.781   2.363   8.938 -0.2779 -0.2815  0.1057
 5262TIP3    H139981   0.697   2.386   8.976 -0.3539  0.0110 -0.2327
 5262TIP3    H239982   0.773   2.386   8.845  0.9885  2.0327  0.5143
 5263TIP3   OH239983   5.861   4.250   8.960 -0.1484  0.5712  0.2368
 5263TIP3    H139984   5.840   4.215   9.046 -0.7791  1.1073  0.3110
 5263TIP3    H239985   5.844   4.177   8.900  0.9277 -0.0150  0.6093
 5264TIP3   OH239986   1.004   3.990   7.069  0.1164 -0.3832 -0.6757
 5264TIP3    H139987   1.040   3.928   7.131  2.1446  1.0158 -0.3458
 5264TIP3    H239988   1.051   3.974   6.987  0.4640  0.4942 -0.6662
 5265TIP3   OH239989   3.236   6.882   8.387 -0.3821  0.0615  0.0750
 5265TIP3    H139990   3.277   6.955   8.340  2.3442 -0.5743  1.2785
 5265TIP3    H239991   3.245   6.808   8.327  0.0607 -0.0371  0.2624
 5266TIP3   OH239992   7.401   2.057   6.880  0.3000  0.0301  0.0016
 5266TIP3    H139993   7.449   2.067   6.962  0.3431  1.1983 -0.1499
 5266TIP3    H239994   7.348   2.136   6.873 -0.8795 -0.7615 -0.3494
 5267TIP3   OH239995   2.342   6.348   7.952 -0.0236  0.6434  0.3574
 5267TIP3    H139996   2.341   6.275   8.014  0.5467  1.6914  1.6716
 5267TIP3    H239997   2.260   6.340   7.903 -0.2202 -0.5440  0.8526
 5268TIP3   OH239998   1.794   1.120   7.664 -0.2368  0.2445  0.3229
 5268TIP3    H139999   1.699   1.119   7.675 -0.2031 -0.1358  0.5984
 5268TIP3    H240000   1.808   1.169   7.582 -0.7367 -0.7842 -0.4033
 5269TIP3   OH240001   0.407   7.624   7.602 -0.3162 -0.0989 -0.1632
 5269TIP3    H140002   0.421   7.559   7.533  1.0187 -1.3522  1.2239
 5269TIP3    H240003   0.455   7.590   7.677  0.3096  2.4358  0.6751
 5270TIP3   OH240004   6.119   6.709   7.684  0.2253  0.2627 -0.5911
 5270TIP3    H140005   6.128   6.702   7.589  3.3445 -1.7196 -0.2849
 5270TIP3    H240006   6.108   6.619   7.714  1.0087  0.6588  1.0127
 5271TIP3   OH240007   6.895   5.085   7.693  0.1428 -0.1532 -0.2595
 5271TIP3    H140008   6.912   5.071   7.600  1.1769 -1.7092  0.1293
 5271TIP3    H240009   6.939   5.168   7.714 -0.9862  0.7635 -1.3440
 5272TIP3   OH240010   4.190   2.350   7.644 -0.0243 -0.7496 -0.8093
 5272TIP3    H140011   4.285   2.346   7.650  0.0839  1.5507  0.0677
 5272TIP3    H240012   4.172   2.367   7.552  0.4895 -0.0661 -0.7862
 5273TIP3   OH240013   6.329   3.073   9.129  0.0273  0.0917 -0.0221
 5273TIP3    H140014   6.326   3.078   9.225 -0.9253 -0.3646 -0.0179
 5273TIP3    H240015   6.259   3.012   9.106  0.6102 -0.2272 -0.9867
 5274TIP3   OH240016   1.473   4.917   9.017 -0.6218 -0.4571 -0.3781
 5274TIP3    H140017   1.494   4.906   9.110  0.7704 -2.3252 -0.8440
 5274TIP3    H240018   1.386   4.956   9.017 -1.5447 -2.2599  1.7325
 5275TIP3   OH240019   2.397   5.408   7.613  0.3434  0.3810 -0.7060
 5275TIP3    H140020   2.392   5.497   7.646  0.5885  0.5841 -1.1963
 5275TIP3    H240021   2.365   5.353   7.684  0.0371  0.8751 -0.4629
 5276TIP3   OH240022   0.326   6.218   8.852 -0.3933  0.1128  0.0021
 5276TIP3    H140023   0.403   6.177   8.812 -0.6895 -1.6458  1.1106
 5276TIP3    H240024   0.361   6.267   8.926 -0.3075 -0.4811  0.3580
 5277TIP3   OH240025   3.500   3.972   9.090  0.3301 -0.5753  0.2933
 5277TIP3    H140026   3.551   4.046   9.058 -0.0896 -0.2611  0.3392
 5277TIP3    H240027   3.435   3.956   9.021  0.6856 -1.1782  0.0879
 5278TIP3   OH240028   7.366   3.764   7.615  0.1263  0.1550  0.5042
 5278TIP3    H140029   7.416   3.757   7.534 -1.6086  0.3786 -0.6489
 5278TIP3    H240030   7.432   3.777   7.683  1.7029 -1.0145 -0.7174
 5279TIP3   OH240031   2.891   5.130   8.821  0.0363  0.0393  0.3895
 5279TIP3    H140032   2.864   5.184   8.896  0.4692 -2.0035  2.1194
 5279TIP3    H240033   2.819   5.067   8.810 -0.0943  0.4065 -1.0699
 5280TIP3   OH240034   6.090   6.978   9.213  0.0162 -0.3434  0.5357
 5280TIP3    H140035   6.098   6.884   9.227 -0.4031 -0.3201  0.9454
 5280TIP3    H240036   6.048   7.011   9.292  1.9634  0.4875  1.3073
 5281TIP3   OH240037   2.561   5.861   7.474 -0.8031  0.3656 -0.0542
 5281TIP3    H140038   2.529   5.771   7.462  0.6208 -0.2769  0.6496
 5281TIP3    H240039   2.637   5.851   7.531 -0.2339  1.9577 -0.4961
 5282TIP3   OH240040   6.690   2.894   7.359 -0.0005 -0.2216 -0.2407
 5282TIP3    H140041   6.627   2.821   7.364  0.3603 -0.4779  1.1833
 5282TIP3    H240042   6.690   2.920   7.267 -1.7210 -0.6252 -0.3878
 5283TIP3   OH240043   3.021   3.498   8.839  0.1422  0.5577 -0.5476
 5283TIP3    H140044   2.977   3.571   8.882  0.4668  0.5226 -0.1530
 5283TIP3    H240045   2.952   3.453   8.791 -0.3203  0.2943  0.3461
 5284TIP3   OH240046   3.960   3.382   9.103 -0.3053  0.4579 -0.3917
 5284TIP3    H140047   4.046   3.402   9.139  0.0482  3.9735 -2.6634
 5284TIP3    H240048   3.941   3.455   9.043 -3.1072 -2.1322 -3.0792
 5285TIP3   OH240049   4.873   7.109   7.969  0.2549  0.5851 -0.6550
 5285TIP3    H140050   4.945   7.135   7.911  3.6071 -2.0648  1.9168
 5285TIP3    H240051   4.849   7.022   7.940  1.8649 -0.7136  1.6036
 5286TIP3   OH240052   6.898   5.787   9.059  0.1382  0.2796 -0.4420
 5286TIP3    H140053   6.981   5.758   9.020 -0.5138  1.0824 -2.5730
 5286TIP3    H240054   6.847   5.707   9.067  1.3336 -0.3550  1.6239
 5287TIP3   OH240055   6.969   3.188   8.596 -0.2857 -0.3834  0.2015
 5287TIP3    H140056   6.923   3.194   8.513  0.7009 -1.4680 -0.4563
 5287TIP3    H240057   6.902   3.162   8.660 -1.3103  1.6577  0.0402
 5288TIP3   OH240058   1.375   6.369   9.216  0.3489 -0.1680 -1.1737
 5288TIP3    H140059   1.392   6.431   9.145  1.9011  1.4961  0.5303
 5288TIP3    H240060   1.448   6.307   9.212  1.8518  1.3732  0.3442
 5289TIP3   OH240061   3.160   7.103   9.013 -0.0316  0.5154  0.4670
 5289TIP3    H140062   3.069   7.078   9.026  0.7047 -2.6281  0.2747
 5289TIP3    H240063   3.207   7.062   9.085  1.6427 -1.0813 -1.4006
 5290TIP3   OH240064   4.744   6.214   8.595  0.2442 -0.2108  0.3887
 5290TIP3    H140065   4.662   6.165   8.599  0.8934 -1.3217  0.4161
 5290TIP3    H240066   4.812   6.147   8.587  1.1453  0.6957  0.2357
 5291TIP3   OH240067   7.431   0.544   6.873 -0.2309  0.0188  0.2652
 5291TIP3    H140068   7.383   0.619   6.908  0.1580  1.7410 -2.5784
 5291TIP3    H240069   7.362   0.488   6.835 -0.4115 -0.4250  1.2234
 5292TIP3   OH240070   6.950   1.542   7.633  0.0143  0.1172 -0.4803
 5292TIP3    H140071   6.946   1.539   7.537 -0.0249  1.2307 -0.5335
 5292TIP3    H240072   7.030   1.591   7.652 -1.1447  1.9395 -0.0250
 5293TIP3   OH240073   5.261   1.349   9.605 -0.0285  0.2284  0.2629
 5293TIP3    H140074   5.200   1.280   9.580  1.3806 -0.8869 -0.3047
 5293TIP3    H240075   5.222   1.390   9.682 -1.3942 -0.5350  0.0090
 5294TIP3   OH240076   1.695   7.189   9.331 -0.1797 -0.0428 -0.5034
 5294TIP3    H140077   1.672   7.249   9.260  1.5324 -0.6679 -1.6465
 5294TIP3    H240078   1.770   7.140   9.298 -0.5785 -1.7739  0.9756
 5295TIP3   OH240079   0.028   5.381   8.732  0.0574 -0.1113 -0.1173
 5295TIP3    H140080  -0.000   5.469   8.707 -1.3748 -0.2167  0.9836
 5295TIP3    H240081   0.048   5.337   8.650  0.7222  1.2081 -0.6917
 5296TIP3   OH240082   1.518   2.502   6.985  0.3759 -0.1939 -0.4468
 5296TIP3    H140083   1.424   2.514   6.974  0.1336 -0.9616  0.6889
 5296TIP3    H240084   1.549   2.479   6.897 -0.1638  1.9590 -1.2534
 5297TIP3   OH240085   4.565   5.568   8.085 -0.0853  0.4497 -0.5159
 5297TIP3    H140086   4.472   5.546   8.076  0.1253 -0.0654 -1.6494
 5297TIP3    H240087   4.580   5.571   8.179 -1.4443  1.3873 -0.3072
 5298TIP3   OH240088   1.005   3.696   7.483 -0.3059 -0.2778 -0.6564
 5298TIP3    H140089   0.968   3.783   7.472 -0.8492 -0.4305 -0.1207
 5298TIP3    H240090   1.024   3.667   7.393 -1.5533 -0.2096 -0.9664
 5299TIP3   OH240091   2.872   7.344   9.115 -0.3338 -0.4810  0.2519
 5299TIP3    H140092   2.885   7.250   9.101  2.0715 -0.1646  0.0380
 5299TIP3    H240093   2.778   7.358   9.098 -0.9177 -2.9521  1.0817
 5300TIP3   OH240094   7.059   0.503   8.999  0.5328 -1.3174  0.0657
 5300TIP3    H140095   7.022   0.579   9.044  0.5592 -0.2439 -1.6541
 5300TIP3    H240096   7.103   0.454   9.069  1.3270  0.7137  1.0960
 5301TIP3   OH240097   1.696   6.296   8.542 -0.0292 -0.5711 -0.0003
 5301TIP3    H140098   1.669   6.204   8.546  0.4106 -0.7075 -0.0231
 5301TIP3    H240099   1.645   6.340   8.609  0.1763 -0.9470  0.4086
 5302TIP3   OH240100   3.744   2.040   9.795  0.2690 -0.3896 -0.0430
 5302TIP3    H140101   3.753   1.971   9.730  2.9413 -0.6519  0.5167
 5302TIP3    H240102   3.823   2.035   9.848  0.1060  2.4681  0.6656
 5303TIP3   OH240103   0.054   0.981   9.044  0.5569 -0.1898  0.1229
 5303TIP3    H140104   0.014   1.052   8.994 -0.0759 -1.0421 -0.6076
 5303TIP3    H240105   0.082   0.918   8.977  0.2376 -1.0786  0.8157
 5304TIP3   OH240106   5.310   3.471   7.718 -0.0295 -0.0891  0.5201
 5304TIP3    H140107   5.315   3.461   7.623 -0.2007  0.7008  0.4183
 5304TIP3    H240108   5.376   3.538   7.738  0.9623 -1.2123  1.1287
 5305TIP3   OH240109   4.438   7.555   7.890 -0.1377  0.1681 -0.5850
 5305TIP3    H140110   4.434   7.589   7.979  1.3775  2.4366 -1.2932
 5305TIP3    H240111   4.521   7.506   7.887 -0.8789 -1.1423 -0.3959
 5306TIP3   OH240112   0.288   7.628   6.814 -0.7839 -0.3666 -0.4843
 5306TIP3    H140113   0.220   7.575   6.856  0.5469 -1.5703  0.2376
 5306TIP3    H240114   0.342   7.565   6.766  0.0744  0.5058 -0.6931
 5307TIP3   OH240115   1.106   7.411   8.485 -0.4921 -0.6331 -0.2555
 5307TIP3    H140116   1.194   7.441   8.507 -1.0615  1.6919 -0.8842
 5307TIP3    H240117   1.082   7.461   8.406 -3.2038  0.5019  1.1419
 5308TIP3   OH240118   2.020   0.637   9.097 -0.4436  0.5667  0.1609
 5308TIP3    H140119   1.935   0.664   9.131 -0.9180 -0.5965 -0.0850
 5308TIP3    H240120   2.058   0.583   9.167 -0.3841  0.1615 -0.1833
 5309TIP3   OH240121   0.225   0.166   6.955 -0.6601  0.0079  0.1635
 5309TIP3    H140122   0.189   0.221   6.886  0.6675 -1.7081 -2.0646
 5309TIP3    H240123   0.269   0.095   6.908  1.5885 -0.5015  2.7656
 5310TIP3   OH240124   4.104   2.575   9.278  0.4787  0.2904 -0.4973
 5310TIP3    H140125   4.113   2.484   9.309  0.2598  0.3452 -0.2691
 5310TIP3    H240126   4.022   2.575   9.228  0.0987  0.5329  0.1209
 5311TIP3   OH240127   0.012   0.591   6.874  0.2017  0.4254  0.0585
 5311TIP3    H140128   0.003   0.684   6.854 -0.9593  0.4721  0.7381
 5311TIP3    H240129  -0.076   0.556   6.865  0.7257 -0.7522 -0.7904
 5312TIP3   OH240130   7.395   7.546   8.980  0.6097  0.2813  0.1782
 5312TIP3    H140131   7.413   7.534   8.886 -0.2695  0.4947 -0.0278
 5312TIP3    H240132   7.480   7.566   9.018  0.9700  0.2602 -0.5893
 5313TIP3   OH240133   6.946   6.937   9.402 -0.0231 -0.2471 -0.0527
 5313TIP3    H140134   6.967   6.860   9.350 -0.0949  0.5852 -1.3468
 5313TIP3    H240135   6.924   7.005   9.338 -0.4078  0.7269  1.0660
 5314TIP3   OH240136   7.449   3.586   7.990  0.0329 -0.3204  0.0460
 5314TIP3    H140137   7.409   3.499   7.994  2.4635 -1.5614 -0.3024
 5314TIP3    H240138   7.470   3.606   8.082  0.1882 -0.4854  0.0483
 5315TIP3   OH240139   0.124   6.754   8.673  0.3044 -0.2371  0.3007
 5315TIP3    H140140   0.116   6.777   8.766 -0.5899 -0.2437  0.2342
 5315TIP3    H240141   0.164   6.667   8.673  0.8643  0.0132  0.6524
 5316TIP3   OH240142   0.647   5.466   6.570 -0.7067 -0.2152 -0.1162
 5316TIP3    H140143   0.559   5.484   6.603 -0.9542  0.0656 -0.9201
 5316TIP3    H240144   0.682   5.552   6.545 -1.3093 -0.6061 -2.5148
 5317TIP3   OH240145   5.422   4.023   8.750 -0.4606 -0.5088 -0.7664
 5317TIP3    H140146   5.428   4.114   8.779 -0.0241 -0.4284 -1.1067
 5317TIP3    H240147   5.379   3.978   8.823 -0.7250 -0.0216 -0.6187
 5318TIP3   OH240148   7.242   0.013   7.355 -0.1929  0.0811  0.0935
 5318TIP3    H140149   7.202   0.098   7.374 -1.2341 -0.4149  0.2169
 5318TIP3    H240150   7.277   0.022   7.266 -0.0010  0.7378  0.2308
 5319TIP3   OH240151   5.017   4.757   8.506 -0.0976 -0.6738  0.0634
 5319TIP3    H140152   5.108   4.744   8.476  0.0529 -0.4196  0.4041
 5319TIP3    H240153   5.023   4.828   8.570 -0.2813 -1.7831  1.3486
 5320TIP3   OH240154   6.271   0.402   8.844 -0.0485 -0.4590  0.0667
 5320TIP3    H140155   6.301   0.491   8.861  2.5323 -1.3674  0.7990
 5320TIP3    H240156   6.265   0.396   8.749  1.0324  0.1493 -0.0587
 5321TIP3   OH240157   1.025   6.081   7.405 -0.3318  0.5652 -0.2139
 5321TIP3    H140158   1.109   6.083   7.452 -1.0360  2.1645  1.0460
 5321TIP3    H240159   1.027   5.998   7.357  2.8067  1.3908 -1.8105
 5322TIP3   OH240160   2.120   4.250   9.364  0.5131 -0.0358  0.3956
 5322TIP3    H140161   2.149   4.293   9.444  2.4112  0.6460 -0.5951
 5322TIP3    H240162   2.081   4.319   9.311 -2.2101 -0.7706  1.3073
 5323TIP3   OH240163   4.359   6.597   9.167  0.4702  0.2111 -0.5900
 5323TIP3    H140164   4.443   6.583   9.123  1.5941  1.8288  0.8726
 5323TIP3    H240165   4.376   6.576   9.259 -1.1261 -0.7275 -0.4722
 5324TIP3   OH240166   2.431   1.098   7.539 -0.9182 -0.0039  0.2088
 5324TIP3    H140167   2.483   1.071   7.463  1.2191  2.2807  0.7064
 5324TIP3    H240168   2.435   1.023   7.599  1.5824 -0.0831  0.0527
 5325TIP3   OH240169   1.954   5.939   9.148  0.0410  0.3251 -0.1798
 5325TIP3    H140170   1.895   5.927   9.222  1.3540 -0.4808  0.7956
 5325TIP3    H240171   1.924   5.875   9.083 -0.8578  0.7399 -0.1858
 5326TIP3   OH240172   3.558   6.345   8.450 -0.1150 -0.1382  0.0420
 5326TIP3    H140173   3.567   6.435   8.420  0.5397  0.6827  2.4426
 5326TIP3    H240174   3.464   6.325   8.441 -0.4653  1.2108  0.5447
 5327TIP3   OH240175   2.806   2.736   9.295  0.1651 -0.2523  0.0250
 5327TIP3    H140176   2.813   2.812   9.353  1.5463  1.2849 -2.0002
 5327TIP3    H240177   2.731   2.756   9.240  1.4972  0.5180 -1.5931
 5328TIP3   OH240178   2.498   1.948   9.593  0.0519  0.3518  0.3940
 5328TIP3    H140179   2.575   1.923   9.644  0.4218 -0.2008 -0.4188
 5328TIP3    H240180   2.506   2.043   9.581  1.7850  0.0324 -1.5213
 5329TIP3   OH240181   6.041   0.179   7.486  0.4311  0.3315 -0.4146
 5329TIP3    H140182   6.042   0.228   7.404  0.4523  1.3206  0.1684
 5329TIP3    H240183   6.065   0.090   7.460  0.6832  0.6824 -1.4454
 5330TIP3   OH240184   7.495   6.610   7.549  0.3634 -0.1362  0.6168
 5330TIP3    H140185   7.539   6.691   7.575  2.0964 -0.9923  0.4338
 5330TIP3    H240186   7.475   6.567   7.632  1.0667 -0.3610  0.6718
 5331TIP3   OH240187   1.502   0.017   8.631 -0.1549  0.3881  0.1655
 5331TIP3    H140188   1.429  -0.035   8.598 -1.7102  1.4501  1.7250
 5331TIP3    H240189   1.577  -0.043   8.630 -1.1083 -0.8527 -1.1149
 5332TIP3   OH240190   6.935   1.192   9.418  0.1326  0.1328  0.5838
 5332TIP3    H140191   7.010   1.133   9.411 -0.2535 -0.4617  1.3073
 5332TIP3    H240192   6.860   1.139   9.391 -0.2614  0.1752  1.5283
 5333TIP3   OH240193   4.298   4.511   8.861  0.0419  0.1161  0.3571
 5333TIP3    H140194   4.355   4.587   8.862 -0.5622  0.5808 -0.0242
 5333TIP3    H240195   4.354   4.439   8.891  0.2397  0.9731  2.2310
 5334TIP3   OH240196   4.026   0.331   9.006 -0.3888 -0.4843  0.0654
 5334TIP3    H140197   3.945   0.364   9.045  0.9187  2.0709  0.8363
 5334TIP3    H240198   4.029   0.371   8.919  0.3397 -0.0108  0.2957
 5335TIP3   OH240199   5.330   4.263   6.844  0.0186  0.0337  0.6458
 5335TIP3    H140200   5.341   4.168   6.834  2.1736  0.2607  0.4972
 5335TIP3    H240201   5.418   4.296   6.861 -0.8548  1.8901  1.8763
 5336TIP3   OH240202   2.992   7.650   7.184  0.2757  0.1559  0.0065
 5336TIP3    H140203   2.960   7.720   7.127 -0.0492 -1.3566 -1.7822
 5336TIP3    H240204   2.914   7.601   7.209  0.7759 -2.1978 -2.5180
 5337TIP3   OH240205   5.206   2.339   8.360 -0.0125 -0.3591 -0.3840
 5337TIP3    H140206   5.253   2.414   8.325 -0.5215 -0.0776 -0.4668
 5337TIP3    H240207   5.125   2.375   8.397  0.7478 -0.5607  1.6054
 5338TIP3   OH240208   6.927   6.542   7.791  0.0261 -0.6739 -0.0276
 5338TIP3    H140209   6.911   6.568   7.700 -1.0339 -0.5757  0.1653
 5338TIP3    H240210   6.852   6.577   7.839  0.1683 -1.3986  0.7560
 5339TIP3   OH240211   4.577   4.363   8.642  0.5076  0.1883  0.1253
 5339TIP3    H140212   4.513   4.318   8.587  0.9648  0.0857 -0.3349
 5339TIP3    H240213   4.535   4.446   8.664 -0.1534 -0.2629  0.5990
 5340TIP3   OH240214   2.027   0.299   7.797  0.0228 -0.3887 -0.4023
 5340TIP3    H140215   2.117   0.326   7.810 -0.2044 -0.3843  1.3617
 5340TIP3    H240216   1.978   0.381   7.790 -0.1236 -0.3511  0.8787
 5341TIP3   OH240217   0.414   5.909   8.842  0.4374  0.0529 -0.5163
 5341TIP3    H140218   0.415   5.944   8.753 -1.1911  1.8603  0.0932
 5341TIP3    H240219   0.373   5.823   8.834 -0.2068  0.4321 -1.4596
 5342TIP3   OH240220   3.882   6.744   7.948 -0.2966  0.0706 -0.0416
 5342TIP3    H140221   3.797   6.773   7.978 -0.2915 -0.9179  0.9920
 5342TIP3    H240222   3.888   6.653   7.977  1.7234  0.5563  1.2773
 5343TIP3   OH240223   0.628   3.118   7.428  0.4563 -0.1392 -0.7276
 5343TIP3    H140224   0.670   3.137   7.344 -0.6168  1.5824 -0.9210
 5343TIP3    H240225   0.650   3.192   7.484 -0.2145 -0.4575 -0.0191
 5344TIP3   OH240226   6.235   4.643   8.878  0.0905  0.3654 -0.1709
 5344TIP3    H140227   6.162   4.587   8.852 -0.7169  0.7541  1.1334
 5344TIP3    H240228   6.225   4.652   8.973  2.1320  0.0247  0.1174
 5345TIP3   OH240229   0.402   7.634   9.135 -0.0605 -0.0875  0.4574
 5345TIP3    H140230   0.384   7.725   9.158 -0.8181 -0.1176  0.0005
 5345TIP3    H240231   0.316   7.594   9.127  0.2493 -0.6249 -0.2349
 5346TIP3   OH240232   0.358   1.301   7.075  0.0508  0.0634 -0.5243
 5346TIP3    H140233   0.344   1.271   7.165  1.2080  0.9727 -0.0164
 5346TIP3    H240234   0.448   1.275   7.055 -0.2048 -0.1524 -1.4439
 5347TIP3   OH240235   2.528   7.083   9.472 -0.4219  0.2794  0.0801
 5347TIP3    H140236   2.441   7.122   9.486 -0.6611  0.8089 -2.4380
 5347TIP3    H240237   2.510   6.999   9.428  0.3223  0.6615 -1.0022
 5348TIP3   OH240238   3.385   4.619   7.401  0.0248  0.7831 -0.3875
 5348TIP3    H140239   3.407   4.648   7.489 -0.7416 -1.6551  0.6920
 5348TIP3    H240240   3.456   4.653   7.346  3.4359 -1.7953  1.9697
 5349TIP3   OH240241   0.729   4.857   8.560 -0.0064 -0.1369 -0.8448
 5349TIP3    H140242   0.692   4.843   8.473 -2.2407  1.9547 -0.3524
 5349TIP3    H240243   0.736   4.952   8.568  1.8100 -0.3274  0.6688
 5350TIP3   OH240244   1.020   5.512   8.520 -0.0243  0.4543 -0.6644
 5350TIP3    H140245   1.099   5.461   8.539 -0.5973 -0.4708 -0.6839
 5350TIP3    H240246   0.968   5.504   8.600  0.2544  1.7676 -0.3302
 5351TIP3   OH240247   0.895   3.281   9.287 -0.1621  0.1116 -0.0175
 5351TIP3    H140248   0.865   3.304   9.374  3.1451  0.2676  1.2400
 5351TIP3    H240249   0.863   3.352   9.231 -2.4288 -0.0426  0.9851
 5352TIP3   OH240250   4.199   4.412   9.096 -0.0797  0.0328  0.0480
 5352TIP3    H140251   4.213   4.414   9.190  1.3796 -0.5090 -0.1216
 5352TIP3    H240252   4.214   4.502   9.067  2.8980 -0.3951 -0.0390
 5353TIP3   OH240253   1.284   7.375   8.899 -0.4403  0.3455 -0.3211
 5353TIP3    H140254   1.370   7.402   8.865 -0.2065  0.3936  0.3039
 5353TIP3    H240255   1.286   7.399   8.991 -2.2202  3.0425 -0.8741
 5354TIP3   OH240256   3.564   2.876   8.970 -0.3473  0.0625 -0.6494
 5354TIP3    H140257   3.488   2.928   8.944 -0.1793 -0.2069 -1.7374
 5354TIP3    H240258   3.592   2.914   9.054 -1.4231  0.4256 -0.4366
 5355TIP3   OH240259   7.362   7.367   8.569 -0.4431 -0.1412 -0.2848
 5355TIP3    H140260   7.308   7.446   8.577 -2.6255 -1.6014  0.2419
 5355TIP3    H240261   7.318   7.314   8.503  0.3702 -1.3987  0.1405
 5356TIP3   OH240262   6.462   3.443   9.176 -0.1741  0.4137  0.0653
 5356TIP3    H140263   6.496   3.363   9.216  0.2995 -0.3951 -1.8208
 5356TIP3    H240264   6.540   3.496   9.161 -0.3816  0.8429  0.5080
 5357TIP3   OH240265   7.356   3.826   9.123  0.0150  0.3956 -0.0327
 5357TIP3    H140266   7.295   3.874   9.067 -1.5358  0.2024  1.4224
 5357TIP3    H240267   7.431   3.885   9.132 -0.9067  1.6018 -0.0728
 5358TIP3   OH240268   1.859   4.615   9.112 -0.2068 -0.4108  0.5356
 5358TIP3    H140269   1.858   4.526   9.148 -1.1742 -0.2263  0.9863
 5358TIP3    H240270   1.801   4.611   9.036  0.6004 -0.4188 -0.0894
 5359TIP3   OH240271   2.740   6.712   7.973  0.4721 -0.2584  0.6006
 5359TIP3    H140272   2.737   6.717   7.877 -0.7693  0.2323  0.6499
 5359TIP3    H240273   2.685   6.637   7.994  0.9990 -0.5619  0.9378
 5360TIP3   OH240274   2.298   0.362   7.790  0.5144 -0.0700 -0.8870
 5360TIP3    H140275   2.306   0.271   7.817 -0.9475 -0.2553 -1.0007
 5360TIP3    H240276   2.345   0.367   7.707  0.8128 -0.6548 -0.7561
 5361TIP3   OH240277   3.474   2.407   8.598  0.1199 -0.3558 -0.2208
 5361TIP3    H140278   3.489   2.501   8.584  0.7073 -0.4547 -0.3037
 5361TIP3    H240279   3.454   2.373   8.510 -0.3921 -0.2567 -0.1420
 5362TIP3   OH240280   3.815   2.135   7.888 -0.7499 -0.3870  0.1640
 5362TIP3    H140281   3.746   2.159   7.827 -1.4574 -1.5506  0.4649
 5362TIP3    H240282   3.895   2.135   7.836 -0.4649  3.4187  0.3252
 5363TIP3   OH240283   6.271   2.305   8.473 -0.3220 -0.2235 -0.5115
 5363TIP3    H140284   6.345   2.246   8.488  0.2623  0.3771 -0.9680
 5363TIP3    H240285   6.193   2.252   8.492  0.1256 -1.5220 -2.0805
 5364TIP3   OH240286   4.230   6.137   7.053 -0.1326  0.1787  0.4354
 5364TIP3    H140287   4.274   6.078   6.992  0.2123  0.2232  0.6344
 5364TIP3    H240288   4.300   6.165   7.112 -0.4650  0.1414  0.8439
 5365TIP3   OH240289   5.159   3.647   8.703  0.0092 -0.9198 -0.2646
 5365TIP3    H140290   5.090   3.584   8.721  0.8856 -2.1741 -1.1356
 5365TIP3    H240291   5.237   3.610   8.745  0.2142  0.4091  0.5959
 5366TIP3   OH240292   5.798   4.827   8.506  0.3205 -0.1028  0.1939
 5366TIP3    H140293   5.891   4.837   8.521  0.6471 -1.8876 -0.3908
 5366TIP3    H240294   5.789   4.826   8.410 -0.3468  0.3267  0.2387
 5367TIP3   OH240295   0.684   2.494   9.701 -0.1652 -0.1874 -0.0237
 5367TIP3    H140296   0.773   2.471   9.728 -0.2315 -0.4604 -0.0361
 5367TIP3    H240297   0.634   2.413   9.712 -0.1306 -0.3928 -1.2327
 5368TIP3   OH240298   2.983   2.508   9.593 -0.6402 -0.0200 -0.5441
 5368TIP3    H140299   2.904   2.479   9.639 -2.8018  0.2788 -3.7707
 5368TIP3    H240300   2.965   2.598   9.567  0.3103 -0.2696 -2.2276
 5369TIP3   OH240301   3.923   5.353   7.565  0.0946 -0.2940  0.2274
 5369TIP3    H140302   3.843   5.331   7.613 -0.3133 -1.4294 -0.9084
 5369TIP3    H240303   3.954   5.269   7.531  0.6067  0.3987 -1.0998
 5370TIP3   OH240304   6.935   0.215   8.675 -0.0691  0.0986 -0.2508
 5370TIP3    H140305   6.865   0.167   8.718  0.1471 -2.0037 -2.0897
 5370TIP3    H240306   6.993   0.241   8.747 -1.4786 -0.2056  1.0524
 5371TIP3   OH240307   5.071   0.939   8.168  0.0441  0.1253  0.5587
 5371TIP3    H140308   5.009   0.883   8.215  0.2273 -1.7617 -1.2771
 5371TIP3    H240309   5.066   0.909   8.077  1.1518  2.2657 -0.2819
 5372TIP3   OH240310   3.482   3.449   9.506  0.1927  0.1413 -0.4046
 5372TIP3    H140311   3.570   3.417   9.483  0.2462  0.3214 -0.4520
 5372TIP3    H240312   3.429   3.431   9.429  0.1720 -0.0353 -0.3485
 5373TIP3   OH240313   3.626   0.564   8.597 -0.3655 -0.5071  0.1707
 5373TIP3    H140314   3.686   0.591   8.667  1.0960 -1.6596 -0.5865
 5373TIP3    H240315   3.583   0.486   8.632 -1.0808  0.0290  0.5144
 5374TIP3   OH240316   4.389   4.489   7.699  0.0366 -0.7275  0.6664
 5374TIP3    H140317   4.377   4.410   7.647 -0.7659 -0.6239  0.6826
 5374TIP3    H240318   4.364   4.464   7.788 -0.3313 -0.4262  0.6500
 5375TIP3   OH240319   6.925   0.011   8.165 -0.6853 -0.0481  0.1403
 5375TIP3    H140320   6.903   0.091   8.213 -1.8279  0.3970 -1.0422
 5375TIP3    H240321   6.894  -0.060   8.220  0.4020  0.3060  1.2377
 5376TIP3   OH240322   7.608   4.761   8.047 -0.4544  0.4777 -0.1312
 5376TIP3    H140323   7.664   4.763   7.969 -1.1451 -1.0430 -0.7021
 5376TIP3    H240324   7.669   4.763   8.121  0.3084 -0.0522 -0.7326
 5377TIP3   OH240325   6.268   7.238   8.291 -0.1564  0.1353  0.5404
 5377TIP3    H140326   6.362   7.218   8.292 -0.0555  0.5702  0.3552
 5377TIP3    H240327   6.256   7.288   8.210 -0.7834 -1.0098 -0.1013
 5378TIP3   OH240328   3.628   3.351   7.538  0.0990  0.3292 -0.4684
 5378TIP3    H140329   3.673   3.267   7.527  0.0902  0.0492  1.3751
 5378TIP3    H240330   3.690   3.415   7.502 -0.7760 -0.5515 -3.9445
 5379TIP3   OH240331   6.062   6.445   7.807 -0.4732  0.1132  0.3017
 5379TIP3    H140332   5.978   6.464   7.848  0.0767  0.0309  1.5222
 5379TIP3    H240333   6.089   6.362   7.847  1.4792  1.5046  2.1123
 5380TIP3   OH240334   1.402   3.371   9.498 -0.0891  0.3951  0.5311
 5380TIP3    H140335   1.375   3.316   9.425 -0.2050 -0.8220  1.4478
 5380TIP3    H240336   1.496   3.356   9.506 -0.6122 -2.5971  2.9868
 5381TIP3   OH240337   1.099   5.392   8.262  0.0901  0.7521  0.0386
 5381TIP3    H140338   1.154   5.464   8.232 -1.1293  1.2008 -1.2248
 5381TIP3    H240339   1.073   5.416   8.350 -1.0213  2.3506 -0.6759
 5382TIP3   OH240340   2.708   4.543   9.089 -0.3215 -0.5754 -0.1585
 5382TIP3    H140341   2.633   4.488   9.110 -0.3515 -0.6605 -0.4928
 5382TIP3    H240342   2.694   4.571   8.999  0.2512 -0.9343 -0.3669
 5383TIP3   OH240343   4.563   0.913   8.353 -0.2109  0.3531  0.3253
 5383TIP3    H140344   4.552   0.988   8.411  0.4534  0.4336  0.3606
 5383TIP3    H240345   4.615   0.947   8.280 -0.6046  0.1256 -0.0600
 5384TIP3   OH240346   5.692   2.186   7.750  0.4837  0.6972 -0.7883
 5384TIP3    H140347   5.620   2.138   7.791  0.1644  2.0329  0.2652
 5384TIP3    H240348   5.771   2.142   7.782  0.1915 -0.9492 -2.1670
 5385TIP3   OH240349   3.789   1.954   8.083 -0.0508  0.1822 -0.1897
 5385TIP3    H140350   3.771   1.999   8.001  1.0743  2.8273  0.8840
 5385TIP3    H240351   3.882   1.970   8.099  0.2378 -2.0227  0.6315
 5386TIP3   OH240352   2.952   3.102   7.735  0.0586 -0.6032 -0.1620
 5386TIP3    H140353   2.938   3.008   7.719 -0.1811 -0.8044  1.1311
 5386TIP3    H240354   3.037   3.106   7.779 -0.3689 -0.3318  0.6679
 5387TIP3   OH240355   2.322   0.087   7.860 -0.5868  0.5452 -0.1948
 5387TIP3    H140356   2.296   0.023   7.794  1.3269 -0.4015 -0.1062
 5387TIP3    H240357   2.332   0.036   7.940  0.2523  1.0716  0.0536
 5388TIP3   OH240358   4.219   0.528   9.386  0.0384 -0.2238  0.1972
 5388TIP3    H140359   4.243   0.538   9.294  0.6144 -0.9909  0.2609
 5388TIP3    H240360   4.292   0.482   9.426 -1.4246 -2.5679  0.4020
 5389TIP3   OH240361   7.005   4.428   7.646 -0.3728 -0.4753 -0.1159
 5389TIP3    H140362   6.918   4.421   7.605 -0.1389  0.9928 -0.9151
 5389TIP3    H240363   7.031   4.337   7.660 -0.5383 -1.0965 -3.0941
 5390TIP3   OH240364   3.884   6.016   9.006  0.7713 -0.4386  0.5346
 5390TIP3    H140365   3.953   6.055   9.060 -0.8685  0.4660  2.0858
 5390TIP3    H240366   3.883   6.069   8.926 -0.1416  1.5893  1.8077
 5391TIP3   OH240367   2.169   0.277   1.576 -0.2479 -0.4937  0.2969
 5391TIP3    H140368   2.211   0.273   1.490  0.4571  0.5978  0.5565
 5391TIP3    H240369   2.076   0.272   1.558 -0.1091 -0.2523 -0.5360
 5392TIP3   OH240370   5.800   4.499   1.090 -0.1458  0.3948 -0.2074
 5392TIP3    H140371   5.759   4.440   1.154 -1.1177  0.8445 -0.3988
 5392TIP3    H240372   5.822   4.577   1.140  1.3909 -0.2079  0.1056
 5393TIP3   OH240373   5.608   4.468   2.674  0.5552 -0.0161 -0.4579
 5393TIP3    H140374   5.619   4.488   2.767 -0.8260  0.3564 -0.3540
 5393TIP3    H240375   5.520   4.428   2.668  1.5073 -2.1653 -1.2747
 5394TIP3   OH240376   3.235   5.715   1.397 -0.5437  0.2250 -0.4087
 5394TIP3    H140377   3.226   5.709   1.492  2.6679 -0.8858 -0.0448
 5394TIP3    H240378   3.268   5.803   1.381  1.9498 -0.5572 -0.0422
 5395TIP3   OH240379   6.236   6.461   0.392 -0.0644 -0.3775 -0.5649
 5395TIP3    H140380   6.200   6.437   0.307  1.3217  0.0940 -1.3003
 5395TIP3    H240381   6.284   6.384   0.421 -0.1687 -0.3839 -0.4055
 5396TIP3   OH240382   7.518   4.893   1.411 -0.0154  0.9732  0.2670
 5396TIP3    H140383   7.611   4.884   1.389  0.1088  2.8473 -0.1784
 5396TIP3    H240384   7.502   4.987   1.405 -1.7061  0.7816  1.3738
 5397TIP3   OH240385   3.015   5.517   3.085  0.0150  0.0040 -0.4210
 5397TIP3    H140386   2.938   5.559   3.122 -0.0472 -0.3103 -0.1957
 5397TIP3    H240387   3.060   5.477   3.159  0.9603  1.0613 -0.3834
 5398TIP3   OH240388   7.295   0.239   2.236 -0.1723 -0.0997  0.2662
 5398TIP3    H140389   7.303   0.217   2.329  3.2572  1.0455  0.3754
 5398TIP3    H240390   7.201   0.231   2.218 -0.7106 -2.3543  3.2689
 5399TIP3   OH240391   2.982   7.612   1.018  0.3043 -0.6532 -0.1573
 5399TIP3    H140392   3.035   7.579   1.090  0.7433  0.3288 -0.0070
 5399TIP3    H240393   3.043   7.622   0.945  0.5712  1.3505  0.2798
 5400TIP3   OH240394   2.750   6.037   3.397 -0.3030 -0.3627  0.3227
 5400TIP3    H140395   2.665   6.057   3.437 -0.6924 -1.3850  0.0380
 5400TIP3    H240396   2.740   6.062   3.305  0.3329  1.2485  0.6620
 5401TIP3   OH240397   5.919   1.558   2.994  0.1546 -0.3380  0.1049
 5401TIP3    H140398   5.866   1.480   2.984 -1.6736  0.3919  2.9115
 5401TIP3    H240399   5.986   1.534   3.059 -1.6975  0.8285  2.6373
 5402TIP3   OH240400   0.088   0.240   1.016 -0.0073 -0.1158 -0.1958
 5402TIP3    H140401   0.154   0.217   1.081 -0.0274 -0.3561 -0.2604
 5402TIP3    H240402   0.069   0.332   1.033  0.2772 -0.0704 -0.1183
 5403TIP3   OH240403   4.317   0.166   1.142  0.4894 -0.7206  0.1113
 5403TIP3    H140404   4.255   0.238   1.147  0.8120 -0.4996  1.4327
 5403TIP3    H240405   4.295   0.110   1.216  3.2240  0.5334  2.0703
 5404TIP3   OH240406   0.137   2.691   0.617 -0.2439 -0.0493  0.4475
 5404TIP3    H140407   0.211   2.700   0.556  0.8761 -0.4173  1.7173
 5404TIP3    H240408   0.140   2.600   0.645 -0.1991  0.3183  1.7084
 5405TIP3   OH240409   3.854   7.431   1.437  0.3570 -0.0855 -0.0059
 5405TIP3    H140410   3.879   7.346   1.401 -0.6848  0.1786 -1.3997
 5405TIP3    H240411   3.886   7.495   1.373 -1.5456  0.3935 -0.5404
 5406TIP3   OH240412   6.305   0.106   2.420  0.0461 -0.1827 -0.3796
 5406TIP3    H140413   6.316   0.155   2.339  4.5810 -0.8394 -0.4170
 5406TIP3    H240414   6.281   0.018   2.392  1.9360 -0.5049 -1.1526
 5407TIP3   OH240415   1.977   1.352   0.512 -0.1932  0.4126 -0.6229
 5407TIP3    H140416   1.950   1.438   0.481 -0.6937  0.6098  0.3065
 5407TIP3    H240417   2.017   1.369   0.598 -0.7838 -0.3342 -0.1833
 5408TIP3   OH240418   6.380   7.118   1.529  0.3739  0.7501  0.0599
 5408TIP3    H140419   6.451   7.072   1.484  0.8890  1.8544 -0.2779
 5408TIP3    H240420   6.348   7.181   1.464 -0.9016  0.2833  0.2150
 5409TIP3   OH240421   6.166   6.388   1.223 -0.4371 -0.1009 -0.1530
 5409TIP3    H140422   6.094   6.342   1.266  0.3020 -1.4504 -0.3071
 5409TIP3    H240423   6.211   6.321   1.174  1.3369  0.5719  0.4762
 5410TIP3   OH240424   7.231   1.530   2.760 -0.3353  0.7788 -0.0053
 5410TIP3    H140425   7.144   1.571   2.757 -0.4925  0.4227 -0.6712
 5410TIP3    H240426   7.267   1.554   2.845 -2.0038 -0.9388  1.2758
 5411TIP3   OH240427   3.050   6.177   2.081 -1.1899  0.3014 -0.3306
 5411TIP3    H140428   3.130   6.137   2.048 -0.0220  0.1634  2.4454
 5411TIP3    H240429   3.077   6.263   2.114 -2.2202  0.3339  0.4819
 5412TIP3   OH240430   1.246   7.118   1.798 -0.1038  0.2267  0.2700
 5412TIP3    H140431   1.286   7.171   1.730  2.3956  0.6145  1.9173
 5412TIP3    H240432   1.316   7.061   1.829 -0.8573  0.6754  3.1033
 5413TIP3   OH240433   6.824   1.647   1.293 -0.0649 -0.3547  0.3472
 5413TIP3    H140434   6.853   1.586   1.225  0.7618  0.2029  0.1903
 5413TIP3    H240435   6.736   1.673   1.265  0.6536  0.6526 -1.0785
 5414TIP3   OH240436   5.404   0.553   2.354  0.2643 -0.1493  0.0539
 5414TIP3    H140437   5.454   0.592   2.425  0.4132  0.5465 -0.4226
 5414TIP3    H240438   5.345   0.490   2.397 -0.5724  1.2044  0.9406
 5415TIP3   OH240439   5.099   6.664   1.950 -0.0462  0.2306 -0.0417
 5415TIP3    H140440   5.109   6.605   2.024  2.3027  0.4676 -0.0984
 5415TIP3    H240441   5.004   6.673   1.939 -0.5673 -3.8237 -0.3280
 5416TIP3   OH240442   2.219   6.583   1.879  0.0988 -0.0854  0.2915
 5416TIP3    H140443   2.259   6.571   1.965 -1.2093 -1.8530  0.7213
 5416TIP3    H240444   2.146   6.642   1.895  0.3180  0.2042  0.2316
 5417TIP3   OH240445   2.174   5.939   0.913  0.2718  0.5791 -0.2447
 5417TIP3    H140446   2.088   5.900   0.928  1.2994 -1.4814  0.6895
 5417TIP3    H240447   2.164   6.031   0.938 -1.1672 -0.0536  1.6867
 5418TIP3   OH240448   3.660   6.602   1.969  0.3728 -0.2888 -0.8452
 5418TIP3    H140449   3.742   6.552   1.973  0.5944  0.1551  0.5945
 5418TIP3    H240450   3.609   6.559   1.900  0.5400 -2.5441  0.3501
 5419TIP3   OH240451   6.601   7.571   2.718  0.1373  0.0601  0.2880
 5419TIP3    H140452   6.560   7.572   2.804  1.5061 -0.9529  1.0001
 5419TIP3    H240453   6.569   7.490   2.677 -1.6462  1.2457 -0.7868
 5420TIP3   OH240454   7.649   0.882   1.335 -0.2157  0.2123  0.0603
 5420TIP3    H140455   7.713   0.838   1.279 -0.3466  0.6989 -0.4819
 5420TIP3    H240456   7.625   0.817   1.401  0.3847 -0.1719 -0.0921
 5421TIP3   OH240457   0.490   4.780   0.743 -0.3080  0.3642  0.0251
 5421TIP3    H140458   0.572   4.735   0.719 -0.5504 -0.2002  0.2312
 5421TIP3    H240459   0.426   4.747   0.680 -0.3544  0.9065 -0.2180
 5422TIP3   OH240460   7.433   4.978   1.118  0.4219 -0.1574  0.3658
 5422TIP3    H140461   7.441   5.054   1.060  1.1383 -1.4244 -1.2708
 5422TIP3    H240462   7.494   4.913   1.083 -0.3058 -1.5833  1.5899
 5423TIP3   OH240463   0.763   1.034   1.420  0.3147  0.5506 -0.1974
 5423TIP3    H140464   0.668   1.020   1.413  0.6478 -2.4235 -0.2157
 5423TIP3    H240465   0.776   1.069   1.508 -0.7227 -0.5003  0.4019
 5424TIP3   OH240466   1.978   0.313   2.251  0.0865  0.8941 -0.2572
 5424TIP3    H140467   1.921   0.250   2.208  1.0632 -0.3816  0.2283
 5424TIP3    H240468   1.954   0.308   2.344  1.6280 -0.4296  0.1119
 5425TIP3   OH240469   6.903   5.011   3.104  0.5834 -0.1916  0.2000
 5425TIP3    H140470   6.889   5.027   3.197 -1.7042 -1.2321  0.1053
 5425TIP3    H240471   6.928   5.096   3.068 -0.4669  0.6707  1.4274
 5426TIP3   OH240472   4.437   3.602   1.115 -0.3041 -0.3898 -0.0067
 5426TIP3    H140473   4.411   3.564   1.031 -0.8591  2.3216 -1.1589
 5426TIP3    H240474   4.533   3.596   1.115 -0.2933 -0.3377 -0.8646
 5427TIP3   OH240475   4.230   1.004   2.661 -0.0957  0.0439 -0.2377
 5427TIP3    H140476   4.198   1.083   2.704  0.2662 -0.8119  1.7118
 5427TIP3    H240477   4.325   1.010   2.665 -0.0506 -0.0906 -0.8924
 5428TIP3   OH240478   3.787   5.620   2.547 -0.5380 -0.4600  0.4531
 5428TIP3    H140479   3.760   5.709   2.526 -1.2811 -0.7564  0.1418
 5428TIP3    H240480   3.714   5.564   2.519  0.5144 -1.3043 -0.6873
 5429TIP3   OH240481   3.973   4.910   0.987 -0.3801  0.2307  0.0937
 5429TIP3    H140482   3.881   4.924   0.967 -0.2030  0.9372 -0.2753
 5429TIP3    H240483   3.977   4.823   1.025 -0.9864 -0.4056 -1.2673
 5430TIP3   OH240484   3.110   0.112   0.777  0.7808  0.4022 -1.1056
 5430TIP3    H140485   3.128   0.030   0.731  2.8508  1.1268 -1.7035
 5430TIP3    H240486   3.048   0.158   0.721  0.3132 -0.3518 -1.2235
 5431TIP3   OH240487   1.783   3.207   0.584  0.1189  0.6699 -0.2275
 5431TIP3    H140488   1.739   3.129   0.619  0.1729  1.2186  1.0928
 5431TIP3    H240489   1.726   3.236   0.512 -0.2107 -0.2345 -0.3518
 5432TIP3   OH240490   0.341   5.275   0.773  0.3506 -0.2618  0.2172
 5432TIP3    H140491   0.278   5.261   0.702  0.9155 -0.1551 -0.3061
 5432TIP3    H240492   0.409   5.211   0.758 -0.2540 -1.2691  1.5379
 5433TIP3   OH240493   3.241   2.015   3.430  0.1185  0.3790  0.0614
 5433TIP3    H140494   3.167   1.959   3.405 -0.8867  1.1209  1.2845
 5433TIP3    H240495   3.312   1.986   3.373 -1.2061 -0.0880 -1.4408
 5434TIP3   OH240496   1.806   4.955   1.080 -0.1547 -0.0542 -0.0095
 5434TIP3    H140497   1.790   4.973   0.988 -0.5232 -1.9728 -0.3672
 5434TIP3    H240498   1.770   4.867   1.094  1.7493 -0.6838  1.4478
 5435TIP3   OH240499   2.079   6.078   2.388  0.9468 -0.4988  0.2894
 5435TIP3    H140500   2.024   6.006   2.418 -1.7682  1.4269  0.2350
 5435TIP3    H240501   2.071   6.145   2.455 -1.3798  1.9921 -2.1988
 5436TIP3   OH240502   0.142   3.364   0.563  0.3637 -0.4292  0.0800
 5436TIP3    H140503   0.061   3.388   0.517  0.9720 -0.2346 -0.9328
 5436TIP3    H240504   0.155   3.272   0.542  1.2878 -0.0361 -1.1981
 5437TIP3   OH240505   2.237   6.999   0.813  0.3627  0.2120  0.3134
 5437TIP3    H140506   2.190   6.960   0.886 -0.2326  0.8216  0.2723
 5437TIP3    H240507   2.267   6.925   0.761 -0.8858 -0.1956  0.1461
 5438TIP3   OH240508   5.068   1.720   1.542  0.3184 -0.3227  0.5179
 5438TIP3    H140509   4.986   1.707   1.493  0.4809  0.9426 -0.1193
 5438TIP3    H240510   5.039   1.733   1.632 -0.0812 -1.1664  0.5312
 5439TIP3   OH240511   1.282   2.543   2.472  0.6918 -0.0304 -0.1548
 5439TIP3    H140512   1.371   2.532   2.504  0.4928  0.3560  0.5598
 5439TIP3    H240513   1.227   2.507   2.541  0.2443  0.9954  0.0372
 5440TIP3   OH240514   5.134   0.741   2.521  0.2747  0.3672  0.2527
 5440TIP3    H140515   5.102   0.654   2.495  1.2925 -0.5844  1.9686
 5440TIP3    H240516   5.178   0.726   2.605 -0.2555  2.7058  1.0267
 5441TIP3   OH240517   7.462   4.125   0.947 -0.2447 -0.0343  0.1488
 5441TIP3    H140518   7.382   4.077   0.971  1.3179 -2.8646  0.1464
 5441TIP3    H240519   7.512   4.130   1.029  0.3442  0.1270 -0.2197
 5442TIP3   OH240520   4.120   7.196   3.265  0.1305 -0.4415  0.0444
 5442TIP3    H140521   4.042   7.142   3.280 -1.3678  1.5888 -0.0382
 5442TIP3    H240522   4.177   7.140   3.212 -1.4572 -1.8446 -0.2884
 5443TIP3   OH240523   6.215   3.008   2.415  0.6350 -0.0528 -0.0616
 5443TIP3    H140524   6.258   3.064   2.480 -0.6176 -0.8389  1.5160
 5443TIP3    H240525   6.219   2.920   2.453 -2.0736 -0.1994  0.0705
 5444TIP3   OH240526   4.306   1.699   1.126 -0.1058  0.3690  0.2552
 5444TIP3    H140527   4.251   1.639   1.076  1.5329 -1.2721  0.3254
 5444TIP3    H240528   4.322   1.654   1.209  2.1409  0.3083 -0.1587
 5445TIP3   OH240529   4.098   7.420   1.828 -0.3760 -0.5108 -0.4816
 5445TIP3    H140530   4.161   7.349   1.819 -1.4676 -1.4946 -0.5201
 5445TIP3    H240531   4.014   7.383   1.799 -1.2209  0.4005  0.6847
 5446TIP3   OH240532   0.845   4.592   1.024  0.1203 -0.7348  0.6481
 5446TIP3    H140533   0.880   4.511   0.985  1.5266  0.5075 -0.7937
 5446TIP3    H240534   0.752   4.591   1.002 -0.0606 -2.3249  1.3405
 5447TIP3   OH240535   5.518   5.151   3.142  0.2376 -0.2183 -0.3322
 5447TIP3    H140536   5.460   5.134   3.216 -0.0680  0.2488 -0.4577
 5447TIP3    H240537   5.462   5.139   3.065  0.9086 -2.1446 -0.5666
 5448TIP3   OH240538   5.818   7.007   1.466  0.7202 -0.6690  0.4572
 5448TIP3    H140539   5.827   6.946   1.392 -1.0629 -0.8668  0.3446
 5448TIP3    H240540   5.778   6.954   1.535 -1.2224  0.4031  0.2335
 5449TIP3   OH240541   5.606   5.967   3.397  0.1996  0.2041 -0.1902
 5449TIP3    H140542   5.595   5.940   3.305  0.6911  2.8056 -1.0899
 5449TIP3    H240543   5.687   5.925   3.424  0.8623  0.5853 -1.4786
 5450TIP3   OH240544   3.773   7.450   1.708 -0.0434  0.1653 -0.0574
 5450TIP3    H140545   3.688   7.409   1.690 -0.5075  0.9122  0.4015
 5450TIP3    H240546   3.819   7.448   1.624 -1.0379  0.9656 -0.6379
 5451TIP3   OH240547   1.637   5.364   0.680  0.6292 -0.3512  0.1316
 5451TIP3    H140548   1.588   5.393   0.603 -0.1346  0.3991  0.8734
 5451TIP3    H240549   1.707   5.428   0.690  0.2217  0.0438  0.5323
 5452TIP3   OH240550   3.876   1.564   2.119 -0.0176 -0.6485  0.2263
 5452TIP3    H140551   3.863   1.499   2.187 -2.0314  0.4801  1.0112
 5452TIP3    H240552   3.921   1.636   2.162  1.4878 -1.1522 -0.4414
 5453TIP3   OH240553   4.581   1.177   2.418 -0.3057  0.1357 -0.2697
 5453TIP3    H140554   4.673   1.203   2.414 -0.0633 -0.5883  0.2249
 5453TIP3    H240555   4.541   1.212   2.339  0.4955  0.1048 -0.6897
 5454TIP3   OH240556   5.130   1.309   2.171 -0.3396 -0.3748  0.3465
 5454TIP3    H140557   5.190   1.321   2.098  1.6529 -0.7379  1.8495
 5454TIP3    H240558   5.148   1.382   2.230  1.6618 -2.5886  2.7400
 5455TIP3   OH240559   4.972   4.409   1.459 -0.0884 -0.0872  0.2296
 5455TIP3    H140560   4.884   4.383   1.431 -0.7569  2.8105 -0.7420
 5455TIP3    H240561   4.992   4.486   1.405  2.3419  0.3420  1.6103
 5456TIP3   OH240562   7.141   6.680   2.174  0.0784 -0.2758 -0.1649
 5456TIP3    H140563   7.138   6.656   2.267  0.6237  0.0971 -0.0431
 5456TIP3    H240564   7.111   6.771   2.172  0.3204 -0.1992 -0.3198
 5457TIP3   OH240565   3.922   4.148   2.646 -0.0905  0.2637  0.0486
 5457TIP3    H140566   3.869   4.126   2.570 -1.3631  1.0078  0.6763
 5457TIP3    H240567   3.872   4.116   2.721  1.0878 -0.3691  0.5965
 5458TIP3   OH240568   7.280   1.691   1.770  0.3543 -0.0463  0.6240
 5458TIP3    H140569   7.309   1.775   1.805  0.4377  1.0963 -1.9098
 5458TIP3    H240570   7.184   1.697   1.768  0.3606  0.0130  0.4294
 5459TIP3   OH240571   0.581   5.392   1.661  0.1511 -0.7185 -0.7017
 5459TIP3    H140572   0.625   5.444   1.594 -0.5665 -0.7275 -1.1856
 5459TIP3    H240573   0.519   5.338   1.613  0.5374 -1.6728 -0.1531
 5460TIP3   OH240574   5.449   3.961   1.109  0.2841 -0.0681 -0.3735
 5460TIP3    H140575   5.366   3.975   1.063 -0.5677 -1.2925  0.7278
 5460TIP3    H240576   5.440   4.012   1.189  1.7176  1.9698 -1.4356
 5461TIP3   OH240577   1.121   2.352   1.260 -0.5167  0.3103  0.2985
 5461TIP3    H140578   1.207   2.332   1.296 -0.6634 -1.2657 -0.1720
 5461TIP3    H240579   1.137   2.421   1.195  0.7817 -1.5278 -1.4407
 5462TIP3   OH240580   2.408   1.627   2.933  0.6501 -0.1850  0.6003
 5462TIP3    H140581   2.471   1.568   2.891 -1.6422 -2.4263  0.0920
 5462TIP3    H240582   2.323   1.587   2.918 -0.8852  2.2545  2.0226
 5463TIP3   OH240583   1.703   5.770   2.137  0.0840 -0.1620 -0.5510
 5463TIP3    H140584   1.755   5.838   2.094  0.8884 -0.5412 -0.1907
 5463TIP3    H240585   1.634   5.749   2.074  1.4020 -0.9159 -1.7974
 5464TIP3   OH240586   3.262   4.317   2.191 -0.2460  0.3583 -1.2230
 5464TIP3    H140587   3.305   4.237   2.160 -0.6464  0.2412 -1.4905
 5464TIP3    H240588   3.285   4.322   2.284  0.6876  0.5314 -1.4513
 5465TIP3   OH240589   4.925   5.808   1.781  0.6739  0.0796  0.1758
 5465TIP3    H140590   4.969   5.743   1.836  1.6393  0.3218 -0.2961
 5465TIP3    H240591   4.888   5.871   1.843  2.6657  0.9516  0.5626
 5466TIP3   OH240592   6.983   7.011   2.448 -0.1048 -0.0406  0.6512
 5466TIP3    H140593   7.011   7.038   2.360 -2.8637  1.5821  0.1532
 5466TIP3    H240594   7.050   7.047   2.506  2.1296 -1.6898 -0.7313
 5467TIP3   OH240595   4.614   0.865   2.041  0.3684 -0.6537  0.6671
 5467TIP3    H140596   4.551   0.907   1.983  1.6038 -0.8677 -0.8819
 5467TIP3    H240597   4.574   0.870   2.128 -1.3277  0.0615 -0.1241
 5468TIP3   OH240598   2.250   7.459   1.886  0.1780  0.0236  0.1264
 5468TIP3    H140599   2.259   7.364   1.890 -0.0215  0.0204  0.5139
 5468TIP3    H240600   2.312   7.486   1.817  1.3910 -0.2419  1.0756
 5469TIP3   OH240601   4.070   0.285   3.094  0.4452  0.5742  0.4842
 5469TIP3    H140602   4.050   0.240   3.176  0.2164  0.0691  0.1554
 5469TIP3    H240603   4.129   0.226   3.048 -0.7195  0.0925 -0.4372
 5470TIP3   OH240604   2.932   1.442   3.366 -0.6287 -0.1747 -0.8535
 5470TIP3    H140605   2.972   1.387   3.433  0.6863 -1.5141 -2.6243
 5470TIP3    H240606   2.968   1.529   3.381  0.1853 -0.6021 -0.2468
 5471TIP3   OH240607   3.832   5.924   2.789 -0.3206 -0.2109 -0.3093
 5471TIP3    H140608   3.809   5.980   2.862 -0.3481 -0.5862 -0.0241
 5471TIP3    H240609   3.804   5.836   2.816  1.0675 -0.6224 -0.0992
 5472TIP3   OH240610   1.828   6.462   2.453 -0.1278  0.2875 -0.4673
 5472TIP3    H140611   1.922   6.448   2.437 -0.1271  1.2831 -1.4892
 5472TIP3    H240612   1.798   6.381   2.494  1.0835 -0.2234 -0.5522
 5473TIP3   OH240613   1.728   7.595   3.638 -0.1733  0.8126 -0.4346
 5473TIP3    H140614   1.690   7.625   3.556  0.4618  3.4508  0.1054
 5473TIP3    H240615   1.705   7.664   3.701  1.4799  0.1676  0.9669
 5474TIP3   OH240616   1.930   0.555   0.497 -0.4388  0.2953 -0.0228
 5474TIP3    H140617   1.913   0.649   0.495 -0.2938  0.4737  2.7969
 5474TIP3    H240618   1.866   0.521   0.560  0.0655 -1.3457 -0.3578
 5475TIP3   OH240619   3.036   1.110   2.779 -0.7008 -0.1233  0.3371
 5475TIP3    H140620   3.001   1.199   2.777 -2.0759 -0.6243  0.3562
 5475TIP3    H240621   3.128   1.119   2.757 -0.8174  1.3029  0.3542
 5476TIP3   OH240622   6.465   6.679   0.881  0.6581  0.3532 -0.3168
 5476TIP3    H140623   6.399   6.661   0.814  0.0686  1.1697  0.0258
 5476TIP3    H240624   6.534   6.615   0.865 -1.2317 -2.1491  0.7568
 5477TIP3   OH240625   1.913   1.241   1.559 -0.4193  0.1318  0.0373
 5477TIP3    H140626   1.968   1.314   1.530 -1.3724  0.3090 -1.3853
 5477TIP3    H240627   1.842   1.282   1.608  0.7530 -0.1112  2.0461
 5478TIP3   OH240628   0.681   1.069   3.059 -0.0514 -0.1297 -0.3415
 5478TIP3    H140629   0.639   1.014   3.125  0.8146 -1.3107 -0.7491
 5478TIP3    H240630   0.608   1.116   3.017 -0.8003 -0.9174  0.0509
 5479TIP3   OH240631   2.697   2.540   2.589 -0.2692  0.0604  0.1299
 5479TIP3    H140632   2.717   2.564   2.679 -0.3445  0.3920  0.0593
 5479TIP3    H240633   2.751   2.599   2.536 -1.7796  1.3357 -0.0775
 5480TIP3   OH240634   3.130   5.376   2.541 -0.1490  0.1508  0.0055
 5480TIP3    H140635   3.187   5.316   2.589 -1.3637 -0.7431  0.4019
 5480TIP3    H240636   3.060   5.320   2.507 -1.1620  1.2923  0.1420
 5481TIP3   OH240637   7.402   0.304   1.430 -0.5309  0.2780 -0.4048
 5481TIP3    H140638   7.428   0.249   1.505 -0.1871  0.2058 -0.5725
 5481TIP3    H240639   7.317   0.340   1.455 -0.4801  0.1487 -0.0342
 5482TIP3   OH240640   2.454   0.823   1.464 -0.5654 -0.0873  0.3017
 5482TIP3    H140641   2.506   0.761   1.514 -0.9571 -0.2795  0.4728
 5482TIP3    H240642   2.436   0.778   1.381 -0.9664 -0.2594  0.4804
 5483TIP3   OH240643   6.547   2.107   1.314 -0.2266  0.0365  0.1206
 5483TIP3    H140644   6.489   2.068   1.380 -1.9367  0.9195 -0.8027
 5483TIP3    H240645   6.562   2.196   1.346 -2.9693  1.2857 -1.7078
 5484TIP3   OH240646   6.805   4.616   2.800 -0.3048  0.3150  0.7273
 5484TIP3    H140647   6.821   4.531   2.758  0.3767  0.0575  1.4851
 5484TIP3    H240648   6.774   4.672   2.729 -0.1914 -0.4045  0.0937
 5485TIP3   OH240649   2.498   0.691   2.366  0.3689 -0.1363  0.1179
 5485TIP3    H140650   2.403   0.690   2.377  0.0696 -0.6345 -2.0005
 5485TIP3    H240651   2.530   0.752   2.433 -1.5380  0.8591  0.1773
 5486TIP3   OH240652   0.021   5.482   2.304  0.5175 -0.1194 -0.1331
 5486TIP3    H140653   0.010   5.387   2.304  1.8052 -0.2853 -0.1446
 5486TIP3    H240654   0.057   5.503   2.218 -0.7524  0.5412 -0.5480
 5487TIP3   OH240655   4.486   1.970   3.080 -0.0619  0.3410  0.3659
 5487TIP3    H140656   4.460   1.981   3.171 -1.2621 -1.4817  0.2965
 5487TIP3    H240657   4.581   1.970   3.081 -0.0259  2.3130  1.3181
 5488TIP3   OH240658   6.690   4.775   2.635  1.3138  0.6980  0.0232
 5488TIP3    H140659   6.678   4.811   2.723  0.1975  0.9433 -0.2165
 5488TIP3    H240660   6.716   4.851   2.582 -2.1403  1.5352 -0.7267
 5489TIP3   OH240661   2.798   7.367   2.153  0.2306  0.3594 -0.2060
 5489TIP3    H140662   2.713   7.395   2.119  0.0612 -0.7390 -0.7418
 5489TIP3    H240663   2.799   7.272   2.139  1.6603  0.3886 -0.4849
 5490TIP3   OH240664   3.003   7.220   2.778 -0.3038  0.0414  0.7207
 5490TIP3    H140665   2.972   7.205   2.867  1.8062 -1.7567  1.2343
 5490TIP3    H240666   3.080   7.276   2.787 -0.3584  0.2520 -0.0142
 5491TIP3   OH240667   7.096   2.295   0.766 -0.4265 -0.1681  0.5017
 5491TIP3    H140668   7.106   2.215   0.818  0.4395  0.2033  0.9308
 5491TIP3    H240669   7.154   2.282   0.691 -1.0800 -0.3774  0.0341
 5492TIP3   OH240670   3.239   0.477   3.101 -0.0939  0.2759 -0.0941
 5492TIP3    H140671   3.324   0.509   3.130  0.1257 -0.3745  0.0043
 5492TIP3    H240672   3.180   0.552   3.111 -0.2196 -0.0979  2.8704
 5493TIP3   OH240673   6.418   4.244   3.381  0.0117 -0.3480  0.0298
 5493TIP3    H140674   6.387   4.204   3.462 -1.4838 -1.0471 -0.8395
 5493TIP3    H240675   6.341   4.244   3.324  1.1059 -0.1777 -1.4996
 5494TIP3   OH240676   4.809   3.112   3.006 -0.2689  0.2999 -0.5628
 5494TIP3    H140677   4.840   3.032   2.964  1.2675  0.4292  0.2621
 5494TIP3    H240678   4.847   3.183   2.954  0.6031  0.4589  0.2520
 5495TIP3   OH240679   3.917   6.525   3.322 -0.0476 -0.2775 -0.0096
 5495TIP3    H140680   3.894   6.432   3.330  2.8756 -1.0852  0.0638
 5495TIP3    H240681   3.974   6.542   3.397  0.9479  1.0791 -1.0342
 5496TIP3   OH240682   6.919   2.752   2.033  0.2887 -0.4378  0.1383
 5496TIP3    H140683   6.944   2.824   2.091 -1.9310  0.7390 -0.2353
 5496TIP3    H240684   7.000   2.726   1.990  1.3334  1.1864  1.0254
 5497TIP3   OH240685   0.864   2.879   2.203  0.1541  0.2580 -0.1236
 5497TIP3    H140686   0.913   2.910   2.279 -0.0004 -2.1429  1.0582
 5497TIP3    H240687   0.798   2.821   2.239 -0.6943 -0.0414 -2.0311
 5498TIP3   OH240688   1.744   5.846   1.568  0.1851  0.1321 -0.2806
 5498TIP3    H140689   1.758   5.882   1.480 -1.5907  1.0463 -0.2368
 5498TIP3    H240690   1.705   5.918   1.617  2.1388 -0.0180  1.6346
 5499TIP3   OH240691   2.636   6.242   1.826  0.0559  0.1261  0.0626
 5499TIP3    H140692   2.643   6.338   1.823 -0.1086  0.1270 -0.3041
 5499TIP3    H240693   2.677   6.218   1.909  0.0276  0.5213  0.1939
 5500TIP3   OH240694   7.477   3.243   1.835 -0.6832  0.0440  0.0377
 5500TIP3    H140695   7.458   3.151   1.853 -1.6986  0.5408  1.6587
 5500TIP3    H240696   7.572   3.251   1.849 -0.8591 -0.3950  1.6863
 5501TIP3   OH240697   0.992   4.455   3.069 -0.0659 -0.1424  0.1124
 5501TIP3    H140698   1.010   4.517   2.998  0.6316 -0.2253  0.2116
 5501TIP3    H240699   0.963   4.509   3.142  0.4485  0.0573  0.1676
 5502TIP3   OH240700   3.028   3.913   1.570 -0.2748 -0.1106 -0.7653
 5502TIP3    H140701   3.064   3.872   1.491  0.5325 -2.1197  0.5677
 5502TIP3    H240702   3.039   3.847   1.639  1.9669  2.6019  1.7980
 5503TIP3   OH240703   3.620   1.084   2.430 -0.3047  0.1896  0.4953
 5503TIP3    H140704   3.568   1.143   2.375 -0.5396  0.4661  1.0103
 5503TIP3    H240705   3.625   1.128   2.514  2.5657  1.2145 -0.1174
 5504TIP3   OH240706   1.462   3.315   1.066  0.2007  0.1631  0.3332
 5504TIP3    H140707   1.458   3.349   1.155  1.6362  0.2140  0.3971
 5504TIP3    H240708   1.556   3.306   1.048  0.1163 -5.9032  1.1071
 5505TIP3   OH240709   0.076   3.018   0.469 -0.4713 -0.3700 -0.7510
 5505TIP3    H140710   0.159   3.036   0.513 -2.3011  2.7751  1.8489
 5505TIP3    H240711   0.100   3.005   0.377  2.8420  1.0459 -0.2254
 5506TIP3   OH240712   0.002   1.690   0.633  0.4109  0.0575  0.2510
 5506TIP3    H140713  -0.035   1.712   0.718 -1.7176  0.3896 -0.6997
 5506TIP3    H240714  -0.074   1.676   0.577  1.7419  1.3762 -2.0033
 5507TIP3   OH240715   3.518   5.963   1.511 -0.5817 -0.0845 -1.0325
 5507TIP3    H140716   3.583   5.988   1.577 -0.9587 -0.4382 -0.5216
 5507TIP3    H240717   3.434   5.977   1.554 -0.8679  0.7095 -1.8054
 5508TIP3   OH240718   3.124   7.096   1.470  0.3022 -0.4992 -0.0509
 5508TIP3    H140719   3.152   7.011   1.436 -0.1268 -0.2728 -1.0092
 5508TIP3    H240720   3.081   7.138   1.395 -0.2409  0.2183  0.6552
 5509TIP3   OH240721   5.774   4.864   1.951  0.5656 -0.2205  0.1037
 5509TIP3    H140722   5.700   4.924   1.955  1.5473  1.0159  0.5303
 5509TIP3    H240723   5.735   4.777   1.950 -0.9093  0.4188 -0.6141
 5510TIP3   OH240724   6.955   3.229   3.179  0.1310  0.3698  0.1324
 5510TIP3    H140725   6.917   3.219   3.267  0.2467  0.3537  0.1810
 5510TIP3    H240726   6.880   3.222   3.120 -0.1946  2.0373  0.3083
 5511TIP3   OH240727   0.434   5.629   3.621 -0.2731  0.1118  0.0951
 5511TIP3    H140728   0.492   5.565   3.663 -0.6170  0.9465  1.9361
 5511TIP3    H240729   0.494   5.687   3.574 -0.0175 -2.1335 -2.5925
 5512TIP3   OH240730   2.560   0.503   1.810 -0.2257  0.5234 -0.3139
 5512TIP3    H140731   2.610   0.476   1.887  1.3848  0.5110 -1.3183
 5512TIP3    H240732   2.469   0.506   1.840  0.3149  0.1287  1.4669
 5513TIP3   OH240733   4.899   1.912   2.471  0.1062  0.1245 -0.2611
 5513TIP3    H140734   4.805   1.891   2.475  0.3056 -0.5850  1.4145
 5513TIP3    H240735   4.916   1.960   2.552  1.0265  1.0446 -0.9774
 5514TIP3   OH240736   7.578   2.535   2.763 -0.3565 -0.2581  0.4870
 5514TIP3    H140737   7.621   2.596   2.823  1.0023 -0.7200  0.0238
 5514TIP3    H240738   7.504   2.583   2.728  0.6551  1.1206  0.1708
 5515TIP3   OH240739   3.930   3.104   1.161 -0.1421 -0.0473  0.7753
 5515TIP3    H140740   4.007   3.091   1.216  0.5875 -0.6573 -0.3432
 5515TIP3    H240741   3.898   3.191   1.184  1.3524  0.5405  0.7191
 5516TIP3   OH240742   4.250   1.112   1.482 -0.7488 -0.7431 -0.5200
 5516TIP3    H140743   4.242   1.091   1.575  1.4373  0.1653 -0.0582
 5516TIP3    H240744   4.335   1.076   1.457 -0.0041  1.4419 -1.4057
 5517TIP3   OH240745   0.831   1.755   7.552  0.4503  0.2109 -1.0335
 5517TIP3    H140746   0.791   1.832   7.593  2.4881  0.8323 -0.0289
 5517TIP3    H240747   0.794   1.680   7.598  1.0679  0.8005  0.4808
 5518TIP3   OH240748   4.816   1.072   1.447 -0.0751  0.4472 -0.0274
 5518TIP3    H140749   4.732   1.069   1.495 -0.1915 -0.4368 -0.2794
 5518TIP3    H240750   4.862   0.993   1.474 -0.1457 -0.0741 -1.3912
 5519TIP3   OH240751   6.114   0.956   1.581 -0.0752 -0.0520  0.3749
 5519TIP3    H140752   6.164   0.889   1.535 -0.0426  0.5525 -0.5010
 5519TIP3    H240753   6.047   0.907   1.629  1.8753 -0.9314  2.3065
 5520TIP3   OH240754   5.248   1.947   1.561  0.1470  0.0292  0.3008
 5520TIP3    H140755   5.180   1.998   1.517 -0.0460 -1.1907 -0.8967
 5520TIP3    H240756   5.209   1.860   1.572  0.7705 -0.1224  1.5269
 5521TIP3   OH240757   3.442   2.132   0.917  0.2020 -0.0481  0.1380
 5521TIP3    H140758   3.460   2.075   0.842 -0.3096 -2.0266  1.4479
 5521TIP3    H240759   3.372   2.087   0.964  0.8384  0.9080  2.0673
 5522TIP3   OH240760   6.389   0.159   0.985  0.3332 -0.0683  0.2357
 5522TIP3    H140761   6.447   0.132   1.056 -1.5703 -1.0348  1.5171
 5522TIP3    H240762   6.391   0.087   0.923 -0.0336 -0.4253  0.6331
 5523TIP3   OH240763   5.439   5.077   2.834  0.0960  0.4230 -0.5563
 5523TIP3    H140764   5.347   5.052   2.836  0.2796 -0.2763  1.7728
 5523TIP3    H240765   5.478   5.022   2.766 -0.6585 -1.4577  0.4752
 5524TIP3   OH240766   7.610   0.076   1.353  0.0510 -0.1440 -0.4202
 5524TIP3    H140767   7.539   0.035   1.302  0.5368 -0.5908 -0.7524
 5524TIP3    H240768   7.588   0.057   1.444  1.1144 -2.6693 -0.5953
 5525TIP3   OH240769   0.882   6.471   0.879 -0.1815  0.0387  0.0779
 5525TIP3    H140770   0.852   6.380   0.888 -1.0610  0.2234 -0.8089
 5525TIP3    H240771   0.975   6.463   0.857 -0.2041 -0.6377  0.1925
 5526TIP3   OH240772   7.186   7.158   1.314  0.0095  0.1056 -0.1125
 5526TIP3    H140773   7.093   7.182   1.310  0.2709  1.1926  0.0141
 5526TIP3    H240774   7.213   7.152   1.222 -0.5331 -1.7208 -0.1905
 5527TIP3   OH240775   0.853   2.012   2.722  0.3022 -0.4827  0.0829
 5527TIP3    H140776   0.942   2.046   2.732  0.5152 -0.6919 -0.9681
 5527TIP3    H240777   0.820   2.055   2.644 -0.0716 -1.3308 -0.2337
 5528TIP3   OH240778   0.183   6.391   0.685 -0.2435 -0.5050  0.4418
 5528TIP3    H140779   0.143   6.318   0.732 -0.9828  0.3708  1.2253
 5528TIP3    H240780   0.277   6.381   0.700 -0.4030 -0.7903  1.3112
 5529TIP3   OH240781   3.928   3.583   8.940 -0.7052  0.4056 -0.1521
 5529TIP3    H140782   3.989   3.629   8.998 -0.3832 -1.3112  0.9397
 5529TIP3    H240783   3.857   3.645   8.926 -1.0146  0.7362  2.4550
 5530TIP3   OH240784   6.406   2.768   1.046 -0.1717 -0.4991 -0.4608
 5530TIP3    H140785   6.397   2.687   0.996 -0.9530 -0.0541 -1.0469
 5530TIP3    H240786   6.485   2.809   1.011  1.3334 -1.8700  1.1047
 5531TIP3   OH240787   0.694   4.315   3.168  0.3617  0.0980 -1.4500
 5531TIP3    H140788   0.640   4.325   3.090  0.7019  0.1688 -1.6761
 5531TIP3    H240789   0.689   4.221   3.189 -4.5034  0.6935  1.8619
 5532TIP3   OH240790   2.701   0.830   0.698  0.2330 -0.0144 -0.2422
 5532TIP3    H140791   2.770   0.769   0.672  0.2945 -0.8218  1.6074
 5532TIP3    H240792   2.624   0.775   0.709 -0.1069  0.4965 -0.0250
 5533TIP3   OH240793   1.774   1.012   1.476 -0.2741  0.5937  0.4533
 5533TIP3    H140794   1.833   0.962   1.420 -0.5657 -0.9373  1.4671
 5533TIP3    H240795   1.824   1.090   1.499  0.7159  0.1286 -0.0546
 5534TIP3   OH240796   4.164   3.793   2.061 -0.0145  0.0859  0.1943
 5534TIP3    H140797   4.148   3.879   2.099  1.1810  0.3736  0.0955
 5534TIP3    H240798   4.200   3.812   1.974  1.8613 -0.4305  0.7981
 5535TIP3   OH240799   3.806   5.981   1.548 -0.4931  0.4714 -0.0514
 5535TIP3    H140800   3.813   5.889   1.575  0.2863  0.8595  1.1510
 5535TIP3    H240801   3.847   5.983   1.461  0.6754 -0.0940  0.4638
 5536TIP3   OH240802   0.001   6.371   2.437  0.1434  0.0387  0.6504
 5536TIP3    H140803   0.062   6.362   2.510  3.2937  2.6087 -1.3230
 5536TIP3    H240804   0.056   6.400   2.364 -3.1788  0.2615 -2.0362
 5537TIP3   OH240805   3.693   6.283   1.653 -0.2301 -0.0436  0.0163
 5537TIP3    H140806   3.741   6.209   1.614  0.9171  0.1151  1.0745
 5537TIP3    H240807   3.760   6.350   1.669 -0.9100  0.4520  0.9066
 5538TIP3   OH240808   2.557   5.996   2.831  0.2710 -0.4758 -0.3187
 5538TIP3    H140809   2.503   6.065   2.869 -0.3061 -0.8497 -0.4469
 5538TIP3    H240810   2.528   5.915   2.874  0.4249 -0.7412 -0.7030
 5539TIP3   OH240811   1.058   2.384   2.383 -0.7661 -0.2441 -0.2171
 5539TIP3    H140812   1.002   2.411   2.310 -0.3207  0.9989 -0.1251
 5539TIP3    H240813   1.123   2.454   2.390  0.9008 -1.7025 -0.4051
 5540TIP3   OH240814   5.978   6.682   2.492  0.1037 -0.0822 -0.1146
 5540TIP3    H140815   5.951   6.623   2.421 -1.3083  0.9908 -0.5133
 5540TIP3    H240816   6.058   6.723   2.460  0.0460 -0.3698 -0.6498
 5541TIP3   OH240817   3.854   2.156   2.161  0.4536  0.3920 -0.0519
 5541TIP3    H140818   3.945   2.155   2.191  0.3427 -0.5631  0.3043
 5541TIP3    H240819   3.860   2.174   2.067  1.1295 -1.2076 -0.3450
 5542TIP3   OH240820   5.094   4.534   2.473 -0.1152 -0.2277  0.3453
 5542TIP3    H140821   5.009   4.576   2.485 -1.0189 -1.4997 -1.1166
 5542TIP3    H240822   5.151   4.603   2.438 -0.9321  0.3103  0.0540
 5543TIP3   OH240823   0.395   1.452   2.394  0.4270  0.2753  0.1239
 5543TIP3    H140824   0.405   1.529   2.451  0.0163  2.1671 -2.1838
 5543TIP3    H240825   0.451   1.471   2.319 -1.1446 -0.7630 -1.3773
 5544TIP3   OH240826   6.634   1.426   2.465  0.5545  0.0755 -0.1291
 5544TIP3    H140827   6.555   1.455   2.512 -0.0897 -1.2304 -0.3468
 5544TIP3    H240828   6.662   1.348   2.512 -0.0480 -1.2050 -1.8070
 5545TIP3   OH240829   3.715   1.980   1.415  0.3922  0.0768 -0.3318
 5545TIP3    H140830   3.753   1.934   1.339  0.4052 -0.0157 -0.2696
 5545TIP3    H240831   3.663   2.050   1.376 -1.5397 -1.3965 -0.5447
 5546TIP3   OH240832   6.422   2.530   0.899  0.0356 -0.6062  0.3671
 5546TIP3    H140833   6.517   2.537   0.882 -0.2755  2.4545 -0.7743
 5546TIP3    H240834   6.391   2.469   0.832  1.1786 -1.9600  0.9913
 5547TIP3   OH240835   2.260   3.541   1.659  0.0183  0.2179  0.4373
 5547TIP3    H140836   2.174   3.508   1.632  1.1716 -1.7750 -1.0545
 5547TIP3    H240837   2.265   3.629   1.622 -0.7761 -0.2485 -0.8572
 5548TIP3   OH240838   1.121   6.425   2.093  0.5497  0.0839  0.4898
 5548TIP3    H140839   1.090   6.461   2.177 -1.3525 -2.4331  0.9647
 5548TIP3    H240840   1.042   6.416   2.040  1.5666  0.4696 -1.1858
 5549TIP3   OH240841   4.532   2.360   1.733 -0.5178  0.1564  0.0533
 5549TIP3    H140842   4.587   2.438   1.729 -2.1209  1.3816  0.7280
 5549TIP3    H240843   4.522   2.341   1.826  0.9156 -1.7160 -0.0954
 5550TIP3   OH240844   2.107   0.013   1.379  0.2775 -0.0085 -0.1217
 5550TIP3    H140845   2.019  -0.017   1.401  0.2151  0.9467  1.0189
 5550TIP3    H240846   2.100   0.040   1.288 -0.2644 -1.1396 -0.4417
 5551TIP3   OH240847   2.667   1.036   1.449  0.0601  0.2403 -0.0362
 5551TIP3    H140848   2.595   0.980   1.478 -1.3366  3.1395  2.6786
 5551TIP3    H240849   2.647   1.055   1.358 -0.7137 -1.6531 -0.3126
 5552TIP3   OH240850   0.041   0.224   1.936 -0.4870  0.1461 -0.2208
 5552TIP3    H140851   0.131   0.240   1.906 -1.1114 -0.3736 -2.6074
 5552TIP3    H240852  -0.013   0.268   1.871 -2.0021 -2.0180 -0.5174
 5553TIP3   OH240853   6.503   4.059   1.009 -0.0463 -0.3142  0.4519
 5553TIP3    H140854   6.470   4.148   0.997 -2.3953 -1.2255 -0.2887
 5553TIP3    H240855   6.594   4.064   0.978 -0.8655  1.2745 -2.0276
 5554TIP3   OH240856   6.953   6.523   2.046 -0.2099  0.0597  0.0611
 5554TIP3    H140857   6.908   6.479   2.117 -1.1475 -0.6062 -0.9220
 5554TIP3    H240858   7.018   6.579   2.090 -1.2139  0.1804  1.4529
 5555TIP3   OH240859   5.219   3.306   2.777  0.1855 -0.0310  0.7291
 5555TIP3    H140860   5.191   3.323   2.687  3.0349  1.1504 -0.0665
 5555TIP3    H240861   5.181   3.376   2.829 -0.4512  0.0114  0.2095
 5556TIP3   OH240862   1.034   6.732   2.546 -0.6263 -0.5707 -0.6369
 5556TIP3    H140863   1.086   6.812   2.534 -0.9485 -0.0067  1.3189
 5556TIP3    H240864   1.030   6.720   2.641 -2.4889 -1.6398 -0.7935
 5557TIP3   OH240865   3.058   7.187   2.093  0.4063  0.3328  0.1336
 5557TIP3    H140866   3.022   7.257   2.038  1.4425 -0.7506 -2.0453
 5557TIP3    H240867   2.987   7.123   2.100  0.2146  0.5517  0.1920
 5558TIP3   OH240868   5.573   5.743   1.654  0.2090  0.2210 -0.0152
 5558TIP3    H140869   5.617   5.827   1.646  1.8389 -0.6468 -0.5948
 5558TIP3    H240870   5.555   5.734   1.747  2.4654  0.0591  0.4588
 5559TIP3   OH240871   1.591   4.023   2.121  0.5204 -0.5094 -0.1091
 5559TIP3    H140872   1.661   3.999   2.181  1.6506 -0.1745 -1.2503
 5559TIP3    H240873   1.624   3.998   2.035  1.0030  3.2885 -1.1972
 5560TIP3   OH240874   4.570   5.905   2.497 -0.1922 -0.7675 -0.2503
 5560TIP3    H140875   4.550   5.933   2.586 -2.7809 -2.2133 -0.2931
 5560TIP3    H240876   4.616   5.821   2.508 -0.7476 -1.0785 -0.2492
 5561TIP3   OH240877   7.185   7.434   1.889  0.5992 -0.1994 -0.3329
 5561TIP3    H140878   7.102   7.446   1.934  1.4208 -0.0701  1.1858
 5561TIP3    H240879   7.191   7.339   1.875 -0.1825 -0.1345 -1.2458
 5562TIP3   OH240880   2.291   7.603   3.360 -0.0980  0.0254  0.3649
 5562TIP3    H140881   2.285   7.676   3.422  0.6841  1.5097 -1.1977
 5562TIP3    H240882   2.372   7.558   3.384  0.1611  0.5413  0.4736
 5563TIP3   OH240883   4.506   3.788   1.375 -0.4983  0.2322  0.7040
 5563TIP3    H140884   4.594   3.812   1.347 -0.4364  0.6235  1.2282
 5563TIP3    H240885   4.519   3.738   1.456 -0.7166 -0.3785  0.3754
 5564TIP3   OH240886   0.396   1.399   0.783 -0.1725 -0.0181 -0.3418
 5564TIP3    H140887   0.411   1.483   0.739 -0.7530 -0.0938 -0.7015
 5564TIP3    H240888   0.308   1.373   0.755  0.1405 -0.9234 -0.5223
 5565TIP3   OH240889   7.041   6.950   2.101 -0.1601  0.5398 -0.1723
 5565TIP3    H140890   7.078   7.035   2.121 -0.0928  0.9120 -1.7314
 5565TIP3    H240891   6.946   6.963   2.106 -0.1620  0.8546 -0.9083
 5566TIP3   OH240892   4.840   1.244   2.659  0.3456 -0.8578  0.2085
 5566TIP3    H140893   4.791   1.321   2.630  0.7105 -0.8342 -0.3468
 5566TIP3    H240894   4.778   1.196   2.715 -0.6472 -1.3036 -1.2192
 5567TIP3   OH240895   5.134   0.925   1.601  0.3128  0.3444 -0.5985
 5567TIP3    H140896   5.144   0.906   1.508  1.5428  2.7697 -1.0586
 5567TIP3    H240897   5.218   0.901   1.640  0.5782  1.2881 -0.5490
 5568TIP3   OH240898   4.454   1.835   0.760 -0.2974  0.1678 -0.2778
 5568TIP3    H140899   4.523   1.830   0.694 -0.5951 -0.8693 -0.5305
 5568TIP3    H240900   4.481   1.772   0.827 -1.0005 -0.2488 -0.3840
 5569TIP3   OH240901   1.051   1.202   3.450  0.2780 -0.6272  0.1873
 5569TIP3    H140902   0.961   1.231   3.461 -0.0113 -0.9002 -1.2278
 5569TIP3    H240903   1.103   1.283   3.450  0.0055 -0.4523  0.7650
 5570TIP3   OH240904   1.823   3.049   1.915  0.6008 -0.4066  0.0559
 5570TIP3    H140905   1.732   3.022   1.923  0.1972  0.6163 -0.8168
 5570TIP3    H240906   1.823   3.142   1.938  1.2872 -0.2046 -0.6921
 5571TIP3   OH240907   3.372   5.343   1.955 -0.3977 -0.3898 -0.3146
 5571TIP3    H140908   3.406   5.388   1.878 -1.8095 -2.6015 -2.3699
 5571TIP3    H240909   3.442   5.283   1.980 -0.7524 -1.2919 -1.3685
 5572TIP3   OH240910   4.545   3.027   1.646 -0.0630 -0.7030  0.5285
 5572TIP3    H140911   4.452   3.004   1.653 -0.4702 -0.1529 -2.0389
 5572TIP3    H240912   4.587   2.947   1.613 -0.0718 -0.2875 -0.5474
 5573TIP3   OH240913   1.307   1.882   2.903  0.1805  0.1123  0.1752
 5573TIP3    H140914   1.290   1.888   2.997  0.2295 -0.2808  0.2109
 5573TIP3    H240915   1.384   1.938   2.889  0.0548  0.3269  0.3355
 5574TIP3   OH240916   1.806   3.080   3.025 -0.0232  0.2581 -0.0636
 5574TIP3    H140917   1.885   3.109   3.070 -0.0080  2.2691 -1.2881
 5574TIP3    H240918   1.796   3.140   2.952 -0.2425 -2.6388 -2.5909
 5575TIP3   OH240919   6.805   6.208   2.339 -0.2072 -0.5213  0.0818
 5575TIP3    H140920   6.859   6.131   2.356  0.7835  0.2186  0.3643
 5575TIP3    H240921   6.752   6.218   2.419  0.8231  0.0102  0.7224
 5576TIP3   OH240922   4.497   4.304   1.808 -0.2770 -0.0847 -0.6617
 5576TIP3    H140923   4.588   4.335   1.804  0.3028 -1.4912  0.7445
 5576TIP3    H240924   4.496   4.225   1.754 -0.3186 -0.8114  0.3768
 5577TIP3   OH240925   0.449   2.650   0.778  0.2318 -0.4651  0.0004
 5577TIP3    H140926   0.411   2.723   0.827 -1.2142 -0.3193 -1.2710
 5577TIP3    H240927   0.504   2.605   0.842  0.3051  1.0959  1.0950
 5578TIP3   OH240928   5.130   5.604   1.815 -0.5979  0.3317  0.1755
 5578TIP3    H140929   5.161   5.571   1.731 -0.0816  0.2139  0.4035
 5578TIP3    H240930   5.137   5.529   1.874 -3.3657 -0.3324 -0.2276
 5579TIP3   OH240931   2.900   7.184   3.027  0.2510 -0.4918  0.1496
 5579TIP3    H140932   2.901   7.257   3.089  1.2608 -0.2912 -0.0767
 5579TIP3    H240933   2.808   7.170   3.007  0.0929  1.6121 -0.8330
 5580TIP3   OH240934   4.641   3.934   2.401  0.4691  0.5198  0.1188
 5580TIP3    H140935   4.654   4.028   2.419 -0.0116  0.6881 -0.3833
 5580TIP3    H240936   4.570   3.908   2.458 -0.8838  0.9933 -1.2870
 5581TIP3   OH240937   2.437   2.657   2.606  0.2266 -0.4782 -0.5004
 5581TIP3    H140938   2.523   2.614   2.600  1.0229  1.0850 -0.8690
 5581TIP3    H240939   2.409   2.641   2.696  0.1476 -2.3317 -0.8145
 5582TIP3   OH240940   2.711   3.903   2.112 -0.8523 -0.2799  0.5348
 5582TIP3    H140941   2.793   3.861   2.090 -1.6504 -1.0868 -1.0991
 5582TIP3    H240942   2.732   3.996   2.118  0.1091 -0.4422 -0.1799
 5583TIP3   OH240943   5.127   5.162   1.192 -0.0016  0.0157  0.0535
 5583TIP3    H140944   5.177   5.230   1.237 -2.9512  0.8475  2.3906
 5583TIP3    H240945   5.091   5.206   1.115  0.5555  0.2071 -0.1014
 5584TIP3   OH240946   7.257   2.262   1.623 -0.0741  0.5839 -0.3316
 5584TIP3    H140947   7.206   2.291   1.699 -1.3165  1.3785 -1.4304
 5584TIP3    H240948   7.191   2.228   1.562  0.9261 -0.1985 -1.0042
 5585TIP3   OH240949   6.615   5.899   1.281  0.8018 -0.5600 -0.0245
 5585TIP3    H140950   6.634   5.815   1.323  1.3358 -1.1877 -1.4376
 5585TIP3    H240951   6.697   5.924   1.238  0.8861  1.1246  1.0550
 5586TIP3   OH240952   1.586   1.197   1.973  0.3858 -0.0728  0.1462
 5586TIP3    H140953   1.601   1.154   2.057 -1.8851  0.3968  0.8781
 5586TIP3    H240954   1.633   1.143   1.910  0.7194 -1.4459  1.4943
 5587TIP3   OH240955   6.022   1.847   1.917  0.2744 -0.3742  0.0206
 5587TIP3    H140956   5.958   1.807   1.858  0.5022  0.2031 -0.6260
 5587TIP3    H240957   6.001   1.940   1.915 -0.4561 -0.4586  1.7650
 5588TIP3   OH240958   7.102   2.335   1.834 -0.1474 -0.3166  0.8781
 5588TIP3    H140959   7.092   2.407   1.897 -0.0342 -1.2486  2.0088
 5588TIP3    H240960   7.033   2.273   1.858  0.3743 -1.0319  0.5611
 5589TIP3   OH240961   2.641   1.095   3.141  0.0608  0.2092  0.4290
 5589TIP3    H140962   2.687   1.063   3.064  0.1851  1.3443  0.0111
 5589TIP3    H240963   2.576   1.157   3.107 -1.2123 -0.6996  1.0753
 5590TIP3   OH240964   4.331   2.888   2.465  0.2186 -0.4914  0.2460
 5590TIP3    H140965   4.327   2.971   2.513 -0.5974  0.8509 -1.9772
 5590TIP3    H240966   4.244   2.850   2.475  0.0460 -0.2081 -0.1626
 5591TIP3   OH240967   3.287   3.636   1.055 -0.5412  0.2286 -0.2424
 5591TIP3    H140968   3.284   3.698   1.127 -1.4714 -0.7301  0.5719
 5591TIP3    H240969   3.302   3.690   0.977  0.6933  1.2507  0.6773
 5592TIP3   OH240970   0.782   5.573   1.008 -0.4151  0.1566 -0.1986
 5592TIP3    H140971   0.868   5.534   1.022 -0.8251 -0.5267  0.4811
 5592TIP3    H240972   0.789   5.618   0.924  0.9488  1.0766  0.3820
 5593TIP3   OH240973   5.478   5.336   2.158 -0.4575  0.1803 -0.4622
 5593TIP3    H140974   5.423   5.414   2.142  0.4018  0.5512 -1.7647
 5593TIP3    H240975   5.421   5.262   2.135 -0.3614  0.5733 -2.1086
 5594TIP3   OH240976   5.707   6.542   1.188  0.7500  0.5031 -0.6489
 5594TIP3    H140977   5.765   6.595   1.134  0.0310  0.4271 -1.5217
 5594TIP3    H240978   5.641   6.508   1.127 -0.1131  0.4423  0.2832
 5595TIP3   OH240979   7.479   3.925   1.626 -0.1430 -0.1598 -0.2222
 5595TIP3    H140980   7.442   4.005   1.663  0.6072 -0.8574  2.2585
 5595TIP3    H240981   7.558   3.909   1.678  0.8984 -1.3654 -2.0906
 5596TIP3   OH240982   1.031   6.510   1.623 -0.1625 -0.2583 -0.3461
 5596TIP3    H140983   0.988   6.578   1.674 -0.1826 -0.5089 -0.0242
 5596TIP3    H240984   1.005   6.528   1.533 -0.2316  0.1107 -0.2548
 5597TIP3   OH240985   3.055   0.936   1.109  0.2120 -0.3768 -0.1661
 5597TIP3    H140986   3.041   1.019   1.155 -0.9681 -0.0898 -1.0148
 5597TIP3    H240987   3.063   0.960   1.017 -0.8139 -1.2425 -0.5038
 5598TIP3   OH240988   6.516   6.855   1.428  0.0155  0.8547 -0.2275
 5598TIP3    H140989   6.593   6.797   1.423 -0.3869 -0.0325  2.3661
 5598TIP3    H240990   6.490   6.867   1.337  2.2969 -0.0822 -1.0923
 5599TIP3   OH240991   7.672   0.522   0.965 -0.4471  0.3275 -0.1144
 5599TIP3    H140992   7.727   0.537   0.888 -1.2073  2.6402 -0.2864
 5599TIP3    H240993   7.695   0.593   1.025 -1.6753  0.0509  0.7174
 5600TIP3   OH240994   0.025   1.007   2.513 -0.3114 -0.0590 -0.8238
 5600TIP3    H140995   0.075   0.929   2.536  1.0716  0.9031 -0.4037
 5600TIP3    H240996  -0.066   0.983   2.529  0.1576 -1.3137  0.1107
 5601TIP3   OH240997   3.539   0.873   2.611 -0.4628  0.6135  0.0440
 5601TIP3    H140998   3.551   0.942   2.546  0.5490 -0.4342 -0.9430
 5601TIP3    H240999   3.451   0.839   2.594 -1.2414  2.0693  0.9906
 5602TIP3   OH241000   1.350   3.786   0.974 -0.4970 -0.4659 -0.1704
 5602TIP3    H141001   1.417   3.720   0.990 -0.9481 -0.7114  0.7825
 5602TIP3    H241002   1.276   3.759   1.028 -1.1437  0.1380 -0.7302
 5603TIP3   OH241003   3.091   4.807   1.455 -0.5598  0.1001 -0.0526
 5603TIP3    H141004   3.154   4.750   1.410 -0.6446 -1.1505  1.3178
 5603TIP3    H241005   3.013   4.753   1.463 -0.9430  0.7289  0.5101
 5604TIP3   OH241006   1.349   3.668   1.345 -0.1870  0.0175  0.0479
 5604TIP3    H141007   1.412   3.734   1.317 -1.9287  2.2999  1.1062
 5604TIP3    H241008   1.270   3.688   1.295 -0.9423 -0.8608  0.8455
 5605TIP3   OH241009   5.915   2.149   1.386 -0.2031 -0.6601  0.3929
 5605TIP3    H141010   5.902   2.203   1.464  0.6365 -0.4351  0.3845
 5605TIP3    H241011   5.917   2.212   1.313 -1.6559 -0.9260  0.1022
 5606TIP3   OH241012   0.821   7.043   2.026  0.0903 -0.4020  0.1223
 5606TIP3    H141013   0.909   7.074   2.045 -0.0762  1.8104 -2.1271
 5606TIP3    H241014   0.764   7.114   2.055 -0.8655 -1.3003  0.4928
 5607TIP3   OH241015   6.907   4.405   2.624 -0.3690 -0.2672 -0.4103
 5607TIP3    H141016   6.864   4.375   2.543 -1.8687  2.2501 -0.6515
 5607TIP3    H241017   6.967   4.473   2.594  0.4894 -0.6424  0.4346
 5608TIP3   OH241018   5.393   4.046   3.138 -0.3085 -1.0660  0.4848
 5608TIP3    H141019   5.475   4.086   3.111 -1.6337  0.5910 -1.3514
 5608TIP3    H241020   5.398   3.955   3.106  0.3629 -0.6553 -0.6292
 5609TIP3   OH241021   7.586   3.438   0.812 -0.2493 -0.2957  0.1999
 5609TIP3    H141022   7.516   3.493   0.846 -1.5399 -1.8116  0.0652
 5609TIP3    H241023   7.644   3.424   0.888  0.6813  2.0064  0.0056
 5610TIP3   OH241024   6.050   5.304   1.589 -0.2932 -0.1689 -0.7890
 5610TIP3    H141025   6.062   5.342   1.676 -0.7261 -0.7204 -0.4731
 5610TIP3    H241026   6.124   5.335   1.538 -0.1635  0.3598 -0.2897
 5611TIP3   OH241027   3.191   1.738   2.389  0.0134  0.1165 -0.0814
 5611TIP3    H141028   3.192   1.663   2.448 -1.8399 -1.9994 -2.5080
 5611TIP3    H241029   3.121   1.793   2.422  0.5559  0.1962  0.9974
 5612TIP3   OH241030   0.929   4.398   2.427 -0.0406  0.0801 -0.2304
 5612TIP3    H141031   0.901   4.307   2.444 -2.8695  0.4932 -1.8543
 5612TIP3    H241032   0.892   4.448   2.499 -1.0641  0.2537 -0.8487
 5613TIP3   OH241033   6.435   6.321   2.401 -0.2028  0.7737  0.8821
 5613TIP3    H141034   6.400   6.299   2.487 -0.3821 -0.1234  0.5823
 5613TIP3    H241035   6.521   6.360   2.419  0.2723 -0.4701  1.4204
 5614TIP3   OH241036   1.833   6.322   1.422 -0.1128 -0.5265 -0.1575
 5614TIP3    H141037   1.870   6.309   1.509  0.0408 -1.1529 -0.3125
 5614TIP3    H241038   1.909   6.322   1.363 -0.2558 -0.6167 -0.3437
 5615TIP3   OH241039   6.840   2.269   0.688 -1.3269  0.0555 -0.0397
 5615TIP3    H141040   6.789   2.200   0.731  0.8188 -2.0766 -0.6726
 5615TIP3    H241041   6.925   2.267   0.732 -0.3966  0.5331 -1.7298
 5616TIP3   OH241042   7.326   2.510   0.550 -0.7056 -0.1642  0.0559
 5616TIP3    H141043   7.339   2.451   0.624 -1.3322 -1.8335 -1.1021
 5616TIP3    H241044   7.413   2.546   0.532 -0.1125 -1.4515  0.2443
 5617TIP3   OH241045   7.130   5.987   2.690 -0.2796  0.1984  0.0584
 5617TIP3    H141046   7.211   5.945   2.719 -1.4006 -1.2380  1.2751
 5617TIP3    H241047   7.126   6.069   2.741  0.1088 -0.0225  0.4494
 5618TIP3   OH241048   2.775   0.089   1.132 -0.0325 -0.2006 -0.2209
 5618TIP3    H141049   2.837   0.021   1.107 -0.7883 -0.9357 -0.1060
 5618TIP3    H241050   2.755   0.135   1.050  1.9498  1.1726 -0.0146
 5619TIP3   OH241051   0.019   0.459   1.579 -0.7733  0.0049 -0.3835
 5619TIP3    H141052   0.063   0.375   1.574 -0.8880 -0.1417  0.7525
 5619TIP3    H241053  -0.029   0.456   1.662 -0.2815  1.4264 -0.0184
 5620TIP3   OH241054   4.375   3.030   1.327  0.2468  0.0567  0.6528
 5620TIP3    H141055   4.308   3.089   1.362  1.3354  2.1618 -0.6534
 5620TIP3    H241056   4.457   3.077   1.338  1.3719 -1.8593  0.8713
 5621TIP3   OH241057   3.429   7.461   1.521 -0.0682  0.5236  0.0340
 5621TIP3    H141058   3.479   7.396   1.569  0.1939  0.7544  0.0727
 5621TIP3    H241059   3.342   7.422   1.510  0.0495  0.2272  0.1761
 5622TIP3   OH241060   1.507   4.341   1.841 -0.1744  0.4485  0.1367
 5622TIP3    H141061   1.429   4.335   1.896 -0.6105  0.4066 -0.4753
 5622TIP3    H241062   1.476   4.377   1.758  0.3080 -0.3049 -0.3873
 5623TIP3   OH241063   0.896   3.725   1.980 -0.1946  0.2954  0.4904
 5623TIP3    H141064   0.828   3.758   1.920 -0.2985 -2.2145 -0.9015
 5623TIP3    H241065   0.848   3.704   2.060 -0.2708  2.5357  1.0918
 5624TIP3   OH241066   7.513   1.542   1.818  0.2592  0.0245  0.1097
 5624TIP3    H141067   7.432   1.594   1.813  1.7405  2.4241 -0.5927
 5624TIP3    H241068   7.505   1.479   1.747  0.1170  2.0272 -1.7614
 5625TIP3   OH241069   3.489   2.928   0.909  0.4880 -0.0277 -0.6136
 5625TIP3    H141070   3.500   3.019   0.939 -0.5267  0.6535 -2.1897
 5625TIP3    H241071   3.452   2.883   0.984  0.8242  0.8995  0.1407
 5626TIP3   OH241072   7.425   6.241   3.238 -0.6309 -0.4814  0.1279
 5626TIP3    H141073   7.432   6.336   3.238  0.4164 -0.5416  0.5610
 5626TIP3    H241074   7.374   6.220   3.316 -1.1677 -0.2559 -0.1644
 5627TIP3   OH241075   1.503   1.171   0.974 -0.3197  0.4921 -0.1490
 5627TIP3    H141076   1.570   1.239   0.965 -0.6914  0.6072 -2.6342
 5627TIP3    H241077   1.444   1.205   1.041  0.0130  2.2031 -0.6752
 5628TIP3   OH241078   2.212   3.321   1.351 -0.0036 -0.3943  0.2779
 5628TIP3    H141079   2.118   3.304   1.357 -0.2008  0.9838  2.0124
 5628TIP3    H241080   2.244   3.307   1.440  1.0752  0.9782  0.1405
 5629TIP3   OH241081   0.894   3.013   2.440 -0.0893  0.2394 -0.1768
 5629TIP3    H141082   0.963   3.079   2.446  1.5479 -1.4935  1.3793
 5629TIP3    H241083   0.817   3.054   2.479 -0.0450  2.2520 -2.0284
 5630TIP3   OH241084   4.614   5.795   1.871  0.6169 -0.1709 -0.3054
 5630TIP3    H141085   4.666   5.734   1.923  0.9517  1.3918  1.3069
 5630TIP3    H241086   4.657   5.879   1.884  0.8521  0.2920 -3.3814
 5631TIP3   OH241087   4.904   0.917   2.103 -0.0779 -0.0642 -0.0359
 5631TIP3    H141088   4.912   0.844   2.164 -0.4255  0.2934  0.4449
 5631TIP3    H241089   4.811   0.919   2.080  0.1611 -0.6160 -1.1132
 5632TIP3   OH241090   7.340   1.200   1.583 -0.9228 -0.6679  0.1078
 5632TIP3    H141091   7.303   1.235   1.502 -1.1726  0.2779  0.6172
 5632TIP3    H241092   7.339   1.105   1.571  0.9780 -0.5000 -1.8209
 5633TIP3   OH241093   3.751   0.132   1.390  0.4848  1.0003  0.1075
 5633TIP3    H141094   3.692   0.092   1.328  0.4968  1.2838 -0.0879
 5633TIP3    H241095   3.723   0.099   1.476  0.3508  0.7614 -0.0302
 5634TIP3   OH241096   2.796   7.480   2.403  0.4704  0.1102  0.2675
 5634TIP3    H141097   2.785   7.437   2.318  0.7162 -0.7420  0.6518
 5634TIP3    H241098   2.889   7.468   2.424  0.2298 -0.4747  1.0539
 5635TIP3   OH241099   2.730   6.247   2.120  0.1336 -0.6845  0.1380
 5635TIP3    H141100   2.758   6.316   2.179  0.7548  0.6642 -1.6418
 5635TIP3    H241101   2.787   6.173   2.141  0.7365 -0.0332  0.8216
 5636TIP3   OH241102   1.801   7.602   2.618  0.6754 -0.2780 -0.6991
 5636TIP3    H141103   1.807   7.642   2.532 -0.9221 -0.0850 -0.7561
 5636TIP3    H241104   1.811   7.675   2.679 -1.4654  0.1751 -0.7965
 5637TIP3   OH241105   1.193   3.733   2.378  0.1871 -0.2349  0.2600
 5637TIP3    H141106   1.150   3.725   2.293 -0.5969  1.3758  0.4610
 5637TIP3    H241107   1.265   3.670   2.375 -0.8457 -1.4251 -0.9329
 5638TIP3   OH241108   3.416   0.809   3.265 -0.9476  0.3996 -0.8372
 5638TIP3    H141109   3.451   0.724   3.239  0.4436  0.0292  1.9187
 5638TIP3    H241110   3.375   0.794   3.350 -1.1842  2.3721 -0.5415
 5639TIP3   OH241111   7.505   0.521   0.567  0.2215 -0.4939 -0.0647
 5639TIP3    H141112   7.553   0.445   0.533 -0.7097 -0.7536 -0.8588
 5639TIP3    H241113   7.573   0.584   0.591  0.9548 -0.7261 -1.4425
 5640TIP3   OH241114   1.675   6.855   1.310 -0.1870 -0.3204  0.2248
 5640TIP3    H141115   1.669   6.833   1.403 -1.3101  2.0791  0.7873
 5640TIP3    H241116   1.677   6.770   1.265 -1.6707 -1.5513  2.3193
 5641TIP3   OH241117   1.772   2.463   2.405  0.1080 -0.4344  0.8407
 5641TIP3    H141118   1.720   2.447   2.327  1.3186  0.0555 -0.1073
 5641TIP3    H241119   1.709   2.487   2.473 -0.9320 -0.5438 -0.0706
 5642TIP3   OH241120   1.675   2.750   1.540  0.1562 -0.1822  0.2903
 5642TIP3    H141121   1.616   2.807   1.589  1.1350  0.7537  0.4169
 5642TIP3    H241122   1.640   2.750   1.451  0.0663  0.4946  0.3235
 5643TIP3   OH241123   1.619   7.611   2.129  0.0973 -0.0810 -0.7570
 5643TIP3    H141124   1.621   7.590   2.222 -2.2092  0.2589 -0.5689
 5643TIP3    H241125   1.599   7.528   2.086 -0.1385  0.0047 -0.8166
 5644TIP3   OH241126   3.663   6.921   0.990 -0.0439  0.1617 -0.7111
 5644TIP3    H141127   3.742   6.945   1.039 -1.3566  2.9814  0.2775
 5644TIP3    H241128   3.665   6.826   0.987  3.0450  0.0936 -0.1849
 5645TIP3   OH241129   3.664   4.394   2.923 -0.7531  0.5368  0.0256
 5645TIP3    H141130   3.692   4.422   3.010 -0.8286 -0.4709  0.3870
 5645TIP3    H241131   3.692   4.303   2.917  0.7593  1.0524 -1.6571
 5646TIP3   OH241132   3.646   5.576   1.632 -0.3390 -0.0822  0.4804
 5646TIP3    H141133   3.620   5.624   1.710 -0.5056  0.6466 -0.0114
 5646TIP3    H241134   3.735   5.606   1.613 -0.1188 -0.6098  0.6527
 5647TIP3   OH241135   2.299   4.029   0.789  0.2091 -0.3154  0.1013
 5647TIP3    H141136   2.255   3.945   0.771  1.3444 -0.6280 -1.3098
 5647TIP3    H241137   2.250   4.093   0.738  1.1346 -0.6089 -1.1901
 5648TIP3   OH241138   1.878   6.865   2.068  0.5541 -0.2912  0.0453
 5648TIP3    H141139   1.964   6.827   2.086  1.1930  0.1769 -1.8392
 5648TIP3    H241140   1.820   6.824   2.133  1.9170 -1.6472  0.4641
 5649TIP3   OH241141   5.385   2.781   3.465 -0.6761 -0.2573 -0.0675
 5649TIP3    H141142   5.398   2.869   3.499 -1.7488 -0.5964  1.2945
 5649TIP3    H241143   5.446   2.775   3.391  1.4283  0.7034  1.4639
 5650TIP3   OH241144   6.888   5.997   2.900  0.5140  0.2384  0.3292
 5650TIP3    H141145   6.922   5.963   2.983 -0.1388  1.0760  0.9613
 5650TIP3    H241146   6.956   6.057   2.869  0.3465  0.6439  0.7422
 5651TIP3   OH241147   6.390   2.564   2.322  0.1713 -0.5163  0.4705
 5651TIP3    H141148   6.330   2.636   2.342  1.5790  1.0753 -0.8171
 5651TIP3    H241149   6.426   2.538   2.408  1.1652  1.7144  0.7813
 5652TIP3   OH241150   3.763   0.459   0.907 -0.1493 -0.2338  0.2754
 5652TIP3    H141151   3.840   0.401   0.909  1.2945  1.5936  0.7848
 5652TIP3    H241152   3.761   0.493   0.818 -1.4446 -1.5827 -0.2420
 5653TIP3   OH241153   0.921   7.344   2.864 -0.0246 -0.2027  0.4071
 5653TIP3    H141154   0.988   7.286   2.827  1.5356  2.0227 -0.5251
 5653TIP3    H241155   0.950   7.361   2.953  0.3698  0.3306  0.1809
 5654TIP3   OH241156   7.000   3.509   1.730  0.5529 -0.0219 -0.3232
 5654TIP3    H141157   7.050   3.571   1.676  0.5677 -1.5195 -2.1455
 5654TIP3    H241158   7.056   3.431   1.733  0.7739  0.1580  2.3642
 5655TIP3   OH241159   4.232   7.587   2.091  0.0908 -0.4435  0.2586
 5655TIP3    H141160   4.283   7.544   2.160 -0.7211  0.4580  1.4578
 5655TIP3    H241161   4.236   7.527   2.017  1.6387 -1.0831  0.8198
 5656TIP3   OH241162   1.648   1.989   2.566  0.1635 -0.0538 -0.4628
 5656TIP3    H141163   1.715   2.052   2.543  1.3442 -1.2238 -0.3743
 5656TIP3    H241164   1.635   2.001   2.660 -0.6298  0.9705 -0.6892
 5657TIP3   OH241165   2.968   6.018   1.132  0.2611 -0.4237 -0.2362
 5657TIP3    H141166   3.000   6.064   1.210 -0.0461 -0.1745 -0.2515
 5657TIP3    H241167   3.004   5.930   1.139 -1.3733 -1.0358  1.2371
 5658TIP3   OH241168   5.310   0.466   1.406  0.6349  0.3840  0.1823
 5658TIP3    H141169   5.394   0.512   1.399 -0.0243  1.7842  1.1716
 5658TIP3    H241170   5.274   0.468   1.317  0.7128  1.6167  0.1686
 5659TIP3   OH241171   2.233   5.940   1.698  0.0359  0.1103  0.4369
 5659TIP3    H141172   2.242   6.022   1.746  1.4204 -0.6160  1.5196
 5659TIP3    H241173   2.168   5.890   1.747  0.1604  0.0618  0.5559
 5660TIP3   OH241174   1.768   5.987   1.328 -0.2177  0.1320 -0.4135
 5660TIP3    H141175   1.683   6.030   1.317  0.7117  2.3277  0.4052
 5660TIP3    H241176   1.828   6.038   1.273  1.0365  0.2384  0.9771
 5661TIP3   OH241177   4.983   1.293   1.400  0.1185  0.1785 -0.1429
 5661TIP3    H141178   5.037   1.250   1.333  0.1245 -0.5727  0.3333
 5661TIP3    H241179   4.907   1.235   1.410  0.3707  0.0083  0.8809
 5662TIP3   OH241180   7.128   4.578   3.332  0.4079 -0.1173 -0.0717
 5662TIP3    H141181   7.185   4.505   3.307  0.2276 -0.1028 -0.5347
 5662TIP3    H241182   7.041   4.540   3.335  0.5649 -0.4352  1.8412
 5663TIP3   OH241183   5.938   6.954   1.774  0.4577 -0.0081  0.7211
 5663TIP3    H141184   5.863   6.913   1.731  0.3581  0.0983  0.7930
 5663TIP3    H241185   6.011   6.893   1.758  0.5488  0.2975 -0.0722
 5664TIP3   OH241186   6.522   4.721   2.060  0.4804  0.2826  0.6233
 5664TIP3    H141187   6.504   4.629   2.077 -0.0100  0.8120  3.3683
 5664TIP3    H241188   6.606   4.738   2.103  0.4175  1.2092  0.4093
 5665TIP3   OH241189   0.659   5.031   1.517 -0.0395  0.2460  0.0571
 5665TIP3    H141190   0.570   5.001   1.531  0.0541  0.7161  1.9351
 5665TIP3    H241191   0.714   4.955   1.534  0.0087  0.5147  1.1932
 5666TIP3   OH241192   5.382   6.315   2.946 -0.2423 -0.3833  0.1414
 5666TIP3    H141193   5.318   6.315   3.017  0.9407 -0.5067  1.2481
 5666TIP3    H241194   5.425   6.401   2.953 -1.7525  0.6553 -2.0171
 5667TIP3   OH241195   7.302   2.060   2.162  0.0994 -0.0760 -0.0800
 5667TIP3    H141196   7.307   2.107   2.079  0.9482  1.0682  0.5903
 5667TIP3    H241197   7.386   2.078   2.205 -0.3124 -0.6612  1.0210
 5668TIP3   OH241198   0.714   7.638   0.808  0.1125 -0.1562 -0.1244
 5668TIP3    H141199   0.773   7.700   0.765 -0.5838  1.0882  0.6590
 5668TIP3    H241200   0.662   7.691   0.868  2.4836 -2.0259  3.9746
 5669TIP3   OH241201   2.756   4.391   0.723 -0.3766  0.7727 -0.2338
 5669TIP3    H141202   2.747   4.412   0.816 -1.0361 -0.5740  0.0399
 5669TIP3    H241203   2.699   4.315   0.711 -0.2191  0.8705 -1.7250
 5670TIP3   OH241204   4.404   4.283   2.359 -0.0567 -0.1743  0.4109
 5670TIP3    H141205   4.316   4.312   2.381 -0.5186  0.6720 -2.1500
 5670TIP3    H241206   4.462   4.342   2.407 -0.9282  0.7781  0.3162
 5671TIP3   OH241207   0.534   1.251   0.972 -0.5355  0.0816  0.3078
 5671TIP3    H141208   0.469   1.302   0.923 -0.3548  0.0126 -0.0041
 5671TIP3    H241209   0.562   1.183   0.911  0.1653  0.3820  0.2817
 5672TIP3   OH241210   3.599   0.118   2.193 -0.2493 -0.3706 -0.3542
 5672TIP3    H141211   3.604   0.136   2.099  2.1166  1.2288 -0.0221
 5672TIP3    H241212   3.583   0.203   2.233 -0.8378 -0.9721  0.7272
 5673TIP3   OH241213   5.741   2.060   0.969 -0.2792 -0.1292 -0.3826
 5673TIP3    H141214   5.675   2.012   0.919 -1.1826 -1.4813  1.9467
 5673TIP3    H241215   5.691   2.119   1.026  0.6872  1.0383 -0.6822
 5674TIP3   OH241216   7.518   1.396   1.366  0.1943  0.2688  0.2291
 5674TIP3    H141217   7.518   1.304   1.394 -0.5608 -0.1694 -1.1373
 5674TIP3    H241218   7.479   1.443   1.439 -0.1548 -0.5987  0.6205
 5675TIP3   OH241219   4.919   5.363   2.333 -0.1761  0.5209  0.0119
 5675TIP3    H141220   4.999   5.402   2.369 -0.1515 -0.1200  0.6578
 5675TIP3    H241221   4.860   5.354   2.408  0.3426 -2.0021  0.1977
 5676TIP3   OH241222   3.132   0.483   4.026  0.1102  0.0003  0.3684
 5676TIP3    H141223   3.182   0.562   4.007  0.0024  0.4893  1.9846
 5676TIP3    H241224   3.051   0.514   4.065 -0.9176 -0.8445 -0.9830
 5677TIP3   OH241225   1.991   6.095   1.505 -0.1773 -0.5579 -0.2022
 5677TIP3    H141226   2.072   6.045   1.513 -0.7209 -1.3193  0.7419
 5677TIP3    H241227   1.983   6.112   1.411  0.8543 -0.8365 -0.3526
 5678TIP3   OH241228   4.107   5.910   2.670  0.4000 -0.1338 -0.1766
 5678TIP3    H141229   4.015   5.901   2.697  0.4004  0.6274  0.1013
 5678TIP3    H241230   4.129   5.825   2.632 -0.5458 -0.1776 -0.6429
 5679TIP3   OH241231   3.709   4.644   1.854 -0.3248 -0.1144 -0.8409
 5679TIP3    H141232   3.737   4.696   1.930 -1.7286  1.3172 -1.2376
 5679TIP3    H241233   3.791   4.614   1.814  0.5958  1.9989 -0.7018
 5680TIP3   OH241234   2.935   0.875   1.905  0.3083 -0.0170 -0.2170
 5680TIP3    H141235   2.877   0.834   1.841  0.3111 -1.8529  0.8907
 5680TIP3    H241236   3.023   0.848   1.880  0.4729  0.6730 -0.4143
 5681TIP3   OH241237   7.129   1.012   2.391 -0.1904 -0.0283  0.5048
 5681TIP3    H141238   7.132   0.935   2.335 -1.6916  1.0122 -1.1005
 5681TIP3    H241239   7.152   0.979   2.478 -0.9073 -2.3145 -0.0989
 5682TIP3   OH241240   6.914   3.735   1.100 -0.7217 -0.1423  0.2888
 5682TIP3    H141241   6.845   3.769   1.157 -0.6191  1.0697 -0.2830
 5682TIP3    H241242   6.885   3.758   1.011  0.1620 -0.0857  0.0056
 5683TIP3   OH241243   4.291   4.212   3.561 -0.0678 -0.2568 -0.4913
 5683TIP3    H141244   4.345   4.252   3.630  1.9456 -1.3352 -1.3506
 5683TIP3    H241245   4.262   4.129   3.599 -1.4472  0.4538  0.0786
 5684TIP3   OH241246   7.075   5.987   2.312 -0.3605 -0.1372  0.7728
 5684TIP3    H141247   7.135   6.056   2.338  0.2865 -0.0501 -0.8046
 5684TIP3    H241248   7.032   5.959   2.393  0.6282  0.9138  1.6813
 5685TIP3   OH241249   3.263   2.539   1.804 -0.3953  0.2211  0.1336
 5685TIP3    H141250   3.173   2.556   1.777 -0.4614 -0.1803  0.0870
 5685TIP3    H241251   3.299   2.625   1.827 -0.6864  0.4235 -0.1674
 5686TIP3   OH241252   1.882   5.998   2.568  0.4025  0.1617  0.1718
 5686TIP3    H141253   1.803   5.989   2.514  0.0481  0.1808  0.6851
 5686TIP3    H241254   1.864   5.946   2.646  0.2540  1.4436  1.0153
 5687TIP3   OH241255   0.169   0.769   2.590  0.2012  0.5898  0.2392
 5687TIP3    H141256   0.234   0.757   2.660 -0.8619  1.2154  1.3835
 5687TIP3    H241257   0.100   0.705   2.610 -0.1974  0.8977 -0.1212
 5688TIP3   OH241258   5.373   2.395   1.059  0.1388  0.3023 -0.0913
 5688TIP3    H141259   5.435   2.436   1.119  2.5349 -1.0211 -1.4967
 5688TIP3    H241260   5.387   2.440   0.975  0.3100 -0.9855 -0.7865
 5689TIP3   OH241261   7.184   6.555   3.312  0.0001  0.3276  0.5985
 5689TIP3    H141262   7.209   6.531   3.222  1.0134  0.4749  0.8216
 5689TIP3    H241263   7.265   6.544   3.362 -0.5136  0.4253  1.4605
 5690TIP3   OH241264   0.230   2.453   0.715  0.3653 -0.2814 -0.2267
 5690TIP3    H141265   0.245   2.362   0.687  1.0023 -0.0257 -0.7191
 5690TIP3    H241266   0.316   2.495   0.709 -0.0523  0.5332 -0.6328
 5691TIP3   OH241267   5.324   4.297   3.339  0.1705 -0.0405 -0.2903
 5691TIP3    H141268   5.315   4.377   3.390 -0.4733 -0.3959  0.1635
 5691TIP3    H241269   5.370   4.324   3.259 -1.0251  0.9885 -0.6572
 5692TIP3   OH241270   1.295   2.503   2.146  0.3446  0.0956 -0.5070
 5692TIP3    H141271   1.215   2.455   2.125 -0.6442  1.8083 -0.8385
 5692TIP3    H241272   1.327   2.463   2.226 -0.3047 -1.2486 -0.8869
 5693TIP3   OH241273   7.194   1.819   0.450 -0.4204  0.2730  0.3979
 5693TIP3    H141274   7.148   1.840   0.532  0.4232  0.7610  0.7597
 5693TIP3    H241275   7.186   1.898   0.397 -1.3156 -0.1822 -0.1775
 5694TIP3   OH241276   5.952   6.334   1.653 -0.0178  0.2446  0.5367
 5694TIP3    H141277   5.888   6.321   1.723  1.3740  2.0122  2.2472
 5694TIP3    H241278   6.018   6.392   1.691  1.7747 -0.1999 -1.6767
 5695TIP3   OH241279   2.995   2.136   1.931  0.2757 -0.2338 -0.1291
 5695TIP3    H141280   2.933   2.063   1.929  1.9750 -1.7383 -1.4323
 5695TIP3    H241281   3.046   2.122   2.011  2.1948 -2.0103 -1.5365
 5696TIP3   OH241282   0.666   7.152   1.743  0.2289  0.3099  0.5244
 5696TIP3    H141283   0.687   7.193   1.659 -1.1478 -0.3966 -0.1933
 5696TIP3    H241284   0.590   7.097   1.725  0.4823 -0.5917  2.0332
 5697TIP3   OH241285   4.681   5.989   3.226 -0.0457 -0.7360 -0.2545
 5697TIP3    H141286   4.755   6.020   3.174  1.3582 -1.1476  1.3867
 5697TIP3    H241287   4.604   6.021   3.180  1.1237 -0.5480 -2.2067
 5698TIP3   OH241288   3.369   0.194   2.441  0.4314  0.0405  0.0316
 5698TIP3    H141289   3.448   0.248   2.443  1.0314 -0.7842 -0.2252
 5698TIP3    H241290   3.322   0.215   2.521  0.7955  0.7275  0.0673
 5699TIP3   OH241291   4.603   5.251   2.145  0.2060  0.3997  0.1937
 5699TIP3    H141292   4.698   5.258   2.153  0.0334  3.1075  0.7388
 5699TIP3    H241293   4.569   5.317   2.206 -1.9870  0.4344 -0.9757
 5700TIP3   OH241294   3.930   4.683   1.123  0.5225  0.1535  0.4249
 5700TIP3    H141295   4.024   4.674   1.138  0.4607  0.6024  1.1341
 5700TIP3    H241296   3.890   4.618   1.181  0.2910  1.7695  2.1798
 5701TIP3   OH241297   3.560   5.624   1.919  0.3940  0.2907 -0.2620
 5701TIP3    H141298   3.621   5.569   1.968  1.7702  1.6618 -0.3326
 5701TIP3    H241299   3.601   5.711   1.920 -0.9491  0.9765 -1.4134
 5702TIP3   OH241300   1.818   4.959   1.392 -0.9237  0.3669 -0.1076
 5702TIP3    H141301   1.899   4.927   1.353 -1.1274 -1.2110  0.6714
 5702TIP3    H241302   1.751   4.896   1.363 -1.4928  0.5159  0.8263
 5703TIP3   OH241303   2.353   6.322   2.338  0.3844 -0.5364 -0.5378
 5703TIP3    H141304   2.382   6.297   2.250 -0.5057  1.6540 -1.5304
 5703TIP3    H241305   2.432   6.321   2.390  0.9942 -1.5640 -1.4376
 5704TIP3   OH241306   3.859   2.421   2.368 -0.2324 -0.5520  0.1991
 5704TIP3    H141307   3.952   2.401   2.380 -0.4707 -1.4064  0.7134
 5704TIP3    H241308   3.841   2.489   2.434  0.5985  1.5781 -1.6161
 5705TIP3   OH241309   6.382   2.128   1.076  0.4912  0.1538  0.3875
 5705TIP3    H141310   6.442   2.201   1.060 -1.7122  2.1407  0.7075
 5705TIP3    H241311   6.412   2.090   1.159  0.4297  2.1084  1.3707
 5706TIP3   OH241312   0.260   7.387   1.894  0.1191  0.0486 -0.3497
 5706TIP3    H141313   0.308   7.379   1.811 -0.5145  1.8238 -0.9267
 5706TIP3    H241314   0.294   7.316   1.948  1.2953 -0.5140 -1.7610
 5707TIP3   OH241315   6.471   2.477   1.184  0.5840 -0.2948  0.3774
 5707TIP3    H141316   6.444   2.546   1.123 -0.1701  0.2279  1.2737
 5707TIP3    H241317   6.393   2.461   1.238  1.6142  0.2432  2.1068
 5708TIP3   OH241318   2.403   1.567   4.149  0.1570 -0.1620 -0.4152
 5708TIP3    H141319   2.447   1.641   4.108 -1.1887  0.6542 -0.4471
 5708TIP3    H241320   2.325   1.552   4.095  0.9172 -2.2856 -1.0065
 5709TIP3   OH241321   7.276   4.802   1.531  0.1424  0.2532  0.2233
 5709TIP3    H141322   7.351   4.840   1.486 -0.6129  0.8053 -0.6016
 5709TIP3    H241323   7.205   4.865   1.516 -1.3071 -1.6655 -1.6433
 5710TIP3   OH241324   2.409   3.915   3.437  0.2591 -0.0117 -0.1624
 5710TIP3    H141325   2.465   3.861   3.493 -1.8540 -0.6123  1.5082
 5710TIP3    H241326   2.365   3.852   3.380 -1.4792 -0.0492  1.1289
 5711TIP3   OH241327   6.483   5.184   1.688 -0.5209  0.4553 -0.1773
 5711TIP3    H141328   6.421   5.207   1.757 -0.7073 -1.1597  0.2422
 5711TIP3    H241329   6.432   5.187   1.608 -0.6254  1.0922 -0.0932
 5712TIP3   OH241330   2.148   4.426   2.489  0.2585  0.1363 -0.1008
 5712TIP3    H141331   2.084   4.426   2.560 -0.7530  0.2782 -0.9930
 5712TIP3    H241332   2.223   4.378   2.525  0.2063  1.1278  1.4232
 5713TIP3   OH241333   0.316   2.497   1.449  0.3381  0.2579  0.0376
 5713TIP3    H141334   0.312   2.592   1.443  1.2632  0.2929 -0.1926
 5713TIP3    H241335   0.227   2.470   1.470 -0.0308  1.1415 -0.3702
 5714TIP3   OH241336   1.557   1.304   1.428 -0.3862 -0.7341 -0.6167
 5714TIP3    H141337   1.552   1.252   1.508  2.1068  0.6804  0.5815
 5714TIP3    H241338   1.543   1.394   1.458 -0.1388 -0.2479 -1.9181
 5715TIP3   OH241339   5.742   2.551   0.800 -0.5900  0.0352  0.2531
 5715TIP3    H141340   5.788   2.468   0.813 -0.2369 -0.1501 -1.7782
 5715TIP3    H241341   5.800   2.616   0.838 -0.0382 -0.4915  0.3360
 5716TIP3   OH241342   3.622   2.810   2.944  0.2781  0.0067  0.4632
 5716TIP3    H141343   3.544   2.852   2.980  0.6260  0.0430  1.1846
 5716TIP3    H241344   3.655   2.756   3.015  2.0921  1.5827  0.9047
 5717TIP3   OH241345   1.639   1.639   0.557 -0.2517  0.0216  0.9224
 5717TIP3    H141346   1.683   1.719   0.586 -1.6287  2.0880 -2.2129
 5717TIP3    H241347   1.703   1.594   0.502 -0.4031  0.4123  0.4284
 5718TIP3   OH241348   6.857   0.531   2.448 -0.4054 -0.3589  0.1768
 5718TIP3    H141349   6.844   0.607   2.391 -1.5952 -0.9073 -0.3226
 5718TIP3    H241350   6.768   0.503   2.471 -0.0266 -2.1370 -0.3942
 5719TIP3   OH241351   6.855   4.287   3.119  0.0256  0.3430 -0.0012
 5719TIP3    H141352   6.827   4.373   3.091 -1.6424  0.3096  1.4205
 5719TIP3    H241353   6.874   4.296   3.212  1.3082 -0.4964 -0.1454
 5720TIP3   OH241354   0.207   4.634   1.060 -0.6508  0.3049  0.1097
 5720TIP3    H141355   0.117   4.633   1.092 -0.2434 -0.8853  1.3255
 5720TIP3    H241356   0.208   4.566   0.992 -0.6161  0.1081  0.3036
 5721TIP3   OH241357   7.202   3.442   0.688 -0.2326  0.1867 -0.0179
 5721TIP3    H141358   7.114   3.406   0.680 -0.8552  1.0525  2.1421
 5721TIP3    H241359   7.257   3.367   0.713 -1.0314  0.2252  1.9607
 5722TIP3   OH241360   4.979   0.474   1.528 -0.3155  0.2238 -0.3456
 5722TIP3    H141361   4.957   0.546   1.587  0.2676  0.4712 -0.4184
 5722TIP3    H241362   4.948   0.502   1.442  1.0882  0.9880 -0.6283
 5723TIP3   OH241363   6.769   0.027   0.503  0.0440 -0.0460  0.5094
 5723TIP3    H141364   6.815   0.110   0.491  1.9538 -0.7105  2.4449
 5723TIP3    H241365   6.677   0.047   0.487  0.7333  1.8475 -1.5259
 5724TIP3   OH241366   3.863   3.835   1.747  0.1015 -0.0189  0.8509
 5724TIP3    H141367   3.795   3.893   1.780  0.7803  0.5428  1.2734
 5724TIP3    H241368   3.945   3.872   1.779  0.5974 -0.8290  0.5627
 5725TIP3   OH241369   5.802   3.015   2.677 -0.3367  0.0381 -0.1395
 5725TIP3    H141370   5.818   2.946   2.614 -0.7999 -0.9021  0.7426
 5725TIP3    H241371   5.813   2.973   2.762 -1.4241  0.8396  0.4245
 5726TIP3   OH241372   7.447   1.312   0.859 -0.2751 -0.5793  0.1234
 5726TIP3    H141373   7.534   1.290   0.828  0.2151  0.8851  0.3521
 5726TIP3    H241374   7.438   1.264   0.941  0.1930 -0.9938 -0.0664
 5727TIP3   OH241375   2.869   4.436   2.872  0.1489  0.0619  0.7987
 5727TIP3    H141376   2.820   4.374   2.927  1.7946 -1.3844  0.7096
 5727TIP3    H241377   2.954   4.443   2.914  1.5584 -1.3044 -1.6297
 5728TIP3   OH241378   6.786   5.258   1.128  0.3956 -0.2387  0.6534
 5728TIP3    H141379   6.773   5.353   1.117  3.3849  0.2879  0.7095
 5728TIP3    H241380   6.774   5.242   1.221 -1.0288 -0.1313  0.5117
 5729TIP3   OH241381   1.787   1.006   1.829  0.3212  0.1160 -0.1048
 5729TIP3    H141382   1.760   0.915   1.838 -1.5136  0.5098 -1.1795
 5729TIP3    H241383   1.859   1.004   1.766  0.8629 -0.6601  0.5249
 5730TIP3   OH241384   7.006   4.716   2.967 -0.5902  0.1029  0.0044
 5730TIP3    H141385   6.918   4.701   2.933 -1.4524 -0.4005  2.2615
 5730TIP3    H241386   7.051   4.632   2.955 -1.2812 -0.4532  1.1457
 5731TIP3   OH241387   1.839   5.152   1.604  0.2672 -0.4329 -0.0786
 5731TIP3    H141388   1.848   5.104   1.521 -0.8283 -0.0094 -0.4527
 5731TIP3    H241389   1.868   5.241   1.583 -1.3233  0.0365 -0.3926
 5732TIP3   OH241390   3.315   2.553   0.841  0.2332 -0.5725  0.1574
 5732TIP3    H141391   3.230   2.598   0.849  0.5028  0.1669 -0.9656
 5732TIP3    H241392   3.330   2.517   0.928 -1.1127 -0.4945  0.4569
 5733TIP3   OH241393   0.540   2.746   1.602 -0.4305 -0.0134  0.2043
 5733TIP3    H141394   0.453   2.715   1.577  0.5731 -1.2605 -2.0644
 5733TIP3    H241395   0.550   2.829   1.556 -0.1233 -0.2817 -0.2202
 5734TIP3   OH241396   6.537   1.231   0.553  0.3221  0.4281 -0.2068
 5734TIP3    H141397   6.592   1.243   0.476 -1.3007 -1.9527 -1.8693
 5734TIP3    H241398   6.583   1.164   0.604  0.0338 -0.0415 -0.5517
 5735TIP3   OH241399   0.983   3.250   0.767  0.2076 -0.2015  0.4131
 5735TIP3    H141400   0.962   3.271   0.676  0.0718  0.2950  0.5539
 5735TIP3    H241401   1.017   3.332   0.803  1.3543 -0.6955  0.4985
 5736TIP3   OH241402   6.893   6.907   0.692  1.0102 -0.0824  0.2468
 5736TIP3    H141403   6.800   6.912   0.714  0.9060  2.1085 -0.4435
 5736TIP3    H241404   6.938   6.936   0.771  0.9875  0.6730 -0.0055
 5737TIP3   OH241405   2.806   4.164   2.103  0.1197  0.0536  0.0737
 5737TIP3    H141406   2.833   4.247   2.141  0.0262 -0.2868  0.8923
 5737TIP3    H241407   2.885   4.110   2.105  0.0573 -0.0407 -0.0033
 5738TIP3   OH241408   1.593   6.774   2.841  0.2077 -0.1624  0.3495
 5738TIP3    H141409   1.600   6.762   2.747 -1.6560  0.7276  0.0418
 5738TIP3    H241410   1.682   6.762   2.874  0.7142 -1.5417 -1.3699
 5739TIP3   OH241411   1.430   0.930   0.827 -0.0635  0.2878  0.9821
 5739TIP3    H141412   1.481   0.944   0.747  0.0470  0.0459  1.0104
 5739TIP3    H241413   1.448   1.008   0.880  1.4549 -0.4303  1.6168
 5740TIP3   OH241414   5.857   5.204   1.175  0.2682  0.0908 -0.1980
 5740TIP3    H141415   5.922   5.270   1.150 -1.9476  2.5221  0.0011
 5740TIP3    H241416   5.859   5.141   1.103  2.7926  0.0344 -0.1810
 5741TIP3   OH241417   0.595   2.189   3.414 -0.1371  0.2150  0.3490
 5741TIP3    H141418   0.621   2.123   3.478 -0.7485  0.0849  0.4748
 5741TIP3    H241419   0.542   2.140   3.351 -0.2099  0.4991  0.1887
 5742TIP3   OH241420   5.293   4.742   2.713  0.8195  0.0679  0.3931
 5742TIP3    H141421   5.341   4.793   2.648  3.1459 -0.4954  1.5815
 5742TIP3    H241422   5.235   4.805   2.756  1.9058  1.1968  0.2316
 5743TIP3   OH241423   0.298   6.547   8.261 -0.0896 -0.7876 -0.0377
 5743TIP3    H141424   0.265   6.567   8.174 -0.0307 -0.0167  0.1043
 5743TIP3    H241425   0.393   6.558   8.254 -0.1468  0.0126  0.2951
 5744TIP3   OH241426   1.073   5.514   1.018 -0.4965  0.0477  0.2420
 5744TIP3    H141427   1.078   5.609   1.019  1.4722  0.0983 -2.4185
 5744TIP3    H241428   1.110   5.489   0.933 -2.1804 -3.0440  0.2564
 5745TIP3   OH241429   2.647   0.448   2.406  0.2543  0.3865  0.0394
 5745TIP3    H141430   2.595   0.526   2.390  1.4000  1.3544  0.8030
 5745TIP3    H241431   2.640   0.434   2.501 -0.2331 -0.6753 -0.1338
 5746TIP3   OH241432   6.156   2.323   0.910 -0.0777 -0.3091 -0.3061
 5746TIP3    H141433   6.176   2.235   0.942  1.9020  0.8022  1.7682
 5746TIP3    H241434   6.207   2.331   0.829 -0.4621 -1.1142 -0.6420
 5747TIP3   OH241435   0.276   0.047   2.422  0.4000 -0.4345  0.1096
 5747TIP3    H141436   0.252   0.136   2.445  1.0829 -0.1453 -0.2448
 5747TIP3    H241437   0.318   0.012   2.501  1.4756  0.0775 -0.2101
 5748TIP3   OH241438   7.060   5.809   1.105 -0.1574 -0.1701  0.1203
 5748TIP3    H141439   7.050   5.750   1.031 -2.5593 -1.4466  1.3579
 5748TIP3    H241440   6.996   5.878   1.090 -0.8914 -0.6076  1.1004
 5749TIP3   OH241441   2.450   7.575   1.744 -0.2399  0.0398  0.6654
 5749TIP3    H141442   2.495   7.538   1.669 -0.5241 -0.2607  0.6428
 5749TIP3    H241443   2.444   7.669   1.724 -2.4429 -0.3442 -0.8235
 5750TIP3   OH241444   2.291   1.729   3.182  0.5104  0.4949 -0.9262
 5750TIP3    H141445   2.350   1.698   3.114  3.6310  0.5120  1.5579
 5750TIP3    H241446   2.331   1.810   3.213 -0.1303 -0.1133  1.6942
 5751TIP3   OH241447   0.010   4.688   2.582  0.0142  0.3886 -0.4964
 5751TIP3    H141448  -0.018   4.668   2.672 -0.4427  0.6215 -0.5850
 5751TIP3    H241449   0.077   4.756   2.593  0.7300 -0.3409 -0.2677
 5752TIP3   OH241450   1.463   6.122   2.180  0.5210  0.0597  0.0543
 5752TIP3    H141451   1.452   6.028   2.196  2.1180 -0.5966 -2.1978
 5752TIP3    H241452   1.379   6.150   2.145 -0.9336  0.1968  3.2840
 5753TIP3   OH241453   2.086   0.703   2.740  0.3638 -0.0461 -0.3247
 5753TIP3    H141454   2.012   0.713   2.680  0.0434  0.0161  0.0747
 5753TIP3    H241455   2.101   0.608   2.743 -0.1855 -0.1189  0.1707
 5754TIP3   OH241456   1.297   5.846   2.251 -0.2024 -0.0616  0.2453
 5754TIP3    H141457   1.264   5.819   2.165  0.2314  1.9505 -0.6055
 5754TIP3    H241458   1.307   5.765   2.300 -0.5301 -1.2472 -1.5846
 5755TIP3   OH241459   6.618   1.244   0.949  0.3236  0.0290  0.4087
 5755TIP3    H141460   6.623   1.180   0.877 -0.7731 -0.3976  0.7068
 5755TIP3    H241461   6.615   1.191   1.028 -1.1882  0.4123  0.6353
 5756TIP3   OH241462   4.670   1.818   2.785 -0.7813 -0.1448 -0.1049
 5756TIP3    H141463   4.683   1.759   2.860 -0.4709 -1.3363 -1.0592
 5756TIP3    H241464   4.754   1.862   2.775 -0.5539 -0.5951 -0.2382
 5757TIP3   OH241465   4.722   4.066   0.987  0.2579 -0.3453 -0.3751
 5757TIP3    H141466   4.797   4.116   1.020 -0.5160 -0.3743  1.5869
 5757TIP3    H241467   4.652   4.087   1.049 -0.6472 -2.2613 -0.7021
 5758TIP3   OH241468   7.475   3.225   2.294  0.0516 -0.3802 -0.6093
 5758TIP3    H141469   7.402   3.166   2.275  0.7125 -0.8182 -1.9627
 5758TIP3    H241470   7.446   3.311   2.262 -1.5703  0.5245  2.8392
 5759TIP3   OH241471   1.361   2.733   1.612 -0.2919 -0.7027  0.5109
 5759TIP3    H141472   1.406   2.655   1.579 -0.3087 -0.7856  0.6839
 5759TIP3    H241473   1.274   2.729   1.574 -0.5934 -1.2478  1.2416
 5760TIP3   OH241474   0.054   0.136   0.734 -0.3513 -0.4363 -0.1184
 5760TIP3    H141475   0.129   0.077   0.721  1.5040  1.8492 -0.4243
 5760TIP3    H241476   0.045   0.143   0.829 -1.2029 -1.8792 -0.0649
 5761TIP3   OH241477   0.275   4.315   1.371 -0.0541  0.0318  0.5918
 5761TIP3    H141478   0.307   4.231   1.340  0.7753  0.6959 -0.4484
 5761TIP3    H241479   0.187   4.297   1.405 -0.3950 -1.0401 -0.7609
 5762TIP3   OH241480   3.094   6.071   0.663 -0.2177 -0.2407  0.3626
 5762TIP3    H141481   3.107   6.161   0.635  0.3613 -0.5296 -0.3269
 5762TIP3    H241482   3.053   6.079   0.749 -0.7844  0.6660  0.0250
 5763TIP3   OH241483   4.566   3.594   3.469  0.0472  0.5516 -0.5983
 5763TIP3    H141484   4.654   3.631   3.476  0.5771 -0.7257  0.0069
 5763TIP3    H241485   4.520   3.626   3.547  1.1266 -1.5310  1.0043
 5764TIP3   OH241486   2.022   6.689   3.194 -0.0363 -0.3256 -0.0670
 5764TIP3    H141487   2.071   6.674   3.274  0.4733  0.7173 -0.1608
 5764TIP3    H241488   1.932   6.703   3.223  0.5945  2.9978  0.7024
 5765TIP3   OH241489   7.004   1.679   3.033  0.0446  0.4529  0.4502
 5765TIP3    H141490   7.100   1.681   3.029 -0.0060  0.6428 -1.2105
 5765TIP3    H241491   6.984   1.688   3.127  1.6722 -1.2264  1.0139
 5766TIP3   OH241492   6.736   1.899   1.624  0.1932 -0.0858  0.1877
 5766TIP3    H141493   6.686   1.980   1.630 -0.0562 -0.0173 -2.1511
 5766TIP3    H241494   6.673   1.831   1.650 -0.3785  0.2276 -0.3554
 5767TIP3   OH241495   2.393   6.673   2.874 -0.0046 -0.0787  0.1891
 5767TIP3    H141496   2.422   6.763   2.885  1.4066 -0.1507 -2.2390
 5767TIP3    H241497   2.301   6.674   2.900 -0.0661  2.0988  0.0379
 5768TIP3   OH241498   0.998   3.586   2.577  0.3716 -0.0332  0.2147
 5768TIP3    H141499   1.045   3.629   2.506 -1.3339  1.0752 -0.3189
 5768TIP3    H241500   1.044   3.614   2.656  0.4788  1.2199 -0.2622
 5769TIP3   OH241501   7.190   5.765   1.747 -0.0457  0.1415  0.2140
 5769TIP3    H141502   7.274   5.723   1.733  0.8912  0.7729  3.2558
 5769TIP3    H241503   7.145   5.709   1.810 -1.6379  0.2216 -0.7866
 5770TIP3   OH241504   7.452   0.050   1.638 -0.3433  0.5155 -0.1113
 5770TIP3    H141505   7.489   0.022   1.722 -1.3593 -1.6822 -0.3487
 5770TIP3    H241506   7.367   0.007   1.634 -1.0071  1.8656 -1.5930
 5771TIP3   OH241507   4.952   3.965   1.962 -0.2363  0.1049  0.3940
 5771TIP3    H141508   5.030   3.910   1.959  0.3797  0.8971  1.3985
 5771TIP3    H241509   4.897   3.925   2.030 -1.3074 -1.1727 -1.1365
 5772TIP3   OH241510   4.836   6.215   2.833 -0.3509 -0.2685  0.4655
 5772TIP3    H141511   4.846   6.199   2.927 -0.7649 -1.7616  0.2762
 5772TIP3    H241512   4.742   6.228   2.821 -0.2027  0.7862  0.3681
 5773TIP3   OH241513   3.016   6.096   2.781 -0.3518 -0.1038 -0.1998
 5773TIP3    H141514   3.107   6.103   2.752 -0.0206 -3.8727 -0.5065
 5773TIP3    H241515   2.966   6.142   2.714  1.1433 -0.2971 -1.5146
 5774TIP3   OH241516   0.345   6.001   1.824  0.5637  0.5690 -0.4477
 5774TIP3    H141517   0.404   5.946   1.876 -0.7327  1.4381  2.1149
 5774TIP3    H241518   0.382   5.999   1.736  2.9031 -1.0001  0.4700
 5775TIP3   OH241519   6.219   5.175   3.282 -0.1900 -0.1903  0.5650
 5775TIP3    H141520   6.205   5.242   3.215  0.8061  0.3950  0.9099
 5775TIP3    H241521   6.309   5.145   3.266 -0.4675 -1.1232  0.7061
 5776TIP3   OH241522   3.633   0.854   2.293  1.2182  0.0647  0.0988
 5776TIP3    H141523   3.655   0.892   2.208 -2.5996  1.1104 -0.5851
 5776TIP3    H241524   3.650   0.925   2.355  2.3498 -0.1190  0.0209
 5777TIP3   OH241525   4.856   4.652   2.393 -0.1159  0.4759  0.4480
 5777TIP3    H141526   4.788   4.717   2.377  0.6516  1.2861  0.3748
 5777TIP3    H241527   4.918   4.664   2.321  0.9901  0.9786  1.4319
 5778TIP3   OH241528   2.902   7.010   0.703  0.1499  0.0266  0.1825
 5778TIP3    H141529   2.900   7.007   0.799 -0.9583  1.4989  0.2403
 5778TIP3    H241530   2.810   7.012   0.677  0.4483  0.2157 -0.8892
 5779TIP3   OH241531   2.356   5.109   0.884  0.1012 -0.0573 -0.3341
 5779TIP3    H141532   2.443   5.118   0.922  1.0893 -0.1409 -2.4646
 5779TIP3    H241533   2.347   5.015   0.867 -1.1026 -0.2955  1.3227
 5780TIP3   OH241534   0.350   4.071   1.253 -0.0531 -0.4540 -0.3637
 5780TIP3    H141535   0.337   4.006   1.184  0.9985 -1.0125 -0.0507
 5780TIP3    H241536   0.387   4.022   1.326  0.3801  0.4205  0.0233
 5781TIP3   OH241537   4.461   2.106   1.324 -0.1485 -0.4260  0.4792
 5781TIP3    H141538   4.407   2.184   1.311 -1.0451 -1.2721 -1.0642
 5781TIP3    H241539   4.399   2.034   1.330  0.7092 -1.1330  1.1214
 5782TIP3   OH241540   6.098   5.845   1.598 -0.7442 -0.3033 -0.1588
 5782TIP3    H141541   6.124   5.894   1.676 -1.9449 -2.4242  1.6893
 5782TIP3    H241542   6.172   5.854   1.538  0.5461  0.7827  1.4954
 5783TIP3   OH241543   3.052   2.279   1.396 -0.2096  0.2203  0.4445
 5783TIP3    H141544   3.023   2.281   1.487 -0.7273  0.9058  0.2718
 5783TIP3    H241545   3.147   2.295   1.401 -0.1534 -0.2464  0.8940
 5784TIP3   OH241546   0.934   2.473   2.709 -0.4052 -0.8104 -0.1631
 5784TIP3    H141547   0.971   2.508   2.790  0.9241  0.4304 -1.2434
 5784TIP3    H241548   1.010   2.452   2.655 -1.2545 -0.2063 -1.6495
 5785TIP3   OH241549   5.352   0.797   1.481 -0.1306 -0.3029 -0.5666
 5785TIP3    H141550   5.411   0.740   1.432  0.0095 -0.4216 -0.2618
 5785TIP3    H241551   5.320   0.860   1.416 -1.9771 -1.9974 -1.4060
 5786TIP3   OH241552   4.912   3.590   0.751  0.2127  0.7286 -0.2574
 5786TIP3    H141553   4.917   3.686   0.758  0.7284  0.8652 -1.9262
 5786TIP3    H241554   4.864   3.562   0.829 -0.5755  2.4070 -0.0984
 5787TIP3   OH241555   3.275   5.683   0.913  0.5495 -0.0908 -0.9200
 5787TIP3    H141556   3.345   5.735   0.953 -0.6591  0.5297  0.4687
 5787TIP3    H241557   3.263   5.721   0.826  0.9624  0.7033 -0.6365
 5788TIP3   OH241558   4.032   5.838   1.114 -0.0694 -0.5847 -0.2269
 5788TIP3    H141559   4.002   5.791   1.035 -1.0390 -2.2718  1.0812
 5788TIP3    H241560   4.127   5.832   1.110 -0.1502 -2.7328 -0.1384
 5789TIP3   OH241561   1.158   7.597   1.307  0.3451 -0.0904  0.4154
 5789TIP3    H141562   1.067   7.611   1.281  0.4990 -0.6959 -0.4890
 5789TIP3    H241563   1.156   7.518   1.361  0.8470 -2.9904 -3.3439
 5790TIP3   OH241564   1.430   3.598   2.374 -0.1693 -0.0731 -0.5820
 5790TIP3    H141565   1.469   3.683   2.395  0.8359 -0.6138 -0.1888
 5790TIP3    H241566   1.477   3.535   2.430 -1.9998 -0.7023  0.3562
 5791TIP3   OH241567   3.017   0.468   0.362 -0.1597 -0.2657  0.4871
 5791TIP3    H141568   3.024   0.460   0.267 -0.7306 -0.8628  0.4901
 5791TIP3    H241569   3.015   0.562   0.378 -1.2496 -0.1602 -0.1941
 5792TIP3   OH241570   3.009   2.257   1.675  0.1182  0.1180 -0.4757
 5792TIP3    H141571   3.058   2.259   1.757  1.6122  1.3312 -1.3721
 5792TIP3    H241572   2.986   2.164   1.664 -1.3606  0.1015  1.9817
 5793TIP3   OH241573   0.231   6.544   1.639  0.1879 -0.0121 -0.3185
 5793TIP3    H141574   0.247   6.498   1.722 -2.1842  1.0809  0.8643
 5793TIP3    H241575   0.251   6.479   1.571  1.5675 -1.1583  1.1146
 5794TIP3   OH241576   0.702   5.604   3.243  0.7194  0.3422  0.5979
 5794TIP3    H141577   0.706   5.608   3.148 -0.3097 -2.6190  0.3087
 5794TIP3    H241578   0.676   5.692   3.270 -2.2754  0.4907 -2.1271
 5795TIP3   OH241579   6.558   6.367   1.125  0.2158  0.0401 -0.1635
 5795TIP3    H141580   6.575   6.275   1.106 -0.9169 -0.2049 -0.0800
 5795TIP3    H241581   6.644   6.407   1.129  0.7161 -0.9738 -0.4199
 5796TIP3   OH241582   2.593   6.320   2.516 -0.3231  0.1983  0.1026
 5796TIP3    H141583   2.681   6.286   2.532 -1.3320 -2.3012  0.7255
 5796TIP3    H241584   2.550   6.319   2.601 -1.1541  0.8375 -0.2893
 5797TIP3   OH241585   0.226   2.022   2.146 -0.0911  0.0517 -0.1262
 5797TIP3    H141586   0.282   1.947   2.167  0.3029 -0.5548 -2.9385
 5797TIP3    H241587   0.286   2.089   2.112 -0.6067  1.1403  1.0243
 5798TIP3   OH241588   2.808   3.333   1.558  0.1296  0.7021  0.0349
 5798TIP3    H141589   2.742   3.401   1.564 -1.1852 -0.6219  1.9030
 5798TIP3    H241590   2.881   3.365   1.612  0.3382  1.4519 -0.6855
 5799TIP3   OH241591   6.910   7.129   1.757  0.0977  0.1603 -0.1166
 5799TIP3    H141592   6.861   7.111   1.838 -0.5475  0.7268 -0.3719
 5799TIP3    H241593   7.001   7.135   1.785  0.1186 -1.4364  0.2927
 5800TIP3   OH241594   6.355   2.742   2.018 -0.5874 -0.6160  0.3980
 5800TIP3    H141595   6.285   2.765   1.958 -1.4386 -1.3269  1.1054
 5800TIP3    H241596   6.431   2.725   1.962 -1.5409 -1.9260 -0.5389
 5801TIP3   OH241597   7.230   2.650   2.749 -0.2189  0.0541  0.0119
 5801TIP3    H141598   7.175   2.648   2.671  0.8463 -1.6741 -0.7337
 5801TIP3    H241599   7.242   2.558   2.773  0.4628  0.5016  1.5029
 5802TIP3   OH241600   5.947   5.831   2.949 -0.3873 -0.0050  0.2240
 5802TIP3    H141601   5.948   5.739   2.974  0.5625 -0.8002 -2.4258
 5802TIP3    H241602   5.885   5.837   2.877 -1.0069  1.6051  0.8333
 5803TIP3   OH241603   3.795   4.720   2.299  0.5133  0.2078  0.1583
 5803TIP3    H141604   3.755   4.668   2.230  1.1631 -1.4333  0.9746
 5803TIP3    H241605   3.874   4.672   2.323  1.4339  1.8618  0.5858
 5804TIP3   OH241606   2.205   1.095   1.351  0.1719  0.1492  0.0730
 5804TIP3    H141607   2.278   1.066   1.297  0.0796  2.7025 -1.5848
 5804TIP3    H241608   2.233   1.077   1.441  1.3855 -1.9403 -0.6674
 5805TIP3   OH241609   7.344   2.105   1.354 -0.2266 -0.9430 -0.0862
 5805TIP3    H141610   7.409   2.155   1.404  0.5471 -1.4711 -0.5407
 5805TIP3    H241611   7.381   2.017   1.349  0.3815 -0.6279 -2.6660
 5806TIP3   OH241612   1.702   3.035   0.799 -0.1473 -0.5038 -0.3263
 5806TIP3    H141613   1.731   2.972   0.865  0.0946 -0.6958 -0.6139
 5806TIP3    H241614   1.655   3.103   0.849  1.5598  0.2941  0.2594
 5807TIP3   OH241615   6.141   0.363   1.732 -0.1893  0.0062  0.0515
 5807TIP3    H141616   6.208   0.317   1.783 -1.1872 -0.3769  1.0511
 5807TIP3    H241617   6.183   0.445   1.707  0.2615  0.3342  1.7532
 5808TIP3   OH241618   4.196   6.866   1.334 -0.0251  0.0330  0.2136
 5808TIP3    H141619   4.234   6.802   1.394 -1.0620 -1.7859 -0.9440
 5808TIP3    H241620   4.250   6.944   1.344  1.7990 -1.2716  1.1524
 5809TIP3   OH241621   2.238   7.138   1.931  0.2037 -0.4790 -0.4879
 5809TIP3    H141622   2.197   7.121   2.016 -0.1406  1.5692 -0.1739
 5809TIP3    H241623   2.180   7.095   1.868 -0.6409 -0.3731  0.1880
 5810TIP3   OH241624   3.277   6.052   2.718  0.1422  0.0549  0.1781
 5810TIP3    H141625   3.260   5.958   2.713 -0.1340  0.0976  0.2842
 5810TIP3    H241626   3.369   6.061   2.695  0.4046 -0.3313  1.0222
 5811TIP3   OH241627   7.565   3.215   0.991  0.0829  0.8828  0.7964
 5811TIP3    H141628   7.552   3.181   0.903  1.5740  0.3957  0.7403
 5811TIP3    H241629   7.656   3.244   0.993 -0.3527  2.2947  1.7272
 5812TIP3   OH241630   6.089   0.450   0.903 -0.6565 -0.5450  0.3858
 5812TIP3    H141631   6.169   0.446   0.956 -0.3537 -0.1807 -0.0347
 5812TIP3    H241632   6.090   0.368   0.853 -0.7675 -0.7355  0.6952
 5813TIP3   OH241633   1.026   7.299   1.099 -0.9417  0.1225  0.7774
 5813TIP3    H141634   1.028   7.371   1.036 -1.2548  1.4256  2.2059
 5813TIP3    H241635   0.966   7.235   1.060 -0.7745  0.6765 -0.4491
 5814TIP3   OH241636   4.175   3.273   2.490  0.1336  0.1578  0.5002
 5814TIP3    H141637   4.088   3.236   2.482  0.2290 -0.3054  1.3911
 5814TIP3    H241638   4.224   3.208   2.541  1.2343  0.0260 -0.6781
 5815TIP3   OH241639   4.913   1.432   1.623 -0.0702  0.0555  0.2961
 5815TIP3    H141640   4.881   1.512   1.581 -1.1443 -0.2988  0.3941
 5815TIP3    H241641   4.923   1.370   1.552 -2.0311 -0.5902  0.5226
 5816TIP3   OH241642   6.534   0.887   1.438  0.2298  0.0458  0.1046
 5816TIP3    H141643   6.586   0.917   1.513 -0.7049 -3.8768  2.6136
 5816TIP3    H241644   6.594   0.830   1.390 -0.0633  0.1416 -0.3771
 5817TIP3   OH241645   4.772   0.825   1.146  0.5066 -0.1629  0.2261
 5817TIP3    H141646   4.789   0.913   1.181  0.1813 -0.3571  0.8806
 5817TIP3    H241647   4.680   0.809   1.165  0.2914 -0.2287 -0.8390
 5818TIP3   OH241648   1.041   3.325   2.791 -0.2229  0.1302  0.0723
 5818TIP3    H141649   1.051   3.337   2.885 -1.2890 -0.2417  0.2440
 5818TIP3    H241650   0.972   3.387   2.766 -1.8029 -1.5601  0.0147
 5819TIP3   OH241651   4.065   2.552   1.416  0.4764 -0.0138  0.5536
 5819TIP3    H141652   4.100   2.628   1.368 -1.1276 -0.4632 -1.4788
 5819TIP3    H241653   4.020   2.590   1.491 -0.2542  1.0975 -0.3975
 5820TIP3   OH241654   1.038   7.630   1.789  0.0576  1.0312 -0.3561
 5820TIP3    H141655   1.044   7.534   1.790  0.9734  1.0787  0.6499
 5820TIP3    H241656   1.121   7.659   1.827 -1.0547  2.1644  1.3437
 5821TIP3   OH241657   6.285   5.455   2.204 -0.2468  0.9752  0.5390
 5821TIP3    H141658   6.317   5.371   2.172 -0.9989  1.5069 -1.8217
 5821TIP3    H241659   6.349   5.481   2.270  1.7964  0.0096 -0.9390
 5822TIP3   OH241660   7.203   4.199   2.974  0.1010 -0.2693 -0.2276
 5822TIP3    H141661   7.290   4.170   2.946  0.3850 -1.9909  2.1384
 5822TIP3    H241662   7.219   4.251   3.053 -0.8532  2.2215 -1.5500
 5823TIP3   OH241663   5.341   4.378   2.609 -0.2783  0.3009  0.3485
 5823TIP3    H141664   5.283   4.451   2.585 -0.5342  0.2543  0.7978
 5823TIP3    H241665   5.294   4.300   2.582 -0.0313  0.2952 -0.0769
 5824TIP3   OH241666   2.703   3.310   2.492 -0.1165 -0.3322 -0.4562
 5824TIP3    H141667   2.705   3.272   2.580 -0.8194 -1.2046 -0.7946
 5824TIP3    H241668   2.742   3.243   2.436 -1.3900 -0.6056 -1.0664
 5825TIP3   OH241669   2.320   2.219   0.960 -0.2036 -0.4834 -0.1910
 5825TIP3    H141670   2.327   2.314   0.961  1.9923 -0.5683  1.4226
 5825TIP3    H241671   2.360   2.193   0.878 -1.4216 -0.0227 -0.9533
 5826TIP3   OH241672   0.944   7.507   0.958  0.0317  0.0783  0.6620
 5826TIP3    H141673   0.857   7.522   0.922 -0.7148  0.6056  2.5407
 5826TIP3    H241674   0.964   7.588   1.006  0.9705 -0.5662  1.3952
 5827TIP3   OH241675   3.075   4.033   2.083  0.6593  0.5734 -0.0468
 5827TIP3    H141676   3.116   3.947   2.088 -1.5061 -0.4829  0.7824
 5827TIP3    H241677   3.089   4.072   2.170 -0.0730  0.1912  0.2534
 5828TIP3   OH241678   2.767   3.003   2.892  0.0676  0.0400  0.6091
 5828TIP3    H141679   2.772   2.949   2.971 -2.3439 -2.5642 -0.8203
 5828TIP3    H241680   2.852   2.992   2.851  0.9600  0.4997  2.2419
 5829TIP3   OH241681   2.177   3.792   1.588 -0.1817 -0.4082 -0.1896
 5829TIP3    H141682   2.200   3.883   1.574 -1.7345 -0.0069 -0.3459
 5829TIP3    H241683   2.114   3.794   1.661 -0.6635 -1.2712 -0.5607
 5830TIP3   OH241684   2.908   2.449   0.478  0.2170  0.2934  0.6305
 5830TIP3    H141685   2.953   2.527   0.446 -0.0539  0.3698  0.4261
 5830TIP3    H241686   2.826   2.483   0.514  0.6382  0.2391  1.6566
 5831TIP3   OH241687   0.100   4.366   1.954 -0.3953  0.5341 -0.1896
 5831TIP3    H141688   0.191   4.394   1.940  0.8193 -1.0252  3.2743
 5831TIP3    H241689   0.075   4.408   2.037 -2.0474 -0.7180 -0.0023
 5832TIP3   OH241690   0.576   5.492   0.660 -0.4680 -0.1499  0.3978
 5832TIP3    H141691   0.572   5.435   0.736  1.3189 -0.3355  0.3900
 5832TIP3    H241692   0.594   5.579   0.696  0.1527 -0.1972  0.2176
 5833TIP3   OH241693   2.469   1.256   2.092  0.0323 -0.2105 -0.1511
 5833TIP3    H141694   2.560   1.241   2.066 -0.3153 -2.1372 -0.4344
 5833TIP3    H241695   2.445   1.178   2.143 -0.9759  1.0114  1.3339
 5834TIP3   OH241696   5.776   2.842   1.443  0.1824 -0.0565 -0.0322
 5834TIP3    H141697   5.687   2.815   1.465  0.3558  0.2169  1.0430
 5834TIP3    H241698   5.831   2.799   1.508  0.5869  1.8025  0.9193
 5835TIP3   OH241699   4.484   5.495   1.863 -0.9125 -0.5597  0.0335
 5835TIP3    H141700   4.496   5.404   1.890 -1.5963 -0.3646  1.0572
 5835TIP3    H241701   4.571   5.534   1.872 -0.9080 -0.7589  1.0288
 5836TIP3   OH241702   1.388   0.261   1.106 -0.0334  0.3975 -0.2183
 5836TIP3    H141703   1.405   0.271   1.012  0.0302 -0.6314 -0.3182
 5836TIP3    H241704   1.400   0.168   1.124 -0.7323  0.4609  0.6787
 5837TIP3   OH241705   6.580   7.313   0.846 -0.0334 -0.0759 -0.3070
 5837TIP3    H141706   6.614   7.389   0.800 -0.0161 -0.0367 -0.2299
 5837TIP3    H241707   6.584   7.242   0.782 -2.4199  0.5309 -1.2436
 5838TIP3   OH241708   0.955   4.510   2.178  0.2488 -0.6945 -0.6132
 5838TIP3    H141709   0.948   4.424   2.136  2.2973 -1.3240  0.1783
 5838TIP3    H241710   0.950   4.491   2.272  0.5647  0.0583 -0.4356
 5839TIP3   OH241711   1.683   5.408   1.023 -0.2916 -0.1494  0.5769
 5839TIP3    H141712   1.628   5.487   1.019  0.4917  0.4148  0.6294
 5839TIP3    H241713   1.657   5.364   1.103 -1.9735 -0.8882 -0.3254
 5840TIP3   OH241714   6.271   6.180   1.068 -0.4028  0.1609 -0.6551
 5840TIP3    H141715   6.270   6.178   0.973 -1.2285 -0.6993 -0.6464
 5840TIP3    H241716   6.191   6.133   1.094  0.6761 -1.1556  0.4590
 5841TIP3   OH241717   6.738   7.093   1.478  0.5613  0.2549 -0.0986
 5841TIP3    H141718   6.742   7.173   1.530 -0.5020  0.4889 -0.3613
 5841TIP3    H241719   6.752   7.022   1.541  4.0150  0.6695 -0.1934
 5842TIP3   OH241720   6.072   1.740   2.606 -0.1660  0.1621 -0.4699
 5842TIP3    H141721   6.012   1.715   2.676  0.6689  0.4890  0.3772
 5842TIP3    H241722   6.158   1.745   2.648  0.2435  1.0063 -1.3709
 5843TIP3   OH241723   4.897   5.572   0.994  0.5440  0.3626 -0.2251
 5843TIP3    H141724   4.978   5.617   1.019 -0.0811  1.4062  0.0006
 5843TIP3    H241725   4.834   5.643   0.978  0.3399 -0.3020 -2.8791
 5844TIP3   OH241726   3.969   7.631   1.305 -0.2726 -0.1915 -0.2001
 5844TIP3    H141727   3.959   7.649   1.211 -0.8333 -0.4165 -0.1843
 5844TIP3    H241728   3.900   7.683   1.347  1.5850  2.0280  0.3372
 5845TIP3   OH241729   6.326   0.160   1.587  0.2433  0.4223  0.1766
 5845TIP3    H141730   6.346   0.066   1.585 -0.6804  0.2217 -0.3951
 5845TIP3    H241731   6.302   0.181   1.497 -0.4546  1.0021  0.4920
 5846TIP3   OH241732   3.740   0.506   1.563  0.3105  0.0259  0.0772
 5846TIP3    H141733   3.668   0.479   1.506 -0.0961  0.4782  0.3699
 5846TIP3    H241734   3.783   0.578   1.517 -0.5844  1.0136  0.7334
 5847TIP3   OH241735   7.306   2.960   1.144  0.3373 -0.6314 -0.1344
 5847TIP3    H141736   7.312   2.897   1.071 -0.9780 -1.1564  0.1805
 5847TIP3    H241737   7.273   3.040   1.103 -1.1565 -1.1587 -0.0247
 5848TIP3   OH241738   4.061   2.819   0.771  0.2400  0.6296  0.1217
 5848TIP3    H141739   4.002   2.892   0.749 -0.1751  0.7855  1.6496
 5848TIP3    H241740   4.031   2.747   0.715 -0.2596  1.2118 -0.3837
 5849TIP3   OH241741   1.189   3.392   3.189 -0.1166  0.1132 -0.0202
 5849TIP3    H141742   1.211   3.453   3.119  4.3438 -0.1935  0.8089
 5849TIP3    H241743   1.190   3.446   3.269  0.8036 -0.4665  0.3809
 5850TIP3   OH241744   5.139   6.644   0.937  0.1254 -0.0425  0.7191
 5850TIP3    H141745   5.232   6.656   0.919 -0.1366  0.1862 -0.5647
 5850TIP3    H241746   5.101   6.731   0.928 -0.4566 -0.3862 -0.3804
 5851TIP3   OH241747   1.878   6.566   1.646 -0.4946 -0.4770  0.2290
 5851TIP3    H141748   1.787   6.540   1.634 -0.1983 -0.7581 -1.6361
 5851TIP3    H241749   1.899   6.538   1.735 -1.9827 -1.1378  0.4026
 5852TIP3   OH241750   0.267   0.279   2.262 -0.3484 -0.3942  0.2915
 5852TIP3    H141751   0.234   0.196   2.229  0.1582 -1.2844  1.8822
 5852TIP3    H241752   0.205   0.303   2.332 -0.0863  0.1873  0.3292
 5853TIP3   OH241753   4.324   3.994   0.959 -0.0733 -0.4922 -0.1133
 5853TIP3    H141754   4.301   3.951   1.042 -2.0353  0.9412  0.1780
 5853TIP3    H241755   4.311   3.926   0.893  0.1059 -1.2640  0.6156
 5854TIP3   OH241756   1.904   6.124   1.786 -0.0723  0.4500 -0.4861
 5854TIP3    H141757   1.986   6.131   1.834 -0.2024 -0.5702 -0.0919
 5854TIP3    H241758   1.930   6.097   1.698 -0.0288 -1.0082 -0.0568
 5855TIP3   OH241759   6.210   6.216   2.305  0.1637 -0.0033 -0.1903
 5855TIP3    H141760   6.290   6.260   2.335 -0.8087  1.5549  0.2386
 5855TIP3    H241761   6.228   6.122   2.317  1.1010  0.3978  2.0768
 5856TIP3   OH241762   7.671   2.697   1.449 -0.9449 -0.3146  0.6593
 5856TIP3    H141763   7.625   2.774   1.416 -1.3736 -0.8203  0.0471
 5856TIP3    H241764   7.628   2.676   1.532 -1.7260 -0.6822  0.1744
 5857TIP3   OH241765   0.111   3.551   3.770  0.1470  0.1644 -0.5220
 5857TIP3    H141766   0.167   3.492   3.821 -0.9362  1.1736  2.0280
 5857TIP3    H241767   0.022   3.522   3.788 -0.3609  1.8463 -0.1083
 5858TIP3   OH241768   4.919   4.868   3.311  0.4819 -0.4280 -0.1044
 5858TIP3    H141769   4.987   4.897   3.372  0.8770  0.4782 -0.9441
 5858TIP3    H241770   4.961   4.873   3.225 -0.3106 -0.9147 -0.5288
 5859TIP3   OH241771   6.271   0.694   1.978 -0.6673 -0.3995 -0.2432
 5859TIP3    H141772   6.280   0.644   1.897  0.8086  1.5580 -1.3682
 5859TIP3    H241773   6.187   0.666   2.014 -0.7782 -2.2473 -1.7627
 5860TIP3   OH241774   5.189   0.929   2.221 -0.2556  0.3173  0.4259
 5860TIP3    H141775   5.218   0.846   2.185 -1.1854  0.6107 -1.0872
 5860TIP3    H241776   5.228   0.933   2.309  1.2403 -0.8859 -0.1585
 5861TIP3   OH241777   7.504   5.564   2.484 -0.0700 -0.6324 -0.3119
 5861TIP3    H141778   7.540   5.552   2.572 -0.8697 -0.4889  0.0526
 5861TIP3    H241779   7.577   5.549   2.425  0.4354 -0.9194  0.3765
 5862TIP3   OH241780   4.750   4.970   0.991 -0.0045  0.1596 -0.2900
 5862TIP3    H141781   4.804   5.038   0.951 -1.1535  1.8374  0.8631
 5862TIP3    H241782   4.674   5.017   1.026 -0.7401 -1.6907  0.7654
 5863TIP3   OH241783   2.750   4.640   2.164  0.3401  0.1276 -0.4396
 5863TIP3    H141784   2.806   4.666   2.091  2.1275 -0.2374  0.7399
 5863TIP3    H241785   2.810   4.630   2.238 -1.6310  2.4259  1.6311
 5864TIP3   OH241786   1.431   3.268   0.631 -0.4002 -0.8690 -0.1127
 5864TIP3    H141787   1.414   3.353   0.672  0.0218 -0.2161 -1.2366
 5864TIP3    H241788   1.405   3.204   0.697  3.7378  0.0126  2.7915
 5865TIP3   OH241789   1.769   0.199   2.707  0.0811 -0.2454  0.2728
 5865TIP3    H141790   1.673   0.195   2.703  0.0009  1.6667 -0.4900
 5865TIP3    H241791   1.789   0.186   2.799 -0.8537 -1.3315  0.3539
 5866TIP3   OH241792   3.835   7.014   1.204 -0.3578 -0.3991 -0.2382
 5866TIP3    H141793   3.847   7.098   1.161  1.6924 -0.1613  0.6547
 5866TIP3    H241794   3.836   7.034   1.297 -1.6122 -1.2294 -0.0289
 5867TIP3   OH241795   6.391   3.769   1.925 -0.1231  0.8011 -0.2002
 5867TIP3    H141796   6.416   3.801   1.838  1.0781  2.1623  0.6183
 5867TIP3    H241797   6.391   3.847   1.980 -0.5731 -0.0935  1.1034
 5868TIP3   OH241798   1.301   7.665   1.906 -0.1596 -0.0291  0.2956
 5868TIP3    H141799   1.351   7.743   1.882  1.5612 -1.2751 -0.3996
 5868TIP3    H241800   1.307   7.608   1.829 -0.0229 -1.4695  1.3333
 5869TIP3   OH241801   0.424   7.342   1.669  0.1556  0.1328  0.1834
 5869TIP3    H141802   0.380   7.347   1.585  0.8717  0.1287 -0.2058
 5869TIP3    H241803   0.433   7.248   1.687  0.5982  0.1256 -0.0640
 5870TIP3   OH241804   1.255   6.704   2.298 -0.4992  0.1712  0.2817
 5870TIP3    H141805   1.206   6.622   2.297  0.4837 -0.4706 -1.8908
 5870TIP3    H241806   1.305   6.701   2.380 -2.4122 -0.1376  1.4902
 5871TIP3   OH241807   1.043   1.866   1.588 -0.6103 -0.1893 -0.5945
 5871TIP3    H141808   0.980   1.844   1.656  1.8487 -0.7918  1.6443
 5871TIP3    H241809   1.071   1.955   1.608  1.1949 -0.8832  0.1222
 5872TIP3   OH241810   4.604   6.109   1.809 -0.1965  0.1639 -0.6858
 5872TIP3    H141811   4.556   6.042   1.762 -0.2900 -0.9876  0.9512
 5872TIP3    H241812   4.559   6.117   1.893 -0.3314  2.4815 -0.9265
 5873TIP3   OH241813   2.153   6.238   1.022 -0.1580  0.3233  0.1830
 5873TIP3    H141814   2.083   6.281   0.973 -0.0542  1.7872  1.2515
 5873TIP3    H241815   2.221   6.305   1.030  0.5662 -0.4615  0.8091
 5874TIP3   OH241816   6.904   0.402   1.594  0.1380 -0.4846 -0.0267
 5874TIP3    H141817   6.954   0.470   1.548 -0.1927  1.5136  2.3465
 5874TIP3    H241818   6.959   0.375   1.667 -0.2037 -1.9947 -0.2961
 5875TIP3   OH241819   2.704   4.239   1.366 -0.1163 -0.2524  0.2842
 5875TIP3    H141820   2.786   4.194   1.383 -0.1723  0.0008  1.3052
 5875TIP3    H241821   2.655   4.232   1.448 -1.2901 -0.7424 -0.4132
 5876TIP3   OH241822   4.425   5.119   3.201 -0.0312  0.2444  0.2460
 5876TIP3    H141823   4.503   5.106   3.255 -0.5201  0.2978  0.9818
 5876TIP3    H241824   4.352   5.117   3.263 -0.8575 -2.2583 -0.6958
 5877TIP3   OH241825   5.206   5.285   2.794 -0.0069  0.0233  0.0231
 5877TIP3    H141826   5.226   5.350   2.861 -1.5485  0.4197  0.1280
 5877TIP3    H241827   5.153   5.219   2.840 -0.3005 -0.1778 -0.5941
 5878TIP3   OH241828   1.577   2.321   2.807  0.8203 -0.0522  0.2393
 5878TIP3    H141829   1.562   2.228   2.823 -0.8475  0.0122 -0.6721
 5878TIP3    H241830   1.637   2.349   2.876  0.2135 -1.4841  1.3790
 5879TIP3   OH241831   3.486   2.480   2.261  0.0500  0.0963 -0.2237
 5879TIP3    H141832   3.454   2.449   2.176  0.8078  0.4909 -0.6618
 5879TIP3    H241833   3.537   2.558   2.240 -0.1218  0.4533  0.6476
 5880TIP3   OH241834   5.156   2.103   2.386 -0.4117  0.1061  0.1009
 5880TIP3    H141835   5.063   2.125   2.379 -0.2302  0.8189 -0.1757
 5880TIP3    H241836   5.168   2.029   2.326 -0.5163  0.9534 -0.9978
 5881TIP3   OH241837   0.810   4.778   3.814  0.0503  0.3493 -0.4156
 5881TIP3    H141838   0.732   4.833   3.829 -0.9641 -1.3622  0.9287
 5881TIP3    H241839   0.828   4.739   3.899  1.6609 -0.2577 -1.0097
 5882TIP3   OH241840   6.987   1.284   1.045  0.1602 -0.9197 -0.4279
 5882TIP3    H141841   7.034   1.247   0.970  1.9629 -0.4882  0.4264
 5882TIP3    H241842   6.994   1.216   1.113  1.0727 -0.1644  0.2561
 5883TIP3   OH241843   0.581   6.116   0.888  0.3185  0.8021  0.3601
 5883TIP3    H141844   0.535   6.073   0.815  1.2186  0.8787 -0.2695
 5883TIP3    H241845   0.537   6.085   0.966 -1.3438  1.5001 -0.2507
 5884TIP3   OH241846   1.092   0.569   2.589 -0.4565  0.6070 -0.0180
 5884TIP3    H141847   1.113   0.645   2.643  1.2132  1.0991 -1.3248
 5884TIP3    H241848   1.016   0.529   2.634  0.2591  1.5175  2.1447
 5885TIP3   OH241849   0.466   5.244   2.155  0.4886  0.3928  0.7890
 5885TIP3    H141850   0.515   5.225   2.075 -1.4133 -0.6800 -0.1755
 5885TIP3    H241851   0.429   5.331   2.140  0.8999  0.5953  0.9219
 5886TIP3   OH241852   0.260   6.534   1.909 -0.1658  0.1589  0.2592
 5886TIP3    H141853   0.243   6.612   1.962  0.3659 -0.2599  1.0546
 5886TIP3    H241854   0.189   6.473   1.933  1.1094 -0.7443  1.9259
 5887TIP3   OH241855   1.519   2.058   1.980  0.1920 -0.4294 -0.4791
 5887TIP3    H141856   1.466   2.068   2.059 -0.0456  0.8973 -0.7657
 5887TIP3    H241857   1.606   2.033   2.011  0.5337  1.5807  0.3728
 5888TIP3   OH241858   4.325   1.072   0.855 -0.0662 -0.6170  0.2640
 5888TIP3    H141859   4.329   1.039   0.945 -1.4517 -0.4765  0.3993
 5888TIP3    H241860   4.401   1.129   0.847 -1.9323  2.5162  2.6446
 5889TIP3   OH241861   3.038   6.385   3.693  0.7060 -0.0791 -0.8119
 5889TIP3    H141862   3.105   6.422   3.751  1.3844 -1.1656 -0.8627
 5889TIP3    H241863   3.017   6.455   3.632 -1.2103  1.6997  1.6601
 5890TIP3   OH241864   5.435   3.016   1.333  0.0553  0.4810 -0.2720
 5890TIP3    H141865   5.514   3.050   1.292  1.2900 -0.3214  1.3346
 5890TIP3    H241866   5.455   3.014   1.426 -1.3815 -0.9788  0.0522
 5891TIP3   OH241867   2.413   7.278   1.701  0.2148  0.1603  0.3438
 5891TIP3    H141868   2.318   7.272   1.693  0.2226 -2.1628  1.3145
 5891TIP3    H241869   2.432   7.253   1.791  1.7561  0.8459  0.2485
 5892TIP3   OH241870   4.654   1.651   1.757  0.5876 -0.4300  0.3323
 5892TIP3    H141871   4.613   1.651   1.844 -0.2635 -1.0483 -0.0436
 5892TIP3    H241872   4.731   1.596   1.767  0.1748 -0.9787  0.5667
 5893TIP3   OH241873   6.679   0.251   1.736  0.0392 -0.5715  0.3152
 5893TIP3    H141874   6.692   0.161   1.764  0.9877 -0.6656 -0.3539
 5893TIP3    H241875   6.768   0.282   1.715 -0.3119  0.4100  0.2413
 5894TIP3   OH241876   6.426   3.066   1.421 -0.0017  0.4594 -0.0563
 5894TIP3    H141877   6.429   3.028   1.334  1.2374 -1.0155  0.5920
 5894TIP3    H241878   6.516   3.065   1.451 -0.4338  0.7361  1.3288
 5895TIP3   OH241879   1.259   5.315   1.328 -0.1599  0.5611 -0.0855
 5895TIP3    H141880   1.328   5.366   1.286  0.7382  1.5627  2.4015
 5895TIP3    H241881   1.303   5.235   1.357 -0.4842  0.3967 -0.0479
 5896TIP3   OH241882   3.268   5.188   2.682  0.0152  0.1918 -0.1896
 5896TIP3    H141883   3.316   5.216   2.760 -1.0810 -0.4599  0.7533
 5896TIP3    H241884   3.241   5.098   2.702  1.0753 -0.5712 -1.9960
 5897TIP3   OH241885   0.597   4.195   1.151 -0.2655 -0.4249 -0.0219
 5897TIP3    H141886   0.511   4.160   1.175 -1.2689  2.3015  0.7730
 5897TIP3    H241887   0.630   4.234   1.232  0.9383  0.0856 -0.7327
 5898TIP3   OH241888   0.900   2.248   0.649  0.4911 -0.2214 -0.4631
 5898TIP3    H141889   0.865   2.305   0.581 -0.0770  0.5838  0.4659
 5898TIP3    H241890   0.827   2.238   0.711  1.0082 -0.8897  0.0569
 5899TIP3   OH241891   7.347   0.652   1.332  0.1536  0.4171  0.2318
 5899TIP3    H141892   7.424   0.667   1.387 -0.3998  1.6910  0.6965
 5899TIP3    H241893   7.381   0.653   1.243  1.1819 -2.4111  0.5120
 5900TIP3   OH241894   7.128   3.521   2.750 -0.0506  0.1764  0.5214
 5900TIP3    H141895   7.099   3.510   2.841  2.1102 -0.4683  1.1998
 5900TIP3    H241896   7.153   3.613   2.744  1.1364 -0.0875  1.0522
 5901TIP3   OH241897   0.428   2.175   2.773 -0.3603  0.1704 -0.0889
 5901TIP3    H141898   0.358   2.112   2.789  1.7513 -1.8681  2.1358
 5901TIP3    H241899   0.403   2.252   2.824 -0.6090 -0.8839  1.4651
 5902TIP3   OH241900   5.837   6.586   1.451 -0.0568 -0.1970  0.4029
 5902TIP3    H141901   5.928   6.594   1.479 -0.1150 -0.3951  0.6521
 5902TIP3    H241902   5.838   6.614   1.360 -0.1221  1.9751  1.0059
 5903TIP3   OH241903   2.074   2.382   2.526 -0.0494 -0.7462  0.4393
 5903TIP3    H141904   2.146   2.320   2.526  0.5357 -0.0850 -0.0412
 5903TIP3    H241905   2.048   2.391   2.618  0.3712 -1.1101  0.5915
 5904TIP3   OH241906   6.551   5.522   0.402 -0.2158  0.0436  0.3717
 5904TIP3    H141907   6.612   5.517   0.476  1.0393 -0.7857 -0.6674
 5904TIP3    H241908   6.607   5.517   0.324 -1.5804 -0.2210 -0.6408
 5905TIP3   OH241909   5.312   5.365   3.216  0.1535 -0.3221  0.1669
 5905TIP3    H141910   5.277   5.376   3.127  0.2568 -0.4143  0.1158
 5905TIP3    H241911   5.243   5.401   3.273 -0.0903 -0.6330  0.0739
 5906TIP3   OH241912   3.643   2.412   1.303 -0.2436  0.0994 -0.9197
 5906TIP3    H141913   3.717   2.457   1.261 -0.2881  1.4552  0.3460
 5906TIP3    H241914   3.577   2.481   1.314 -1.0133 -0.6983 -0.4821
 5907TIP3   OH241915   6.509   4.528   1.003  0.3516 -0.1917  1.2025
 5907TIP3    H141916   6.541   4.464   1.068 -2.0846  0.3059  3.0532
 5907TIP3    H241917   6.453   4.476   0.945  1.8689 -0.4764 -0.0772
 5908TIP3   OH241918   0.741   5.167   3.249  0.1820  0.1527  0.0534
 5908TIP3    H141919   0.722   5.221   3.172  0.9508  0.6571  0.2059
 5908TIP3    H241920   0.672   5.100   3.249 -1.1232  1.4553  0.1771
 5909TIP3   OH241921   5.404   0.463   3.398  0.0167 -0.2054  0.0139
 5909TIP3    H141922   5.338   0.487   3.333 -0.4298  1.0847  0.9154
 5909TIP3    H241923   5.369   0.385   3.441 -1.1588  0.7518  0.8178
 5910TIP3   OH241924   4.721   5.324   2.516 -0.1922  0.3034 -0.0923
 5910TIP3    H141925   4.637   5.338   2.560 -0.7659  0.2413 -1.1274
 5910TIP3    H241926   4.712   5.238   2.474 -0.3628  1.1220 -1.8158
 5911TIP3   OH241927   2.417   1.712   2.384  0.1672  0.3039 -0.1931
 5911TIP3    H141928   2.402   1.620   2.361  1.1153  0.6271 -2.3668
 5911TIP3    H241929   2.362   1.762   2.322  0.2656  1.2222  0.4381
 5912TIP3   OH241930   0.966   4.936   1.935 -0.3347  0.3751  0.2682
 5912TIP3    H141931   1.013   4.870   1.985 -1.2872 -1.0854 -0.7183
 5912TIP3    H241932   1.004   4.931   1.847 -0.7579  0.7883  0.0582
 5913TIP3   OH241933   1.957   0.733   1.919  0.5693  0.0299  0.4274
 5913TIP3    H141934   1.992   0.730   1.830  1.2416  1.7776  0.5998
 5913TIP3    H241935   1.862   0.723   1.908  0.6731 -0.0416 -0.4519
 5914TIP3   OH241936   5.358   5.776   1.284 -0.4722  0.3684 -0.0475
 5914TIP3    H141937   5.397   5.766   1.197  0.1260  0.8172  0.1573
 5914TIP3    H241938   5.404   5.713   1.339  1.3184  2.1322  0.6070
 5915TIP3   OH241939   0.332   1.395   2.880 -0.1316  0.0355  0.9334
 5915TIP3    H141940   0.314   1.465   2.943  0.9329  1.1798  0.0431
 5915TIP3    H241941   0.247   1.377   2.840 -0.6079  0.0927  1.8990
 5916TIP3   OH241942   6.946   0.438   1.279 -0.6272 -0.4266 -0.6629
 5916TIP3    H141943   6.982   0.526   1.265  0.2481 -0.9112 -1.5857
 5916TIP3    H241944   6.862   0.453   1.321  0.0415  0.8054  0.3043
 5917TIP3   OH241945   5.594   0.696   1.373 -0.1697  0.2998 -0.6751
 5917TIP3    H141946   5.601   0.791   1.368 -0.6590  0.4637  1.1048
 5917TIP3    H241947   5.671   0.668   1.422  0.4593 -0.3510 -1.9686
 5918TIP3   OH241948   2.879   0.902   2.671  0.3251  0.8128  0.6231
 5918TIP3    H141949   2.914   0.989   2.689  1.6245  0.5850 -0.6604
 5918TIP3    H241950   2.951   0.855   2.630 -0.3996 -0.8345  1.1529
 5919TIP3   OH241951   5.630   4.060   1.747  0.1320  0.9334  0.5594
 5919TIP3    H141952   5.634   3.965   1.734 -0.6530  0.5558  2.6523
 5919TIP3    H241953   5.600   4.071   1.837  1.9216  3.1867  0.9878
 5920TIP3   OH241954   3.802   0.380   1.829 -0.1945 -0.6218 -0.4123
 5920TIP3    H141955   3.801   0.290   1.794 -1.5796 -0.6824 -0.2903
 5920TIP3    H241956   3.813   0.435   1.752  0.5576 -0.8818 -0.5022
 5921TIP3   OH241957   7.431   5.169   1.322  0.0848  0.0623  0.3329
 5921TIP3    H141958   7.337   5.167   1.338 -0.1618  0.8914 -0.8733
 5921TIP3    H241959   7.445   5.103   1.253  1.1187 -3.4636  3.5793
 5922TIP3   OH241960   6.504   0.409   0.564  0.7946 -0.1992 -0.6394
 5922TIP3    H141961   6.426   0.454   0.598  2.1296  0.4492  1.8123
 5922TIP3    H241962   6.539   0.468   0.497  0.0907  0.2900 -0.5859
 5923TIP3   OH241963   6.393   2.859   2.661 -0.0916  0.4218 -0.0548
 5923TIP3    H141964   6.428   2.948   2.664 -0.1956  0.4557  0.2635
 5923TIP3    H241965   6.466   2.803   2.689 -0.1002  0.4327 -0.0090
 5924TIP3   OH241966   1.329   7.473   1.721 -0.8067 -0.1804 -0.2699
 5924TIP3    H141967   1.363   7.384   1.711 -1.1756 -0.3321 -0.2025
 5924TIP3    H241968   1.266   7.482   1.649 -0.4658  0.1732 -0.5274
 5925TIP3   OH241969   1.014   6.540   2.331  0.8141  0.3297 -0.5123
 5925TIP3    H141970   1.022   6.585   2.416  0.8766 -0.3157 -0.1663
 5925TIP3    H241971   0.929   6.568   2.297  0.8944  0.7814 -0.3496
 5926TIP3   OH241972   2.581   3.478   1.591 -0.1927  0.1851 -0.1672
 5926TIP3    H141973   2.547   3.390   1.606  0.4369 -0.2947 -1.4147
 5926TIP3    H241974   2.537   3.533   1.657 -0.2223 -1.1376  0.9500
 5927TIP3   OH241975   1.211   4.636   1.455 -0.4289 -0.3033  0.1433
 5927TIP3    H141976   1.164   4.586   1.522 -1.0208  1.4085  1.0709
 5927TIP3    H241977   1.152   4.636   1.380  0.0823 -1.9329 -0.2965
 5928TIP3   OH241978   3.483   2.908   2.644 -0.4254  0.4052  0.3851
 5928TIP3    H141979   3.480   3.000   2.616  1.2216 -0.0832 -1.7143
 5928TIP3    H241980   3.574   2.895   2.671  0.5895 -1.4710 -3.1990
 5929TIP3   OH241981   1.754   2.434   3.021  0.2876 -0.3704 -0.8973
 5929TIP3    H141982   1.744   2.515   3.071 -1.2166 -0.2106 -1.4189
 5929TIP3    H241983   1.796   2.373   3.083 -1.7077 -0.2432  0.6851
 5930TIP3   OH241984   4.780   5.359   1.127  0.1745  0.4659 -0.5358
 5930TIP3    H141985   4.789   5.443   1.082  2.6129  1.2121  1.1684
 5930TIP3    H241986   4.843   5.302   1.083 -2.1423 -0.9003 -2.3348
 5931TIP3   OH241987   6.115   3.161   1.622  0.2498  0.3798 -0.2945
 5931TIP3    H141988   6.028   3.160   1.660 -0.5812  0.9566 -2.0668
 5931TIP3    H241989   6.121   3.078   1.575  0.8766  0.1059  0.2552
 5932TIP3   OH241990   0.286   4.446   0.812 -0.0602  0.0888  0.1745
 5932TIP3    H141991   0.204   4.398   0.828 -0.0460  0.2274  0.6656
 5932TIP3    H241992   0.263   4.511   0.745 -1.1117  2.0894  2.3584
 5933TIP3   OH241993   0.835   1.504   2.851 -0.0024 -0.0586 -0.3598
 5933TIP3    H141994   0.742   1.500   2.830 -0.1906  1.8775  0.0015
 5933TIP3    H241995   0.871   1.570   2.792  0.8293  0.3991  0.6236
 5934TIP3   OH241996   6.781   4.096   2.645  0.2943  0.4115  0.3849
 5934TIP3    H141997   6.871   4.104   2.678 -0.2202  1.6159  1.6191
 5934TIP3    H241998   6.726   4.125   2.719 -0.9805  2.3724 -1.2346
 5935TIP3   OH241999   1.310   1.219   1.641  0.1603  0.2363 -0.0958
 5935TIP3    H142000   1.359   1.139   1.621 -0.0025  0.2394 -0.5066
 5935TIP3    H242001   1.348   1.249   1.724 -0.5404 -0.8764  0.6689
 5936TIP3   OH242002   5.868   1.185   2.416 -0.0328 -0.2333  0.3802
 5936TIP3    H142003   5.793   1.239   2.394 -1.1515 -0.9718  2.1460
 5936TIP3    H242004   5.882   1.129   2.340 -1.6555 -0.4790  0.2392
 5937TIP3   OH242005   5.367   6.150   2.717 -0.4988 -0.0269  0.5555
 5937TIP3    H142006   5.280   6.118   2.694 -0.0775 -1.6216  1.0751
 5937TIP3    H242007   5.358   6.180   2.808 -0.9056  1.4932  0.0527
 5938TIP3   OH242008   1.320   1.153   3.129 -0.2889  0.2639  0.0945
 5938TIP3    H142009   1.401   1.196   3.156  0.1576  1.1159 -2.3672
 5938TIP3    H242010   1.311   1.174   3.036 -2.2185 -1.6171 -0.2311
 5939TIP3   OH242011   0.778   6.716   0.762  0.1518  0.3249 -0.0710
 5939TIP3    H142012   0.823   6.640   0.797  1.8317  0.6779 -1.3550
 5939TIP3    H242013   0.688   6.686   0.747  0.0051 -0.5296  2.0846
 5940TIP3   OH242014   4.029   2.506   2.694  0.7797  0.2648  0.2544
 5940TIP3    H142015   3.940   2.541   2.683  0.5142 -0.1688  0.9561
 5940TIP3    H242016   4.040   2.447   2.620  0.3353  0.0273  0.3712
 5941TIP3   OH242017   1.099   4.112   2.263 -0.6542 -0.2742  0.3237
 5941TIP3    H142018   1.148   4.144   2.187  0.5623  0.4175  1.3576
 5941TIP3    H242019   1.009   4.140   2.247  0.0699  2.3623  0.4046
 5942TIP3   OH242020   1.311   1.190   2.843 -0.0662 -0.7721  0.2268
 5942TIP3    H142021   1.399   1.182   2.807  0.1259 -0.2516  0.5660
 5942TIP3    H242022   1.253   1.187   2.767  0.2861 -0.4226 -0.0583
 5943TIP3   OH242023   5.313   2.386   1.397 -0.4078 -0.1236 -0.0590
 5943TIP3    H142024   5.219   2.367   1.388  0.1384 -2.0104 -3.6328
 5943TIP3    H242025   5.325   2.468   1.349  0.0037 -0.9219 -1.3594
 5944TIP3   OH242026   0.270   5.555   3.186 -0.4303  0.0899  0.2262
 5944TIP3    H142027   0.236   5.632   3.232  1.9126  0.5686  1.2850
 5944TIP3    H242028   0.200   5.489   3.196 -2.8277  2.1905 -1.3685
 5945TIP3   OH242029   7.234   2.247   1.150  0.2201  0.2198 -0.0287
 5945TIP3    H142030   7.151   2.204   1.169  0.4304 -0.5434 -0.7719
 5945TIP3    H242031   7.300   2.194   1.195  0.2592  1.3009  1.2731
 5946TIP3   OH242032   2.176   2.324   3.656  0.5485 -0.2062  0.0472
 5946TIP3    H142033   2.205   2.251   3.711  0.7957  0.5754  0.9774
 5946TIP3    H242034   2.233   2.397   3.679 -1.8067  1.2745  1.6450
 5947TIP3   OH242035   0.248   0.912   1.380  0.1045 -0.5169  0.7318
 5947TIP3    H142036   0.211   0.847   1.440 -1.5166  1.0299  1.4951
 5947TIP3    H242037   0.342   0.891   1.377 -0.4162 -3.2497  0.4272
 5948TIP3   OH242038   4.520   2.905   2.198  0.9019 -0.0590  0.1655
 5948TIP3    H142039   4.484   2.839   2.257 -0.3203 -0.2116 -0.7084
 5948TIP3    H242040   4.463   2.981   2.209  1.2707  0.2605 -0.0850
 5949TIP3   OH242041   1.815   3.321   1.976 -0.2834  0.5460 -0.4154
 5949TIP3    H142042   1.895   3.365   1.948 -0.5628  0.5972 -1.1671
 5949TIP3    H242043   1.758   3.393   2.007  0.4261  0.3930  1.3907
 5950TIP3   OH242044   5.670   0.964   1.359  0.5847  0.5199  0.4054
 5950TIP3    H142045   5.690   1.034   1.298 -0.0900  0.2118 -0.1741
 5950TIP3    H242046   5.612   1.004   1.424 -0.9493  0.1729 -0.7037
 5951TIP3   OH242047   6.023   5.843   1.080 -0.0867 -0.3378  1.3017
 5951TIP3    H142048   6.025   5.934   1.050 -2.6556 -0.6826 -0.1264
 5951TIP3    H242049   5.998   5.849   1.172 -0.3433  0.3782  1.1927
 5952TIP3   OH242050   0.425   0.336   2.626  0.1303 -0.0086  0.2101
 5952TIP3    H142051   0.515   0.310   2.645 -0.3397 -3.2861 -1.3327
 5952TIP3    H242052   0.425   0.353   2.532 -1.0689 -1.5113 -0.1123
 5953TIP3   OH242053   1.455   2.477   1.488  0.0457 -0.2602 -0.0109
 5953TIP3    H142054   1.510   2.525   1.425 -1.9525  2.5990  0.2027
 5953TIP3    H242055   1.422   2.402   1.439 -0.1115  0.9551 -1.8612
 5954TIP3   OH242056   0.592   4.792   2.534  0.2223 -0.2908 -0.6412
 5954TIP3    H142057   0.544   4.871   2.508 -0.1427 -0.3791 -0.2378
 5954TIP3    H242058   0.527   4.722   2.529  1.0338 -0.9741 -3.0917
 5955TIP3   OH242059   1.674   6.570   2.643 -0.4607 -0.5576  0.3479
 5955TIP3    H142060   1.631   6.641   2.595 -1.7598 -0.7935  1.1182
 5955TIP3    H242061   1.749   6.546   2.588 -1.2265 -0.0427 -0.9677
 5956TIP3   OH242062   3.413   1.617   7.957  0.9011 -0.1070 -0.2760
 5956TIP3    H142063   3.340   1.622   7.895 -0.2833  0.7134  1.1419
 5956TIP3    H242064   3.447   1.528   7.947 -1.0582 -0.9081 -0.1125
 5957TIP3   OH242065   1.938   5.452   2.144  0.6767  0.0647  0.1239
 5957TIP3    H142066   1.898   5.403   2.215  0.5671  0.1980  0.1542
 5957TIP3    H242067   2.010   5.500   2.186  0.4302  0.3681  0.1969
 5958TIP3   OH242068   0.930   5.119   1.660  0.7216 -0.2942 -0.1962
 5958TIP3    H142069   0.974   5.035   1.643 -1.4607 -1.2791 -1.3982
 5958TIP3    H242070   0.839   5.103   1.636 -0.5249  1.4064  2.8566
 5959TIP3   OH242071   0.544   0.166   2.251 -0.2568  0.1545 -0.0556
 5959TIP3    H142072   0.474   0.110   2.217 -1.4166  2.4923 -1.9175
 5959TIP3    H242073   0.498   0.238   2.294  1.0798  0.8319  0.2983
 5960TIP3   OH242074   6.981   5.246   2.057  0.0680 -0.2363  0.0301
 5960TIP3    H142075   7.028   5.277   2.135 -1.3612  0.6516  0.5640
 5960TIP3    H242076   7.050   5.213   2.000  1.2925  0.4750  1.0386
 5961TIP3   OH242077   1.845   1.802   2.513  0.3715  0.0659 -0.0598
 5961TIP3    H142078   1.771   1.849   2.551 -0.0326 -0.1033 -0.6088
 5961TIP3    H242079   1.907   1.870   2.488 -0.3581  0.3667 -1.1677
 5962TIP3   OH242080   2.669   2.117   3.106  0.3637 -0.5232  0.2429
 5962TIP3    H142081   2.763   2.133   3.115  0.4152 -0.7310  0.0795
 5962TIP3    H242082   2.660   2.073   3.021  0.3437 -2.1561  1.0392
 5963TIP3   OH242083   6.265   1.248   0.636  0.3933  0.2766  0.1280
 5963TIP3    H142084   6.252   1.310   0.708  0.6272  0.6355 -0.1408
 5963TIP3    H242085   6.359   1.249   0.619  1.0186 -2.7821  2.4701
 5964TIP3   OH242086   4.456   5.625   2.696  0.1763 -0.3323  0.2271
 5964TIP3    H142087   4.523   5.639   2.629  1.6466 -1.8027  1.2960
 5964TIP3    H242088   4.473   5.693   2.762  0.3555 -0.4402  0.2935
 5965TIP3   OH242089   1.952   6.941   1.184  0.0618  0.1009 -0.1881
 5965TIP3    H142090   1.972   7.020   1.234  0.3209 -0.1220  0.0624
 5965TIP3    H242091   1.876   6.903   1.229 -0.2023  0.3270 -0.4430
 5966TIP3   OH242092   0.253   4.784   1.580  0.2261 -0.1921 -0.1432
 5966TIP3    H142093   0.181   4.783   1.517  0.4556 -2.6462 -0.4777
 5966TIP3    H242094   0.258   4.694   1.611  1.3522  0.5613  2.0043
 5967TIP3   OH242095   7.126   3.275   1.750 -0.0713 -0.0953 -0.5706
 5967TIP3    H142096   7.053   3.235   1.703 -1.0227  0.2738  0.5458
 5967TIP3    H242097   7.179   3.201   1.779 -0.6802 -0.4395 -0.3177
 5968TIP3   OH242098   3.027   1.197   3.500  0.2173 -0.0806 -0.0683
 5968TIP3    H142099   3.058   1.145   3.426  6.4559  0.3651  1.6141
 5968TIP3    H242100   3.013   1.134   3.570  0.4437 -0.0740 -0.0153
 5969TIP3   OH242101   0.331   3.397   3.824  0.3645 -0.2821  0.4866
 5969TIP3    H142102   0.387   3.326   3.792  0.3547 -0.5473  1.0381
 5969TIP3    H242103   0.388   3.473   3.830 -0.1137  0.4247 -2.3288
 5970TIP3   OH242104   0.165   5.229   2.188  0.0286 -0.4934 -0.5056
 5970TIP3    H142105   0.070   5.231   2.177 -0.0829  0.7116  0.5111
 5970TIP3    H242106   0.198   5.201   2.102 -1.1999 -0.2042 -1.0963
 5971TIP3   OH242107   6.341   1.108   2.974  0.0227  0.4806  0.6170
 5971TIP3    H142108   6.388   1.053   3.037 -0.7164  1.2628  1.8966
 5971TIP3    H242109   6.360   1.069   2.889 -0.2294 -1.5573  1.4407
 5972TIP3   OH242110   1.528   3.398   1.707 -0.5518  0.0066 -0.0899
 5972TIP3    H142111   1.461   3.463   1.686 -0.6685 -0.0006  0.2486
 5972TIP3    H242112   1.506   3.368   1.796 -2.0083 -2.3579 -1.1435
 5973TIP3   OH242113   3.016   0.270   0.542  0.6708  0.0009 -0.2488
 5973TIP3    H142114   3.058   0.196   0.498 -0.8339  0.4524 -2.6640
 5973TIP3    H242115   3.023   0.342   0.479 -1.2690  0.8281  0.4082
 5974TIP3   OH242116   7.409   3.431   1.642 -0.1549  0.2873 -0.1025
 5974TIP3    H142117   7.337   3.446   1.704  0.0795  0.1503  0.2044
 5974TIP3    H242118   7.422   3.337   1.643  0.6648  0.4023  0.5689
 5975TIP3   OH242119   3.615   3.409   2.585  0.4144  0.3575  0.5460
 5975TIP3    H142120   3.554   3.449   2.523  1.7030  0.2935 -0.8143
 5975TIP3    H242121   3.588   3.443   2.671 -1.4561  0.3776 -0.0243
 5976TIP3   OH242122   2.418   2.658   0.767  0.2587  0.8972  0.1411
 5976TIP3    H142123   2.363   2.721   0.722  1.9466  2.4185  0.1067
 5976TIP3    H242124   2.458   2.707   0.839 -0.6421 -0.9033  1.9924
 5977TIP3   OH242125   1.531   6.143   1.897  0.2410  0.4156 -0.1125
 5977TIP3    H142126   1.478   6.150   1.977  0.7290  0.2424  0.2283
 5977TIP3    H242127   1.593   6.073   1.915 -0.0711 -0.0823 -0.8978
 5978TIP3   OH242128   4.184   4.010   2.236 -0.1563  0.0347 -0.1915
 5978TIP3    H142129   4.126   4.086   2.229  1.7560  1.8190  1.6745
 5978TIP3    H242130   4.269   4.042   2.207  0.1206 -2.3772 -2.4235
 5979TIP3   OH242131   2.711   2.459   1.358 -0.3861 -0.6091  0.0158
 5979TIP3    H142132   2.706   2.441   1.452  0.1529 -1.2920 -0.0729
 5979TIP3    H242133   2.674   2.381   1.316 -2.5949  0.5665 -0.3215
 5980TIP3   OH242134   7.387   5.869   3.269 -0.0898 -0.0604 -0.0667
 5980TIP3    H142135   7.446   5.836   3.337  0.3696  0.8888  0.0160
 5980TIP3    H242136   7.324   5.924   3.315 -0.1302  0.1199 -0.3289
 5981TIP3   OH242137   3.579   6.230   2.102  0.1024  1.1555  0.0020
 5981TIP3    H142138   3.488   6.247   2.126 -0.2736 -0.8348  0.1119
 5981TIP3    H242139   3.576   6.211   2.008 -0.0869 -1.6170  0.4788
 5982TIP3   OH242140   6.391   5.550   1.300  0.3916  0.0350  0.7450
 5982TIP3    H142141   6.422   5.510   1.219  2.9178 -1.5775  2.3684
 5982TIP3    H242142   6.436   5.634   1.304  1.5589 -0.5945  1.2129
 5983TIP3   OH242143   7.254   2.958   1.653 -0.4690  0.2027  0.2545
 5983TIP3    H142144   7.191   2.973   1.724 -2.0084  0.9061 -1.1869
 5983TIP3    H242145   7.332   2.924   1.697 -2.9706 -4.2814  1.8400
 5984TIP3   OH242146   3.205   5.955   1.972 -0.0481  0.2255  0.4092
 5984TIP3    H142147   3.142   5.894   2.008 -0.5789 -0.1931 -1.1429
 5984TIP3    H242148   3.281   5.901   1.949 -0.8411 -0.0523 -1.7417
 5985TIP3   OH242149   0.241   2.907   0.786  0.1418 -0.0051 -0.1016
 5985TIP3    H142150   0.235   2.881   0.878 -0.0271  0.6264  0.0730
 5985TIP3    H242151   0.194   2.839   0.738 -0.3916  0.0333  0.3527
 5986TIP3   OH242152   5.950   7.368   2.025  0.1485 -0.1760 -0.1588
 5986TIP3    H142153   5.958   7.435   1.956  1.2730  0.1620  0.2672
 5986TIP3    H242154   5.904   7.296   1.983 -1.4133  0.9848 -0.5341
 5987TIP3   OH242155   1.929   3.312   0.804 -0.3623 -0.0264 -0.3093
 5987TIP3    H142156   1.998   3.256   0.840 -1.3950 -1.4605 -0.4516
 5987TIP3    H242157   1.901   3.267   0.724  1.4015  2.7198 -2.6714
 5988TIP3   OH242158   0.037   1.248   2.213  0.0340 -0.2184 -0.0708
 5988TIP3    H142159  -0.056   1.268   2.205  0.2291  0.4010 -0.9302
 5988TIP3    H242160   0.075   1.275   2.129  0.8376 -1.3359 -0.0979
 5989TIP3   OH242161   3.475   1.313   0.931 -0.7018 -0.1223 -0.0576
 5989TIP3    H142162   3.434   1.396   0.909  1.4370  0.6110 -1.4820
 5989TIP3    H242163   3.500   1.322   1.023  0.8180  1.4457 -0.5735
 5990TIP3   OH242164   0.894   5.236   0.883 -0.0625 -0.2507  0.1655
 5990TIP3    H142165   0.848   5.179   0.822 -0.5862 -0.3351  0.6296
 5990TIP3    H242166   0.897   5.321   0.839 -1.0064 -0.1446  0.2835
 5991TIP3   OH242167   1.807   2.051   2.015  0.1942  0.0368 -0.5168
 5991TIP3    H142168   1.881   1.995   2.037  1.0256  1.7125  1.2994
 5991TIP3    H242169   1.844   2.119   1.960 -0.2452  0.2554 -0.5479
 5992TIP3   OH242170   5.978   4.979   2.162  0.2293  0.3481 -0.4201
 5992TIP3    H142171   5.966   4.898   2.112 -0.0440 -0.5511  1.0376
 5992TIP3    H242172   5.900   5.031   2.143  0.8783  0.7606 -2.1768
 5993TIP3   OH242173   2.642   1.457   2.356  0.4382 -0.0555  0.0603
 5993TIP3    H142174   2.605   1.492   2.437  0.7478  1.0171 -0.2518
 5993TIP3    H242175   2.569   1.459   2.294 -0.6234 -3.4268  0.9540
 5994TIP3   OH242176   5.057   2.462   1.632 -0.6942  0.2899  0.2852
 5994TIP3    H142177   5.048   2.443   1.539 -1.4940  0.0058  0.4126
 5994TIP3    H242178   5.050   2.376   1.675  1.7144  0.1226  0.5048
 5995TIP3   OH242179   6.273   5.927   2.333 -0.1432  0.3495 -0.2553
 5995TIP3    H142180   6.346   5.912   2.393 -0.6505  1.4754  0.6622
 5995TIP3    H242181   6.261   5.842   2.289 -0.8673 -1.0648  2.4274
 5996TIP3   OH242182   3.490   5.171   2.545 -0.5206  0.3384 -0.1008
 5996TIP3    H142183   3.399   5.185   2.571 -0.0398  1.0835  1.3373
 5996TIP3    H242184   3.525   5.113   2.613  0.8988  2.6772  1.3410
 5997TIP3   OH242185   6.768   2.944   1.758  0.0006 -0.2375  0.0063
 5997TIP3    H142186   6.719   2.915   1.836  0.6888  0.5711  0.7623
 5997TIP3    H242187   6.793   2.863   1.714 -0.9281 -0.6939  0.2942
 5998TIP3   OH242188   1.500   6.283   2.423 -0.0024  0.1951  0.1247
 5998TIP3    H142189   1.590   6.287   2.457  0.5062  0.2221 -1.1526
 5998TIP3    H242190   1.501   6.209   2.363 -0.3927  1.1581 -1.1043
 5999TIP3   OH242191   5.847   0.893   2.872  0.5112 -0.2944 -0.0755
 5999TIP3    H142192   5.879   0.881   2.961  0.6211 -0.2239 -0.1044
 5999TIP3    H242193   5.794   0.815   2.854  1.0258 -0.6220 -0.1821
 6000TIP3   OH242194   0.376   5.037   2.745  0.5666  0.0843  0.0107
 6000TIP3    H142195   0.466   5.060   2.724 -0.5985  4.5706 -1.2069
 6000TIP3    H242196   0.361   5.075   2.832  1.3433 -6.2850  3.5891
 6001TIP3   OH242197   0.275   2.748   1.006 -0.2171  0.4446 -0.1291
 6001TIP3    H142198   0.356   2.770   1.051 -0.4370  0.1612  0.4115
 6001TIP3    H242199   0.259   2.656   1.028 -2.4352  1.3313  2.5806
 6002TIP3   OH242200   1.633   4.027   0.598  0.5153 -0.8407  1.0199
 6002TIP3    H142201   1.584   4.020   0.516  2.0803 -0.4349 -0.0016
 6002TIP3    H242202   1.625   4.120   0.622  1.3419 -0.6213  0.4733
 6003TIP3   OH242203   3.974   1.265   0.955 -0.0148 -0.6312  0.4644
 6003TIP3    H142204   4.011   1.179   0.972  0.5325 -0.3862  0.5255
 6003TIP3    H242205   3.903   1.249   0.892 -1.1540 -1.3655  1.8638
 6004TIP3   OH242206   3.960   1.646   0.540  0.2841  0.1873 -0.2995
 6004TIP3    H142207   3.892   1.624   0.476 -0.6454 -0.3247  0.8197
 6004TIP3    H242208   3.999   1.562   0.564  1.4309  0.4847 -1.0168
 6005TIP3   OH242209   5.693   6.414   2.051 -0.6841  0.0664 -0.0967
 6005TIP3    H142210   5.605   6.412   2.089 -0.6076 -0.4701  0.0645
 6005TIP3    H242211   5.721   6.322   2.050 -0.3582  0.1636 -0.6941
 6006TIP3   OH242212   7.003   2.893   0.556  0.7271 -0.2072 -0.1453
 6006TIP3    H142213   7.094   2.901   0.530  1.0839 -0.1649  1.0659
 6006TIP3    H242214   6.985   2.799   0.555  0.5828 -0.1794 -1.0019
 6007TIP3   OH242215   4.036   5.013   2.017  0.3346  0.3650 -0.3178
 6007TIP3    H142216   3.962   4.964   1.984  1.1304 -1.4464  0.4604
 6007TIP3    H242217   4.002   5.059   2.094  0.3575 -1.9024  1.1515
 6008TIP3   OH242218   1.620   3.564   0.592 -0.1445  0.0995  0.2640
 6008TIP3    H142219   1.671   3.543   0.670  0.2960 -0.1473 -0.0897
 6008TIP3    H242220   1.626   3.486   0.537 -0.8193  0.1032  0.1696
 6009TIP3   OH242221   5.966   5.537   2.955  0.5203  0.1908 -0.4268
 6009TIP3    H142222   6.007   5.532   2.868 -0.8217 -0.7668 -1.0515
 6009TIP3    H242223   5.880   5.496   2.943  1.0352 -1.7969  1.8011
 6010TIP3   OH242224   2.931   7.486   0.656  0.2446 -0.4525 -0.2939
 6010TIP3    H142225   2.878   7.503   0.578  1.4578  2.0038 -0.6807
 6010TIP3    H242226   2.871   7.500   0.729  0.2169  2.0696 -0.7241
 6011TIP3   OH242227   1.182   4.765   3.120 -0.8438  0.3363 -0.6594
 6011TIP3    H142228   1.208   4.695   3.180  0.6984  2.4017  1.2327
 6011TIP3    H242229   1.250   4.766   3.053 -0.1941  0.8117  0.0049
 6012TIP3   OH242230   2.364   3.786   3.201 -0.2343  0.2953 -0.0160
 6012TIP3    H142231   2.378   3.700   3.241  0.4331  0.3511 -0.1101
 6012TIP3    H242232   2.354   3.767   3.107 -0.9006  0.2459  0.0660
 6013TIP3   OH242233   0.884   0.981   2.343 -0.1794 -0.6746  0.1352
 6013TIP3    H142234   0.826   1.053   2.371 -1.3755 -1.2013 -0.8677
 6013TIP3    H242235   0.971   1.009   2.370 -0.3523  1.9720 -1.6453
 6014TIP3   OH242236   2.912   1.585   3.023 -0.2523  0.2138  0.5309
 6014TIP3    H142237   2.888   1.671   3.058 -2.0580 -0.0370  0.0431
 6014TIP3    H242238   2.940   1.535   3.100 -1.9967  0.3726  1.3277
 6015TIP3   OH242239   5.219   1.381   0.990 -0.2163 -0.8395  0.2443
 6015TIP3    H142240   5.257   1.308   0.942 -0.7074 -0.4636 -0.7497
 6015TIP3    H242241   5.290   1.445   0.996 -0.2598 -0.7303 -0.3376
 6016TIP3   OH242242   5.552   0.871   1.641 -0.1585  0.5558  0.8289
 6016TIP3    H142243   5.487   0.857   1.572  1.6205 -0.9800 -0.6591
 6016TIP3    H242244   5.582   0.961   1.628  1.8680 -0.3594 -2.1755
 6017TIP3   OH242245   0.261   7.642   1.110  0.2922  0.0064 -0.2913
 6017TIP3    H142246   0.278   7.689   1.192 -1.5567  0.4208 -0.1007
 6017TIP3    H242247   0.177   7.598   1.124  1.0822 -1.8863 -1.1389
 6018TIP3   OH242248   6.566   3.750   2.305  0.0823  0.2802 -0.4123
 6018TIP3    H142249   6.650   3.767   2.347  0.6760 -0.6779 -1.1694
 6018TIP3    H242250   6.589   3.710   2.221 -1.1166  0.6510 -0.9408
 6019TIP3   OH242251   6.107   3.635   3.565  0.3806 -0.3396 -0.0098
 6019TIP3    H142252   6.130   3.594   3.482 -0.1973 -2.2090  0.7029
 6019TIP3    H242253   6.135   3.572   3.631 -2.7973 -0.7863  1.0460
 6020TIP3   OH242254   7.419   7.589   1.226 -0.0354  0.0592 -0.6076
 6020TIP3    H142255   7.396   7.521   1.163  0.4455  0.9270 -1.7525
 6020TIP3    H242256   7.335   7.627   1.252 -0.1854  0.2350 -1.3454
 6021TIP3   OH242257   7.136   5.474   1.584  0.1462 -0.0659  0.4225
 6021TIP3    H142258   7.227   5.456   1.561  0.2749  2.0986 -1.0588
 6021TIP3    H242259   7.086   5.457   1.504 -0.4800  0.4572  0.6841
 6022TIP3   OH242260   4.205   7.006   2.939 -0.0348 -0.3436  0.7249
 6022TIP3    H142261   4.250   7.053   3.010  0.8435  0.7908 -0.5347
 6022TIP3    H242262   4.113   7.009   2.964  0.2391  0.1135  1.7668
 6023TIP3   OH242263   1.285   1.322   2.468 -0.2409  0.0088 -0.3201
 6023TIP3    H142264   1.357   1.268   2.435  0.4014  1.6213 -1.6866
 6023TIP3    H242265   1.222   1.325   2.397 -0.6108  0.4291  0.0200
 6024TIP3   OH242266   0.983   7.125   3.189  0.5808 -0.9411  0.2492
 6024TIP3    H142267   1.007   7.149   3.278  1.3918 -1.6056  0.2092
 6024TIP3    H242268   1.066   7.119   3.141  0.1100  0.3966 -0.8133
 6025TIP3   OH242269   5.248   5.221   1.568  0.4734  0.2462  0.5342
 6025TIP3    H142270   5.224   5.197   1.478  1.0263  1.4332  0.0435
 6025TIP3    H242271   5.242   5.317   1.569  1.5579  0.3233  1.4415
 6026TIP3   OH242272   7.656   7.134   2.254 -0.0719  0.5515  0.4310
 6026TIP3    H142273   7.680   7.137   2.161  0.5401 -1.6103  0.4776
 6026TIP3    H242274   7.727   7.179   2.299  0.1487  0.6815 -0.0413
 6027TIP3   OH242275   7.192   1.321   1.364  0.0074 -0.1298 -0.3951
 6027TIP3    H142276   7.108   1.337   1.406  0.2753 -0.6053  0.3353
 6027TIP3    H242277   7.169   1.298   1.273 -0.5842  0.6479 -0.4522
 6028TIP3   OH242278   5.722   0.672   2.861  0.1408  0.1787 -0.3398
 6028TIP3    H142279   5.742   0.583   2.833  0.5267 -0.2258  1.1005
 6028TIP3    H242280   5.668   0.660   2.940  0.4022  1.2184  0.0122
 6029TIP3   OH242281   5.223   3.871   1.923  0.5294 -0.5651  0.2165
 6029TIP3    H142282   5.317   3.878   1.906  0.3979  1.9599  0.2258
 6029TIP3    H242283   5.215   3.802   1.989  2.1632 -2.1675 -1.1827
 6030TIP3   OH242284   3.221   5.483   1.234 -0.2442  0.2486  0.0346
 6030TIP3    H142285   3.310   5.466   1.205 -0.9029 -0.0029 -2.0222
 6030TIP3    H242286   3.228   5.560   1.290  1.3509 -0.2487  0.5724
 6031TIP3   OH242287   2.027   4.452   0.659 -0.1226  0.4825 -0.1717
 6031TIP3    H142288   1.958   4.510   0.691 -0.5080  1.0719 -1.9764
 6031TIP3    H242289   2.108   4.496   0.683 -0.2143 -0.8147  3.1004
 6032TIP3   OH242290   6.809   5.313   2.778 -0.6614  0.6913  0.1241
 6032TIP3    H142291   6.884   5.288   2.832 -0.6999  1.0137  0.3314
 6032TIP3    H242292   6.738   5.257   2.809 -0.3750  0.0035 -0.4444
 6033TIP3   OH242293   0.558   4.336   0.891  0.3970 -0.1265 -0.6536
 6033TIP3    H142294   0.518   4.422   0.900 -2.1591 -1.3858  0.9202
 6033TIP3    H242295   0.595   4.317   0.977 -0.4611 -1.2227 -0.5054
 6034TIP3   OH242296   6.500   7.589   2.997 -0.4405 -0.1220 -0.0013
 6034TIP3    H142297   6.523   7.498   3.017 -1.3818 -0.2680  0.4663
 6034TIP3    H242298   6.415   7.603   3.040  0.6266  1.6177  1.6793
 6035TIP3   OH242299   6.870   2.288   1.061 -0.0773 -0.2116  0.7086
 6035TIP3    H142300   6.911   2.202   1.047 -0.5285 -0.5094  1.2039
 6035TIP3    H242301   6.942   2.343   1.093  0.4166 -0.1594 -0.4390
 6036TIP3   OH242302   2.015   1.540   1.135  0.2590 -0.0078  0.6559
 6036TIP3    H142303   2.060   1.556   1.052 -1.2069  1.3749  0.0728
 6036TIP3    H242304   2.022   1.446   1.149 -1.8018 -0.7863 -2.5147
 6037TIP3   OH242305   3.825   7.469   2.607 -0.0957 -0.0805 -0.0566
 6037TIP3    H142306   3.740   7.501   2.639  0.7479  0.3773  1.8378
 6037TIP3    H242307   3.802   7.411   2.534 -2.0911 -0.5425  0.8573
 6038TIP3   OH242308   0.526   0.834   1.366  0.6155  0.4288  0.1170
 6038TIP3    H142309   0.554   0.840   1.275 -0.5862  0.4073 -0.2766
 6038TIP3    H242310   0.538   0.742   1.389 -1.8738 -0.2783 -1.0200
 6039TIP3   OH242311   0.068   4.167   1.468 -0.0624  0.5263 -0.1725
 6039TIP3    H142312   0.080   4.156   1.562  0.4444  0.9839 -0.1787
 6039TIP3    H242313   0.016   4.092   1.441  3.0436 -1.8172 -0.1812
 6040TIP3   OH242314   7.406   7.009   2.246 -0.1207 -0.2299 -0.1219
 6040TIP3    H142315   7.490   7.054   2.261  1.9775 -3.3439 -1.3691
 6040TIP3    H242316   7.409   6.933   2.304 -0.6325 -2.0117 -2.2820
 6041TIP3   OH242317   3.487   3.407   0.561  0.0451 -1.1666  0.4070
 6041TIP3    H142318   3.413   3.458   0.594 -0.0224 -1.0279  0.0349
 6041TIP3    H242319   3.450   3.349   0.496  0.5301  0.1183 -1.0730
 6042TIP3   OH242320   7.233   4.042   0.653  0.3416  0.1793 -0.6365
 6042TIP3    H142321   7.221   3.976   0.585 -0.3144  0.7804 -1.1108
 6042TIP3    H242322   7.229   3.993   0.735 -2.5977 -0.0766 -0.8540
 6043TIP3   OH242323   2.505   1.351   3.082 -0.3250 -0.6357  1.0671
 6043TIP3    H142324   2.508   1.403   3.002  0.4347  0.8351  2.0190
 6043TIP3    H242325   2.421   1.372   3.122  1.0682  2.0775  2.8188
 6044TIP3   OH242326   1.643   6.061   3.289  0.0223  0.2501  0.0888
 6044TIP3    H142327   1.714   6.106   3.335  0.7021 -0.4558 -0.2492
 6044TIP3    H242328   1.565   6.115   3.306  0.5238  0.7265  0.9269
 6045TIP3   OH242329   0.817   5.835   1.085 -0.1366 -0.0146 -0.1414
 6045TIP3    H142330   0.841   5.883   1.006 -0.3207 -0.0255 -0.2052
 6045TIP3    H242331   0.826   5.743   1.061  0.4416 -0.0102  0.0527
 6046TIP3   OH242332   3.987   2.357   1.620  0.1954  0.3168 -0.1327
 6046TIP3    H142333   4.011   2.314   1.538 -1.0283 -1.5263  0.4210
 6046TIP3    H242334   3.905   2.402   1.600 -0.7944 -1.2049  0.3684
 6047TIP3   OH242335   2.907   3.823   3.330 -0.3186  0.3018  0.2684
 6047TIP3    H142336   2.919   3.796   3.421  1.5520 -1.8131 -0.5158
 6047TIP3    H242337   2.995   3.841   3.298 -0.3378 -3.1384 -2.2321
 6048TIP3   OH242338   0.407   5.719   1.648  0.1955 -0.0707  0.9916
 6048TIP3    H142339   0.312   5.703   1.647  0.2954 -0.7381  1.5629
 6048TIP3    H242340   0.431   5.724   1.556  0.0320 -2.5844  0.7448
 6049TIP3   OH242341   2.131   3.117   1.955 -0.3135  0.1459 -0.2350
 6049TIP3    H142342   2.118   3.148   2.044  0.6086  1.4906 -0.5469
 6049TIP3    H242343   2.166   3.192   1.908 -0.7888 -0.5412 -1.7428
 6050TIP3   OH242344   1.979   0.901   1.266 -0.2320  0.3036  0.0909
 6050TIP3    H142345   1.975   0.907   1.171 -3.6594  1.5896  0.1517
 6050TIP3    H242346   2.050   0.960   1.291 -0.1164  0.9589 -1.6193
 6051TIP3   OH242347   6.776   1.843   2.551  0.0769  0.5116 -0.6334
 6051TIP3    H142348   6.706   1.800   2.600  1.6817 -0.2894  1.1394
 6051TIP3    H242349   6.830   1.771   2.518  1.8241  1.0266  0.8681
 6052TIP3   OH242350   4.481   1.304   1.332 -0.4748  0.2533 -0.4494
 6052TIP3    H142351   4.387   1.307   1.316 -0.5641  1.4894  0.2239
 6052TIP3    H242352   4.491   1.329   1.424  0.5464  0.5848 -0.6406
 6053TIP3   OH242353   4.329   3.117   2.920  0.2836 -0.0761 -0.2593
 6053TIP3    H142354   4.396   3.166   2.967  1.3584 -0.5191 -1.3019
 6053TIP3    H242355   4.321   3.034   2.968 -0.0592  0.2685  0.2902
 6054TIP3   OH242356   6.864   6.613   2.916  0.2792 -0.3041  0.1135
 6054TIP3    H142357   6.859   6.661   2.833 -1.3016 -1.1837 -0.3408
 6054TIP3    H242358   6.921   6.667   2.972  1.5289  0.2236 -1.5761
 6055TIP3   OH242359   2.446   1.444   2.558 -0.2133  0.1729 -0.2119
 6055TIP3    H142360   2.499   1.419   2.634  1.7762  1.4773 -1.0699
 6055TIP3    H242361   2.418   1.361   2.520  1.9523 -0.6532 -0.1529
 6056TIP3   OH242362   6.154   6.496   1.745 -0.0013 -0.4578 -0.6244
 6056TIP3    H142363   6.230   6.523   1.693  2.4413 -2.3933  1.6277
 6056TIP3    H242364   6.145   6.563   1.812 -1.0092  0.3187 -1.5145
 6057TIP3   OH242365   4.393   7.000   1.465 -0.3857  0.5625  1.1286
 6057TIP3    H142366   4.406   7.059   1.539 -1.0623  0.0885  1.6394
 6057TIP3    H242367   4.480   6.967   1.445 -0.3517 -0.2472  2.5146
 6058TIP3   OH242368   1.133   1.352   3.128 -0.1614  0.0849  0.0177
 6058TIP3    H142369   1.189   1.283   3.162  0.3739  0.6629  0.3195
 6058TIP3    H242370   1.044   1.318   3.139  0.0871 -0.4849  0.3165
 6059TIP3   OH242371   2.898   1.787   0.834 -0.4018 -0.2751 -0.5437
 6059TIP3    H142372   2.934   1.753   0.916 -1.0330 -1.3216 -0.6784
 6059TIP3    H242373   2.934   1.875   0.826  0.9252 -0.7387  0.0692
 6060TIP3   OH242374   5.593   5.211   2.594 -0.2105 -0.0007 -0.7015
 6060TIP3    H142375   5.637   5.282   2.547 -0.3638  1.6912  1.5318
 6060TIP3    H242376   5.647   5.134   2.578  1.7717  1.3098 -0.6948
 6061TIP3   OH242377   6.912   6.697   1.067  0.1639  0.2571 -0.0489
 6061TIP3    H142378   6.867   6.781   1.078  0.9456  0.4817  1.8866
 6061TIP3    H242379   6.994   6.719   1.023 -0.1182  0.3409 -0.5358
 6062TIP3   OH242380   6.698   3.820   0.918 -0.4814 -0.0626  0.2572
 6062TIP3    H142381   6.622   3.817   0.977  0.4499 -0.8141  1.4430
 6062TIP3    H242382   6.690   3.741   0.865 -0.2525 -0.4066  0.7332
 6063TIP3   OH242383   2.895   4.756   1.861  0.2227 -0.0110  0.1811
 6063TIP3    H142384   2.980   4.713   1.873 -0.0081 -0.5481 -0.0441
 6063TIP3    H242385   2.832   4.688   1.886 -0.1288  0.5977  0.9811
 6064TIP3   OH242386   5.265   0.415   2.135 -0.0955  0.8447  0.0314
 6064TIP3    H142387   5.286   0.322   2.129  1.4018  1.1582 -0.1121
 6064TIP3    H242388   5.289   0.439   2.225 -1.8029  0.8089  0.5212
 6065TIP3   OH242389   2.345   6.841   1.959 -0.9658  0.2648  0.2211
 6065TIP3    H142390   2.263   6.884   1.934 -1.7477 -1.5977 -0.6425
 6065TIP3    H242391   2.336   6.751   1.925  0.8339 -0.3971  1.3554
 6066TIP3   OH242392   1.696   5.732   1.267  0.3339  0.4869  0.0729
 6066TIP3    H142393   1.621   5.748   1.210 -0.9072 -0.3590  1.3981
 6066TIP3    H242394   1.716   5.817   1.306  0.6733  0.9029 -0.9905
 6067TIP3   OH242395   4.067   5.250   2.617 -0.3931 -0.1805 -0.2225
 6067TIP3    H142396   4.109   5.195   2.551  0.6994 -0.4600  0.6764
 6067TIP3    H242397   4.050   5.333   2.572  4.0845  1.1486  0.1401
 6068TIP3   OH242398   5.344   0.926   1.240 -0.3453 -0.4659 -0.0843
 6068TIP3    H142399   5.358   1.021   1.242  1.0213 -0.6146 -1.0221
 6068TIP3    H242400   5.287   0.912   1.164 -0.5664 -0.3992  0.0681
 6069TIP3   OH242401   3.348   0.622   2.390 -0.4485 -0.1531 -0.2974
 6069TIP3    H142402   3.391   0.606   2.306 -0.8079  1.3973 -0.8172
 6069TIP3    H242403   3.350   0.717   2.400 -0.4219 -0.3014  1.4620
 6070TIP3   OH242404   5.497   1.789   1.378  0.0655  0.3845  0.4052
 6070TIP3    H142405   5.560   1.860   1.367 -0.5440  0.9654  0.5807
 6070TIP3    H242406   5.491   1.777   1.472 -2.3443  2.4542  0.6210
 6071TIP3   OH242407   2.225   2.116   1.370 -0.1079 -0.1908 -0.3132
 6071TIP3    H142408   2.151   2.056   1.379 -0.2084 -0.0997 -0.5374
 6071TIP3    H242409   2.277   2.078   1.299 -0.5022  0.3302 -0.8924
 6072TIP3   OH242410   3.289   1.378   1.902 -0.0946 -0.0319 -0.1290
 6072TIP3    H142411   3.252   1.448   1.956 -0.5363  1.3905 -2.1447
 6072TIP3    H242412   3.380   1.405   1.887 -0.3830  0.3531 -1.2536
 6073TIP3   OH242413   2.054   4.429   1.119  0.0875  0.1826 -0.4640
 6073TIP3    H142414   2.080   4.358   1.178 -0.4426  0.8395  0.5899
 6073TIP3    H242415   2.116   4.499   1.136  1.0350 -0.2423 -2.0005
 6074TIP3   OH242416   4.319   4.433   2.810 -0.1977  0.6925  0.4994
 6074TIP3    H142417   4.357   4.369   2.870 -1.0540 -0.4183 -0.0954
 6074TIP3    H242418   4.393   4.486   2.780  0.3713  0.6391  1.7827
 6075TIP3   OH242419   6.432   3.981   2.324  0.2629 -0.7010 -0.4735
 6075TIP3    H142420   6.452   4.027   2.242 -0.2368 -1.7987 -1.2410
 6075TIP3    H242421   6.479   3.898   2.317 -1.1710 -1.5526 -0.4517
 6076TIP3   OH242422   3.236   6.964   1.053  0.7155 -0.1116  0.1054
 6076TIP3    H142423   3.182   7.030   1.008 -0.9809 -2.1599 -1.0337
 6076TIP3    H242424   3.314   6.956   0.998 -0.5595 -1.3491 -1.6173
 6077TIP3   OH242425   5.962   0.301   2.382 -0.5085 -0.2563  0.0480
 6077TIP3    H142426   6.042   0.286   2.432 -0.8328 -0.6720  0.4581
 6077TIP3    H242427   5.912   0.363   2.435 -0.5027 -0.0760 -0.1574
 6078TIP3   OH242428   3.175   2.514   3.614 -0.1035 -0.1975  1.1380
 6078TIP3    H142429   3.216   2.428   3.620 -0.2975 -0.3590  0.2033
 6078TIP3    H242430   3.117   2.509   3.538 -2.1645 -0.0862  2.6196
 6079TIP3   OH242431   2.370   5.285   2.681 -0.3494 -0.5041 -0.4890
 6079TIP3    H142432   2.463   5.285   2.704 -0.2793 -0.9913 -0.7737
 6079TIP3    H242433   2.369   5.298   2.586 -0.6393  1.4598 -0.2491
 6080TIP3   OH242434   6.698   1.164   2.691 -0.8676  0.0269  0.2076
 6080TIP3    H142435   6.671   1.127   2.607 -1.0174  0.1785  0.1887
 6080TIP3    H242436   6.730   1.089   2.741  0.5454  0.1283 -0.4890
 6081TIP3   OH242437   1.653   2.131   1.133  0.0905 -0.4125 -0.2724
 6081TIP3    H142438   1.745   2.111   1.148 -0.1348 -0.3658  1.2821
 6081TIP3    H242439   1.651   2.225   1.116  0.2848 -0.3328  0.1414
 6082TIP3   OH242440   6.858   5.978   1.101 -0.3522 -0.2275 -0.3751
 6082TIP3    H142441   6.874   6.054   1.157  3.1981 -0.5829 -0.6707
 6082TIP3    H242442   6.854   6.015   1.012 -0.4136 -0.2247 -0.3715
 6083TIP3   OH242443   1.288   5.447   0.809  0.2166  0.5095 -0.4762
 6083TIP3    H142444   1.272   5.357   0.836  0.2615  0.7526  0.3857
 6083TIP3    H242445   1.344   5.483   0.878 -0.0176  1.2758 -0.6779
 6084TIP3   OH242446   4.762   6.955   2.140 -0.1942  0.2703 -1.2470
 6084TIP3    H142447   4.743   6.938   2.232 -2.1761 -0.9777 -1.8291
 6084TIP3    H242448   4.726   7.042   2.124 -0.3813  0.2451 -0.9823
 6085TIP3   OH242449   0.320   3.137   1.810 -0.1394  0.3047  0.0080
 6085TIP3    H142450   0.344   3.115   1.901  0.7074 -2.1352 -0.7251
 6085TIP3    H242451   0.397   3.181   1.775 -0.3231  0.9072  0.3527
 6086TIP3   OH242452   2.041   5.190   1.874 -0.5109 -0.5627 -0.0142
 6086TIP3    H142453   2.046   5.224   1.964 -0.0774 -0.9443  0.1098
 6086TIP3    H242454   1.965   5.234   1.836  0.1637  0.7282  0.0636
 6087TIP3   OH242455   3.114   4.860   2.362 -0.7166 -0.4445 -0.4000
 6087TIP3    H142456   3.192   4.915   2.359 -0.3801 -0.9070 -0.3041
 6087TIP3    H242457   3.043   4.916   2.330 -0.4556  0.1673  0.0785
 6088TIP3   OH242458   0.019   3.447   1.573 -0.0069 -0.0476 -0.0921
 6088TIP3    H142459  -0.065   3.456   1.619  0.3450  1.5271  0.2668
 6088TIP3    H242460   0.012   3.361   1.530 -2.0826  0.3300 -0.6416
 6089TIP3   OH242461   3.903   5.674   1.630 -0.0974  0.8334  0.1178
 6089TIP3    H142462   3.908   5.629   1.546 -1.1626  2.2652 -0.7632
 6089TIP3    H242463   3.993   5.671   1.663  0.7953  1.8457 -1.9863
 6090TIP3   OH242464   2.435   6.874   2.577 -0.0461  0.3795  0.3862
 6090TIP3    H142465   2.343   6.901   2.576 -0.2020  0.0787  2.2849
 6090TIP3    H242466   2.469   6.898   2.491 -1.8740  0.5891 -0.3004
 6091TIP3   OH242467   2.700   6.539   1.856 -0.0005  0.4100  0.0063
 6091TIP3    H142468   2.689   6.600   1.928  0.3202  1.3549 -0.7245
 6091TIP3    H242469   2.752   6.587   1.791 -0.1632 -0.4623 -0.7973
 6092TIP3   OH242470   3.894   0.052   2.764  0.4347 -0.1797 -0.2238
 6092TIP3    H142471   3.851   0.133   2.791  1.2631  0.4426 -0.7260
 6092TIP3    H242472   3.822  -0.007   2.740 -0.1738  0.3863  0.1731
 6093TIP3   OH242473   1.931   3.244   1.307 -0.0480  0.1157  0.7297
 6093TIP3    H142474   1.839   3.254   1.284  0.4663  0.2729 -1.4457
 6093TIP3    H242475   1.941   3.151   1.329 -0.5863 -0.0423  0.3200
 6094TIP3   OH242476   3.221   0.197   1.917 -0.1803  0.2591  0.2497
 6094TIP3    H142477   3.139   0.152   1.940 -0.3132  0.5397  0.3265
 6094TIP3    H242478   3.197   0.289   1.913 -0.1045  0.2521 -0.7404
 6095TIP3   OH242479   2.753   4.336   3.138 -0.1039 -0.2875  0.5913
 6095TIP3    H142480   2.832   4.289   3.167 -0.4308 -1.0827  0.2248
 6095TIP3    H242481   2.702   4.348   3.218  0.5495  0.5757  0.9006
 6096TIP3   OH242482   1.226   5.173   1.643 -0.1146 -0.3016  0.1472
 6096TIP3    H142483   1.137   5.195   1.614 -0.0020  1.2181  0.8351
 6096TIP3    H242484   1.275   5.158   1.563 -1.1209 -1.7697 -0.2227
 6097TIP3   OH242485   4.298   3.872   1.190 -0.6473 -0.0161  0.3424
 6097TIP3    H142486   4.299   3.925   1.270 -1.8727 -0.8054  0.9194
 6097TIP3    H242487   4.364   3.804   1.205 -1.3025 -0.5336  0.9811
 6098TIP3   OH242488   7.525   6.432   1.761 -0.2374  0.8196  0.3769
 6098TIP3    H142489   7.562   6.366   1.819 -1.6875  0.5793  1.0870
 6098TIP3    H242490   7.492   6.383   1.686 -0.1692  0.8888  0.3012
 6099TIP3   OH242491   4.636   7.204   2.162 -0.3713  0.3354 -0.4766
 6099TIP3    H142492   4.609   7.252   2.083  2.8432  0.6953 -1.5183
 6099TIP3    H242493   4.724   7.238   2.181  0.0152 -1.6547  1.7035
 6100TIP3   OH242494   2.981   2.481   0.837 -0.0845  0.1423  0.4986
 6100TIP3    H142495   2.907   2.540   0.823  0.2543  0.1294 -1.7255
 6100TIP3    H242496   2.966   2.408   0.777  1.0491 -0.5336  0.9955
 6101TIP3   OH242497   5.379   3.551   1.000  0.8087 -0.0481  0.0447
 6101TIP3    H142498   5.413   3.636   0.973  0.6350 -0.9107 -3.3538
 6101TIP3    H242499   5.284   3.564   1.004  0.8825  0.2668  1.1457
 6102TIP3   OH242500   1.941   5.669   3.113 -0.2319  0.2595  0.6771
 6102TIP3    H142501   1.854   5.676   3.154  0.1456  1.2477  1.3580
 6102TIP3    H242502   1.954   5.753   3.070 -0.0055 -0.2390 -0.2521
 6103TIP3   OH242503   2.150   3.161   0.872  0.2001  0.1710 -0.1011
 6103TIP3    H142504   2.215   3.218   0.913  1.8343 -1.0492 -0.8814
 6103TIP3    H242505   2.133   3.093   0.938 -0.7291  0.7791  0.3084
 6104TIP3   OH242506   0.310   7.110   2.001 -0.7137 -0.2431 -0.1090
 6104TIP3    H142507   0.340   7.069   1.921  1.5792  0.4759  0.2988
 6104TIP3    H242508   0.346   7.056   2.071 -0.5270  0.5257  0.4120
 6105TIP3   OH242509   0.445   6.719   1.772  0.1539 -0.7622  0.2293
 6105TIP3    H142510   0.368   6.662   1.776 -0.4821 -0.0451 -0.9262
 6105TIP3    H242511   0.408   6.807   1.758  1.1788 -0.3719 -0.1117
 6106TIP3   OH242512   7.427   2.090   0.676 -0.5198 -0.2071 -0.5711
 6106TIP3    H142513   7.412   2.097   0.771  0.6141  2.4164 -0.4895
 6106TIP3    H242514   7.518   2.062   0.668 -0.1908  0.8945 -0.8406
 6107TIP3   OH242515   4.224   5.277   1.982  0.1431 -0.6539 -0.1622
 6107TIP3    H142516   4.240   5.253   2.073 -0.7504 -0.1137  0.1512
 6107TIP3    H242517   4.209   5.194   1.936  1.1382 -0.9641  0.0673
 6108TIP3   OH242518   6.657   6.439   2.463  0.0340 -0.3372 -0.3525
 6108TIP3    H142519   6.742   6.453   2.506  0.1793  1.2362 -1.0661
 6108TIP3    H242520   6.611   6.522   2.477 -2.2248 -1.8185  1.7525
 6109TIP3   OH242521   4.938   6.629   1.446 -0.0252 -0.1123  0.5347
 6109TIP3    H142522   4.997   6.659   1.377  2.9004 -2.3347  1.8334
 6109TIP3    H242523   4.940   6.698   1.512 -1.8304  1.4297 -0.8847
 6110TIP3   OH242524   6.994   3.853   1.897  0.2136  0.4690 -0.7111
 6110TIP3    H142525   6.939   3.793   1.846  0.1981  0.6011 -0.8517
 6110TIP3    H242526   7.074   3.862   1.844  0.4791  0.0723 -0.3814
 6111TIP3   OH242527   6.487   2.746   0.652 -1.5459 -0.2528 -0.3813
 6111TIP3    H142528   6.424   2.711   0.589 -1.9752 -0.6771  0.2745
 6111TIP3    H242529   6.556   2.680   0.656 -1.3960 -0.1100 -0.5869
 6112TIP3   OH242530   3.025   0.663   3.124 -0.4683 -0.0452 -0.1836
 6112TIP3    H142531   3.022   0.742   3.070  2.3111  0.9712  0.9667
 6112TIP3    H242532   3.054   0.694   3.210 -1.0879 -2.1179  0.8379
 6113TIP3   OH242533   1.378   3.976   1.544 -0.0991 -0.2774 -0.1354
 6113TIP3    H142534   1.445   4.018   1.597 -0.2098 -0.3491  0.0642
 6113TIP3    H242535   1.377   4.026   1.462 -1.5259  1.3198  0.7959
 6114TIP3   OH242536   7.546   0.433   2.123  0.0561  0.1308  0.4148
 6114TIP3    H142537   7.640   0.427   2.106  0.4451  2.0001  1.6510
 6114TIP3    H242538   7.533   0.392   2.208 -0.4354 -1.0081 -0.1861
 6115TIP3   OH242539   4.014   2.991   2.741  0.2479 -0.3115  0.2731
 6115TIP3    H142540   4.011   2.953   2.829 -1.8780 -0.9700 -0.0306
 6115TIP3    H242541   3.931   2.964   2.700  0.8694  0.5685 -1.6904
 6116TIP3   OH242542   6.987   2.474   3.194 -0.0147  0.1319  0.1234
 6116TIP3    H142543   7.064   2.523   3.165  0.8920 -1.1696  0.2511
 6116TIP3    H242544   7.008   2.445   3.283 -0.1177 -1.2688 -0.2777
 6117TIP3   OH242545   1.330   3.870   1.833 -0.1821  0.0928  0.0216
 6117TIP3    H142546   1.373   3.930   1.773 -0.9567 -0.7531 -1.4365
 6117TIP3    H242547   1.358   3.783   1.804 -0.7208 -0.3389  0.7717
 6118TIP3   OH242548   6.779   1.493   1.985 -0.3187 -0.3268  0.4823
 6118TIP3    H142549   6.737   1.470   2.068  3.5076  1.2349  3.1339
 6118TIP3    H242550   6.817   1.410   1.954 -1.3073 -0.8213  0.5461
 6119TIP3   OH242551   7.080   2.328   2.308  0.0905 -0.1899  0.3007
 6119TIP3    H142552   7.053   2.420   2.295 -0.0382 -0.2553  0.0992
 6119TIP3    H242553   7.168   2.324   2.272  0.1173 -0.1307  0.3586
 6120TIP3   OH242554   5.533   4.300   1.079 -0.3250  0.0376 -0.2569
 6120TIP3    H142555   5.502   4.215   1.109 -1.1333  0.2275 -0.5115
 6120TIP3    H242556   5.627   4.289   1.065 -0.0344 -0.2473  1.6495
 6121TIP3   OH242557   5.659   4.104   1.464  0.0066 -0.1775 -0.5131
 6121TIP3    H142558   5.630   4.076   1.551  0.2223  0.4801 -0.2230
 6121TIP3    H242559   5.664   4.023   1.413  0.2752 -0.6198  0.2032
 6122TIP3   OH242560   6.579   6.065   0.349 -0.8466 -0.3081 -0.5425
 6122TIP3    H142561   6.562   5.971   0.344 -2.8685 -0.0133 -0.2208
 6122TIP3    H242562   6.633   6.084   0.272  1.2308 -1.9954  0.4011
 6123TIP3   OH242563   4.446   6.097   3.093  0.3029  0.2393 -0.6405
 6123TIP3    H142564   4.394   6.178   3.099  0.6864  0.7089 -2.9283
 6123TIP3    H242565   4.381   6.028   3.085 -0.0375  0.2255  1.5541
 6124TIP3   OH242566   4.178   3.022   3.551 -0.1578 -0.5141 -0.0365
 6124TIP3    H142567   4.110   2.983   3.496 -0.1440  1.0765 -1.2691
 6124TIP3    H242568   4.256   3.023   3.496  0.0360  0.5026  0.2420
 6125TIP3   OH242569   4.086   3.231   2.966 -0.0796 -0.1995  0.9629
 6125TIP3    H142570   4.065   3.214   3.058  1.4803 -0.4781  1.2874
 6125TIP3    H242571   4.172   3.191   2.953  1.4602  2.9980  0.3883
 6126TIP3   OH242572   5.503   5.614   1.893 -0.1675  0.1035 -0.2883
 6126TIP3    H142573   5.432   5.551   1.905  0.5826 -0.7300 -0.0204
 6126TIP3    H242574   5.572   5.562   1.851  0.5882  0.6698  0.2402
 6127TIP3   OH242575   2.250   1.379   3.186 -0.0524 -0.7282 -0.0048
 6127TIP3    H142576   2.230   1.401   3.095  0.0686  0.4100  0.2262
 6127TIP3    H242577   2.208   1.448   3.237 -0.0838 -1.3330  0.8050
 6128TIP3   OH242578   0.596   5.797   2.000  0.5763  0.0815  0.2916
 6128TIP3    H142579   0.689   5.816   2.010  0.7547 -0.5213 -0.1759
 6128TIP3    H242580   0.579   5.726   2.062  0.2585  0.6837  0.9080
 6129TIP3   OH242581   2.187   7.030   2.173 -0.1288 -0.4922 -0.1164
 6129TIP3    H142582   2.223   7.101   2.227 -2.1441 -0.6965  1.6436
 6129TIP3    H242583   2.092   7.046   2.173 -0.4603 -2.1913 -1.1991
 6130TIP3   OH242584   2.251   2.086   3.760 -0.2304  0.0319 -0.1636
 6130TIP3    H142585   2.175   2.034   3.734 -0.1264 -0.6989  0.9105
 6130TIP3    H242586   2.313   2.021   3.793 -0.8149  0.9342  2.9928
 6131TIP3   OH242587   3.475   5.274   2.867  0.3181  0.2999 -0.4831
 6131TIP3    H142588   3.560   5.295   2.829  0.6310  0.6523  0.3890
 6131TIP3    H242589   3.483   5.298   2.959 -0.2683 -0.9768 -0.0729
 6132TIP3   OH242590   1.177   3.176   0.510 -1.0528  0.9203 -0.2817
 6132TIP3    H142591   1.272   3.186   0.516 -0.8072 -1.2608  0.0706
 6132TIP3    H242592   1.143   3.261   0.538  0.7571  1.4584  0.4733
 6133TIP3   OH242593   7.588   0.900   1.033 -0.2822 -0.4062  0.1533
 6133TIP3    H142594   7.679   0.880   1.055 -0.0115  0.6564  0.0562
 6133TIP3    H242595   7.540   0.821   1.055  0.4981 -0.5771  1.3284
 6134TIP3   OH242596   5.387   2.140   0.779 -0.4942 -0.0170  0.4059
 6134TIP3    H142597   5.442   2.071   0.816 -1.6462 -2.6629 -2.4542
 6134TIP3    H242598   5.301   2.126   0.818 -0.7143 -0.1627 -0.1218
 6135TIP3   OH242599   3.517   6.171   1.829  0.3436 -0.0269  0.1745
 6135TIP3    H142600   3.439   6.226   1.836 -1.5373 -2.4391 -0.2759
 6135TIP3    H242601   3.558   6.198   1.747 -0.9459  0.2200 -0.4262
 6136TIP3   OH242602   5.310   5.823   1.924  0.2662  0.0682  0.4647
 6136TIP3    H142603   5.366   5.750   1.900 -0.0807  0.1818 -0.7394
 6136TIP3    H242604   5.232   5.782   1.962 -0.2501 -0.2500 -0.8819
 6137TIP3   OH242605   4.919   2.290   2.084 -0.7329  0.0523  0.1175
 6137TIP3    H142606   4.858   2.246   2.024 -1.7428  0.7836  0.5766
 6137TIP3    H242607   4.901   2.383   2.073 -0.3242  0.2352  0.9224
 6138TIP3   OH242608   3.632   1.609   2.308  0.3120 -0.0147  0.0180
 6138TIP3    H142609   3.566   1.676   2.293 -1.0322 -1.1423  0.6451
 6138TIP3    H242610   3.699   1.626   2.243 -0.0473  1.8459  0.0902
 6139TIP3   OH242611   4.232   2.309   2.940  0.4315  0.3120  0.3634
 6139TIP3    H142612   4.318   2.267   2.940 -0.3310 -1.3631  1.4137
 6139TIP3    H242613   4.185   2.267   2.867 -0.2531 -0.5442  1.2654
 6140TIP3   OH242614   6.305   3.195   1.889  0.1165  0.5632 -0.6788
 6140TIP3    H142615   6.362   3.123   1.865 -1.3041 -1.1754  0.8675
 6140TIP3    H242616   6.223   3.178   1.842 -1.4391 -0.8910  2.2679
 6141TIP3   OH242617   2.036   1.201   3.546  0.2589 -0.2805 -0.1362
 6141TIP3    H142618   2.118   1.181   3.500  0.8107  0.2240  0.6076
 6141TIP3    H242619   1.982   1.245   3.480  0.8144 -0.0865 -0.4702
 6142TIP3   OH242620   1.182   1.442   3.442  0.5502  0.3180 -0.2053
 6142TIP3    H142621   1.245   1.476   3.506  0.6658 -1.3770  0.6425
 6142TIP3    H242622   1.201   1.490   3.362  2.8939 -0.0666  0.0313
 6143TIP3   OH242623   3.433   4.099   2.700  0.3895  0.4055  0.4290
 6143TIP3    H142624   3.358   4.140   2.743  0.4092 -0.0028  0.8704
 6143TIP3    H242625   3.484   4.172   2.664  1.3595  0.9534  2.7159
 6144TIP3   OH242626   7.137   0.135   0.937 -0.5157 -0.1077  0.5756
 6144TIP3    H142627   7.205   0.087   0.890  0.6360  0.3414  1.7450
 6144TIP3    H242628   7.056   0.092   0.910  0.2535 -0.9821 -0.4608
 6145TIP3   OH242629   5.466   6.283   3.232 -0.4734 -0.4395 -0.8614
 6145TIP3    H142630   5.397   6.346   3.254 -1.8787 -2.2078  0.0124
 6145TIP3    H242631   5.433   6.199   3.263  2.9233 -1.1220  1.5013
 6146TIP3   OH242632   5.404   1.332   2.988  0.1771  0.3616 -0.2495
 6146TIP3    H142633   5.365   1.281   3.059  1.4636 -1.5819 -0.8727
 6146TIP3    H242634   5.453   1.401   3.032 -0.7603  0.4794  0.6496
 6147TIP3   OH242635   2.370   1.491   2.217 -0.2508 -0.2954  0.5095
 6147TIP3    H142636   2.399   1.407   2.180 -1.2246  0.3685 -1.9703
 6147TIP3    H242637   2.276   1.480   2.231 -0.3619  0.3424  0.2940
 6148TIP3   OH242638   6.023   5.273   0.646  0.5237  0.6190 -0.8145
 6148TIP3    H142639   6.002   5.195   0.596  0.9899 -1.1205  1.5213
 6148TIP3    H242640   6.119   5.279   0.643  0.6179  0.0837  0.3466
 6149TIP3   OH242641   0.084   4.249   0.883  0.6255  0.0738 -0.6628
 6149TIP3    H142642   0.081   4.262   0.978 -1.5895  1.3930 -0.8201
 6149TIP3    H242643   0.010   4.190   0.865  1.2845 -0.5045 -1.5325
 6150TIP3   OH242644   3.251   4.166   2.897  0.3296 -0.4795  0.5262
 6150TIP3    H142645   3.184   4.144   2.832 -0.0761 -1.6146  1.2832
 6150TIP3    H242646   3.253   4.089   2.955  1.9825 -0.2705  0.7750
 6151TIP3   OH242647   4.208   1.440   2.293  0.3391  0.2631  0.1226
 6151TIP3    H142648   4.249   1.370   2.344  0.1441  0.5862  0.7349
 6151TIP3    H242649   4.194   1.401   2.206  1.8962  0.1461 -0.0934
 6152TIP3   OH242650   6.211   1.760   0.870 -0.0506 -0.3547  0.0426
 6152TIP3    H142651   6.191   1.796   0.956  0.8720  0.9959 -0.2767
 6152TIP3    H242652   6.125   1.744   0.831 -0.4793 -1.0789  1.2338
 6153TIP3   OH242653   6.919   3.324   0.749 -0.0706  0.5448 -0.9007
 6153TIP3    H142654   6.826   3.320   0.771  0.0784  1.2821 -0.0652
 6153TIP3    H242655   6.932   3.251   0.689 -0.3175 -2.3768  2.2406
 6154TIP3   OH242656   0.365   5.423   0.498  0.0830  0.6449  0.4764
 6154TIP3    H142657   0.433   5.362   0.469 -0.2327  0.9463 -1.0278
 6154TIP3    H242658   0.403   5.469   0.572  0.3339 -1.3471  1.6581
 6155TIP3   OH242659   0.303   3.538   1.514  0.1983  0.4542  0.0412
 6155TIP3    H142660   0.244   3.463   1.503 -0.5314  0.8783  0.9448
 6155TIP3    H242661   0.264   3.607   1.460  0.6815  0.3041 -0.5159
 6156TIP3   OH242662   5.246   1.668   2.116 -0.2333 -0.0193 -0.0615
 6156TIP3    H142663   5.277   1.729   2.183  0.5300  0.1464 -0.5603
 6156TIP3    H242664   5.315   1.602   2.111  0.6694  1.0033 -2.0503
 6157TIP3   OH242665   3.002   6.652   1.404 -0.1075 -0.4708  0.0786
 6157TIP3    H142666   3.095   6.670   1.386 -0.2198 -0.7735 -0.8633
 6157TIP3    H242667   3.003   6.572   1.457  0.1359 -1.1124 -0.8704
 6158TIP3   OH242668   4.128   5.028   1.279  0.5257 -0.2000  0.7455
 6158TIP3    H142669   4.156   4.996   1.193 -0.7010  2.8441 -0.9428
 6158TIP3    H242670   4.032   5.019   1.277  0.1303  2.9143  0.2927
 6159TIP3   OH242671   2.981   7.063   0.950 -0.5064 -0.4462 -0.1469
 6159TIP3    H142672   2.994   6.984   1.002 -0.4213 -1.3490 -1.5026
 6159TIP3    H242673   2.899   7.100   0.984 -0.8500 -1.4215  0.1292
 6160TIP3   OH242674   1.020   2.103   0.875  0.5203  0.0246 -0.3045
 6160TIP3    H142675   0.973   2.070   0.799 -1.7684  1.6980  0.2646
 6160TIP3    H242676   1.112   2.083   0.857 -0.3241 -3.9401 -1.2411
 6161TIP3   OH242677   6.173   2.571   1.275 -0.4049 -0.6671  0.0869
 6161TIP3    H142678   6.195   2.609   1.360  1.7684 -0.4854 -0.5095
 6161TIP3    H242679   6.156   2.646   1.219 -2.3531 -0.7965  0.4376
 6162TIP3   OH242680   0.737   0.804   0.743  0.1262 -0.2793  0.4338
 6162TIP3    H142681   0.796   0.771   0.675 -0.9819 -0.5142 -0.4506
 6162TIP3    H242682   0.789   0.867   0.792  0.6618  0.7080 -1.3160
 6163TIP3   OH242683   3.334   3.142   2.543  0.3822 -0.1248 -0.5068
 6163TIP3    H142684   3.324   3.220   2.488 -0.5685  1.2809  1.5056
 6163TIP3    H242685   3.249   3.097   2.536  0.5437 -0.3889 -0.7987
 6164TIP3   OH242686   3.654   4.129   4.186 -0.5805  0.0152 -0.6681
 6164TIP3    H142687   3.692   4.127   4.098 -3.1236 -0.8123 -1.8456
 6164TIP3    H242688   3.707   4.066   4.235 -0.3386 -1.0668 -2.2073
 6165TIP3   OH242689   2.462   2.392   0.646  0.0770 -0.1845 -0.3444
 6165TIP3    H142690   2.472   2.483   0.674  0.8654 -0.4188  0.1644
 6165TIP3    H242691   2.551   2.363   0.628 -0.0540 -1.1625  0.4974
 6166TIP3   OH242692   6.854   0.751   0.829 -0.2449  0.4613 -0.5303
 6166TIP3    H142693   6.906   0.672   0.815  0.1330  0.4205  0.8897
 6166TIP3    H242694   6.771   0.734   0.785  0.2187 -0.2861 -1.1392
 6167TIP3   OH242695   6.721   5.085   1.591 -0.6558 -0.0675 -0.1268
 6167TIP3    H142696   6.715   4.994   1.621  1.3517 -0.3380 -0.4396
 6167TIP3    H242697   6.647   5.129   1.633 -1.3640 -1.7179  0.4416
 6168TIP3   OH242698   7.541   1.881   1.691 -0.3996  0.4211  0.0246
 6168TIP3    H142699   7.500   1.893   1.777  1.8225  0.4580  1.1672
 6168TIP3    H242700   7.470   1.891   1.628 -1.9716  1.1257  1.8224
 6169TIP3   OH242701   2.610   0.047   8.572 -0.6921  0.3578 -0.2226
 6169TIP3    H142702   2.589  -0.025   8.513  0.4047 -0.8999  0.8555
 6169TIP3    H242703   2.700   0.069   8.552  0.0788 -0.8238  1.6310
 6170TIP3   OH242704   4.398   4.775   1.851  0.2197 -0.8347 -0.2405
 6170TIP3    H142705   4.362   4.714   1.916  0.0182 -1.2481 -0.7316
 6170TIP3    H242706   4.481   4.736   1.826  1.4178  0.4969  1.4379
 6171TIP3   OH242707   3.029   1.603   0.690  0.3765  0.0251  0.1379
 6171TIP3    H142708   2.951   1.635   0.736 -0.0887 -0.9126  0.0197
 6171TIP3    H242709   3.093   1.675   0.698  0.0039  0.2273  1.4643
 6172TIP3   OH242710   0.080   1.654   1.027  0.7060  0.3071  0.3700
 6172TIP3    H142711   0.001   1.604   1.048  0.0243  1.6562  1.2022
 6172TIP3    H242712   0.146   1.622   1.087  0.8552 -0.9418 -0.4323
 6173TIP3   OH242713   2.787   3.800   1.796 -0.0779 -0.0948  0.4464
 6173TIP3    H142714   2.725   3.746   1.749 -1.2584  1.7657 -0.2223
 6173TIP3    H242715   2.810   3.748   1.874 -0.4028 -1.9171 -0.6285
 6174TIP3   OH242716   0.755   0.254   1.045  0.3506  0.4592 -0.2158
 6174TIP3    H142717   0.712   0.179   1.085  0.8469  0.5508  0.4975
 6174TIP3    H242718   0.790   0.305   1.118  0.5397  1.0749 -0.7169
 6175TIP3   OH242719   6.327   5.327   1.465 -0.8222  0.1440 -0.0323
 6175TIP3    H142720   6.370   5.392   1.409 -2.2216  0.9025 -0.2561
 6175TIP3    H242721   6.289   5.264   1.405  0.9879 -1.2689  0.1893
 6176TIP3   OH242722   5.652   0.711   3.151  0.2213  0.6044  0.8520
 6176TIP3    H142723   5.656   0.637   3.212  0.2903  1.3053  1.7272
 6176TIP3    H242724   5.743   0.739   3.142  0.4542 -0.6148 -1.0296
 6177TIP3   OH242725   4.997   5.902   2.206  0.4540 -0.4904 -0.0798
 6177TIP3    H142726   4.963   5.911   2.295 -0.1120  0.6596 -0.3825
 6177TIP3    H242727   5.087   5.934   2.211  0.5949 -0.9278  0.1836
 6178TIP3   OH242728   2.274   1.774   1.184  0.0390 -0.6214 -0.2528
 6178TIP3    H142729   2.327   1.851   1.164 -0.1443  0.2559  2.2814
 6178TIP3    H242730   2.197   1.783   1.129  1.5474 -0.8774 -2.5294
 6179TIP3   OH242731   4.274   4.953   1.041 -0.2816  0.4999 -0.2813
 6179TIP3    H142732   4.323   4.871   1.038  0.7638  1.0719  0.4866
 6179TIP3    H242733   4.207   4.944   0.973 -0.0154 -0.8713 -0.3816
 6180TIP3   OH242734   7.495   6.320   0.984  0.1328  0.4772  0.1118
 6180TIP3    H142735   7.466   6.376   1.056  0.5035  0.6911  0.1018
 6180TIP3    H242736   7.524   6.382   0.917  0.0366  0.2765 -0.1139
 6181TIP3   OH242737   0.692   7.535   2.094  0.2190 -0.4375 -0.0458
 6181TIP3    H142738   0.634   7.535   2.169  0.8434 -1.2702  0.4540
 6181TIP3    H242739   0.636   7.557   2.020 -0.2108  1.4220  0.7769
 6182TIP3   OH242740   7.249   3.349   1.188  0.4158  0.2275  0.1925
 6182TIP3    H142741   7.231   3.307   1.272 -0.8851 -0.1479 -0.2519
 6182TIP3    H242742   7.162   3.365   1.150  0.8779  2.5150 -0.0560
 6183TIP3   OH242743   2.357   0.396   0.773 -0.0863 -0.2844  0.2120
 6183TIP3    H142744   2.404   0.339   0.712 -0.5084  0.7388 -1.1170
 6183TIP3    H242745   2.266   0.367   0.768 -0.2115  0.1468 -0.0571
 6184TIP3   OH242746   6.698   3.262   3.800  0.1517  0.9131 -0.2762
 6184TIP3    H142747   6.754   3.320   3.748 -0.5704  0.7762 -1.2520
 6184TIP3    H242748   6.616   3.259   3.751 -0.4641  0.5469  0.7468
 6185TIP3   OH242749   7.215   6.275   1.428 -0.6796  0.8195  0.2987
 6185TIP3    H142750   7.182   6.288   1.339  0.1650  0.5971 -0.0547
 6185TIP3    H242751   7.223   6.180   1.437  0.8551  0.8987 -0.0062
 6186TIP3   OH242752   3.616   3.355   1.650 -0.0461 -0.2296 -0.0813
 6186TIP3    H142753   3.535   3.399   1.623 -0.3658 -0.6555  0.1645
 6186TIP3    H242754   3.646   3.311   1.571 -1.0642 -1.6027  0.2491
 6187TIP3   OH242755   2.317   6.162   2.806  0.0635  0.5991 -0.6860
 6187TIP3    H142756   2.359   6.175   2.891 -2.0902  0.7612  0.4018
 6187TIP3    H242757   2.355   6.231   2.750  1.5769  0.4263  0.0673
 6188TIP3   OH242758   4.813   5.911   2.790  0.2902 -0.4585 -0.3424
 6188TIP3    H142759   4.866   5.833   2.803  0.4498 -0.1148  1.4432
 6188TIP3    H242760   4.857   5.978   2.843  0.1825  0.8621 -1.8550
 6189TIP3   OH242761   1.049   4.275   2.681  0.5135  0.2403  0.0386
 6189TIP3    H142762   1.040   4.370   2.688  0.4009  0.2277  0.0605
 6189TIP3    H242763   1.130   4.255   2.728 -1.0581 -0.0352  2.8564
 6190TIP3   OH242764   0.985   4.553   1.867  0.7093 -0.0055 -0.1197
 6190TIP3    H142765   0.980   4.554   1.963 -0.4412  2.1890 -0.1267
 6190TIP3    H242766   1.073   4.585   1.847 -0.0102  2.4422  0.2861
 6191TIP3   OH242767   2.871   0.720   2.291 -0.0281 -0.1138 -0.0633
 6191TIP3    H142768   2.903   0.639   2.251  0.8656 -1.2054  2.5846
 6191TIP3    H242769   2.820   0.690   2.366  0.0026  1.7636  0.7490
 6192TIP3   OH242770   1.393   2.077   2.279 -0.0300 -0.8382 -0.1293
 6192TIP3    H142771   1.335   2.084   2.354 -1.3894 -1.0477 -1.1307
 6192TIP3    H242772   1.461   2.015   2.307  0.0112 -0.2163  1.2229
 6193TIP3   OH242773   2.377   6.021   2.388  0.4788 -0.6517  0.0567
 6193TIP3    H142774   2.347   6.108   2.362  0.0637 -0.3447  1.5151
 6193TIP3    H242775   2.448   6.001   2.326 -0.0368  0.3098 -0.8799
 6194TIP3   OH242776   4.589   0.344   1.092 -0.0326 -0.0828  0.0362
 6194TIP3    H142777   4.515   0.286   1.074 -1.7426  2.2900 -1.2951
 6194TIP3    H242778   4.602   0.339   1.186  0.1956 -2.8729 -0.0765
 6195TIP3   OH242779   5.188   3.137   1.730  0.3463  0.0507  0.6548
 6195TIP3    H142780   5.187   3.092   1.815  0.6691  1.3967  1.3911
 6195TIP3    H242781   5.258   3.202   1.738  0.5126  0.0627 -0.7252
 6196TIP3   OH242782   0.062   5.548   2.032  0.4062  0.3842  0.9327
 6196TIP3    H142783  -0.028   5.530   2.004  1.1909 -1.1509 -0.7700
 6196TIP3    H242784   0.093   5.614   1.970  1.0670 -0.5423  0.2552
 6197TIP3   OH242785   6.136   6.056   0.422  0.0137 -0.0027 -0.0902
 6197TIP3    H142786   6.123   5.962   0.407 -0.5550  0.3008 -1.6893
 6197TIP3    H242787   6.076   6.077   0.494 -0.0858 -0.8041  0.0698
 6198TIP3   OH242788   6.448   0.532   2.348  0.0120  0.5312  0.7937
 6198TIP3    H142789   6.520   0.482   2.389  1.7808  0.0272 -2.5618
 6198TIP3    H242790   6.391   0.465   2.310 -0.6335  1.0054  0.9100
 6199TIP3   OH242791   6.204   3.719   1.424  0.1928 -0.1797 -0.4581
 6199TIP3    H142792   6.283   3.677   1.458 -0.8907 -1.8750  0.0907
 6199TIP3    H242793   6.225   3.812   1.422  2.5069 -0.6511 -1.1694
 6200TIP3   OH242794   5.889   6.546   2.261  0.4175  0.1633  0.2841
 6200TIP3    H142795   5.945   6.475   2.228 -0.3745 -0.5199  0.3773
 6200TIP3    H242796   5.800   6.511   2.255  0.0706  0.8858  1.0029
 6201TIP3   OH242797   3.481   0.130   3.180 -0.1069 -0.1703  0.5314
 6201TIP3    H142798   3.455   0.093   3.264  1.3979  0.1889  1.2013
 6201TIP3    H242799   3.524   0.213   3.202  1.8683 -0.8632 -0.3929
 6202TIP3   OH242800   3.863   7.460   2.211  0.7415  0.1742 -0.0703
 6202TIP3    H142801   3.929   7.395   2.236  1.5364  1.6493  1.9168
 6202TIP3    H242802   3.784   7.431   2.256  0.6721 -0.2614 -0.4664
 6203TIP3   OH242803   1.134   4.168   1.247  0.4555 -0.2578  0.0755
 6203TIP3    H142804   1.154   4.148   1.156 -1.5552 -0.7527 -0.3077
 6203TIP3    H242805   1.068   4.238   1.242  0.0593 -0.5385  1.1287
 6204TIP3   OH242806   3.591   5.525   4.053 -0.0178  0.0641  0.6692
 6204TIP3    H142807   3.584   5.436   4.017 -2.0547  0.0263  1.0800
 6204TIP3    H242808   3.635   5.575   3.984  1.4970 -1.3171  0.5810
 6205TIP3   OH242809   0.684   4.928   3.041  0.6521 -0.3966 -0.1081
 6205TIP3    H142810   0.642   4.941   3.126  0.7449 -0.1031 -0.1051
 6205TIP3    H242811   0.768   4.887   3.063  0.4393 -0.8417 -0.1028
 6206TIP3   OH242812   6.291   6.173   0.751  0.8513  0.4895 -0.6068
 6206TIP3    H142813   6.232   6.249   0.745  0.0147  0.0749  1.5355
 6206TIP3    H242814   6.249   6.106   0.697 -1.3313 -0.1624  1.7098
 6207TIP3   OH242815   2.530   0.215   0.658  0.2174 -0.3066  0.2767
 6207TIP3    H142816   2.539   0.120   0.645 -0.8240 -0.2810 -0.7394
 6207TIP3    H242817   2.607   0.252   0.616  0.7034 -0.6995  0.7988
 6208TIP3   OH242818   2.371   2.851   3.760  0.1535  0.5040 -0.1545
 6208TIP3    H142819   2.307   2.877   3.694  0.0694 -0.6067 -0.5423
 6208TIP3    H242820   2.453   2.892   3.731  0.0246  0.3766 -0.7221
 6209TIP3   OH242821   5.549   5.717   2.220 -0.7125  0.3034  0.1821
 6209TIP3    H142822   5.599   5.747   2.144  0.6335 -1.8183  0.1564
 6209TIP3    H242823   5.559   5.787   2.284 -0.4897  1.3933 -1.0020
 6210TIP3   OH242824   6.406   5.171   2.229  0.1134 -0.6708 -0.1398
 6210TIP3    H142825   6.406   5.083   2.194 -0.1046 -0.7841  0.1363
 6210TIP3    H242826   6.499   5.195   2.235  0.1678 -0.8444 -0.3043
 6211TIP3   OH242827   2.005   7.300   2.149 -0.4023 -0.5611  0.0345
 6211TIP3    H142828   1.955   7.256   2.080 -2.1059  0.6399  0.4392
 6211TIP3    H242829   2.019   7.388   2.114  2.6756 -1.1994 -0.6376
 6212TIP3   OH242830   2.872   3.592   1.144 -0.1070 -0.1741 -0.3712
 6212TIP3    H142831   2.830   3.641   1.074  0.6802  0.4956 -0.3881
 6212TIP3    H242832   2.890   3.506   1.105  0.1747  0.1387 -0.9444
 6213TIP3   OH242833   7.640   2.642   0.917  0.6999 -0.0823 -0.1777
 6213TIP3    H142834   7.617   2.582   0.846 -0.4000 -0.6487  0.6247
 6213TIP3    H242835   7.735   2.649   0.914  0.6990 -0.3774 -1.4692
 6214TIP3   OH242836   3.798   4.142   3.921 -0.1833 -0.0810  0.0479
 6214TIP3    H142837   3.810   4.193   3.841 -1.4937 -0.9515 -0.7408
 6214TIP3    H242838   3.795   4.051   3.891  1.8332 -0.6644  1.3911
 6215TIP3   OH242839   2.855   1.796   0.470 -0.2389  0.0718  0.5287
 6215TIP3    H142840   2.895   1.878   0.497  1.1984  0.4245 -2.3043
 6215TIP3    H242841   2.900   1.729   0.522  0.3917  0.8555  1.0171
 6216TIP3   OH242842   5.259   2.878   1.536  0.2678 -0.0440 -0.9787
 6216TIP3    H142843   5.337   2.928   1.559  0.8582 -0.1164 -2.6604
 6216TIP3    H242844   5.186   2.933   1.564  0.9122  0.4442 -0.2170
 6217TIP3   OH242845   2.741   7.519   0.430 -0.4625  0.0397 -0.1121
 6217TIP3    H142846   2.677   7.562   0.487 -1.7143 -3.2628  1.2332
 6217TIP3    H242847   2.701   7.523   0.343 -1.1454  0.5255  0.2097
 6218TIP3   OH242848   4.121   6.413   2.108  0.1990 -0.5230 -0.1630
 6218TIP3    H142849   4.128   6.504   2.137  0.1110 -0.4413 -0.3936
 6218TIP3    H242850   4.034   6.407   2.069  0.6528 -0.3859 -1.2342
 6219TIP3   OH242851   7.202   3.151   0.969 -0.5098  0.1813  0.1538
 6219TIP3    H142852   7.280   3.166   0.916 -0.6656 -1.1842 -0.4802
 6219TIP3    H242853   7.155   3.234   0.965  0.1644  0.5399 -0.6934
 6220TIP3   OH242854   1.564   5.437   1.301  0.2754  0.4104  0.0605
 6220TIP3    H142855   1.654   5.410   1.317  0.3173  0.6441  0.2101
 6220TIP3    H242856   1.558   5.525   1.337 -0.8703 -0.7466  3.0002
 6221TIP3   OH242857   0.866   3.930   2.305  0.1203  0.4291 -0.0734
 6221TIP3    H142858   0.956   3.940   2.334  0.0006  0.6006  0.2350
 6221TIP3    H242859   0.826   3.870   2.369  0.1045  0.0932 -0.3930
 6222TIP3   OH242860   3.259   1.436   1.476 -0.0824  0.1618  0.3820
 6222TIP3    H142861   3.226   1.347   1.478  1.2778 -0.4237 -0.9690
 6222TIP3    H242862   3.182   1.491   1.493 -1.0669 -1.2335  0.5761
 6223TIP3   OH242863   3.868   4.098   3.566  0.4871  0.1659  0.3515
 6223TIP3    H142864   3.895   4.041   3.639 -1.2731 -3.1079 -1.3129
 6223TIP3    H242865   3.893   4.049   3.488 -2.4890  0.9204 -1.2174
 6224TIP3   OH242866   5.519   1.469   2.608  0.1398  0.0848  0.3414
 6224TIP3    H142867   5.559   1.503   2.527  0.1692 -1.2761 -0.2464
 6224TIP3    H242868   5.451   1.409   2.577 -0.2398 -0.0009  1.3344
 6225TIP3   OH242869   1.520   0.083   2.399 -0.2391 -0.3748 -0.3344
 6225TIP3    H142870   1.568   0.106   2.320  0.2139 -1.3364 -0.3537
 6225TIP3    H242871   1.431   0.066   2.368 -0.6936  1.6553 -0.2606
 6226TIP3   OH242872   6.172   7.357   1.118  0.0763 -0.1562  0.3119
 6226TIP3    H142873   6.089   7.392   1.086  0.4290 -0.8509 -1.4929
 6226TIP3    H242874   6.186   7.400   1.202 -1.8998  0.2791  0.4604
 6227TIP3   OH242875   1.008   4.628   3.334  0.1269  0.2455  0.2968
 6227TIP3    H142876   0.998   4.664   3.422 -0.8330  1.5969 -0.3148
 6227TIP3    H242877   1.100   4.603   3.328 -0.1432 -1.5017  2.2396
 6228TIP3   OH242878   4.317   7.643   3.173  0.0284  0.0186 -0.1603
 6228TIP3    H142879   4.324   7.727   3.218 -0.5089 -0.6325  1.1975
 6228TIP3    H242880   4.314   7.578   3.243 -0.9625 -1.0340 -1.1238
 6229TIP3   OH242881   1.348   4.923   1.991 -0.4335  0.0779  0.3910
 6229TIP3    H142882   1.318   4.941   2.080 -0.6095 -1.0413  0.5768
 6229TIP3    H242883   1.436   4.887   2.003 -0.4779 -0.1214  0.1222
 6230TIP3   OH242884   3.004   0.502   2.140  0.3251 -0.4403  0.0242
 6230TIP3    H142885   3.063   0.559   2.090 -0.6411 -0.6648 -1.4006
 6230TIP3    H242886   3.044   0.415   2.135  0.2237 -0.4653 -0.3808
 6231TIP3   OH242887   1.397   7.543   2.865  0.3158 -0.3536 -0.1228
 6231TIP3    H142888   1.339   7.483   2.912 -0.3484 -1.0086 -1.6764
 6231TIP3    H242889   1.463   7.569   2.929 -1.6031  0.3271  1.7124
 6232TIP3   OH242890   5.199   7.037   2.691  0.2097  0.6043 -0.0063
 6232TIP3    H142891   5.270   7.008   2.634 -1.5519 -0.3286 -1.8597
 6232TIP3    H242892   5.241   7.056   2.775  2.5350 -0.4613 -0.8587
 6233TIP3   OH242893   5.837   5.991   1.413  0.1846  0.0386  0.0969
 6233TIP3    H142894   5.911   6.033   1.369  0.9479 -1.3059  0.0548
 6233TIP3    H242895   5.847   5.898   1.393 -0.4484 -0.3910  1.6711
 6234TIP3   OH242896   6.777   4.079   1.239 -0.0999 -0.2757 -0.1180
 6234TIP3    H142897   6.838   4.149   1.218 -0.1162 -0.5824 -1.2550
 6234TIP3    H242898   6.828   4.017   1.291  0.4785 -0.3923 -0.8179
 6235TIP3   OH242899   0.583   5.191   1.863  0.1113 -0.1950 -0.0021
 6235TIP3    H142900   0.611   5.244   1.788 -1.3249 -2.8298 -2.5887
 6235TIP3    H242901   0.665   5.170   1.908  1.1494  0.7050 -1.3616
 6236TIP3   OH242902   6.253   6.384   2.871 -0.4667 -0.0508 -0.3343
 6236TIP3    H142903   6.162   6.411   2.859 -0.0873  1.9851  0.9212
 6236TIP3    H242904   6.261   6.372   2.966  0.4903 -0.5875 -0.4743
 6237TIP3   OH242905   6.773   5.544   2.017 -0.0021 -0.6464  0.0238
 6237TIP3    H142906   6.729   5.504   1.942  0.8800 -0.6092 -0.5248
 6237TIP3    H242907   6.754   5.638   2.009 -2.3661 -0.9007  1.5037
 6238TIP3   OH242908   5.309   7.318   2.320 -0.2455  0.3329  0.1748
 6238TIP3    H142909   5.332   7.251   2.255  1.9018  2.5455 -1.5150
 6238TIP3    H242910   5.346   7.284   2.403  1.1999 -0.4034 -0.7215
 6239TIP3   OH242911   5.555   3.157   2.345 -0.2614  0.6249 -0.0403
 6239TIP3    H142912   5.584   3.068   2.330 -1.0248  0.5210 -1.0781
 6239TIP3    H242913   5.614   3.211   2.292 -0.8445  0.5656 -0.7745
 6240TIP3   OH242914   2.246   3.846   2.592 -0.3798  0.1572  0.0597
 6240TIP3    H142915   2.202   3.888   2.666  0.8540 -0.0430  0.9505
 6240TIP3    H242916   2.335   3.829   2.624  0.3426  0.5374 -1.6565
 6241TIP3   OH242917   5.857   6.167   3.288  0.1930  0.3802  0.3803
 6241TIP3    H142918   5.949   6.145   3.302  0.0651 -2.2552 -2.0916
 6241TIP3    H242919   5.809   6.103   3.340 -0.2478  0.7342  0.4158
 6242TIP3   OH242920   1.227   2.767   2.817  0.2806  0.0546 -1.0504
 6242TIP3    H142921   1.139   2.732   2.823  1.3909 -3.1226 -1.4952
 6242TIP3    H242922   1.249   2.793   2.906 -0.7234 -0.0776 -0.7577
 6243TIP3   OH242923   1.841   3.965   1.342  0.6781 -0.2344  0.0537
 6243TIP3    H142924   1.759   4.011   1.328  0.9798 -0.0643 -1.3134
 6243TIP3    H242925   1.821   3.873   1.321  0.5210 -0.4243  1.0088
 6244TIP3   OH242926   0.265   7.580   0.797 -0.2376 -0.2661  0.4151
 6244TIP3    H142927   0.215   7.539   0.868  0.7519  0.9487  1.8881
 6244TIP3    H242928   0.330   7.514   0.774  1.6713  0.4698  3.1186
 6245TIP3   OH242929   5.621   3.795   2.498  0.0054  0.2926  0.7858
 6245TIP3    H142930   5.614   3.703   2.471  0.3453  0.2301  0.9000
 6245TIP3    H242931   5.660   3.839   2.423  1.8009 -0.0459  1.4589
 6246TIP3   OH242932   1.853   4.633   1.086  0.0517 -0.2679 -0.1855
 6246TIP3    H142933   1.813   4.550   1.111  1.8002 -0.7655  1.1029
 6246TIP3    H242934   1.932   4.609   1.039  0.1812  0.6744 -0.4688
 6247TIP3   OH242935   5.396   3.349   1.696  0.2710  0.2208 -0.0021
 6247TIP3    H142936   5.369   3.358   1.605  0.4589 -1.2808 -0.2264
 6247TIP3    H242937   5.483   3.310   1.692  1.1878  2.0570  0.7904
 6248TIP3   OH242938   2.027   6.401   0.834 -0.5075  0.1021  0.0228
 6248TIP3    H142939   1.932   6.401   0.840 -0.6126 -1.1471 -1.2304
 6248TIP3    H242940   2.049   6.488   0.801 -1.1042  0.7660  1.2969
 6249TIP3   OH242941   5.439   3.617   3.630  0.1154  0.0675 -0.7876
 6249TIP3    H142942   5.529   3.599   3.659 -0.7938 -1.2846  1.4135
 6249TIP3    H242943   5.447   3.696   3.576  2.8201 -0.8818 -1.9776
 6250TIP3   OH242944   5.994   2.822   2.505  0.3319 -0.1978  0.4122
 6250TIP3    H142945   6.043   2.882   2.561  1.0071 -1.0751  0.7858
 6250TIP3    H242946   5.957   2.758   2.565 -0.0148 -0.4140 -0.0247
 6251TIP3   OH242947   7.084   7.670   2.244  0.0918 -0.1165  0.0233
 6251TIP3    H142948   7.169   7.669   2.199  0.5391 -0.3949  0.8587
 6251TIP3    H242949   7.059   7.578   2.249  0.3726 -0.1556  0.9289
 6252TIP3   OH242950   7.578   4.666   2.885  0.4014  0.0821  0.0984
 6252TIP3    H142951   7.602   4.747   2.929  2.5473  0.2967 -1.2612
 6252TIP3    H242952   7.598   4.597   2.948  1.8591  0.4752  0.1155
 6253TIP3   OH242953   3.191   5.114   3.439 -0.2118 -0.2235 -0.4151
 6253TIP3    H142954   3.174   5.022   3.460 -2.4075  0.1373 -0.4266
 6253TIP3    H242955   3.244   5.146   3.512  2.3358 -1.9529 -1.3745
 6254TIP3   OH242956   6.481   5.788   0.353 -0.1388  0.5482  0.9862
 6254TIP3    H142957   6.399   5.792   0.402  0.5908 -0.0391  2.3307
 6254TIP3    H242958   6.510   5.697   0.362 -0.5659  0.0630 -1.6383
 6255TIP3   OH242959   4.171   3.129   0.858  0.1954  0.1143  0.0927
 6255TIP3    H142960   4.185   3.132   0.763  0.6576  1.8751  0.1785
 6255TIP3    H242961   4.089   3.080   0.868 -0.6649  1.1624 -1.3404
 6256TIP3   OH242962   6.374   4.410   2.533  0.5880  0.7835 -0.9560
 6256TIP3    H142963   6.418   4.325   2.544 -1.9691 -0.3315  1.8908
 6256TIP3    H242964   6.437   4.462   2.482  1.7365 -3.1374 -4.1271
 6257TIP3   OH242965   5.204   2.624   2.272 -0.1787 -0.3706 -0.1818
 6257TIP3    H142966   5.224   2.703   2.221 -0.1880  1.5590  2.5950
 6257TIP3    H242967   5.269   2.560   2.243  0.7248  1.0755 -1.5436
 6258TIP3   OH242968   3.341   2.783   1.126 -0.4825 -0.5929  0.2530
 6258TIP3    H142969   3.322   2.725   1.200 -0.1942  0.8924  1.5365
 6258TIP3    H242970   3.303   2.867   1.151 -1.1848 -0.2758 -1.7075
 6259TIP3   OH242971   5.766   1.960   2.270  0.0779  0.3492  0.4981
 6259TIP3    H142972   5.807   1.878   2.299  0.0069  0.3309  0.5473
 6259TIP3    H242973   5.741   2.004   2.351 -2.0329 -0.6632  0.4811
 6260TIP3   OH242974   0.289   6.649   2.673  0.5940  0.1508  0.0718
 6260TIP3    H142975   0.335   6.586   2.617  2.4896 -0.2931  1.9867
 6260TIP3    H242976   0.351   6.667   2.744 -1.1636  1.7280  1.2954
 6261TIP3   OH242977   6.648   3.388   1.213  0.2376  0.2373  0.0033
 6261TIP3    H142978   6.738   3.357   1.209  0.2553  0.2142  0.5254
 6261TIP3    H242979   6.656   3.484   1.217  0.1776  0.3478 -1.8031
 6262TIP3   OH242980   4.846   0.681   2.633  0.2268 -0.2933  0.2791
 6262TIP3    H142981   4.881   0.727   2.557  0.8856  0.7619  1.1844
 6262TIP3    H242982   4.767   0.729   2.656  0.8403  0.3512  1.1414
 6263TIP3   OH242983   3.125   0.798   2.625  0.4119  0.0324 -0.1510
 6263TIP3    H142984   3.168   0.836   2.701 -0.8138  0.7783  0.2106
 6263TIP3    H242985   3.166   0.841   2.550  0.7341  0.2601  0.1507
 6264TIP3   OH242986   7.473   6.507   2.568  0.3957  0.0347 -0.4757
 6264TIP3    H142987   7.528   6.576   2.607  0.1491  0.1089 -0.2519
 6264TIP3    H242988   7.529   6.466   2.503  1.6091 -1.5646  1.4572
 6265TIP3   OH242989   0.917   0.370   2.959 -0.3372  0.5383  0.2675
 6265TIP3    H142990   1.010   0.382   2.980 -0.5464  1.3841  0.7290
 6265TIP3    H242991   0.907   0.275   2.951  0.4190  0.3929  0.9097
 6266TIP3   OH242992   4.212   1.721   1.814 -0.0061 -0.1228  0.2053
 6266TIP3    H142993   4.279   1.788   1.805 -1.4767  1.7348  1.9248
 6266TIP3    H242994   4.129   1.770   1.807 -1.1397 -1.8601  0.9072
 6267TIP3   OH242995   5.423   7.180   2.529  0.3098  0.1724  0.3089
 6267TIP3    H142996   5.417   7.173   2.624  0.4427 -0.6188  0.2659
 6267TIP3    H242997   5.423   7.090   2.498  2.2042  0.3401 -0.3196
 6268TIP3   OH242998   6.309   2.387   2.124  0.6377 -0.2572 -0.1425
 6268TIP3    H142999   6.312   2.465   2.179 -0.1644  0.1145 -0.6040
 6268TIP3    H243000   6.220   2.353   2.135  0.1962  0.2659 -1.7875
 6269TIP3   OH243001   2.040   1.275   1.174 -0.0172 -0.4269 -0.2493
 6269TIP3    H143002   1.959   1.267   1.225 -0.5908  0.7527 -0.9321
 6269TIP3    H243003   2.110   1.251   1.236 -0.8985 -1.8201  0.2446
 6270TIP3   OH243004   3.587   2.972   1.873  0.3774 -0.2805 -0.2049
 6270TIP3    H143005   3.533   3.049   1.893  1.9449  1.2671 -1.5525
 6270TIP3    H243006   3.655   2.972   1.940  0.6294 -0.2278 -0.4592
 6271TIP3   OH243007   3.242   1.126   0.933 -0.3376 -0.0179 -0.4519
 6271TIP3    H143008   3.306   1.195   0.917  0.7031 -0.9877 -0.5564
 6271TIP3    H243009   3.291   1.058   0.979 -0.6586 -1.8085 -2.6094
 6272TIP3   OH243010   1.393   1.326   1.861 -0.1438  0.1564 -0.3339
 6272TIP3    H143011   1.338   1.374   1.923 -0.7661 -0.9392 -0.0125
 6272TIP3    H243012   1.455   1.278   1.916 -0.6055 -0.7081 -0.5509
 6273TIP3   OH243013   1.686   1.760   1.733 -0.4627 -0.8045  0.5727
 6273TIP3    H143014   1.763   1.735   1.784  0.3046  0.2900 -0.0158
 6273TIP3    H243015   1.619   1.696   1.759  1.0277 -2.6856  0.0045
 6274TIP3   OH243016   1.773   6.877   3.143  0.3583 -0.3140  0.0676
 6274TIP3    H143017   1.705   6.842   3.201  0.6273 -0.5204  0.2634
 6274TIP3    H243018   1.780   6.970   3.167 -0.3987 -0.1049 -0.4921
 6275TIP3   OH243019   6.309   1.496   3.134  0.5671  0.1844  0.1605
 6275TIP3    H143020   6.388   1.455   3.098  0.7243  1.5261 -1.1041
 6275TIP3    H243021   6.237   1.439   3.105  0.8494  0.3224 -0.8597
 6276TIP3   OH243022   0.708   1.445   1.699 -0.1264  0.1117 -0.0350
 6276TIP3    H143023   0.789   1.474   1.657 -0.2626  0.5495  0.0056
 6276TIP3    H243024   0.641   1.506   1.669 -0.1695  0.6283  1.0411
 6277TIP3   OH243025   2.282   2.642   2.874  0.5241 -0.3984 -0.4040
 6277TIP3    H143026   2.234   2.564   2.900 -0.8476  1.2205  2.2812
 6277TIP3    H243027   2.226   2.684   2.808  0.3787 -0.6972 -0.4730
 6278TIP3   OH243028   3.506   4.035   3.095 -0.1594 -0.3366 -0.3158
 6278TIP3    H143029   3.432   3.978   3.072 -2.0060  1.7054  0.2321
 6278TIP3    H243030   3.525   4.014   3.186  0.2263 -1.1559 -0.5768
 6279TIP3   OH243031   4.687   5.034   3.308 -0.1803  0.3776 -0.7607
 6279TIP3    H143032   4.695   5.109   3.368 -2.1672 -0.7769  1.1039
 6279TIP3    H243033   4.752   4.971   3.339 -0.9049 -0.0400 -0.0471
 6280TIP3   OH243034   3.070   3.197   2.271  0.4803  0.5393 -0.6790
 6280TIP3    H143035   3.126   3.143   2.215 -0.2686  0.4088 -1.3218
 6280TIP3    H243036   3.132   3.251   2.321  1.3004 -1.5455  0.6904
 6281TIP3   OH243037   4.118   3.199   1.921  0.1514 -0.0446 -0.3995
 6281TIP3    H143038   4.106   3.203   1.826  0.4160  1.2811 -0.3934
 6281TIP3    H243039   4.200   3.151   1.932  0.2249 -0.0318 -0.8486
 6282TIP3   OH243040   7.126   6.478   2.574  0.5595 -0.2343 -0.1484
 6282TIP3    H143041   7.203   6.422   2.586 -0.1123 -1.0155  0.6647
 6282TIP3    H243042   7.162   6.564   2.555  1.6394 -0.6295  0.0232
 6283TIP3   OH243043   6.816   6.479   1.223  0.0183  0.2398  0.7074
 6283TIP3    H143044   6.814   6.509   1.314  0.8461  2.3332  0.1092
 6283TIP3    H243045   6.854   6.553   1.175  2.3036 -1.8798 -0.9584
 6284TIP3   OH243046   4.650   2.798   1.505  0.3986  0.1633  0.5492
 6284TIP3    H143047   4.741   2.826   1.521 -0.3363  1.6075  2.6249
 6284TIP3    H243048   4.644   2.790   1.410  1.6592  3.9014  0.0019
 6285TIP3   OH243049   1.189   5.966   1.901  0.0589 -0.0546  0.3619
 6285TIP3    H143050   1.244   5.897   1.938  2.2466  0.1313 -2.1983
 6285TIP3    H243051   1.212   6.044   1.951  0.6466 -0.4004  0.6420
 6286TIP3   OH243052   6.846   7.484   2.803  0.5391 -0.2312 -0.0848
 6286TIP3    H143053   6.775   7.521   2.751  2.2673  2.0637 -0.9862
 6286TIP3    H243054   6.832   7.389   2.797 -1.2615  0.0613 -1.9265
 6287TIP3   OH243055   1.316   0.959   1.936  0.1951 -0.0041 -0.2182
 6287TIP3    H143056   1.361   0.942   2.019  1.2553 -1.3745 -1.0181
 6287TIP3    H243057   1.234   1.000   1.961  0.3439 -0.6700  1.5316
 6288TIP3   OH243058   4.006   0.872   1.369 -0.1058  0.0768  0.6372
 6288TIP3    H143059   3.925   0.823   1.354  0.4399 -0.8933  0.7910
 6288TIP3    H243060   3.994   0.913   1.455 -0.6880  0.4744  0.3732
 6289TIP3   OH243061   1.581   3.636   3.197 -0.3535  0.0490 -0.0303
 6289TIP3    H143062   1.604   3.639   3.290  1.8399  0.4525 -0.5387
 6289TIP3    H243063   1.509   3.699   3.188  0.2350  0.9377  1.2006
 6290TIP3   OH243064   3.575   3.889   1.357  0.7733  0.3953  0.2716
 6290TIP3    H143065   3.642   3.848   1.411  1.1919 -1.9514 -1.8372
 6290TIP3    H243066   3.616   3.968   1.323  2.6710 -1.1348 -1.2009
 6291TIP3   OH243067   4.956   5.676   2.804 -0.0342  0.2018 -0.0936
 6291TIP3    H143068   5.044   5.707   2.783  0.6923 -0.6557  1.4561
 6291TIP3    H243069   4.958   5.662   2.899 -1.0594 -2.1280 -0.3360
 6292TIP3   OH243070   1.730   3.042   1.101  0.1221 -1.2015  0.0415
 6292TIP3    H143071   1.774   3.125   1.085  0.0292 -1.1500  0.0552
 6292TIP3    H243072   1.771   3.008   1.181  0.5706 -1.4484 -0.2889
 6293TIP3   OH243073   4.895   3.281   2.540  0.1823  0.0362 -0.3991
 6293TIP3    H143074   4.839   3.289   2.462 -1.1139 -1.8080  0.2800
 6293TIP3    H243075   4.935   3.195   2.531  0.3013 -0.0416  0.8097
 6294TIP3   OH243076   5.897   7.571   0.964  0.6408 -0.3467  0.0650
 6294TIP3    H143077   5.884   7.665   0.979 -1.4124 -0.1186 -2.4733
 6294TIP3    H243078   5.866   7.530   1.045 -0.1544  1.0823  0.5339
 6295TIP3   OH243079   4.625   7.675   2.278  0.6158  0.4384  0.2734
 6295TIP3    H143080   4.539   7.634   2.265 -0.2368  2.2978 -0.4684
 6295TIP3    H243081   4.673   7.614   2.333  0.4193 -2.7564 -2.7474
 6296TIP3   OH243082   0.059   5.557   1.337  0.1911  0.5693 -0.4243
 6296TIP3    H143083   0.019   5.470   1.329  0.3318  0.4885 -0.2608
 6296TIP3    H243084   0.122   5.561   1.266  1.5073 -0.1820  0.6615
 6297TIP3   OH243085   7.156   4.767   0.844  0.2122 -0.3988  0.9142
 6297TIP3    H143086   7.180   4.859   0.855  0.6304 -0.5299  1.1425
 6297TIP3    H243087   7.101   4.748   0.920 -1.1516  0.0623  0.0853
 6298TIP3   OH243088   6.568   4.288   1.199 -0.5134  0.0922 -0.4442
 6298TIP3    H143089   6.482   4.245   1.197 -0.1462 -0.8264  1.5593
 6298TIP3    H243090   6.631   4.216   1.197  0.3262  0.7755 -3.0430
 6299TIP3   OH243091   3.538   2.960   0.642 -0.1672  0.1026  0.0543
 6299TIP3    H143092   3.446   2.985   0.635 -0.0527  0.1956 -1.2915
 6299TIP3    H243093   3.542   2.905   0.720 -1.4346 -0.2277 -0.0965
 6300TIP3   OH243094   3.349   6.607   1.364  0.1758  0.0831 -0.0247
 6300TIP3    H143095   3.411   6.538   1.340 -0.8224 -0.6129 -0.6605
 6300TIP3    H243096   3.367   6.624   1.457  2.6823  1.3548 -0.6326
 6301TIP3   OH243097   1.002   3.459   0.560  0.0010  0.1423 -0.2487
 6301TIP3    H143098   1.066   3.492   0.497  0.1271  1.5628  0.5798
 6301TIP3    H243099   0.950   3.536   0.583 -0.5378 -0.5232  0.8017
 6302TIP3   OH243100   3.047   1.159   1.545  0.3275 -0.0118 -0.3093
 6302TIP3    H143101   3.037   1.094   1.476  1.5779 -0.9512  0.3546
 6302TIP3    H243102   2.958   1.172   1.578  0.0098 -1.1750 -0.6520
 6303TIP3   OH243103   2.906   0.613   3.732 -0.3853 -0.0755 -0.1993
 6303TIP3    H143104   2.852   0.692   3.724 -0.4494 -0.2586 -2.4303
 6303TIP3    H243105   2.995   0.642   3.712 -0.4615 -0.5831 -1.3708
 6304TIP3   OH243106   1.573   3.615   0.991  0.0729  0.3207 -0.3398
 6304TIP3    H143107   1.648   3.627   0.932 -0.2791  2.2235 -0.4690
 6304TIP3    H243108   1.588   3.678   1.062 -0.6685 -0.3212  0.3956
 6305TIP3   OH243109   1.877   4.282   2.609 -0.4306  0.2163  0.1382
 6305TIP3    H143110   1.917   4.206   2.567 -1.9791 -1.2296  1.1077
 6305TIP3    H243111   1.798   4.247   2.652 -1.4103  2.4432  0.3259
 6306TIP3   OH243112   7.232   2.591   3.117  0.2086 -0.5304 -0.0229
 6306TIP3    H143113   7.230   2.677   3.075 -1.3828 -0.8645 -0.6965
 6306TIP3    H243114   7.300   2.543   3.069 -0.6745 -0.4694 -1.3814
 6307TIP3   OH243115   7.358   6.801   1.608  0.2195  0.4373  0.4790
 6307TIP3    H143116   7.289   6.866   1.596  0.5688  0.7770  0.2907
 6307TIP3    H243117   7.329   6.749   1.683 -2.1457 -1.9388 -1.8717
 6308TIP3   OH243118   4.274   3.466   0.899  0.6512  0.1260 -0.0249
 6308TIP3    H143119   4.192   3.450   0.853  0.8187 -0.3583 -0.1625
 6308TIP3    H243120   4.282   3.394   0.961  0.4545  0.7430  0.7341
 6309TIP3   OH243121   2.299   3.092   2.602  0.5006  0.0918 -0.3353
 6309TIP3    H143122   2.327   3.121   2.689  0.1798 -1.6663  0.4069
 6309TIP3    H243123   2.367   3.031   2.574 -0.7242 -1.4745 -0.0706
 6310TIP3   OH243124   4.558   6.223   1.247 -0.4049 -0.7723 -0.3833
 6310TIP3    H143125   4.591   6.211   1.157 -0.9697 -1.2643 -0.5268
 6310TIP3    H243126   4.624   6.180   1.302  0.1786 -0.0802 -0.5142
 6311TIP3   OH243127   6.008   3.283   2.659  0.4982  0.1008 -0.2739
 6311TIP3    H143128   5.950   3.208   2.675  0.3224  0.4229  0.6632
 6311TIP3    H243129   6.096   3.250   2.677  0.5026 -0.0925 -0.6396
 6312TIP3   OH243130   2.090   3.169   2.238 -0.4941 -0.1684  0.4610
 6312TIP3    H143131   1.995   3.155   2.244 -0.5481 -0.0294 -0.0533
 6312TIP3    H243132   2.126   3.113   2.307 -0.9899  0.2821  1.1002
 6313TIP3   OH243133   1.128   4.992   3.300  0.0266 -0.0117 -0.6733
 6313TIP3    H143134   1.050   4.995   3.354  0.7359  3.3474  0.4019
 6313TIP3    H243135   1.118   4.913   3.248 -3.6380 -0.1818  0.0172
 6314TIP3   OH243136   5.607   6.865   0.809 -0.6562  0.1878 -0.2103
 6314TIP3    H143137   5.659   6.838   0.732  0.9969  0.6303  0.6968
 6314TIP3    H243138   5.588   6.957   0.794  0.4135  0.5096  0.2639
 6315TIP3   OH243139   1.405   2.854   0.782 -1.0750 -0.1985 -0.0474
 6315TIP3    H143140   1.348   2.929   0.768  0.0486  1.0325  1.5298
 6315TIP3    H243141   1.455   2.876   0.862 -0.1314 -2.2599  0.0083
 6316TIP3   OH243142   3.613   6.761   2.584  0.0221  0.1475  0.0130
 6316TIP3    H143143   3.651   6.742   2.498 -0.0394  0.0661  0.0039
 6316TIP3    H243144   3.617   6.856   2.591  0.4064  0.1292  0.0925
 6317TIP3   OH243145   1.479   1.606   1.833  0.0006  0.0637 -0.5468
 6317TIP3    H143146   1.425   1.534   1.863  0.6596 -0.2055 -0.0082
 6317TIP3    H243147   1.496   1.659   1.911  0.3884  0.2319 -0.7392
 6318TIP3   OH243148   1.285   0.449   0.730 -0.3766 -0.1818 -0.5068
 6318TIP3    H143149   1.224   0.478   0.663 -1.3672  0.4864  0.6550
 6318TIP3    H243150   1.326   0.529   0.762  0.7148 -0.5704 -0.8771
 6319TIP3   OH243151   7.296   2.921   0.567 -0.2370 -0.6462 -0.5674
 6319TIP3    H143152   7.268   2.845   0.617 -0.0473  0.0221  0.5760
 6319TIP3    H243153   7.381   2.895   0.529 -1.1824 -1.7816 -2.0339
 6320TIP3   OH243154   6.964   5.810   2.109 -0.4125  0.0735  0.1775
 6320TIP3    H143155   7.013   5.889   2.133 -0.2799 -0.1802  0.7531
 6320TIP3    H243156   6.941   5.769   2.192  0.8902 -1.3352 -0.1002
 6321TIP3   OH243157   6.529   4.493   3.346  0.3281 -0.4000 -0.0478
 6321TIP3    H143158   6.508   4.400   3.356  2.0715 -0.8394 -0.0866
 6321TIP3    H243159   6.551   4.522   3.435 -1.4915  0.3444  0.1888
 6322TIP3   OH243160   2.375   3.519   2.623  0.2346 -0.3780 -0.0174
 6322TIP3    H143161   2.429   3.495   2.548 -0.8900 -1.0929 -0.6312
 6322TIP3    H243162   2.289   3.538   2.586 -0.4078 -0.9592  1.0902
 6323TIP3   OH243163   5.416   2.498   2.929  0.0354  0.0068  0.3011
 6323TIP3    H143164   5.364   2.496   3.009 -1.3057  2.0298 -0.4264
 6323TIP3    H243165   5.477   2.571   2.941  2.0415 -1.6383  0.6821
 6324TIP3   OH243166   1.587   2.447   0.816  0.1785  0.1084 -0.1655
 6324TIP3    H143167   1.621   2.512   0.877  0.7176 -1.9874  1.9129
 6324TIP3    H243168   1.664   2.396   0.790 -0.4360 -0.6853 -0.4703
 6325TIP3   OH243169   5.624   3.770   1.283  0.1965  0.0918  0.0592
 6325TIP3    H143170   5.705   3.809   1.315  0.3661 -0.2173  0.0119
 6325TIP3    H243171   5.585   3.837   1.227  0.2175  0.3904  0.4004
 6326TIP3   OH243172   1.089   2.754   1.561  0.0201 -0.6161  0.2361
 6326TIP3    H143173   1.106   2.825   1.622  1.6011 -0.3696 -0.4209
 6326TIP3    H243174   0.998   2.766   1.534  0.6564  2.1704 -1.0810
 6327TIP3   OH243175   5.510   0.616   1.094  0.0849 -0.2323  0.1711
 6327TIP3    H143176   5.517   0.671   1.171  1.5444  1.0029 -0.7815
 6327TIP3    H243177   5.431   0.646   1.050  0.2138  0.2801  0.2827
 6328TIP3   OH243178   6.268   0.306   2.230  0.1624 -0.7046  0.3024
 6328TIP3    H143179   6.180   0.313   2.194  0.1603  0.8076  0.5682
 6328TIP3    H243180   6.326   0.330   2.158  0.2245  0.8516  0.8435
 6329TIP3   OH243181   3.363   7.272   3.297 -0.3689 -0.3871  0.2527
 6329TIP3    H143182   3.457   7.289   3.290 -0.1584 -0.9642  1.5178
 6329TIP3    H243183   3.327   7.352   3.336 -0.5304  0.1142 -0.8764
 6330TIP3   OH243184   0.725   4.218   2.438  0.1691 -0.0622 -0.0653
 6330TIP3    H143185   0.654   4.254   2.491 -1.1049  0.3390 -1.9524
 6330TIP3    H243186   0.685   4.145   2.390  0.7279  0.7696 -1.8967
 6331TIP3   OH243187   1.271   1.376   0.853 -0.1392  0.1543  0.0310
 6331TIP3    H143188   1.352   1.380   0.801 -1.6125  0.7319 -2.4179
 6331TIP3    H243189   1.239   1.287   0.839  0.6843 -0.5123  2.0968
 6332TIP3   OH243190   3.006   1.617   1.522  0.3820 -0.6383 -0.8648
 6332TIP3    H143191   3.090   1.653   1.551  1.1218 -2.0808 -1.1110
 6332TIP3    H243192   2.961   1.592   1.603  0.5443 -0.6217 -0.7689
 6333TIP3   OH243193   6.241   2.406   1.787  0.4700 -0.0260  0.0404
 6333TIP3    H143194   6.291   2.343   1.839 -0.1903 -1.2343 -0.7546
 6333TIP3    H243195   6.152   2.370   1.784  0.4906 -0.0083 -1.9289
 6334TIP3   OH243196   6.681   5.520   1.628 -0.0006 -0.5572  0.0688
 6334TIP3    H143197   6.773   5.515   1.653  0.0817 -0.4946 -0.2155
 6334TIP3    H243198   6.646   5.433   1.647 -0.2384 -0.1790  1.5177
 6335TIP3   OH243199   1.514   0.165   3.699  0.1248 -0.2655  0.1675
 6335TIP3    H143200   1.453   0.224   3.655  0.7998  0.2308 -0.1334
 6335TIP3    H243201   1.546   0.107   3.630 -0.2864 -0.7709  0.3971
 6336TIP3   OH243202   7.080   4.576   2.509 -0.9870  0.1565 -0.1905
 6336TIP3    H143203   7.158   4.576   2.453  0.7169 -1.2721  2.0346
 6336TIP3    H243204   7.087   4.657   2.560  0.1341 -0.8778  1.3600
 6337TIP3   OH243205   5.319   0.256   2.657  0.5520  0.3564  0.6387
 6337TIP3    H143206   5.407   0.289   2.671  0.5510  0.9213 -0.5167
 6337TIP3    H243207   5.276   0.265   2.742  1.0061  1.9737  0.7373
 6338TIP3   OH243208   6.428   4.364   3.003 -0.3549 -0.1212  0.3964
 6338TIP3    H143209   6.393   4.355   3.092  0.6947 -1.5896  0.6800
 6338TIP3    H243210   6.483   4.442   3.007 -1.9816  1.0726  0.4508
 6339TIP3   OH243211   2.327   6.617   2.229 -0.3276  0.0360 -0.4469
 6339TIP3    H143212   2.312   6.555   2.299  0.4938 -0.8761 -1.0496
 6339TIP3    H243213   2.373   6.567   2.161 -1.8111  0.6575 -1.9972
 6340TIP3   OH243214   5.187   4.759   2.005  0.4024  0.1717 -0.1347
 6340TIP3    H143215   5.237   4.688   1.966  1.4240  0.2418  0.9822
 6340TIP3    H243216   5.223   4.768   2.094 -2.6803 -0.8872  1.3526
 6341TIP3   OH243217   0.082   1.745   1.633 -0.2306  0.0807 -0.0369
 6341TIP3    H143218   0.053   1.664   1.591  1.4406  0.1476 -1.4503
 6341TIP3    H243219   0.005   1.802   1.633 -0.8119 -0.6827 -1.1250
 6342TIP3   OH243220   2.651   1.787   1.141  0.2153  0.1996 -0.1440
 6342TIP3    H143221   2.694   1.872   1.137 -2.0027  1.3417 -0.9330
 6342TIP3    H243222   2.636   1.772   1.235  1.0676  0.4227  0.0326
 6343TIP3   OH243223   5.225   2.231   2.049 -0.0065  0.2781 -0.6252
 6343TIP3    H143224   5.131   2.228   2.065  0.2145 -0.2865  0.7209
 6343TIP3    H243225   5.255   2.141   2.066  0.7796  0.4387 -1.0932
 6344TIP3   OH243226   5.773   0.993   2.630 -0.2210 -0.2582  0.2624
 6344TIP3    H143227   5.839   1.046   2.585 -0.6080 -0.1582 -0.1910
 6344TIP3    H243228   5.822   0.948   2.699  0.4395 -0.6738 -0.4671
 6345TIP3   OH243229   2.808   2.498   2.025  0.3077  0.3206  0.4589
 6345TIP3    H143230   2.759   2.417   2.041  2.0609 -1.1787 -1.2343
 6345TIP3    H243231   2.743   2.558   1.987 -0.5462 -1.1098 -0.4227
 6346TIP3   OH243232   1.832   6.841   0.903  0.6559  0.1731  0.3744
 6346TIP3    H143233   1.819   6.909   0.836 -2.6420 -1.5097 -0.9340
 6346TIP3    H243234   1.904   6.788   0.869 -0.2485 -0.0115 -1.3762
 6347TIP3   OH243235   5.113   6.066   2.587 -0.0495  0.3349  0.7690
 6347TIP3    H143236   5.020   6.079   2.607 -0.3035 -0.4815  0.2160
 6347TIP3    H243237   5.124   6.103   2.500 -0.0629 -0.3059  0.4857
 6348TIP3   OH243238   3.954   2.268   1.930 -0.3590  0.7294  0.1986
 6348TIP3    H143239   4.042   2.251   1.895 -0.5641  0.5159 -0.2239
 6348TIP3    H243240   3.968   2.331   2.001  0.3681 -0.6458  1.3587
 6349TIP3   OH243241   1.750   1.458   2.034 -0.4894 -0.0586  0.0301
 6349TIP3    H143242   1.668   1.413   2.056  0.1436 -0.8781  0.8027
 6349TIP3    H243243   1.755   1.530   2.096 -0.6658  0.0462 -0.0761
 6350TIP3   OH243244   5.621   6.272   0.736 -0.8994 -0.2383 -0.7047
 6350TIP3    H143245   5.651   6.326   0.809  1.2485  1.3011 -2.5849
 6350TIP3    H243246   5.557   6.212   0.775 -0.5118  1.0846  2.2233
 6351TIP3   OH243247   2.685   0.761   2.927  0.0179 -0.0006  0.6960
 6351TIP3    H143248   2.590   0.767   2.914  0.4184  0.6987 -2.6611
 6351TIP3    H243249   2.703   0.667   2.920 -0.4045 -0.1639  1.5729
 6352TIP3   OH243250   1.392   5.975   2.460  0.2789 -0.1725  0.2200
 6352TIP3    H143251   1.321   5.961   2.523  0.8357  0.3780  0.9868
 6352TIP3    H243252   1.350   5.966   2.375 -0.8123  0.5833  0.6459
 6353TIP3   OH243253   0.054   4.500   2.375 -0.0544  0.0041 -0.4284
 6353TIP3    H143254   0.026   4.566   2.439  1.7519  1.0645 -0.6687
 6353TIP3    H243255   0.073   4.550   2.296  0.1475 -0.9832 -1.0193
 6354TIP3   OH243256   6.780   0.694   1.671  0.1372 -0.2066  0.3353
 6354TIP3    H143257   6.755   0.617   1.723  0.2929 -0.7902 -0.4300
 6354TIP3    H243258   6.876   0.694   1.673  0.1395 -0.1254  0.1949
 6355TIP3   OH243259   6.686   3.058   1.514  0.1034  0.2669 -0.3284
 6355TIP3    H143260   6.709   3.048   1.606  2.0793  0.2666 -0.7763
 6355TIP3    H243261   6.758   3.018   1.466 -0.3034  1.2778 -1.8987
 6356TIP3   OH243262   2.793   2.183   0.447  0.3611  0.1159 -0.1599
 6356TIP3    H143263   2.808   2.277   0.434 -0.4278 -0.0214 -2.5670
 6356TIP3    H243264   2.877   2.148   0.475  0.6259  1.5408  0.9454
 6357TIP3   OH243265   2.133   7.676   2.450  0.3257 -0.0324 -0.0683
 6357TIP3    H143266   2.210   7.731   2.440  1.4651 -1.7121 -0.8571
 6357TIP3    H243267   2.135   7.648   2.542 -0.4178  1.4181  0.4126
 6358TIP3   OH243268   2.673   1.886   1.430  0.5586 -0.4920  0.1117
 6358TIP3    H143269   2.690   1.948   1.501  1.6253 -0.8939  0.2176
 6358TIP3    H243270   2.614   1.821   1.469 -0.0037  0.0561  0.1994
 6359TIP3   OH243271   2.102   0.331   0.523 -0.0531  0.0384  0.0010
 6359TIP3    H143272   2.104   0.373   0.609 -1.0029  0.1113 -0.0091
 6359TIP3    H243273   2.058   0.394   0.466  0.6970  0.0579 -0.5890
 6360TIP3   OH243274   4.034   4.704   2.606  0.6543  0.3028 -0.2794
 6360TIP3    H143275   4.021   4.615   2.638  0.5880  0.9973  1.8440
 6360TIP3    H243276   4.031   4.697   2.511  1.9253 -2.1267 -0.2077
 6361TIP3   OH243277   5.535   6.420   0.978  0.6867 -0.3985 -0.4601
 6361TIP3    H143278   5.477   6.345   0.963 -1.0868  0.1735  2.5961
 6361TIP3    H243279   5.485   6.495   0.947 -0.0238  0.0272  1.5678
 6362TIP3   OH243280   5.943   0.722   2.074  0.2397 -0.2356  0.2321
 6362TIP3    H143281   5.929   0.678   2.157  0.9423 -2.3085 -0.6824
 6362TIP3    H243282   5.861   0.712   2.026 -0.3982  1.5379  0.8692
 6363TIP3   OH243283   7.220   5.960   1.550 -0.2644  0.0739 -0.3989
 6363TIP3    H143284   7.196   5.896   1.617 -2.2277  1.2364  0.0659
 6363TIP3    H243285   7.152   5.952   1.483 -1.4520  2.6623  0.3994
 6364TIP3   OH243286   1.654   6.001   0.895  0.7540  0.5164 -0.1714
 6364TIP3    H143287   1.728   6.047   0.855  0.6381  1.3100  0.5008
 6364TIP3    H243288   1.596   6.070   0.927 -0.4861 -0.0900 -1.0228
 6365TIP3   OH243289   3.998   6.761   1.578 -0.5484  0.6831 -0.0204
 6365TIP3    H143290   3.959   6.721   1.500 -1.7480  0.4316  0.6829
 6365TIP3    H243291   4.075   6.707   1.596 -0.9818 -0.0538 -0.2953
 6366TIP3   OH243292   0.888   2.968   1.374 -0.2099 -0.0817 -0.3310
 6366TIP3    H143293   0.856   2.880   1.396  2.5035 -1.2522 -0.6139
 6366TIP3    H243294   0.856   3.024   1.445 -1.5217 -1.3822  0.1624
 6367TIP3   OH243295   3.409   1.663   0.901  0.3241  0.1936 -0.0893
 6367TIP3    H143296   3.368   1.608   0.967  0.3138 -0.0460 -0.2935
 6367TIP3    H243297   3.445   1.737   0.950  1.2071 -0.4865  0.3280
 6368TIP3   OH243298   5.847   6.844   1.239  0.3544  0.1037 -0.5005
 6368TIP3    H143299   5.791   6.809   1.170  1.7987 -1.7367 -0.8317
 6368TIP3    H243300   5.904   6.907   1.194  1.9653 -1.8062 -1.3218
 6369TIP3   OH243301   2.740   5.948   3.064  0.3201  0.3006  0.4857
 6369TIP3    H143302   2.718   6.031   3.105 -3.3664 -0.2626 -0.0098
 6369TIP3    H243303   2.718   5.960   2.971  2.5840 -0.3643 -0.1946
 6370TIP3   OH243304   3.017   6.102   1.542  0.4668  0.8012  0.6020
 6370TIP3    H143305   2.934   6.055   1.529  1.3384 -0.0096 -3.3796
 6370TIP3    H243306   2.992   6.181   1.590 -2.6380  0.5759 -0.3850
 6371TIP3   OH243307   6.051   6.099   0.932 -0.0994 -0.0886  0.4165
 6371TIP3    H143308   6.069   6.077   0.841 -3.6771  0.4587 -0.5724
 6371TIP3    H243309   5.969   6.148   0.929 -0.9189 -0.9653  4.0195
 6372TIP3   OH243310   7.368   3.849   2.020 -0.3850 -0.0093  0.5883
 6372TIP3    H143311   7.429   3.781   2.048  0.4275  0.1982 -0.6305
 6372TIP3    H243312   7.413   3.931   2.036 -0.6977  0.1809  0.5101
 6373TIP3   OH243313   4.229   2.614   3.099 -0.7047 -0.1328 -0.3192
 6373TIP3    H143314   4.235   2.522   3.122 -1.0351  0.3348  1.9452
 6373TIP3    H243315   4.141   2.641   3.128 -0.5902  0.9040 -0.8650
 6374TIP3   OH243316   6.615   0.562   1.853 -0.0341 -0.2872 -0.3144
 6374TIP3    H143317   6.540   0.528   1.806  0.3335  1.1695 -2.0433
 6374TIP3    H243318   6.647   0.488   1.905 -2.1225 -1.1529 -0.1788
 6375TIP3   OH243319   4.216   2.176   3.310  0.3922 -0.0739  0.3394
 6375TIP3    H143320   4.222   2.270   3.327  2.1945  0.1347 -1.0900
 6375TIP3    H243321   4.125   2.162   3.285  0.0551  1.2623  0.7202
 6376TIP3   OH243322   2.879   6.257   1.023 -0.0869 -0.1185 -0.2618
 6376TIP3    H143323   2.835   6.247   1.107 -0.6869 -1.3880 -0.6930
 6376TIP3    H243324   2.933   6.178   1.014  0.6810  0.4295 -0.6760
 6377TIP3   OH243325   1.934   5.878   1.037 -0.3047  0.2553 -0.0964
 6377TIP3    H143326   1.869   5.852   0.972 -0.6904  0.8630  0.0350
 6377TIP3    H243327   1.954   5.797   1.084  1.0980 -0.5238 -1.9195
 6378TIP3   OH243328   4.055   4.511   2.796 -0.0710  0.3846 -0.6540
 6378TIP3    H143329   4.147   4.488   2.780  0.2690  0.3650  1.0611
 6378TIP3    H243330   4.051   4.527   2.890 -1.8251  0.4684 -0.7087
 6379TIP3   OH243331   2.950   1.129   3.953 -0.7366 -0.0179  0.0542
 6379TIP3    H143332   3.004   1.084   3.888 -2.2813 -0.1952 -1.1517
 6379TIP3    H243333   2.861   1.098   3.937 -1.4646  1.5143  0.8914
 6380TIP3   OH243334   2.578   4.180   0.685  0.2197 -0.0024 -0.3344
 6380TIP3    H143335   2.518   4.176   0.610  0.3412 -0.5211 -0.4070
 6380TIP3    H243336   2.524   4.153   0.759  0.2605 -0.0770 -0.3324
 6381TIP3   OH243337   1.174   1.037   0.876 -0.4310 -0.5826  0.1992
 6381TIP3    H143338   1.193   1.040   0.969  0.7105  1.1765 -0.0595
 6381TIP3    H243339   1.227   0.964   0.843  0.8489  0.1322  0.6000
 6382TIP3   OH243340   5.975   0.000   1.901  0.0233 -0.1581 -0.2392
 6382TIP3    H143341   5.986   0.065   1.831 -0.9501  0.0763 -0.2008
 6382TIP3    H243342   5.889   0.021   1.939 -0.7962 -2.1263 -0.9136
 6383TIP3   OH243343   7.160   6.980   1.552  0.2118  0.2634 -0.6535
 6383TIP3    H143344   7.073   6.941   1.555  0.5396 -0.4421  0.4330
 6383TIP3    H243345   7.159   7.036   1.475 -1.1371  0.1090 -0.7699
 6384TIP3   OH243346   2.627   3.634   1.362  0.2400  0.1419  0.2833
 6384TIP3    H143347   2.628   3.585   1.444  1.2510 -1.6628 -0.7585
 6384TIP3    H243348   2.719   3.656   1.346  0.1439 -0.1227 -0.7010
 6385TIP3   OH243349   4.238   2.467   1.727  0.1838 -0.1098  0.1785
 6385TIP3    H143350   4.274   2.478   1.639 -0.0267 -0.8276 -0.0032
 6385TIP3    H243351   4.149   2.435   1.712 -0.2047  0.7218  0.6383
 6386TIP3   OH243352   4.867   2.175   0.791 -0.1447 -0.2732  0.0001
 6386TIP3    H143353   4.829   2.248   0.839 -0.1138 -0.8747  0.9729
 6386TIP3    H243354   4.811   2.100   0.812 -1.0814 -0.2583 -2.1776
 6387TIP3   OH243355   2.785   4.434   1.664 -0.3480  0.3923  0.1475
 6387TIP3    H143356   2.801   4.452   1.757  0.7107  2.2017 -0.3424
 6387TIP3    H243357   2.690   4.426   1.657 -0.4241 -0.0611  1.4142
 6388TIP3   OH243358   1.344   4.889   1.222 -0.2865 -0.0595  0.3779
 6388TIP3    H143359   1.430   4.902   1.181 -0.1627 -1.3730  0.1654
 6388TIP3    H243360   1.363   4.835   1.299 -1.0556 -1.4817 -0.3952
 6389TIP3   OH243361   5.817   0.476   2.545  0.0649  0.0399 -0.5489
 6389TIP3    H143362   5.821   0.462   2.640 -1.3341  1.9737 -0.1225
 6389TIP3    H243363   5.834   0.570   2.534 -2.5847  0.4745 -1.8679
 6390TIP3   OH243364   0.721   0.284   1.922 -0.5379  0.2000 -0.6626
 6390TIP3    H143365   0.785   0.306   1.853 -1.4021 -0.1424 -1.6061
 6390TIP3    H243366   0.762   0.213   1.971  0.3234  0.8106 -0.4757
 6391TIP3   OH243367   0.892   7.316   1.576 -0.0671  0.3826  0.1043
 6391TIP3    H143368   0.839   7.394   1.585 -0.8739  0.1480 -2.0614
 6391TIP3    H243369   0.860   7.274   1.496  0.8318 -1.7785  0.8051
 6392TIP3   OH243370   3.685   1.798   0.740  0.2187  0.6600 -0.1928
 6392TIP3    H143371   3.775   1.830   0.744  0.7075 -0.6068 -0.4590
 6392TIP3    H243372   3.692   1.712   0.698 -0.7429 -0.8013  2.3833
 6393TIP3   OH243373   0.055   3.181   1.918  0.4335 -0.3836 -0.1262
 6393TIP3    H143374   0.135   3.223   1.888 -1.0962  1.5768 -1.7765
 6393TIP3    H243375   0.068   3.169   2.012  3.1679 -1.4659 -0.5361
 6394TIP3   OH243376   4.329   6.074   1.771  0.2664  0.3054 -0.2256
 6394TIP3    H143377   4.288   5.990   1.794 -1.9735  0.8169 -1.9734
 6394TIP3    H243378   4.317   6.128   1.850  1.2251 -0.7925  0.7153
 6395TIP3   OH243379   6.859   0.143   3.170 -0.0823  0.2707  0.6574
 6395TIP3    H143380   6.938   0.193   3.193  0.8960 -1.3094  0.8796
 6395TIP3    H243381   6.887   0.052   3.173 -1.9843 -0.3384  0.9037
 6396TIP3   OH243382   1.601   3.054   8.327 -0.1676 -0.1337 -0.7287
 6396TIP3    H143383   1.594   2.970   8.282  0.5219  0.9818 -3.0174
 6396TIP3    H243384   1.669   3.041   8.393 -1.4133 -1.8808  0.2984
 6397TIP3   OH243385   3.863   3.852   2.983  0.2061  0.0324 -0.1317
 6397TIP3    H143386   3.851   3.837   2.889  4.2316 -0.8724 -0.7254
 6397TIP3    H243387   3.854   3.765   3.022 -0.1890  0.1867  0.1178
 6398TIP3   OH243388   1.356   3.551   1.581  0.4602 -0.2903 -0.7879
 6398TIP3    H143389   1.394   3.601   1.509  0.6180  2.6270  1.1407
 6398TIP3    H243390   1.262   3.557   1.568  0.4878  0.2122 -0.7645
 6399TIP3   OH243391   3.868   0.166   3.237  0.0685  0.0165 -0.1345
 6399TIP3    H143392   3.857   0.229   3.308 -0.0206  0.1841 -0.2992
 6399TIP3    H243393   3.865   0.081   3.281  2.1327  0.1431  0.3758
 6400TIP3   OH243394   2.182   7.233   2.557 -0.4157  0.4427 -0.0553
 6400TIP3    H143395   2.171   7.140   2.576  0.8710  0.6094  1.7424
 6400TIP3    H243396   2.252   7.236   2.491  0.4453  0.1646  0.8231
 6401TIP3   OH243397   4.444   4.725   1.000  0.0270 -0.3441  0.1095
 6401TIP3    H143398   4.535   4.752   1.016 -0.4491  0.7727  1.0347
 6401TIP3    H243399   4.452   4.639   0.961  1.5326  0.1239 -0.7094
 6402TIP3   OH243400   0.658   5.870   1.317 -0.1828  0.2608  0.1109
 6402TIP3    H143401   0.702   5.954   1.328  0.6269 -0.3306  1.5639
 6402TIP3    H243402   0.721   5.815   1.270 -0.0376 -0.0631  0.6837
 6403TIP3   OH243403   4.494   2.243   1.983  0.5672 -0.1224  0.8189
 6403TIP3    H143404   4.402   2.222   1.969 -0.3973  3.9428 -0.4067
 6403TIP3    H243405   4.497   2.277   2.072  1.0522 -0.9472  1.1200
 6404TIP3   OH243406   0.467   2.571   2.424 -0.0374  0.9416  0.1055
 6404TIP3    H143407   0.434   2.496   2.473  1.6277  0.7156  0.9549
 6404TIP3    H243408   0.389   2.609   2.384 -0.9951 -0.9617  0.0086
 6405TIP3   OH243409   7.586   1.147   1.375 -0.2744 -0.0727  0.0991
 6405TIP3    H143410   7.597   1.052   1.370 -0.8957 -0.1282 -0.3136
 6405TIP3    H243411   7.582   1.166   1.468  0.0310 -0.4264  0.1893
 6406TIP3   OH243412   6.071   1.571   1.945 -0.1724 -0.4859 -0.0897
 6406TIP3    H143413   6.009   1.537   1.881 -2.1670  1.6047  0.5997
 6406TIP3    H243414   6.062   1.666   1.939  0.8358 -0.1991  2.1133
 6407TIP3   OH243415   7.269   5.469   2.134 -0.4136 -1.0274 -0.1310
 6407TIP3    H143416   7.265   5.485   2.228  0.8197  0.1825 -0.2405
 6407TIP3    H243417   7.341   5.407   2.123  2.0697  1.6857 -0.4800
 6408TIP3   OH243418   3.914   0.553   2.337  0.8568  0.0674 -0.0711
 6408TIP3    H143419   3.972   0.538   2.413  1.0090  0.5938 -0.0779
 6408TIP3    H243420   3.827   0.561   2.375  0.2096 -3.8619 -0.2954
 6409TIP3   OH243421   2.287   7.543   0.686 -0.2791 -0.6101 -0.1869
 6409TIP3    H143422   2.223   7.472   0.694  1.8720 -2.6761 -0.5481
 6409TIP3    H243423   2.309   7.545   0.593 -0.1422  0.4048 -0.1422
 6410TIP3   OH243424   5.578   1.325   1.855  0.0685  0.1361  0.0403
 6410TIP3    H143425   5.631   1.245   1.854  0.2702  0.2677 -0.7037
 6410TIP3    H243426   5.641   1.395   1.872  0.0442  0.2345 -0.2717
 6411TIP3   OH243427   7.133   3.949   2.440 -0.1236  0.4993 -0.1520
 6411TIP3    H143428   7.155   4.040   2.423 -1.3499  0.5868 -1.4216
 6411TIP3    H243429   7.101   3.916   2.356 -3.2020 -0.0503  1.1156
 6412TIP3   OH243430   6.023   5.961   0.662  0.1654  0.0574 -0.2888
 6412TIP3    H143431   6.076   5.881   0.651  1.2977  0.6492  0.6232
 6412TIP3    H243432   5.942   5.930   0.702 -0.1064 -0.8372 -1.4579
 6413TIP3   OH243433   0.892   5.063   2.571  0.5755 -0.3039 -0.2761
 6413TIP3    H143434   0.915   5.137   2.628  1.1466 -0.4685 -0.2912
 6413TIP3    H243435   0.816   5.023   2.614 -0.8403  1.3077 -1.1647
 6414TIP3   OH243436   3.546   2.397   2.503  0.2619  0.2725  0.1762
 6414TIP3    H143437   3.615   2.454   2.536  1.0987 -0.8027  0.3168
 6414TIP3    H243438   3.548   2.410   2.408  1.4955 -0.6377  0.0502
 6415TIP3   OH243439   1.895   2.741   1.732 -0.6001 -0.2807  0.4136
 6415TIP3    H143440   1.857   2.781   1.654  2.3346  2.8549  0.3283
 6415TIP3    H243441   1.957   2.677   1.697  1.1512  1.5397 -0.0083
 6416TIP3   OH243442   1.666   5.397   2.642  0.1009  0.6394  0.3222
 6416TIP3    H143443   1.604   5.342   2.594  0.7556  1.0549 -1.0332
 6416TIP3    H243444   1.707   5.337   2.705 -1.0741  0.1825  0.6848
 6417TIP3   OH243445   2.470   0.684   0.759 -0.2755  0.5189  0.2558
 6417TIP3    H143446   2.416   0.727   0.692  1.3595  0.3664 -1.2434
 6417TIP3    H243447   2.433   0.596   0.766 -0.2869  0.4348 -0.6959
 6418TIP3   OH243448   5.715   0.122   1.861 -0.2457 -1.0106  0.5951
 6418TIP3    H143449   5.647   0.189   1.875 -1.5745 -1.7139 -1.9190
 6418TIP3    H243450   5.669   0.039   1.873  0.4354 -1.4958 -0.0514
 6419TIP3   OH243451   3.525   4.897   1.449  0.2171  0.0975  0.1086
 6419TIP3    H143452   3.514   4.956   1.374  1.5158 -0.8346 -0.8659
 6419TIP3    H243453   3.496   4.949   1.524  0.3266  1.6123 -0.8388
 6420TIP3   OH243454   3.078   1.417   0.882 -0.1130 -0.3736 -0.5348
 6420TIP3    H143455   3.065   1.469   0.803 -1.1176 -1.6854 -1.2706
 6420TIP3    H243456   3.005   1.355   0.882 -1.0848  0.5939  2.2522
 6421TIP3   OH243457   4.807   6.445   1.978 -0.3018 -0.7700  0.3698
 6421TIP3    H143458   4.860   6.377   1.936  0.4398  0.6412 -1.1103
 6421TIP3    H243459   4.790   6.508   1.908 -2.0662 -0.0585  1.3792
 6422TIP3   OH243460   4.808   3.638   3.262  0.0751 -0.0978 -0.3849
 6422TIP3    H143461   4.856   3.702   3.314 -0.7260 -0.6448  1.1165
 6422TIP3    H243462   4.828   3.554   3.303 -1.3440 -0.4394 -0.3286
 6423TIP3   OH243463   3.439   5.760   1.122  0.0826  0.3576 -0.1724
 6423TIP3    H143464   3.411   5.811   1.198  0.0105  1.4845 -0.9261
 6423TIP3    H243465   3.534   5.755   1.129  0.2859  2.2021 -1.0258
 6424TIP3   OH243466   7.637   6.917   2.461  0.0003  0.6855  0.8950
 6424TIP3    H143467   7.731   6.917   2.480 -0.1675  0.1651  1.7628
 6424TIP3    H243468   7.632   6.930   2.366  1.1039 -2.6182  0.2523
 6425TIP3   OH243469   7.079   3.343   2.548  0.0172 -0.0647 -0.0457
 6425TIP3    H143470   7.089   3.417   2.608  0.8945  0.6580 -1.0501
 6425TIP3    H243471   7.045   3.272   2.603 -1.5045  1.2559  0.7983
 6426TIP3   OH243472   5.346   4.269   2.886 -0.0069  0.2846  0.3300
 6426TIP3    H143473   5.432   4.238   2.857  0.5002  0.7159  1.3250
 6426TIP3    H243474   5.346   4.362   2.866 -1.0311 -0.0604 -1.4736
 6427TIP3   OH243475   3.300   2.084   3.123  0.2693 -0.4391  0.6262
 6427TIP3    H143476   3.368   2.020   3.146  0.5594  0.1250  1.3915
 6427TIP3    H243477   3.219   2.034   3.123  0.8649 -1.6463 -2.4860
 6428TIP3   OH243478   6.587   4.825   0.605  0.2392 -0.2132 -0.1541
 6428TIP3    H143479   6.535   4.803   0.528  0.8773  0.8126 -0.9003
 6428TIP3    H243480   6.659   4.878   0.571  1.5883 -1.2995  0.8912
 6429TIP3   OH243481   1.049   5.730   2.169  0.1181 -0.2706 -0.1397
 6429TIP3    H143482   1.125   5.735   2.111  0.4125  0.3196  0.2766
 6429TIP3    H243483   1.004   5.650   2.144  0.0013  0.1804 -1.4719
 6430TIP3   OH243484   3.259   4.640   1.344  0.4915 -0.1922 -0.3832
 6430TIP3    H143485   3.262   4.643   1.248 -0.7218 -0.5692 -0.4554
 6430TIP3    H243486   3.350   4.643   1.371  0.9294 -1.5292 -1.6018
 6431TIP3   OH243487   2.749   2.401   1.639 -0.0675  0.0240  0.8759
 6431TIP3    H143488   2.843   2.385   1.639  0.3363  2.0804  0.1768
 6431TIP3    H243489   2.740   2.493   1.666 -2.0000 -0.5875  2.5538
 6432TIP3   OH243490   0.787   0.979   2.033 -0.2039 -0.2916  0.3508
 6432TIP3    H143491   0.692   0.971   2.027 -0.0923 -0.6419 -1.8426
 6432TIP3    H243492   0.804   0.992   2.126 -2.5508  1.7438  0.6136
 6433TIP3   OH243493   7.126   4.494   1.323  0.5757  0.1233 -0.4264
 6433TIP3    H143494   7.183   4.570   1.338 -1.4085  1.6553 -0.1083
 6433TIP3    H243495   7.131   4.444   1.403  1.5609  0.1530 -0.4563
 6434TIP3   OH243496   5.535   4.544   1.432 -0.1421 -0.1039 -0.3046
 6434TIP3    H143497   5.490   4.556   1.349  1.1648 -0.4695 -1.0978
 6434TIP3    H243498   5.498   4.464   1.469 -3.4771  1.9925  1.3780
 6435TIP3   OH243499   5.237   7.290   3.150 -0.1054  0.3506  0.2914
 6435TIP3    H143500   5.192   7.250   3.075  1.4070  1.1138 -1.0866
 6435TIP3    H243501   5.327   7.258   3.143 -0.1514 -0.3824  2.4224
 6436TIP3   OH243502   1.371   2.095   1.026 -0.4684 -0.3651  0.2280
 6436TIP3    H143503   1.352   2.166   0.964  0.1071  0.0264  0.4885
 6436TIP3    H243504   1.466   2.099   1.038 -0.1932 -2.1490 -0.9145
 6437TIP3   OH243505   7.531   7.031   1.052 -0.2070 -0.2894  0.0891
 6437TIP3    H143506   7.530   6.984   0.969 -0.6979 -0.2972  0.0960
 6437TIP3    H243507   7.600   6.988   1.103  1.7425  1.1987 -1.1397
 6438TIP3   OH243508   4.301   2.893   1.549 -0.2219  0.8130  0.0819
 6438TIP3    H143509   4.340   2.937   1.474  1.0552  1.0112  0.8260
 6438TIP3    H243510   4.321   2.800   1.535  0.2888  0.8839  0.3230
 6439TIP3   OH243511   1.654   0.836   2.335 -0.1769  0.6342  0.3032
 6439TIP3    H143512   1.689   0.839   2.424  0.0694  0.2468  0.2217
 6439TIP3    H243513   1.705   0.768   2.291 -0.1008  1.0137 -0.2195
 6440TIP3   OH243514   0.629   4.083   2.209 -0.5860 -0.3705  0.5040
 6440TIP3    H143515   0.601   4.084   2.118 -0.2179  1.2292  0.3751
 6440TIP3    H243516   0.695   4.013   2.213 -0.8786 -0.7107 -0.3482
 6441TIP3   OH243517   6.932   0.022   1.918  0.4509 -0.4119 -0.1467
 6441TIP3    H143518   6.920   0.110   1.951  2.8535  0.1611 -0.5750
 6441TIP3    H243519   6.874  -0.033   1.971  1.8187  0.8630  2.8872
 6442TIP3   OH243520   7.355   3.320   3.079  0.3776 -0.0205  0.2711
 6442TIP3    H143521   7.316   3.244   3.123  2.3906 -1.1176  0.2946
 6442TIP3    H243522   7.433   3.285   3.037  0.2708  1.6628 -1.4620
 6443TIP3   OH243523   0.728   2.584   2.328 -0.1548  0.9730 -0.5273
 6443TIP3    H143524   0.783   2.651   2.370  0.5952 -0.1105  0.2953
 6443TIP3    H243525   0.651   2.578   2.385 -0.6436  1.7216 -1.0818
 6444TIP3   OH243526   3.445   0.016   2.938 -0.1592 -0.1875  0.0002
 6444TIP3    H143527   3.377   0.070   2.898  0.3920 -0.4268 -1.3309
 6444TIP3    H243528   3.466   0.059   3.020 -1.4270  0.2707  0.0995
 6445TIP3   OH243529   6.417   2.534   1.586 -0.2905  0.6910  0.1314
 6445TIP3    H143530   6.330   2.568   1.568 -0.5238  0.4285  0.7393
 6445TIP3    H243531   6.410   2.494   1.672  0.3684  0.4450  0.0785
 6446TIP3   OH243532   6.328   7.512   0.561  0.1445 -0.2534  0.4609
 6446TIP3    H143533   6.348   7.424   0.531  0.0035 -0.5317  1.1455
 6446TIP3    H243534   6.374   7.519   0.645 -0.2017  0.1643  0.6167
 6447TIP3   OH243535   4.984   4.054   2.446  0.2954 -0.2240  0.3432
 6447TIP3    H143536   4.908   4.099   2.409  1.1813  1.5018  0.5201
 6447TIP3    H243537   4.948   3.975   2.485 -1.1757 -0.2375 -0.9634
 6448TIP3   OH243538   7.430   5.799   1.082  0.1329 -0.5744  0.1861
 6448TIP3    H143539   7.390   5.885   1.094  2.0100  0.9110 -2.8740
 6448TIP3    H243540   7.394   5.767   0.999  2.5335 -0.7303 -0.8888
 6449TIP3   OH243541   6.523   5.833   2.498  0.1518 -0.4251 -0.0441
 6449TIP3    H143542   6.573   5.828   2.417  0.4831 -2.3223  0.2413
 6449TIP3    H243543   6.553   5.759   2.551 -0.3853  0.4784  1.6353
 6450TIP3   OH243544   5.596   7.165   1.185 -0.1400 -0.7817  0.0694
 6450TIP3    H143545   5.682   7.156   1.226  0.2164  0.1591 -0.4488
 6450TIP3    H243546   5.534   7.140   1.253  0.5071 -0.7065  0.6936
 6451TIP3   OH243547   3.518   2.646   1.305 -0.0930 -0.0988  0.1267
 6451TIP3    H143548   3.528   2.725   1.251  1.1633 -0.3379 -0.0259
 6451TIP3    H243549   3.528   2.678   1.395 -0.9168  0.1113  0.1457
 6452TIP3   OH243550   6.041   3.010   2.044  0.3722 -0.4389 -0.3828
 6452TIP3    H143551   6.132   3.005   2.017  0.8200  0.4880  0.8531
 6452TIP3    H243552   6.019   2.922   2.074  0.8036 -0.7035 -0.8373
 6453TIP3   OH243553   7.206   1.892   0.724 -0.0274  0.2897 -0.3095
 6453TIP3    H143554   7.172   1.940   0.799 -0.7111 -0.6558  0.0009
 6453TIP3    H243555   7.281   1.944   0.694 -0.0178  0.9061  0.7470
 6454TIP3   OH243556   2.598   7.168   2.416 -0.3008  0.2564  0.4740
 6454TIP3    H143557   2.680   7.182   2.464 -0.6366  2.9536  0.4451
 6454TIP3    H243558   2.614   7.091   2.362  1.7800  0.0119  1.3553
 6455TIP3   OH243559   2.002   1.997   3.335 -0.0859 -0.7142 -0.1562
 6455TIP3    H143560   2.023   1.905   3.353 -1.2003 -1.0770 -0.5819
 6455TIP3    H243561   1.956   2.026   3.413  0.5028 -0.4388  0.0865
 6456TIP3   OH243562   3.610   4.615   0.923  0.4507  0.1468  0.0318
 6456TIP3    H143563   3.696   4.655   0.937  0.0123  0.8111  0.9349
 6456TIP3    H243564   3.629   4.533   0.877  1.6138  0.0468  0.6352
 6457TIP3   OH243565   6.676   5.100   2.169  0.2645 -0.1494  0.0877
 6457TIP3    H143566   6.723   5.036   2.222  1.1636 -0.2734 -0.8133
 6457TIP3    H243567   6.716   5.092   2.082 -0.9625  0.2475 -0.5345
 6458TIP3   OH243568   2.187   1.738   0.530  0.4376 -0.0717 -0.4211
 6458TIP3    H143569   2.225   1.702   0.609  0.5283  1.7121  0.4086
 6458TIP3    H243570   2.261   1.759   0.474  0.4799  0.1817 -0.2727
 6459TIP3   OH243571   6.632   3.905   1.577  0.2730  0.4575 -0.5023
 6459TIP3    H143572   6.711   3.959   1.574  0.0770  0.7200 -1.0628
 6459TIP3    H243573   6.649   3.841   1.646  0.3309  1.5072  0.4907
 6460TIP3   OH243574   6.402   5.566   2.425  0.0937 -0.6185 -0.6621
 6460TIP3    H143575   6.394   5.639   2.486  3.2263  0.1487 -0.9651
 6460TIP3    H243576   6.457   5.503   2.471  0.1029 -1.3235 -1.6130
 6461TIP3   OH243577   0.943   5.489   3.324  0.0699  0.1481  0.4207
 6461TIP3    H143578   0.859   5.524   3.295  0.2957  0.1135 -0.2891
 6461TIP3    H243579   1.007   5.530   3.265  0.5936  0.5059  1.2254
 6462TIP3   OH243580   6.599   0.149   1.217  0.2569 -0.5880  0.7875
 6462TIP3    H143581   6.682   0.155   1.171 -0.2990  1.1180 -0.1277
 6462TIP3    H243582   6.618   0.176   1.307  0.6769 -0.0645  0.5434
 6463TIP3   OH243583   2.413   1.144   1.205 -0.6039 -0.0870 -0.0977
 6463TIP3    H143584   2.487   1.202   1.221  0.0072 -0.5389 -1.1530
 6463TIP3    H243585   2.431   1.105   1.119 -1.3495 -1.2801  0.2539
 6464TIP3   OH243586   1.129   7.368   1.931 -0.1976 -0.0501 -0.4629
 6464TIP3    H143587   1.046   7.345   1.972 -0.1982  1.5429  0.4966
 6464TIP3    H243588   1.180   7.287   1.936 -1.0907 -0.5912  0.4639
 6465TIP3   OH243589   3.583   1.324   0.631 -0.4759  0.2684 -0.1729
 6465TIP3    H143590   3.516   1.388   0.607 -2.7607 -2.0031 -0.2561
 6465TIP3    H243591   3.587   1.329   0.727 -0.4070  0.7432 -0.1970
 6466TIP3   OH243592   1.938   5.920   3.018 -0.2399  0.2560  0.1339
 6466TIP3    H143593   1.866   5.983   3.023  1.0458  1.8582 -0.6318
 6466TIP3    H243594   2.015   5.973   2.997  0.9185 -1.5831 -0.4808
 6467TIP3   OH243595   5.179   2.949   1.240  0.0716 -0.0358 -0.1001
 6467TIP3    H143596   5.267   2.956   1.279 -0.2302  2.4548  0.3294
 6467TIP3    H243597   5.120   2.951   1.316 -0.4111  0.7060 -0.4894
 6468TIP3   OH243598   0.495   3.672   0.807 -0.3700  0.1748  0.2156
 6468TIP3    H143599   0.445   3.689   0.727  0.4909 -1.6388 -0.7833
 6468TIP3    H243600   0.563   3.739   0.807  0.1019 -0.2619 -1.0537
 6469TIP3   OH243601   5.624   0.225   1.376 -0.1859  0.3719 -0.0619
 6469TIP3    H143602   5.563   0.175   1.429  0.0283  0.3401  0.1544
 6469TIP3    H243603   5.659   0.291   1.435  0.7623 -0.2543  0.1050
 6470TIP3   OH243604   1.217   2.404   2.715 -0.0050  0.2992  0.7179
 6470TIP3    H143605   1.262   2.342   2.773 -0.3997  1.6526  2.5951
 6470TIP3    H243606   1.198   2.479   2.772  0.1080  1.9760 -1.3473
 6471TIP3   OH243607   6.501   0.115   0.527 -0.5709  0.0230 -0.5156
 6471TIP3    H143608   6.516   0.203   0.562  0.9219 -0.7246  0.8696
 6471TIP3    H243609   6.419   0.086   0.568  0.5882 -0.4200  1.6363
 6472TIP3   OH243610   2.100   6.429   2.402  0.1299  0.6834 -0.2249
 6472TIP3    H143611   2.118   6.480   2.480 -0.0612 -0.5601  0.6579
 6472TIP3    H243612   2.176   6.372   2.392  0.7471  1.6813 -1.6994
 6473TIP3   OH243613   1.686   7.131   1.386  0.0694 -1.2829  0.0525
 6473TIP3    H143614   1.602   7.124   1.432 -0.1849 -1.0960 -0.3687
 6473TIP3    H243615   1.688   7.054   1.330 -0.6279 -0.4190 -1.2157
 6474TIP3   OH243616   4.939   2.550   0.892  0.2672  0.4879 -0.3302
 6474TIP3    H143617   4.971   2.532   0.981 -2.1557  0.4870  0.6139
 6474TIP3    H243618   4.965   2.473   0.841  1.1471  0.2008  0.5216
 6475TIP3   OH243619   6.477   5.277   1.199 -0.4709 -0.1916 -0.2843
 6475TIP3    H143620   6.546   5.225   1.240  0.2417  0.8756 -0.1050
 6475TIP3    H243621   6.520   5.317   1.123 -0.7577  0.8845  0.1150
 6476TIP3   OH243622   6.807   3.226   1.743  0.3923 -0.1702 -0.5136
 6476TIP3    H143623   6.815   3.143   1.790 -0.7778 -0.0710 -0.1175
 6476TIP3    H243624   6.737   3.273   1.787  0.8198  0.9117 -0.9294
 6477TIP3   OH243625   1.560   7.444   1.907  0.0319 -0.0612  0.3104
 6477TIP3    H143626   1.488   7.494   1.870 -1.6059 -1.7610  1.0039
 6477TIP3    H243627   1.639   7.482   1.870 -1.3115  0.9189 -1.6546
 6478TIP3   OH243628   7.079   2.994   1.845  0.5652  0.3722 -0.4354
 6478TIP3    H143629   7.026   3.053   1.900  0.4462  0.8521 -1.0540
 6478TIP3    H243630   7.024   2.917   1.833  0.0975  0.7652 -0.8682
 6479TIP3   OH243631   0.808   4.504   2.664 -0.0602 -0.2403  0.2048
 6479TIP3    H143632   0.836   4.467   2.748 -1.9755  0.1675  1.0698
 6479TIP3    H243633   0.793   4.597   2.683  0.4587  0.0685 -0.8509
 6480TIP3   OH243634   4.119   6.980   0.996  0.1188  0.1281  0.1481
 6480TIP3    H143635   4.095   6.903   1.049  0.3938 -1.8074 -2.3283
 6480TIP3    H243636   4.038   7.005   0.952  0.4480 -0.0478 -0.5788
 6481TIP3   OH243637   5.155   7.504   1.967  0.3348 -0.1131  0.0447
 6481TIP3    H143638   5.083   7.492   1.905 -0.3987 -0.6132  0.9690
 6481TIP3    H243639   5.230   7.462   1.924  0.2107  0.7946 -1.1147
 6482TIP3   OH243640   5.772   3.233   2.206  0.1229  0.3679 -0.5874
 6482TIP3    H143641   5.796   3.140   2.201 -0.8326  0.0209  0.7525
 6482TIP3    H243642   5.851   3.276   2.239 -0.3509 -0.4619  1.8103
 6483TIP3   OH243643   1.037   6.218   1.650 -0.0321  0.4069 -0.4860
 6483TIP3    H143644   1.113   6.188   1.601 -0.0531  1.1496 -0.9787
 6483TIP3    H243645   1.042   6.313   1.647 -2.2257  0.5497 -2.5634
 6484TIP3   OH243646   0.696   1.171   2.442  0.2135 -0.0437 -0.1341
 6484TIP3    H143647   0.654   1.203   2.362 -0.1675 -0.0654  0.0564
 6484TIP3    H243648   0.724   1.251   2.488 -1.2958  0.0589  0.6454
 6485TIP3   OH243649   6.660   3.857   2.652  0.6240 -0.2084  0.4002
 6485TIP3    H143650   6.566   3.874   2.644  0.3931 -0.7768  1.7056
 6485TIP3    H243651   6.700   3.943   2.642 -0.1504  0.2947  1.4377
 6486TIP3   OH243652   6.948   3.092   1.012 -0.5036  0.2191 -0.4090
 6486TIP3    H143653   6.910   3.027   0.953 -1.9097  0.5714  0.0648
 6486TIP3    H243654   7.040   3.098   0.986 -0.3019 -2.0468 -0.3789
 6487TIP3   OH243655   1.623   7.217   1.772 -0.3638  0.2190  0.0033
 6487TIP3    H143656   1.571   7.213   1.692 -2.0942 -1.2937  1.1381
 6487TIP3    H243657   1.596   7.299   1.814 -1.5542 -0.3370  0.3638
 6488TIP3   OH243658   3.519   6.918   1.249  0.0645  0.1922 -0.2818
 6488TIP3    H143659   3.569   6.911   1.168 -0.1313 -1.3518 -0.2917
 6488TIP3    H243660   3.581   6.896   1.318 -0.4148 -1.1503 -0.2465
 6489TIP3   OH243661   6.794   2.575   1.231  0.2960 -0.1234 -0.2426
 6489TIP3    H143662   6.886   2.571   1.257  0.3644  0.6967 -0.3486
 6489TIP3    H243663   6.745   2.559   1.311  0.5249 -0.4794 -0.1700
 6490TIP3   OH243664   1.372   4.360   0.935 -0.8791  0.2655 -0.4262
 6490TIP3    H143665   1.372   4.444   0.981  0.3122  1.0385 -1.7298
 6490TIP3    H243666   1.458   4.324   0.951 -1.2798 -0.5808 -0.1344
 6491TIP3   OH243667   0.413   1.998   1.713 -1.0826 -0.2079  0.4871
 6491TIP3    H143668   0.399   2.057   1.787  0.2917 -1.1160  1.5090
 6491TIP3    H243669   0.491   2.032   1.670 -0.8625 -0.7186  0.4867
 6492TIP3   OH243670   4.436   6.330   1.717  0.1779  1.0241 -0.4281
 6492TIP3    H143671   4.425   6.367   1.805  3.4652  1.4439 -0.0502
 6492TIP3    H243672   4.488   6.251   1.731  0.3025  0.8023 -1.9712
 6493TIP3   OH243673   0.521   0.499   2.363  0.3251 -0.2457  0.6878
 6493TIP3    H143674   0.500   0.488   2.271 -0.1077 -1.7465  0.9502
 6493TIP3    H243675   0.483   0.584   2.386  0.8657  0.3835 -0.6083
 6494TIP3   OH243676   1.617   2.231   3.309  0.0978  0.1535  0.3435
 6494TIP3    H143677   1.601   2.158   3.369  0.1022  1.6878  2.2973
 6494TIP3    H243678   1.688   2.201   3.253 -1.3730 -2.1713 -0.4345
 6495TIP3   OH243679   6.930   7.093   0.501  0.7649 -0.0350 -0.2028
 6495TIP3    H143680   6.895   7.052   0.422 -1.2728  0.8069  0.2188
 6495TIP3    H243681   6.933   7.021   0.565 -1.4990  0.1040  0.1308
 6496TIP3   OH243682   4.981   0.213   1.311  0.1831  0.3720 -0.3488
 6496TIP3    H143683   5.052   0.207   1.375 -0.1609  0.5803  0.0547
 6496TIP3    H243684   4.929   0.288   1.339 -0.5219 -0.1278 -0.3107
 6497TIP3   OH243685   0.139   3.964   2.276 -0.3585 -0.0535 -0.4540
 6497TIP3    H143686   0.169   3.874   2.289 -0.4990 -0.3778 -2.1137
 6497TIP3    H243687   0.217   4.011   2.247  0.0822  0.7641  1.9183
 6498TIP3   OH243688   1.928   1.867   0.739 -0.1493  0.7043  0.2706
 6498TIP3    H143689   1.853   1.923   0.717  0.0738  0.6212 -0.7341
 6498TIP3    H243690   1.992   1.884   0.670  0.5938  0.4520  0.8842
 6499TIP3   OH243691   5.619   3.067   1.123 -0.1367  0.0154 -0.0084
 6499TIP3    H143692   5.570   3.142   1.089 -0.3450  0.1349  0.5488
 6499TIP3    H243693   5.694   3.058   1.064  0.5660  1.4330  0.6125
 6500TIP3   OH243694   2.889   1.387   4.079 -0.3346  0.5567 -0.1035
 6500TIP3    H143695   2.804   1.387   4.124  0.1940  0.6222  0.9067
 6500TIP3    H243696   2.905   1.295   4.059 -0.5103  0.5146 -0.0556
 6501TIP3   OH243697   7.385   2.981   1.896  0.4659  0.0668 -0.2974
 6501TIP3    H143698   7.436   2.985   1.977  1.7125  1.1467 -1.0913
 6501TIP3    H243699   7.297   2.958   1.925  1.5165 -2.7486  1.0333
 6502TIP3   OH243700   0.465   4.776   1.185 -0.2920 -0.3029  0.1859
 6502TIP3    H143701   0.474   4.823   1.268 -0.6046  0.0525  0.0192
 6502TIP3    H243702   0.371   4.761   1.177 -0.5691  1.7964 -1.2755
 6503TIP3   OH243703   3.890   6.804   2.787  0.3840  0.1613  0.5494
 6503TIP3    H143704   3.976   6.773   2.815  0.5760  0.4542  0.2921
 6503TIP3    H243705   3.882   6.891   2.827  0.2627  0.1841  0.4738
 6504TIP3   OH243706   3.632   2.689   0.541  0.1298  0.5285  0.4881
 6504TIP3    H143707   3.547   2.645   0.545 -0.2328  1.2414  0.9006
 6504TIP3    H243708   3.613   2.774   0.501  1.0458 -0.1901 -1.6324
 6505TIP3   OH243709   7.102   7.483   2.780  0.2559 -0.2445  0.2685
 6505TIP3    H143710   7.116   7.451   2.691  0.4366  3.4695 -1.2093
 6505TIP3    H243711   7.008   7.472   2.795  0.0342  0.0293 -0.8312
 6506TIP3   OH243712   6.073   1.935   1.344 -0.1911 -0.1860 -0.1842
 6506TIP3    H143713   6.007   2.001   1.363  0.4355  0.4203 -0.0883
 6506TIP3    H243714   6.091   1.895   1.430  1.9416  1.9050  0.4593
 6507TIP3   OH243715   5.372   3.349   1.418 -0.0264 -0.4691  0.7706
 6507TIP3    H143716   5.445   3.403   1.387 -0.7688  0.6757  0.9574
 6507TIP3    H243717   5.338   3.308   1.338 -1.4485  1.8717  0.0607
 6508TIP3   OH243718   3.073   7.180   3.264 -0.0336  0.5644 -0.0691
 6508TIP3    H143719   3.063   7.119   3.191  0.5454 -0.7596  0.9186
 6508TIP3    H243720   3.030   7.260   3.234 -0.7779 -0.2989 -1.4229
 6509TIP3   OH243721   2.490   2.606   3.074  0.5763 -0.2996  0.2534
 6509TIP3    H143722   2.493   2.514   3.101  0.6782 -0.3049  0.2230
 6509TIP3    H243723   2.421   2.609   3.007  0.0273 -0.2080  0.8097
 6510TIP3   OH243724   1.697   6.461   1.982  0.3601  0.4727  0.2351
 6510TIP3    H143725   1.604   6.483   1.983  0.4327  0.8822 -0.8446
 6510TIP3    H243726   1.711   6.416   2.065 -0.9679 -0.2892  0.0873
 6511TIP3   OH243727   2.132   2.552   3.238  0.3739 -0.2977  0.4220
 6511TIP3    H143728   2.181   2.601   3.305 -0.1961 -0.4365  0.9575
 6511TIP3    H243729   2.090   2.481   3.287 -0.2932 -0.2235 -0.0314
 6512TIP3   OH243730   4.114   7.342   0.713  0.0871 -0.1167 -0.0412
 6512TIP3    H143731   4.144   7.299   0.632  0.3752  1.3333 -0.7324
 6512TIP3    H243732   4.193   7.382   0.750  0.2913 -2.0579  1.8552
 6513TIP3   OH243733   6.170   0.959   2.230 -0.3912 -0.1449 -0.2318
 6513TIP3    H143734   6.078   0.934   2.225 -0.3699 -0.5067  0.9473
 6513TIP3    H243735   6.206   0.905   2.300  1.1001 -1.1457 -1.7098
 6514TIP3   OH243736   5.266   3.157   0.868 -0.4032  0.3964 -0.2014
 6514TIP3    H143737   5.314   3.081   0.900  0.6601  1.3335  0.5205
 6514TIP3    H243738   5.289   3.227   0.930 -0.2046  1.6634 -1.6511
 6515TIP3   OH243739   4.052   5.700   2.937  0.4212 -0.2829  0.4513
 6515TIP3    H143740   4.002   5.650   3.002  0.7761 -1.0370  0.1601
 6515TIP3    H243741   3.986   5.731   2.875  0.0600  0.5779  1.2366
 6516TIP3   OH243742   4.026   4.082   1.564 -0.2203 -0.3235  0.2316
 6516TIP3    H143743   4.104   4.027   1.566  1.2165  1.6380  0.3061
 6516TIP3    H243744   4.033   4.136   1.643 -0.8371  0.9388 -0.5491
 6517TIP3   OH243745   3.938   4.100   0.878  0.6679  0.2063 -0.0655
 6517TIP3    H143746   4.019   4.087   0.828 -0.8815 -2.4081 -2.1641
 6517TIP3    H243747   3.947   4.045   0.955  1.3883  0.9721  0.4104
 6518TIP3   OH243748   5.128   1.793   2.515 -0.2121  0.5843  0.0460
 6518TIP3    H143749   5.043   1.830   2.491 -0.6863 -0.6817 -0.3246
 6518TIP3    H243750   5.153   1.840   2.595 -0.9152  1.4631 -0.2313
 6519TIP3   OH243751   0.743   2.292   2.144 -0.0341  0.5015 -0.0168
 6519TIP3    H143752   0.722   2.199   2.146  0.5125  0.3764  0.0547
 6519TIP3    H243753   0.790   2.305   2.062 -0.9329  0.8998 -0.4772
 6520TIP3   OH243754   5.825   0.620   2.289  0.2599  0.1018 -0.1797
 6520TIP3    H143755   5.834   0.552   2.356  0.0617  1.0197  0.8151
 6520TIP3    H243756   5.741   0.603   2.248 -0.0243  0.0378  0.4152
 6521TIP3   OH243757   0.072   7.472   1.294  0.4634 -0.0152  0.0193
 6521TIP3    H143758  -0.007   7.525   1.298 -0.2476 -1.0933  1.8025
 6521TIP3    H243759   0.048   7.396   1.241  0.6754  0.2274 -0.4240
 6522TIP3   OH243760   4.692   0.059   2.884 -0.4634  0.2575 -0.6994
 6522TIP3    H143761   4.630   0.128   2.907 -0.3535  0.0480  0.2471
 6522TIP3    H243762   4.775   0.106   2.870 -0.3836  0.3313 -0.0375
 6523TIP3   OH243763   3.598   0.234   0.929 -0.6097  0.3753  0.2913
 6523TIP3    H143764   3.611   0.329   0.931 -1.4098  0.5089 -0.1600
 6523TIP3    H243765   3.621   0.208   0.840 -0.3380  0.1406  0.4310
 6524TIP3   OH243766   2.896   6.786   2.012 -0.1501 -0.1596 -0.1269
 6524TIP3    H143767   2.937   6.826   2.089 -1.4261  1.1838 -0.0939
 6524TIP3    H243768   2.814   6.748   2.045 -0.0559 -0.7868 -0.5883
 6525TIP3   OH243769   1.380   4.205   1.368  0.4967 -0.4871  0.1365
 6525TIP3    H143770   1.303   4.196   1.311 -0.4309  1.0255  1.1008
 6525TIP3    H243771   1.374   4.294   1.403  1.6765 -0.9776  1.6860
 6526TIP3   OH243772   7.459   6.899   0.748  0.2346 -0.6295 -0.3165
 6526TIP3    H143773   7.548   6.891   0.783  1.0606 -0.4471 -2.2128
 6526TIP3    H243774   7.472   6.909   0.654 -1.8729 -1.9022 -0.8013
 6527TIP3   OH243775   4.498   7.317   2.453  0.3315  0.2988 -0.2566
 6527TIP3    H143776   4.575   7.330   2.399  0.3527 -2.3160 -0.9710
 6527TIP3    H243777   4.464   7.406   2.468  3.1924  1.5024 -0.2274
 6528TIP3   OH243778   2.431   7.169   3.309 -0.2431 -0.9345  0.5664
 6528TIP3    H143779   2.508   7.216   3.278 -1.0404  1.4012  1.8346
 6528TIP3    H243780   2.368   7.176   3.236 -0.8165  1.2745  1.1870
 6529TIP3   OH243781   6.851   6.488   1.506 -0.2580  0.2320  0.2210
 6529TIP3    H143782   6.812   6.416   1.555  0.6696 -1.9004 -1.9919
 6529TIP3    H243783   6.944   6.486   1.531 -0.2896  0.9326  0.4171
 6530TIP3   OH243784   1.558   5.202   2.170  0.1367  0.1854 -0.2492
 6530TIP3    H143785   1.599   5.231   2.090 -1.1397 -1.2661 -1.5057
 6530TIP3    H243786   1.501   5.274   2.196  0.1874  0.4756 -0.9386
 6531TIP3   OH243787   1.870   0.981   3.618 -0.8397  0.3425 -0.1921
 6531TIP3    H143788   1.792   1.001   3.668 -1.5544  0.7958 -1.4371
 6531TIP3    H243789   1.919   1.063   3.615 -1.4476  0.6785 -1.3221
 6532TIP3   OH243790   1.588   1.062   2.793  0.0375 -0.8334  0.1994
 6532TIP3    H143791   1.632   1.134   2.748 -0.2712 -0.5006  0.4213
 6532TIP3    H243792   1.588   1.088   2.885 -1.3985 -0.3985  0.0998
 6533TIP3   OH243793   2.101   0.664   1.708  0.1002  0.3540  0.0601
 6533TIP3    H143794   2.075   0.650   1.617 -2.5398  1.0621  0.6041
 6533TIP3    H243795   2.191   0.694   1.703 -0.3835  1.7182 -2.4505
 6534TIP3   OH243796   1.385   0.171   0.773 -0.0028  0.3144 -0.7197
 6534TIP3    H143797   1.319   0.239   0.758  0.7311  1.0981 -0.4509
 6534TIP3    H243798   1.384   0.118   0.692  0.2018  1.3232 -1.4012
 6535TIP3   OH243799   1.747   6.539   3.277 -0.1723 -0.6167 -0.1479
 6535TIP3    H143800   1.676   6.602   3.263  1.6763  1.5922 -0.1751
 6535TIP3    H243801   1.772   6.513   3.188  1.2295  1.2661 -0.3661
 6536TIP3   OH243802   0.782   0.606   2.461 -0.0627 -0.1787  0.6323
 6536TIP3    H143803   0.802   0.568   2.546  0.5502  0.0590  0.5970
 6536TIP3    H243804   0.705   0.558   2.431 -0.0437 -0.5336  1.1415
 6537TIP3   OH243805   4.348   3.695   3.596  0.4771 -0.5410 -0.2475
 6537TIP3    H143806   4.338   3.601   3.609 -0.4752 -0.3078  0.8894
 6537TIP3    H243807   4.267   3.722   3.553  0.9664 -0.3054 -1.0509
 6538TIP3   OH243808   3.399   2.765   1.895 -0.5632  0.1498  0.1329
 6538TIP3    H143809   3.401   2.771   1.990  0.1828 -1.2533  0.2320
 6538TIP3    H243810   3.484   2.801   1.867  0.2041 -1.5454  0.1752
 6539TIP3   OH243811   1.067   3.704   0.700 -0.2799 -0.4977 -0.1381
 6539TIP3    H143812   1.152   3.688   0.659  0.4170 -1.7346  1.6379
 6539TIP3    H243813   1.051   3.798   0.690  2.0202  0.0472  0.7444
 6540TIP3   OH243814   0.272   6.751   2.961  0.1824 -0.5971  0.1433
 6540TIP3    H143815   0.229   6.667   2.979  0.3605 -1.0726 -1.4722
 6540TIP3    H243816   0.205   6.806   2.922  0.2669 -0.2507  0.4764
 6541TIP3   OH243817   1.307   2.803   2.564  0.3023 -0.5273  0.1942
 6541TIP3    H143818   1.274   2.785   2.652  1.5580 -0.1409  0.7675
 6541TIP3    H243819   1.285   2.725   2.513 -3.2528  0.4540 -0.0264
 6542TIP3   OH243820   5.271   1.846   0.911  0.0784  0.3370  0.1092
 6542TIP3    H143821   5.187   1.843   0.866 -0.4083 -0.3610  1.0364
 6542TIP3    H243822   5.250   1.834   1.004  1.0950  1.2901  0.4986
 6543TIP3   OH243823   0.938   7.015   2.942 -0.2307 -0.0055  0.0423
 6543TIP3    H143824   1.021   7.053   2.913 -1.1116  1.8451 -0.2197
 6543TIP3    H243825   0.938   7.027   3.037  0.3183 -1.1477  0.2006
 6544TIP3   OH243826   3.350   5.589   2.535  0.4634  0.0322 -0.7634
 6544TIP3    H143827   3.283   5.526   2.563  0.9055  0.3494  1.1749
 6544TIP3    H243828   3.433   5.550   2.564  0.8689  0.8240 -0.8447
 6545TIP3   OH243829   1.925   6.158   2.148  0.1599 -0.4770 -0.4337
 6545TIP3    H143830   1.851   6.218   2.154  0.4575 -0.2386  1.6626
 6545TIP3    H243831   1.951   6.143   2.239  1.8782 -1.5707 -1.0542
 6546TIP3   OH243832   4.794   4.615   3.374  0.3841  0.2198  0.2426
 6546TIP3    H143833   4.847   4.693   3.357  0.1394  0.9267  2.4229
 6546TIP3    H243834   4.724   4.646   3.432  0.0375 -1.5413  0.8104
 6547TIP3   OH243835   5.005   1.085   1.197  0.4896 -0.1022 -0.4358
 6547TIP3    H143836   5.012   1.032   1.276  0.7931 -2.0562 -1.6868
 6547TIP3    H243837   5.044   1.030   1.128 -1.1264  0.8443 -2.2170
 6548TIP3   OH243838   4.783   6.523   2.521 -0.1949  0.4204 -0.0990
 6548TIP3    H143839   4.859   6.491   2.570 -0.6515  1.3921  1.3051
 6548TIP3    H243840   4.820   6.556   2.439  0.8947  0.7890  0.5165
 6549TIP3   OH243841   3.148   6.455   2.883  0.5344  0.3081  0.4057
 6549TIP3    H143842   3.101   6.471   2.801  0.5041  1.9775  0.7138
 6549TIP3    H243843   3.228   6.409   2.855 -1.2000 -2.6239 -0.1118
 6550TIP3   OH243844   7.521   2.193   1.555  0.4603  0.0802 -0.2155
 6550TIP3    H143845   7.571   2.213   1.634  0.4462  1.0947 -0.4506
 6550TIP3    H243846   7.435   2.233   1.571  0.3751  0.0684 -0.6442
 6551TIP3   OH243847   6.542   3.047   1.109 -0.5172 -0.6354  0.2118
 6551TIP3    H143848   6.614   3.109   1.116 -1.1940  0.3829 -1.3273
 6551TIP3    H243849   6.579   2.971   1.063 -0.1743 -0.5515  0.3549
 6552TIP3   OH243850   2.455   7.119   0.924 -1.0618  0.4343  0.7363
 6552TIP3    H143851   2.360   7.123   0.910 -1.1043  0.2006  0.9466
 6552TIP3    H243852   2.465   7.070   1.005 -0.6530 -1.9389 -0.6583
 6553TIP3   OH243853   5.846   5.226   2.453 -0.1670 -0.5698  0.2729
 6553TIP3    H143854   5.935   5.204   2.479 -0.1850  1.3540  2.2355
 6553TIP3    H243855   5.854   5.309   2.405 -0.9670  0.1851  1.3978
 6554TIP3   OH243856   1.209   4.434   2.405 -0.7956  0.0710 -0.0582
 6554TIP3    H143857   1.120   4.399   2.409 -0.5953 -0.6331 -1.4352
 6554TIP3    H243858   1.263   4.361   2.376 -0.2003  1.1770 -1.9313
 6555TIP3   OH243859   1.925   2.031   2.890 -0.2153  0.6422 -0.5933
 6555TIP3    H143860   1.835   2.057   2.873 -0.7414 -1.1997 -0.7221
 6555TIP3    H243861   1.918   1.951   2.941  1.3561  0.6659 -0.2980
 6556TIP3   OH243862   2.881   5.031   2.219 -0.7152  0.2527 -0.8357
 6556TIP3    H143863   2.861   5.103   2.279 -0.7903 -0.4043 -0.0460
 6556TIP3    H243864   2.803   4.975   2.222 -1.1170  0.6817 -2.2913
 6557TIP3   OH243865   3.969   2.793   1.044  0.0697  0.4463  0.2973
 6557TIP3    H143866   4.030   2.800   0.970 -0.3400 -1.3578 -0.2518
 6557TIP3    H243867   3.882   2.791   1.003 -0.2159  0.5307  0.9005
 6558TIP3   OH243868   0.075   5.964   2.563 -0.2603  0.1783 -0.2785
 6558TIP3    H143869  -0.014   5.999   2.555 -0.3604 -0.1546 -0.6563
 6558TIP3    H243870   0.075   5.886   2.507  0.1257 -0.1017  0.1079
 6559TIP3   OH243871   0.542   3.737   2.801 -0.0973 -0.1617 -0.3255
 6559TIP3    H143872   0.446   3.731   2.799 -0.1174 -0.1970  0.3997
 6559TIP3    H243873   0.563   3.751   2.893  0.7444 -3.3355  0.0948
 6560TIP3   OH243874   7.431   6.855   3.313  0.1591 -0.0132  0.1304
 6560TIP3    H143875   7.469   6.919   3.253 -0.3126  0.5421  0.4168
 6560TIP3    H243876   7.445   6.771   3.270  0.4881  0.3111 -0.4063
 6561TIP3   OH243877   6.579   7.099   2.133  0.0436  0.6520  0.3544
 6561TIP3    H143878   6.484   7.103   2.120 -0.0006  0.9730  0.7785
 6561TIP3    H243879   6.593   7.016   2.178  0.0350  0.2905 -0.2920
 6562TIP3   OH243880   1.789   3.230   1.698  0.3317 -0.3817  0.0142
 6562TIP3    H143881   1.828   3.255   1.782  0.6212  0.1911 -0.2849
 6562TIP3    H243882   1.695   3.239   1.712  0.3696 -0.4634  0.3333
 6563TIP3   OH243883   3.569   1.850   1.035 -0.7237  0.1719  0.2571
 6563TIP3    H143884   3.640   1.872   1.095 -0.8415 -1.5639  1.0893
 6563TIP3    H243885   3.610   1.845   0.949  0.2908 -1.2669  0.7956
 6564TIP3   OH243886   3.318   1.022   3.087  0.4306  0.1769  0.9603
 6564TIP3    H143887   3.340   0.962   3.158  1.5585  0.5881  0.9717
 6564TIP3    H243888   3.262   1.088   3.127  2.5860  1.4877  1.9605
 6565TIP3   OH243889   7.109   7.334   2.551  0.7921  0.7064  0.0164
 6565TIP3    H143890   7.150   7.359   2.469  1.3399  0.8968  0.3451
 6565TIP3    H243891   7.136   7.243   2.565  0.7196  0.6823 -0.0016
 6566TIP3   OH243892   6.122   7.146   1.954 -0.0414  0.2600 -0.0020
 6566TIP3    H143893   6.047   7.132   1.895 -2.4824  0.9087  2.7027
 6566TIP3    H243894   6.130   7.241   1.960 -0.8255  0.2661  1.7200
 6567TIP3   OH243895   0.146   5.779   1.041  0.8179 -0.0490 -0.4347
 6567TIP3    H143896   0.099   5.810   1.119  0.1776 -0.7864 -0.5187
 6567TIP3    H243897   0.166   5.687   1.061  0.1991 -0.3912 -1.3432
 6568TIP3   OH243898   6.045   0.142   2.605  0.4795 -0.0557 -0.6318
 6568TIP3    H143899   6.136   0.141   2.577  0.7226  2.8057 -0.1952
 6568TIP3    H243900   6.048   0.170   2.696 -0.8438  0.6103 -0.7646
 6569TIP3   OH243901   1.830   5.624   0.669 -0.7517 -0.6330 -0.8702
 6569TIP3    H143902   1.753   5.657   0.716  1.2082  1.0473  1.4167
 6569TIP3    H243903   1.838   5.681   0.593 -0.5401  0.7062  0.1093
 6570TIP3   OH243904   7.510   5.479   0.837  0.4412 -0.4833  0.1834
 6570TIP3    H143905   7.461   5.464   0.918  0.7582  0.5018  0.5685
 6570TIP3    H243906   7.473   5.559   0.800  0.9230 -0.4069 -0.1505
 6571TIP3   OH243907   1.953   2.672   2.618 -0.5415 -0.6588  0.3803
 6571TIP3    H143908   2.001   2.747   2.652 -0.1293 -1.6035  1.9850
 6571TIP3    H243909   1.967   2.603   2.683 -0.7168 -2.1994 -1.1452
 6572TIP3   OH243910   7.174   3.627   1.462  0.2299 -0.0608  0.5321
 6572TIP3    H143911   7.133   3.713   1.455  0.7028  0.1385  0.1046
 6572TIP3    H243912   7.268   3.646   1.459  0.3503 -0.7265 -1.5397
 6573TIP3   OH243913   0.046   3.594   1.967  0.2345  0.2290 -0.2215
 6573TIP3    H143914   0.074   3.538   1.896  1.3447  3.1058 -2.2551
 6573TIP3    H243915   0.099   3.567   2.042  0.3567 -1.6740 -0.9446
 6574TIP3   OH243916   4.772   6.411   1.537  0.1672  0.0630 -0.2095
 6574TIP3    H143917   4.716   6.448   1.605 -0.3939 -0.0339 -0.6144
 6574TIP3    H243918   4.802   6.487   1.486  0.6581  0.1439  0.1898
 6575TIP3   OH243919   0.890   7.341   2.160  0.1195 -0.9932  0.2649
 6575TIP3    H143920   0.850   7.268   2.207 -2.8353 -1.7978 -3.0132
 6575TIP3    H243921   0.817   7.400   2.140  1.7726  0.9601 -0.4404
 6576TIP3   OH243922   0.096   1.522   1.454  0.2717 -0.0308  0.6366
 6576TIP3    H143923   0.146   1.556   1.380 -0.9315  2.8347  1.0353
 6576TIP3    H243924   0.015   1.490   1.416  0.5534 -0.6036  0.5012
 6577TIP3   OH243925   1.837   2.268   0.823  0.0746 -0.5656 -0.4259
 6577TIP3    H143926   1.921   2.231   0.796  0.3800 -0.2194  0.0365
 6577TIP3    H243927   1.825   2.238   0.913 -0.6252 -1.1711 -0.7127
 6578TIP3   OH243928   6.934   4.297   1.150 -0.0680 -0.7688  0.1489
 6578TIP3    H143929   6.930   4.360   1.222 -1.4276  0.0566 -0.6127
 6578TIP3    H243930   6.970   4.347   1.076 -0.4233 -1.0939 -0.2513
 6579TIP3   OH243931   4.735   5.806   0.983  0.0322 -0.3944 -0.3572
 6579TIP3    H143932   4.772   5.893   0.995  2.2092 -1.4642  1.4053
 6579TIP3    H243933   4.686   5.789   1.064 -2.2103 -0.0588 -1.5607
 6580TIP3   OH243934   2.812   4.073   1.705  0.1870 -0.1114 -0.6773
 6580TIP3    H143935   2.894   4.083   1.657  1.3793 -0.1961  1.2769
 6580TIP3    H243936   2.807   3.979   1.725 -0.2730 -0.0673 -0.5653
 6581TIP3   OH243937   2.844   4.483   1.220 -0.3740 -0.0053  0.0125
 6581TIP3    H143938   2.875   4.443   1.139  0.6724  0.4360  0.1853
 6581TIP3    H243939   2.803   4.411   1.268 -0.3290 -0.4287 -0.5708
 6582TIP3   OH243940   5.601   0.872   2.462  0.4217 -0.1240  0.2743
 6582TIP3    H143941   5.584   0.794   2.516 -0.1236  0.2507  0.6580
 6582TIP3    H243942   5.638   0.935   2.523  0.0748  0.2038  0.1496
 6583TIP3   OH243943   5.333   2.366   2.293 -0.4616  0.0828 -0.0081
 6583TIP3    H143944   5.300   2.314   2.220  1.1376  0.5935 -1.1398
 6583TIP3    H243945   5.339   2.304   2.366 -1.6935 -0.5231 -0.4033
 6584TIP3   OH243946   0.526   1.578   1.296 -0.4323 -0.3988 -0.2505
 6584TIP3    H143947   0.600   1.560   1.239 -0.2066  1.7263 -0.7257
 6584TIP3    H243948   0.565   1.587   1.383 -0.3581 -0.7781 -0.2430
 6585TIP3   OH243949   3.288   2.279   0.696  0.6613  0.3038 -0.6866
 6585TIP3    H143950   3.315   2.360   0.739  1.1278  0.2870 -0.9344
 6585TIP3    H243951   3.338   2.210   0.740  1.5347  0.3421 -1.5631
 6586TIP3   OH243952   2.620   2.039   0.839 -0.4056  0.5499 -0.2654
 6586TIP3    H143953   2.619   1.944   0.835 -3.2835  0.4157  1.4986
 6586TIP3    H243954   2.665   2.060   0.921 -1.3933  0.6224  0.2644
 6587TIP3   OH243955   2.494   4.576   3.367 -0.4091  0.2245 -0.1201
 6587TIP3    H143956   2.543   4.494   3.374  0.3400  0.3599 -2.8071
 6587TIP3    H243957   2.552   4.642   3.403 -0.8621 -0.2917  1.6982
 6588TIP3   OH243958   4.173   2.218   2.161  0.0273 -0.1762 -0.5307
 6588TIP3    H143959   4.186   2.241   2.069 -2.1560  1.1558 -0.5727
 6588TIP3    H243960   4.242   2.265   2.208  0.2679  0.3069 -1.3581
 6589TIP3   OH243961   5.149   2.184   0.907  0.0069 -0.1119  0.2019
 6589TIP3    H143962   5.157   2.181   1.002  0.6308  1.1404  0.2107
 6589TIP3    H243963   5.055   2.179   0.890 -0.1030 -0.4384  0.8734
 6590TIP3   OH243964   6.649   6.111   2.123  0.4656 -0.1000 -0.1274
 6590TIP3    H143965   6.685   6.035   2.171  0.7287 -0.1755 -0.4390
 6590TIP3    H243966   6.680   6.187   2.173  2.4544 -0.0884 -1.2723
 6591TIP3   OH243967   7.314   4.169   2.552  0.4049  0.0409 -0.4536
 6591TIP3    H143968   7.274   4.211   2.475 -0.5888  1.5484  0.8135
 6591TIP3    H243969   7.395   4.217   2.566  0.4595 -0.0650 -0.4052
 6592TIP3   OH243970   3.508   5.934   2.018  0.5708  0.1137  0.4232
 6592TIP3    H143971   3.587   5.882   2.006 -0.5321 -1.4738 -0.3858
 6592TIP3    H243972   3.510   5.998   1.946  1.9712  1.2961  1.4628
 6593TIP3   OH243973   0.831   3.703   0.919  0.5637  0.5324 -0.0681
 6593TIP3    H143974   0.792   3.779   0.876 -0.0650  0.5409  0.5038
 6593TIP3    H243975   0.901   3.676   0.860  0.9803  1.7273 -0.1396
 6594TIP3   OH243976   1.548   5.266   3.092  0.9693  0.3538 -0.3693
 6594TIP3    H143977   1.457   5.235   3.094  1.2588 -0.5621 -0.6619
 6594TIP3    H243978   1.598   5.190   3.062  2.0323  0.3713  1.2705
 6595TIP3   OH243979   6.342   4.320   1.748 -0.1862 -0.2414  0.1956
 6595TIP3    H143980   6.247   4.327   1.742 -0.2645 -0.5628  1.0078
 6595TIP3    H243981   6.358   4.227   1.760  0.2938 -0.3141 -0.9345
 6596TIP3   OH243982   6.293   4.703   1.042  0.1173 -0.3352 -0.4525
 6596TIP3    H143983   6.225   4.677   0.981  0.2958  0.4498 -0.9934
 6596TIP3    H243984   6.351   4.626   1.047  0.1447 -0.3845 -1.3348
 6597TIP3   OH243985   4.423   4.135   2.130  0.3026 -0.7038 -0.3977
 6597TIP3    H143986   4.510   4.142   2.090 -0.1327  0.6440 -1.1708
 6597TIP3    H243987   4.433   4.175   2.216 -0.0015  1.5047 -1.3089
 6598TIP3   OH243988   1.023   5.206   3.130  0.1338 -0.2690 -0.0087
 6598TIP3    H143989   1.072   5.194   3.211 -0.1103  0.7986  0.3145
 6598TIP3    H243990   0.934   5.225   3.158  0.0590  0.1659 -0.5232
 6599TIP3   OH243991   2.812   6.166   2.573  0.0807 -0.4886 -0.0288
 6599TIP3    H143992   2.867   6.150   2.496  0.0081 -1.5861  0.1293
 6599TIP3    H243993   2.777   6.080   2.596 -0.3385 -0.0856  0.9033
 6600TIP3   OH243994   0.764   6.685   2.305  0.0920  0.0596 -0.1683
 6600TIP3    H143995   0.836   6.745   2.325  0.1649 -0.1458  0.1981
 6600TIP3    H243996   0.743   6.702   2.213  1.1662 -0.4634 -0.5252
 6601TIP3   OH243997   2.021   4.007   1.768 -0.3256  0.2098  0.9373
 6601TIP3    H143998   2.094   3.976   1.821 -0.8050  1.1074  2.1920
 6601TIP3    H243999   2.051   4.090   1.732 -0.3641  0.0959  0.6445
 6602TIP3   OH244000   2.785   7.055   2.145  0.4208 -0.1431 -0.0842
 6602TIP3    H144001   2.747   6.996   2.211 -0.0952  0.9566  0.6290
 6602TIP3    H244002   2.750   7.023   2.062  0.8245 -1.3556  0.1851
 6603TIP3   OH244003   1.121   1.482   2.594 -0.4200 -0.6870  0.2245
 6603TIP3    H144004   1.052   1.418   2.576 -0.8871  0.8385 -5.4059
 6603TIP3    H244005   1.201   1.441   2.561  0.3062 -0.2502  1.3881
 6604TIP3   OH244006   4.746   2.723   2.395  0.4257 -0.1715  0.3529
 6604TIP3    H144007   4.810   2.655   2.377 -0.5569 -1.2472  0.8330
 6604TIP3    H244008   4.767   2.752   2.484  0.3080 -0.4601  0.4761
 6605TIP3   OH244009   3.268   5.074   2.315  0.1030  0.3586 -0.2244
 6605TIP3    H144010   3.344   5.091   2.371  0.5521  0.8399 -0.9650
 6605TIP3    H244011   3.245   5.159   2.278 -0.7650  0.2077 -0.0662
 6606TIP3   OH244012   6.557   6.934   2.604  0.4269 -0.4095  0.0443
 6606TIP3    H144013   6.573   6.992   2.530  1.3669 -1.2478 -0.4467
 6606TIP3    H244014   6.543   6.993   2.678 -0.3248  0.4419 -0.7489
 6607TIP3   OH244015   0.367   5.207   3.265  0.0153 -0.4033  0.0313
 6607TIP3    H144016   0.432   5.136   3.258 -0.6208 -0.9528 -0.4880
 6607TIP3    H244017   0.415   5.280   3.304  1.1510 -0.5507 -1.0351
 6608TIP3   OH244018   6.954   0.518   2.032  0.1323 -0.1248 -0.1534
 6608TIP3    H144019   6.967   0.585   1.965 -0.2537 -0.2358 -0.3403
 6608TIP3    H244020   7.031   0.526   2.089 -0.4416  1.2556  0.5007
 6609TIP3   OH244021   1.959   4.868   1.897 -0.0137  0.5481 -0.5677
 6609TIP3    H144022   1.942   4.855   1.804 -0.3776 -0.3853 -0.3835
 6609TIP3    H244023   1.902   4.941   1.922 -1.5999 -0.6242 -0.6068
 6610TIP3   OH244024   1.416   1.762   8.489 -0.2901  0.4498  0.3906
 6610TIP3    H144025   1.423   1.669   8.468 -0.3307  0.0323  2.0605
 6610TIP3    H244026   1.341   1.793   8.439 -0.6842 -0.5739  0.3307
 6611TIP3   OH244027   3.838   5.304   1.610 -0.0177  0.3023 -0.9938
 6611TIP3    H144028   3.901   5.308   1.681  0.5577  0.0272 -1.4792
 6611TIP3    H244029   3.838   5.392   1.572 -0.9940  0.7114 -0.1039
 6612TIP3   OH244030   0.481   5.562   3.034 -0.2070  0.2501  0.0036
 6612TIP3    H144031   0.418   5.553   3.105 -1.3160 -1.5845 -1.1131
 6612TIP3    H244032   0.458   5.645   2.992 -1.4491 -0.0548  0.0428
 6613TIP3   OH244033   6.459   7.287   0.499  0.1211 -0.7739  0.6838
 6613TIP3    H144034   6.413   7.203   0.497 -0.5711 -0.3885 -0.9206
 6613TIP3    H244035   6.542   7.268   0.542 -0.3906 -2.0838  1.1377
 6614TIP3   OH244036   4.176   0.175   2.132  0.0122  0.5629 -0.1074
 6614TIP3    H144037   4.113   0.127   2.078  0.4188  1.1799 -1.1638
 6614TIP3    H244038   4.246   0.112   2.149  0.1849  0.5437 -0.8465
 6615TIP3   OH244039   0.519   5.841   3.284 -0.3155  0.1330 -0.1301
 6615TIP3    H144040   0.526   5.854   3.190 -0.6273  3.9806  0.2047
 6615TIP3    H244041   0.427   5.821   3.300 -0.3653 -0.0144 -0.6091
 6616TIP3   OH244042   0.530   0.582   1.524 -0.4959 -0.2782  0.1081
 6616TIP3    H144043   0.473   0.571   1.601 -1.1955 -1.0277 -0.5031
 6616TIP3    H244044   0.618   0.592   1.561 -0.9587  0.4427  1.0500
 6617TIP3   OH244045   3.996   6.788   1.171 -0.0921  0.5533  0.2039
 6617TIP3    H144046   4.062   6.803   1.238 -0.3691 -0.2180  0.6554
 6617TIP3    H244047   3.929   6.854   1.189  0.5060  1.2837 -0.2059
 6618TIP3   OH244048   5.441   3.062   3.543  0.6984 -0.5252 -0.4981
 6618TIP3    H144049   5.405   3.091   3.627 -1.4854 -1.6603 -0.9570
 6618TIP3    H244050   5.480   3.140   3.505  0.3399  0.3691  0.8920
 6619TIP3   OH244051   2.608   2.306   2.506 -0.1934 -0.2061  0.1306
 6619TIP3    H144052   2.626   2.394   2.539 -2.2144  0.5131 -0.5370
 6619TIP3    H244053   2.584   2.319   2.414 -0.1742 -1.4973 -0.0802
 6620TIP3   OH244054   0.460   4.340   3.432  0.4702 -0.7171 -0.6293
 6620TIP3    H144055   0.388   4.281   3.453 -0.5359  0.5731 -0.3118
 6620TIP3    H244056   0.536   4.301   3.475 -0.8620  0.0887  2.8071
 6621TIP3   OH244057   1.783   3.326   3.364 -0.0017 -0.0380  0.4500
 6621TIP3    H144058   1.742   3.245   3.396  1.6957 -0.4144  1.8874
 6621TIP3    H244059   1.873   3.300   3.343 -0.2651  0.8612 -2.0402
 6622TIP3   OH244060   2.168   4.062   2.187 -0.3561 -0.1562  0.6878
 6622TIP3    H144061   2.182   4.033   2.097  1.2560  0.2342  0.7821
 6622TIP3    H244062   2.237   4.019   2.237 -0.5335  0.5236  1.5407
 6623TIP3   OH244063   1.643   7.025   1.035  0.4375  0.0245  0.2282
 6623TIP3    H144064   1.678   6.936   1.031 -0.7752 -0.5055  0.9130
 6623TIP3    H244065   1.704   7.077   0.984  0.8583 -1.3064 -0.6681
 6624TIP3   OH244066   4.194   3.281   3.417 -0.4576 -0.2751 -0.1736
 6624TIP3    H144067   4.143   3.263   3.338  0.9696 -0.1030 -1.1704
 6624TIP3    H244068   4.188   3.201   3.468  1.2661 -1.6863 -2.0030
 6625TIP3   OH244069   4.103   5.414   1.767 -0.6252 -0.1706 -0.0974
 6625TIP3    H144070   4.160   5.352   1.721 -0.5919 -1.3637  1.4726
 6625TIP3    H244071   4.110   5.389   1.859  0.2520  2.8578  0.7841
 6626TIP3   OH244072   6.024   7.178   0.707 -0.3124 -0.3669  0.0553
 6626TIP3    H144073   6.064   7.113   0.649 -1.1134 -2.8426  2.0784
 6626TIP3    H244074   6.098   7.212   0.758 -0.1361 -1.3470  0.4785
 6627TIP3   OH244075   3.306   3.997   2.486 -0.2371  0.5504  0.4820
 6627TIP3    H144076   3.351   4.054   2.548  0.1649 -0.4397  1.1211
 6627TIP3    H244077   3.350   3.912   2.495 -2.7610 -0.7200  1.7477
 6628TIP3   OH244078   1.394   4.504   1.316 -0.1162  0.0698  0.5102
 6628TIP3    H144079   1.310   4.498   1.360 -0.4937 -0.5302 -0.2743
 6628TIP3    H244080   1.377   4.560   1.240 -0.4891 -2.2054 -1.1617
 6629TIP3   OH244081   6.473   0.460   1.293 -0.5941  0.2078  0.8175
 6629TIP3    H144082   6.510   0.478   1.379  0.3260  0.5700  0.3618
 6629TIP3    H244083   6.513   0.377   1.266 -0.1379  0.5737  0.3450
 6630TIP3   OH244084   3.060   1.916   3.127  0.7009 -0.0364  0.4177
 6630TIP3    H144085   3.012   1.860   3.066  1.9251  1.0187 -1.6116
 6630TIP3    H244086   3.002   1.923   3.203 -0.4235 -2.2695 -0.1303
 6631TIP3   OH244087   3.481   6.844   1.651 -0.4438  0.5503  0.2901
 6631TIP3    H144088   3.534   6.777   1.609 -2.1511 -0.4212 -0.4075
 6631TIP3    H244089   3.518   6.852   1.739  0.0963 -0.9614  0.2232
 6632TIP3   OH244090   2.950   0.505   2.919 -0.3489  0.3613 -0.4219
 6632TIP3    H144091   2.969   0.570   2.987 -0.2871  0.1541 -0.2391
 6632TIP3    H244092   2.978   0.421   2.957 -0.8607  0.1629 -0.4710
 6633TIP3   OH244093   7.283   1.952   1.583 -0.7487  0.2449  0.3453
 6633TIP3    H144094   7.260   2.041   1.554 -0.9953 -0.1145 -0.6047
 6633TIP3    H244095   7.201   1.915   1.614 -0.2496  1.1030  2.9412
 6634TIP3   OH244096   4.409   3.898   1.904 -0.0646 -0.6205 -0.0612
 6634TIP3    H144097   4.503   3.883   1.914 -0.0219 -0.9597 -0.9140
 6634TIP3    H244098   4.389   3.966   1.968  0.9684  0.2039 -0.5799
 6635TIP3   OH244099   2.515   4.643   0.730  0.0346  0.2461  0.4407
 6635TIP3    H144100   2.542   4.728   0.764 -0.8122  2.0706 -2.9304
 6635TIP3    H244101   2.597   4.601   0.703  0.2909  1.7293 -1.3097
 6636TIP3   OH244102   7.609   1.959   1.406 -0.1102  0.1553  0.4140
 6636TIP3    H144103   7.659   1.932   1.482  1.2219  0.1362 -0.4419
 6636TIP3    H244104   7.587   2.051   1.423 -0.9030 -0.1910  1.3577
 6637TIP3   OH244105   2.103   1.382   0.764  0.5290 -0.9293 -0.1158
 6637TIP3    H144106   2.191   1.372   0.727 -0.4502 -0.3381 -2.8101
 6637TIP3    H244107   2.114   1.444   0.836  2.1228  0.2287 -1.2946
 6638TIP3   OH244108   5.067   6.273   3.164  0.0851 -0.7187  0.0475
 6638TIP3    H144109   5.023   6.303   3.243  0.1493 -0.9794  0.1843
 6638TIP3    H244110   5.065   6.349   3.105 -0.3073 -0.6453  0.1499
 6639TIP3   OH244111   2.896   6.967   1.810  0.3277  0.5646  0.0603
 6639TIP3    H144112   2.863   7.049   1.846 -1.2715  0.0754 -0.2287
 6639TIP3    H244113   2.880   6.903   1.879  2.1262  0.5592  0.5334
 6640TIP3   OH244114   5.384   5.600   2.601 -0.1800 -0.1172  0.3949
 6640TIP3    H144115   5.446   5.596   2.528 -0.9734  0.2555 -0.3236
 6640TIP3    H244116   5.432   5.565   2.676  0.4873 -1.0028 -0.4244
 6641TIP3   OH244117   4.991   4.710   2.760  0.4977  0.5527  0.7319
 6641TIP3    H144118   4.927   4.755   2.705  1.0141  0.4628  0.0493
 6641TIP3    H244119   5.037   4.781   2.805  1.2028  0.7172 -0.2223
 6642TIP3   OH244120   4.101   2.174   2.730  0.2639  0.1757  0.5536
 6642TIP3    H144121   4.040   2.186   2.657  1.4769  1.8532 -0.2513
 6642TIP3    H244122   4.188   2.186   2.691  1.1169 -1.4758  1.7951
 6643TIP3   OH244123   0.710   5.036   2.781 -0.5132  0.1149  0.5044
 6643TIP3    H144124   0.761   5.112   2.807 -1.0034  0.8803 -0.6768
 6643TIP3    H244125   0.691   4.989   2.862  0.8664  0.5687  1.1017
 6644TIP3   OH244126   3.666   7.140   3.358 -0.1061  0.2972  0.0871
 6644TIP3    H144127   3.719   7.149   3.280 -3.6426  1.6149 -2.4171
 6644TIP3    H244128   3.654   7.229   3.391 -0.8514  0.0681  0.4930
 6645TIP3   OH244129   0.778   1.368   3.381 -0.6050 -0.5317 -0.5304
 6645TIP3    H144130   0.794   1.417   3.301 -0.1972  1.3258  0.6272
 6645TIP3    H244131   0.692   1.398   3.411 -0.7750 -1.2431 -0.2800
 6646TIP3   OH244132   6.195   6.968   2.616  0.1212  0.1362 -0.2008
 6646TIP3    H144133   6.151   6.923   2.544 -1.8909 -0.1307  1.1078
 6646TIP3    H244134   6.257   7.027   2.573 -1.0358  0.0289 -2.1645
 6647TIP3   OH244135   5.255   2.910   2.210 -0.0524  0.5637 -0.0575
 6647TIP3    H144136   5.332   2.860   2.238 -0.5562 -0.5765 -0.6461
 6647TIP3    H244137   5.255   2.988   2.266  0.1724 -0.5989  1.6157
 6648TIP3   OH244138   3.154   2.814   1.802  0.3728 -0.0532 -0.0023
 6648TIP3    H144139   3.195   2.877   1.743  0.7930 -0.6332 -0.3349
 6648TIP3    H244140   3.217   2.805   1.875 -0.6304  1.5002  1.1288
 6649TIP3   OH244141   2.333   0.934   3.972  0.1951  0.5268 -0.0023
 6649TIP3    H144142   2.423   0.907   3.989  0.2023  0.9618  0.6797
 6649TIP3    H244143   2.298   0.866   3.915  1.3676  1.0484 -1.4283
 6650TIP3   OH244144   7.047   2.534   0.896  0.0918 -0.0889  0.4030
 6650TIP3    H144145   7.081   2.465   0.838 -0.1416  1.1953 -1.3205
 6650TIP3    H244146   6.958   2.549   0.866 -0.7736 -0.7921  2.4660
 6651TIP3   OH244147   1.222   3.173   1.057 -0.2702  0.4749 -0.3103
 6651TIP3    H144148   1.313   3.202   1.055 -0.2322  0.5932  1.5312
 6651TIP3    H244149   1.192   3.194   1.146 -0.7060 -3.6087  0.7328
 6652TIP3   OH244150   0.062   2.339   2.317 -0.5299 -0.5126 -0.0140
 6652TIP3    H144151   0.142   2.342   2.264 -1.3484 -0.5203 -1.3054
 6652TIP3    H244152   0.075   2.407   2.383  0.0995  0.2380 -0.8745
 6653TIP3   OH244153   5.274   3.565   3.268 -0.5238  0.2771  0.1151
 6653TIP3    H144154   5.257   3.654   3.299 -0.5970  0.0182  0.8399
 6653TIP3    H244155   5.232   3.508   3.333  1.7099 -0.3494  1.1233
 6654TIP3   OH244156   0.088   5.059   1.899 -0.4459 -0.2710  0.4993
 6654TIP3    H144157   0.129   5.142   1.920 -0.6049 -0.2626  0.7844
 6654TIP3    H244158   0.154   5.010   1.850 -0.7181  0.4429 -0.6156
 6655TIP3   OH244159   4.199   6.029   3.685  0.4459 -0.3398 -0.1453
 6655TIP3    H144160   4.137   5.959   3.665  0.0644  0.1755 -0.8476
 6655TIP3    H244161   4.239   6.050   3.600  0.7564  0.0910  0.1042
 6656TIP3   OH244162   3.746   1.866   1.660  0.1603  0.0625  0.2246
 6656TIP3    H144163   3.783   1.954   1.669  0.6448 -0.0826 -0.3252
 6656TIP3    H244164   3.713   1.862   1.571  1.5797 -0.8415 -0.3017
 6657TIP3   OH244165   6.401   3.507   2.182 -0.1972 -0.1764  0.2604
 6657TIP3    H144166   6.415   3.414   2.166  0.3070 -0.5388  2.4888
 6657TIP3    H244167   6.489   3.541   2.200 -0.4828  0.5618  0.2946
 6658TIP3   OH244168   7.344   0.917   1.581 -0.1698 -0.7853 -0.4425
 6658TIP3    H144169   7.388   0.892   1.662  0.3315  0.1245 -0.4195
 6658TIP3    H244170   7.386   0.864   1.514  0.7467 -0.1746 -0.3686
 6659TIP3   OH244171   1.906   1.433   3.021 -0.3766  0.5671  0.3572
 6659TIP3    H144172   1.919   1.396   2.933  0.7186 -0.2651  0.8491
 6659TIP3    H244173   1.812   1.421   3.038 -0.3898 -0.2768 -0.2552
 6660TIP3   OH244174   1.728   6.435   0.797 -0.5323  0.9545  0.1349
 6660TIP3    H144175   1.695   6.502   0.858 -1.1719 -0.2824  1.1891
 6660TIP3    H244176   1.676   6.448   0.718 -0.4192  1.9151  0.2071
 6661TIP3   OH244177   1.248   6.995   2.228  0.1839  0.2933  0.1200
 6661TIP3    H144178   1.273   6.905   2.250  0.9766  0.5628  0.3758
 6661TIP3    H244179   1.273   7.045   2.306 -1.2438  0.5799  0.4101
 6662TIP3   OH244180   0.465   5.831   2.450 -0.0680 -0.0015 -0.1329
 6662TIP3    H144181   0.444   5.877   2.531 -0.5957 -1.7954  0.8060
 6662TIP3    H244182   0.455   5.897   2.382 -1.8989  0.9997  1.0108
 6663TIP3   OH244183   0.702   0.623   1.989  0.7851 -0.1738 -0.2109
 6663TIP3    H144184   0.657   0.541   2.008 -1.0973  1.0399  0.8498
 6663TIP3    H244185   0.739   0.651   2.072  1.3164  0.1185 -0.5350
 6664TIP3   OH244186   1.309   1.147   2.191  0.2337 -0.3945  0.2968
 6664TIP3    H144187   1.273   1.091   2.261 -1.2596 -0.8264 -0.7549
 6664TIP3    H244188   1.232   1.189   2.153  1.0811  0.3078 -0.6944
 6665TIP3   OH244189   0.491   6.725   0.661  0.4573 -0.1484 -0.2296
 6665TIP3    H144190   0.490   6.780   0.739  0.0583  2.8852 -2.2174
 6665TIP3    H244191   0.399   6.718   0.636  0.6732 -0.0648 -1.0694
 6666TIP3   OH244192   1.939   4.783   1.642  0.0323  0.1205 -0.6330
 6666TIP3    H144193   1.986   4.708   1.605  0.8171  1.1314 -1.7604
 6666TIP3    H244194   1.931   4.844   1.569  2.1369  2.4651  0.9564
 6667TIP3   OH244195   5.542   4.756   2.419  0.4489 -0.1239  0.1451
 6667TIP3    H144196   5.578   4.669   2.405  2.1329  0.6825 -0.8755
 6667TIP3    H244197   5.602   4.815   2.372 -2.1424  1.3342 -1.5875
 6668TIP3   OH244198   7.651   4.008   1.988  0.5626 -0.4948  0.3255
 6668TIP3    H144199   7.622   4.061   2.062  1.1868  0.3503 -0.0196
 6668TIP3    H244200   7.746   3.999   2.001  0.2689 -3.0003  1.3028
 6669TIP3   OH244201   1.900   1.488   2.693  0.2867  0.3445  0.0897
 6669TIP3    H144202   1.964   1.560   2.690  1.3139 -0.5518 -0.7150
 6669TIP3    H244203   1.833   1.513   2.630  0.9429  0.3471 -0.6233
 6670TIP3   OH244204   3.275   0.942   2.446  0.0577 -0.9285 -0.4394
 6670TIP3    H144205   3.239   0.935   2.358 -0.1414 -1.1265 -0.3458
 6670TIP3    H244206   3.275   1.035   2.466  0.1232 -0.8830 -0.6581
 6671TIP3   OH244207   5.284   2.892   2.851 -0.4885 -0.6779  0.1698
 6671TIP3    H144208   5.259   2.857   2.936 -0.9616 -1.3927 -0.2562
 6671TIP3    H244209   5.287   2.816   2.794 -1.3243 -0.0586 -0.7291
 6672TIP3   OH244210   4.100   1.252   2.729 -0.1053  0.6173  0.3567
 6672TIP3    H144211   4.117   1.273   2.820 -3.1988 -2.9361  2.0365
 6672TIP3    H244212   4.017   1.295   2.709  0.2941  0.9568 -0.6706
 6673TIP3   OH244213   3.208   5.530   1.995  0.4015 -0.0271 -0.0064
 6673TIP3    H144214   3.137   5.502   2.053  1.4629 -1.4099  0.6860
 6673TIP3    H244215   3.259   5.450   1.980  0.5415  0.4562 -2.3290
 6674TIP3   OH244216   2.044   1.085   1.736 -0.0687  0.2858 -0.3473
 6674TIP3    H144217   2.110   1.051   1.676  0.1202  1.2760 -0.7217
 6674TIP3    H244218   1.985   1.136   1.680 -2.4218 -2.2614 -0.3978
 6675TIP3   OH244219   4.414   3.275   1.076  0.0297 -0.2086 -0.1992
 6675TIP3    H144220   4.509   3.266   1.072  0.0112 -0.4179 -0.1853
 6675TIP3    H244221   4.382   3.185   1.077 -0.1708 -0.1376 -0.2576
 6676TIP3   OH244222   0.317   5.799   2.855  0.6098  0.2726  0.0435
 6676TIP3    H144223   0.334   5.847   2.775 -0.6486 -3.1749 -2.5752
 6676TIP3    H244224   0.228   5.765   2.844  0.1121  0.1973  3.2715
 6677TIP3   OH244225   2.243   0.940   2.776 -0.1217  0.1663 -0.2778
 6677TIP3    H144226   2.236   0.969   2.684 -1.5415 -0.5218 -0.4186
 6677TIP3    H244227   2.182   0.867   2.782  0.0032  0.1679  1.2155
 6678TIP3   OH244228   5.864   4.660   2.702 -0.2355  0.0489 -0.3212
 6678TIP3    H144229   5.768   4.661   2.696 -0.3011  0.5126  0.5847
 6678TIP3    H244230   5.882   4.657   2.796  0.6372  1.3033 -0.4193
 6679TIP3   OH244231   4.880   5.315   1.725 -0.0425 -0.8186  0.3244
 6679TIP3    H144232   4.859   5.353   1.640 -0.6498 -1.3782  0.2163
 6679TIP3    H244233   4.795   5.302   1.767  0.1823 -1.5680  0.5669
 6680TIP3   OH244234   1.851   0.082   2.105  0.0508 -0.0692  0.3020
 6680TIP3    H144235   1.781   0.017   2.101  0.8288 -0.9493  0.5917
 6680TIP3    H244236   1.894   0.076   2.019  1.0813 -1.0682  0.8512
 6681TIP3   OH244237   2.503   2.816   2.153  0.2422 -0.8398 -0.6101
 6681TIP3    H144238   2.476   2.752   2.219 -0.9773  0.1639 -0.0893
 6681TIP3    H244239   2.486   2.901   2.194  1.8872 -0.1577 -1.2626
 6682TIP3   OH244240   5.337   2.677   1.682  0.8033 -0.1195 -0.0378
 6682TIP3    H144241   5.301   2.733   1.612  1.9893  1.1628  0.3199
 6682TIP3    H244242   5.263   2.626   1.713 -0.2424  0.9564 -0.6996
 6683TIP3   OH244243   0.784   2.810   3.027  0.4140  0.7561 -0.5852
 6683TIP3    H144244   0.870   2.845   3.052 -0.7050  1.0167  3.6693
 6683TIP3    H244245   0.779   2.725   3.071 -2.0150  1.4564  0.6770
 6684TIP3   OH244246   1.041   0.700   3.036  0.1676  0.3532 -0.4109
 6684TIP3    H144247   0.966   0.660   3.080 -0.4067 -0.9902 -2.4943
 6684TIP3    H244248   1.060   0.779   3.088 -1.9720  0.1407  0.7980
 6685TIP3   OH244249   4.941   7.627   1.260  0.0890 -0.1893 -0.4856
 6685TIP3    H144250   4.990   7.635   1.178 -2.4961  1.8939 -1.9618
 6685TIP3    H244251   4.943   7.715   1.298  0.6420 -0.9608  1.4187
 6686TIP3   OH244252   2.065   1.815   0.995  0.0977  0.0688 -0.2984
 6686TIP3    H144253   2.094   1.724   0.995 -2.1205 -0.7046  0.5797
 6686TIP3    H244254   2.005   1.821   0.920  0.2523  0.8418 -0.3742
 6687TIP3   OH244255   2.421   4.629   2.406 -0.3085  0.5710 -0.1080
 6687TIP3    H144256   2.403   4.597   2.318 -0.6658  0.4022  0.0259
 6687TIP3    H244257   2.429   4.550   2.460 -0.4101  0.6831  0.0727
 6688TIP3   OH244258   5.582   0.201   2.710 -0.2042  0.6836 -0.1128
 6688TIP3    H144259   5.667   0.221   2.749 -0.7139  1.2294  0.7702
 6688TIP3    H244260   5.601   0.177   2.620  0.8904  0.7099  0.1041
 6689TIP3   OH244261   2.059   5.730   2.171  0.2171 -0.2259  0.4741
 6689TIP3    H144262   2.048   5.716   2.265 -0.0724  0.1935  0.5076
 6689TIP3    H244263   1.971   5.750   2.139  0.6737  2.3581  0.6050
 6690TIP3   OH244264   4.453   1.421   1.577 -0.3554  0.5024 -0.1820
 6690TIP3    H144265   4.518   1.487   1.602 -0.2597 -0.3414  1.9503
 6690TIP3    H244266   4.402   1.406   1.656 -2.8350  0.7061 -1.6311
 6691TIP3   OH244267   5.544   5.913   2.406  0.4438 -0.0745 -1.0639
 6691TIP3    H144268   5.559   5.902   2.500  0.1151 -0.3272 -1.0397
 6691TIP3    H244269   5.613   5.973   2.378 -1.2589  2.5675 -0.0489
 6692TIP3   OH244270   1.428   6.219   3.405 -0.0678 -0.1404  0.2537
 6692TIP3    H144271   1.442   6.312   3.392 -0.7909  0.0460  0.7496
 6692TIP3    H244272   1.368   6.213   3.480 -0.7128 -0.9650 -0.2989
 6693TIP3   OH244273   2.967   4.724   1.173  0.1661  0.0971  0.2443
 6693TIP3    H144274   3.057   4.694   1.162 -0.0897 -0.3959 -0.6448
 6693TIP3    H244275   2.915   4.643   1.177 -0.6845  0.2846 -3.4637
 6694TIP3   OH244276   6.740   2.814   1.111  0.1741 -0.2437  0.2162
 6694TIP3    H144277   6.792   2.888   1.141 -0.2019  0.4363 -0.7610
 6694TIP3    H244278   6.779   2.738   1.155  1.4830  0.3513  0.1300
 6695TIP3   OH244279   1.446   1.540   2.560  0.2159  0.0067 -0.0669
 6695TIP3    H144280   1.394   1.479   2.508 -0.5454  0.9342 -0.4102
 6695TIP3    H244281   1.459   1.494   2.643  1.3674 -1.4474 -0.9958
 6696TIP3   OH244282   3.896   5.913   2.198 -0.5803  0.2836 -0.1415
 6696TIP3    H144283   3.984   5.875   2.199 -0.2432  0.9515 -2.1168
 6696TIP3    H244284   3.839   5.839   2.177 -0.2391  0.2838 -1.1005
 6697TIP3   OH244285   4.670   0.906   2.454 -0.2544 -0.5483 -0.1023
 6697TIP3    H144286   4.751   0.946   2.487 -1.2455 -0.2436  2.1419
 6697TIP3    H244287   4.700   0.842   2.390  1.6107  1.1424 -1.0556
 6698TIP3   OH244288   5.054   5.557   1.343 -0.3532  0.1972 -0.1613
 6698TIP3    H144289   4.981   5.496   1.343 -0.9427  0.8809  0.2408
 6698TIP3    H244290   5.021   5.634   1.389  0.2485  0.9517 -0.9428
 6699TIP3   OH244291   2.652   1.960   0.411  0.5269  0.5196 -0.1939
 6699TIP3    H144292   2.696   2.045   0.418  2.4100 -0.3102 -1.3125
 6699TIP3    H244293   2.723   1.897   0.406 -0.8130 -0.9609 -1.3934
 6700TIP3   OH244294   1.585   4.771   0.709 -0.0007  0.3796  0.1866
 6700TIP3    H144295   1.529   4.796   0.636  2.6245  1.1294 -1.7021
 6700TIP3    H244296   1.590   4.676   0.704  1.3032  0.4915 -1.6176
 6701TIP3   OH244297   7.608   1.205   1.632 -0.3440 -0.7035 -0.4472
 6701TIP3    H144298   7.530   1.207   1.688  0.7753  0.6829  1.1768
 6701TIP3    H244299   7.681   1.192   1.693  0.7535 -1.5033 -1.8747
 6702TIP3   OH244300   5.542   1.885   0.917 -0.0613  0.6040 -0.2364
 6702TIP3    H144301   5.447   1.874   0.910  0.1239 -0.8907 -0.8011
 6702TIP3    H244302   5.570   1.816   0.977  0.5075  2.0783  1.2606
 6703TIP3   OH244303   0.760   4.742   2.788 -0.3210 -0.3093 -0.1874
 6703TIP3    H144304   0.708   4.765   2.711  0.3247  1.4608 -0.1465
 6703TIP3    H244305   0.795   4.825   2.819 -0.6734 -0.9591  2.1350
 6704TIP3   OH244306   3.135   4.437   1.464  0.3330  0.3563  0.4640
 6704TIP3    H144307   3.058   4.494   1.475  0.2905  0.4204 -0.1355
 6704TIP3    H244308   3.192   4.486   1.405 -0.2202 -0.7234 -1.0190
 6705TIP3   OH244309   1.539   3.897   3.024  0.1266  0.1028 -0.3564
 6705TIP3    H144310   1.499   3.891   3.111 -0.7291 -0.0685 -0.7503
 6705TIP3    H244311   1.514   3.983   2.992  2.2721  1.0796  0.4200
 6706TIP3   OH244312   6.004   6.316   3.035  0.0783  0.1367  0.0306
 6706TIP3    H144313   6.061   6.245   3.065 -0.3499 -0.6802 -1.0128
 6706TIP3    H244314   6.008   6.310   2.939 -0.7221  0.9168 -0.0611
 6707TIP3   OH244315   4.250   3.088   2.654  0.3474  0.3702 -0.9824
 6707TIP3    H144316   4.285   3.097   2.742 -1.0125 -2.1160 -0.0939
 6707TIP3    H244317   4.162   3.052   2.666 -0.2602  0.8881 -3.3194
 6708TIP3   OH244318   3.365   4.391   0.735  0.6098 -0.3123 -0.2555
 6708TIP3    H144319   3.404   4.373   0.650  1.8840 -1.9580  0.6159
 6708TIP3    H244320   3.304   4.319   0.749  1.2849 -0.7160  0.7072
 6709TIP3   OH244321   6.773   1.087   2.323  0.1390 -0.5554 -0.2736
 6709TIP3    H144322   6.807   1.105   2.235 -1.1976  0.6155 -0.5987
 6709TIP3    H244323   6.836   1.027   2.362  0.9306 -0.8424 -1.9179
 6710TIP3   OH244324   4.566   6.328   2.547  0.3148 -0.4273  0.2455
 6710TIP3    H144325   4.641   6.385   2.530  0.4515 -0.3355  1.1407
 6710TIP3    H244326   4.492   6.374   2.507  0.7240 -0.5218 -0.6483
 6711TIP3   OH244327   3.577   0.711   0.398  0.4787 -0.4864 -0.5181
 6711TIP3    H144328   3.647   0.773   0.376  1.0714 -0.6639  0.7565
 6711TIP3    H244329   3.521   0.709   0.321  0.2975  1.8417 -0.5120
 6712TIP3   OH244330   4.007   3.623   3.735  0.0511  0.5675 -0.3540
 6712TIP3    H144331   3.964   3.657   3.657 -1.5194 -0.8396 -0.1639
 6712TIP3    H244332   4.094   3.598   3.705 -0.2823  0.7108 -1.4904
 6713TIP3   OH244333   6.521   4.652   1.746  0.0225  0.5323  0.7138
 6713TIP3    H144334   6.431   4.683   1.737  0.2522  1.1815  0.6071
 6713TIP3    H244335   6.551   4.690   1.829  0.4108  0.8660  0.4258
 6714TIP3   OH244336   0.984   3.245   3.085 -0.2580  0.1974 -0.0761
 6714TIP3    H144337   1.001   3.151   3.094 -1.0029 -0.0104 -0.7084
 6714TIP3    H244338   1.054   3.287   3.134 -0.8461 -0.7348  1.6435
 6715TIP3   OH244339   1.369   5.402   2.221 -0.2811  0.1249 -0.2204
 6715TIP3    H144340   1.275   5.419   2.223 -0.7520 -1.3492 -3.1693
 6715TIP3    H244341   1.409   5.486   2.197 -1.1035  0.2623 -1.1580
 6716TIP3   OH244342   5.700   6.317   2.488 -0.0450  0.6995 -0.7869
 6716TIP3    H144343   5.690   6.283   2.399  0.7603 -0.8115 -0.3352
 6716TIP3    H244344   5.795   6.317   2.503 -0.2135 -0.2524  0.4782
 6717TIP3   OH244345   7.361   2.808   0.929  0.2442 -0.4257 -0.1031
 6717TIP3    H144346   7.379   2.723   0.969 -0.1935 -0.8465 -0.7840
 6717TIP3    H244347   7.438   2.827   0.876  0.5337 -0.1832  0.3991
 6718TIP3   OH244348   1.943   3.058   3.358  0.3616  0.3161 -0.0671
 6718TIP3    H144349   1.850   3.040   3.341  0.4608 -1.0589  0.6875
 6718TIP3    H244350   1.977   3.089   3.274 -0.6370  0.1851 -0.5310
 6719TIP3   OH244351   6.243   4.898   1.246 -0.4267 -0.7175 -0.0823
 6719TIP3    H144352   6.183   4.837   1.290  0.4701 -1.4700  0.1465
 6719TIP3    H244353   6.270   4.852   1.167 -0.5208 -0.1881 -0.4201
 6720TIP3   OH244354   5.895   0.934   2.262 -0.1844  0.0321  0.3582
 6720TIP3    H144355   5.837   0.859   2.269  0.6001 -0.7381 -1.0161
 6720TIP3    H244356   5.871   0.976   2.179  2.2710 -1.3098 -1.1606
 6721TIP3   OH244357   6.529   5.439   1.921  0.1207 -0.7376  0.2995
 6721TIP3    H144358   6.456   5.397   1.874 -0.3633 -0.8111  1.0896
 6721TIP3    H244359   6.487   5.480   1.997  0.4041  2.0587 -0.9173
 6722TIP3   OH244360   2.711   4.303   2.441  0.9797  0.2163 -0.6768
 6722TIP3    H144361   2.733   4.210   2.428  0.3979  0.0377 -0.4114
 6722TIP3    H244362   2.781   4.337   2.496  1.2179 -0.0552 -0.8082
 6723TIP3   OH244363   3.006   3.811   0.350 -0.6977  0.8725 -0.4151
 6723TIP3    H144364   3.059   3.875   0.397  0.4699 -0.8748  0.7614
 6723TIP3    H244365   2.937   3.863   0.309 -0.3675  2.7528  1.2498
 6724TIP3   OH244366   0.267   3.249   2.772  0.1049 -0.4763 -0.0521
 6724TIP3    H144367   0.323   3.177   2.798  1.4600  0.5033 -0.1319
 6724TIP3    H244368   0.193   3.247   2.833  1.2080 -0.6237  1.3133
 6725TIP3   OH244369   2.851   4.007   1.148  0.5049 -0.0298 -0.3043
 6725TIP3    H144370   2.863   4.058   1.228  0.6498 -0.5173 -0.0113
 6725TIP3    H244371   2.940   3.997   1.113  0.3970  0.5854 -0.7900
 6726TIP3   OH244372   0.800   0.797   1.813 -0.4912 -0.9838 -0.1756
 6726TIP3    H144373   0.819   0.852   1.889  0.5574 -0.6429 -0.6645
 6726TIP3    H244374   0.717   0.755   1.834 -0.4547 -0.5266  0.9490
 6727TIP3   OH244375   4.008   0.027   2.499 -0.0750  0.3007 -0.1185
 6727TIP3    H144376   3.915   0.038   2.520  0.2917  1.3025  1.1187
 6727TIP3    H244377   4.018  -0.067   2.484 -1.0108 -0.0489  1.2695
 6728TIP3   OH244378   6.208   0.799   0.741 -0.4277 -0.1725  0.7198
 6728TIP3    H144379   6.188   0.870   0.681  0.7506  1.2425  1.9066
 6728TIP3    H244380   6.285   0.830   0.790 -1.0214 -1.4623  2.5767
 6729TIP3   OH244381   5.671   7.316   2.235  0.1241  0.1053 -0.3666
 6729TIP3    H144382   5.718   7.324   2.318 -0.2806  2.1950 -0.2825
 6729TIP3    H244383   5.689   7.398   2.189  0.0584 -0.8570 -2.2223
 6730TIP3   OH244384   3.206   7.394   2.798  0.2715 -0.0562 -0.1630
 6730TIP3    H144385   3.260   7.335   2.745  0.4637  1.0286 -1.2181
 6730TIP3    H244386   3.258   7.410   2.877  1.1087  0.3001 -0.7816
 6731TIP3   OH244387   1.169   4.452   0.749 -1.0896 -0.1987 -0.0883
 6731TIP3    H144388   1.120   4.525   0.787 -0.2929  0.7586 -0.8400
 6731TIP3    H244389   1.183   4.392   0.822 -2.7086 -0.1470  0.3014
 6732TIP3   OH244390   4.934   6.939   2.668  0.3098  0.3025 -0.5649
 6732TIP3    H144391   5.027   6.946   2.689  0.0447 -0.0282  0.8221
 6732TIP3    H244392   4.894   7.015   2.710 -0.2535 -0.3919  0.1680
 6733TIP3   OH244393   7.276   1.414   0.646  0.0142  0.2076  0.3109
 6733TIP3    H144394   7.254   1.497   0.689 -0.8068  0.0483  0.2098
 6733TIP3    H244395   7.355   1.385   0.691 -0.0626  0.7182  0.7938
 6734TIP3   OH244396   7.055   4.342   2.104 -0.2993 -0.1424  0.1161
 6734TIP3    H144397   7.046   4.436   2.089  0.3990 -0.3060 -1.4853
 6734TIP3    H244398   7.004   4.301   2.035 -0.1275 -0.9566  0.4537
 6735TIP3   OH244399   2.089   0.402   1.002 -0.1987  0.1626 -0.1633
 6735TIP3    H144400   2.019   0.459   1.033 -2.3889 -1.8688 -1.1141
 6735TIP3    H244401   2.112   0.438   0.916  1.7382  2.2516  1.1047
 6736TIP3   OH244402   7.042   5.948   1.357  0.6269 -0.0573 -0.1021
 6736TIP3    H144403   6.987   6.024   1.375 -0.0269 -0.3650 -0.7354
 6736TIP3    H244404   7.074   5.961   1.268  0.3723 -0.5994 -0.2775
 6737TIP3   OH244405   7.223   2.642   1.627 -0.1786 -0.3384  0.4660
 6737TIP3    H144406   7.214   2.736   1.608  1.1601 -0.5220 -1.3133
 6737TIP3    H244407   7.159   2.600   1.571 -0.7621 -0.5082  1.2489
 6738TIP3   OH244408   6.281   1.458   1.564  0.4055 -0.1406 -0.0931
 6738TIP3    H144409   6.352   1.423   1.510  0.1504  0.2891 -0.7194
 6738TIP3    H244410   6.212   1.391   1.559 -0.7993  1.1447 -2.7613
 6739TIP3   OH244411   3.255   1.522   1.084 -0.3147  0.4104 -0.5926
 6739TIP3    H144412   3.265   1.466   1.161  3.2339 -0.1339 -1.2960
 6739TIP3    H244413   3.192   1.474   1.029  0.4632 -1.4955  0.0747
 6740TIP3   OH244414   6.036   3.992   2.618  0.2736  0.0675 -0.6703
 6740TIP3    H144415   6.036   3.957   2.529  0.6968  2.2389 -1.5838
 6740TIP3    H244416   6.116   4.044   2.624  0.2105  0.0333  0.9600
 6741TIP3   OH244417   3.766   2.872   2.733  0.6801 -0.2729  0.6075
 6741TIP3    H144418   3.755   2.798   2.674 -0.4786  0.3403  0.0018
 6741TIP3    H244419   3.729   2.842   2.816  0.8863 -0.6127  0.5791
 6742TIP3   OH244420   7.007   3.053   2.949 -0.0414  1.0209  0.1104
 6742TIP3    H144421   7.008   3.076   3.042  0.8000 -0.3150  0.4517
 6742TIP3    H244422   6.915   3.060   2.924 -0.2082  1.9300  0.8875
 6743TIP3   OH244423   5.217   6.982   1.254 -0.0457 -0.3219  1.1143
 6743TIP3    H144424   5.143   7.043   1.251 -0.6008 -1.0024  0.6619
 6743TIP3    H244425   5.282   7.027   1.307 -0.9168  0.1497  1.8236
 6744TIP3   OH244426   2.227   7.381   2.834 -0.0724  0.1313  0.0966
 6744TIP3    H144427   2.149   7.393   2.889 -0.9223 -1.5952 -0.6342
 6744TIP3    H244428   2.191   7.356   2.749  1.2647  1.1110 -0.7782
 6745TIP3   OH244429   3.338   6.251   2.293 -0.3507 -0.1846 -0.8453
 6745TIP3    H144430   3.295   6.281   2.373 -0.4657 -0.2356 -0.8884
 6745TIP3    H244431   3.326   6.156   2.293  1.4905 -0.4693  0.1780
 6746TIP3   OH244432   6.713   2.228   1.624 -0.3645  0.3237 -0.5833
 6746TIP3    H144433   6.659   2.261   1.695  0.6374 -0.3880  0.5539
 6746TIP3    H244434   6.698   2.288   1.551 -1.2601  1.1789  0.2893
 6747TIP3   OH244435   7.010   0.985   1.814 -0.7931 -0.0102 -0.2955
 6747TIP3    H144436   6.975   1.012   1.729 -0.8464  0.6993 -0.0585
 6747TIP3    H244437   7.103   1.007   1.809 -0.2950 -2.0780 -1.0009
 6748TIP3   OH244438   2.149   3.981   2.853 -0.2024  0.0788  0.4176
 6748TIP3    H144439   2.066   4.000   2.898  0.3902 -3.4030  3.5552
 6748TIP3    H244440   2.210   4.046   2.887 -0.9168  0.5304  0.8614
 6749TIP3   OH244441   4.193   7.656   1.761  0.0664  0.4447 -0.1657
 6749TIP3    H144442   4.139   7.715   1.812 -0.3407  0.9066 -1.1070
 6749TIP3    H244443   4.155   7.569   1.775 -1.3141  0.8359 -1.2849
 6750TIP3   OH244444   6.725   6.898   1.147 -0.0410  0.2291 -0.0271
 6750TIP3    H144445   6.743   6.838   1.220 -0.1947  0.2462  0.0254
 6750TIP3    H244446   6.635   6.877   1.121  0.5640 -0.9440 -1.3000
 6751TIP3   OH244447   6.689   0.527   1.459  0.0730  0.0464  0.5941
 6751TIP3    H144448   6.711   0.448   1.509 -0.6222 -0.1721  0.5631
 6751TIP3    H244449   6.718   0.599   1.515 -1.0277 -0.1868  1.4981
 6752TIP3   OH244450   0.444   1.707   1.944 -0.4525  0.2450 -0.2285
 6752TIP3    H144451   0.497   1.627   1.935  0.5475  0.4738  2.7628
 6752TIP3    H244452   0.391   1.708   1.864  0.5123 -2.6335 -1.0619
 6753TIP3   OH244453   7.168   3.687   1.021 -0.1293  0.1170  0.0344
 6753TIP3    H144454   7.221   3.651   1.092  0.4784  2.3479  0.7707
 6753TIP3    H244455   7.082   3.701   1.061  0.0069  0.7024  0.1183
 6754TIP3   OH244456   0.756   6.956   1.352 -0.0271 -0.2428 -0.4842
 6754TIP3    H144457   0.773   7.050   1.344 -0.4601 -0.2200 -1.3789
 6754TIP3    H244458   0.660   6.950   1.357  0.0395 -0.5847  0.6143
 6755TIP3   OH244459   3.346   3.020   1.375  0.0510 -0.2774  0.3138
 6755TIP3    H144460   3.299   3.022   1.291  1.5474 -2.2563 -0.6612
 6755TIP3    H244461   3.438   3.030   1.350  0.6059 -1.8442  1.6225
 6756TIP3   OH244462   3.676   2.258   0.775 -0.1245  0.0749 -0.1325
 6756TIP3    H144463   3.601   2.224   0.822  0.0724 -1.4911 -0.8769
 6756TIP3    H244464   3.708   2.331   0.829 -0.8499 -0.6351  1.3039
 6757TIP3   OH244465   0.697   4.228   0.495  0.1044 -0.0729 -0.1023
 6757TIP3    H144466   0.690   4.137   0.524 -0.7055  0.3520  1.1417
 6757TIP3    H244467   0.612   4.267   0.516  1.1805  1.5586  1.6177
 6758TIP3   OH244468   1.569   0.057   3.457  0.1253  0.0377 -0.6305
 6758TIP3    H144469   1.570  -0.014   3.393 -1.1842 -0.9230  0.3503
 6758TIP3    H244470   1.547   0.135   3.406 -2.5772 -0.9739 -1.1873
 6759TIP3   OH244471   2.549   3.300   0.910  0.9092 -0.1080 -0.4768
 6759TIP3    H144472   2.484   3.331   0.847  0.6228 -1.1631 -0.7143
 6759TIP3    H244473   2.509   3.317   0.996  0.7462  0.1389 -0.6015
 6760TIP3   OH244474   4.946   4.774   1.648  0.1549  0.0950 -0.4336
 6760TIP3    H144475   5.028   4.814   1.617 -1.2047  2.5821 -1.0375
 6760TIP3    H244476   4.877   4.816   1.597 -1.5754 -1.7174  0.2676
 6761TIP3   OH244477   0.177   6.031   2.218  0.0883  0.0035  0.0426
 6761TIP3    H144478   0.149   6.050   2.129  0.6917 -0.9568 -0.3685
 6761TIP3    H244479   0.108   5.975   2.254 -0.7188  1.3131  0.5838
 6762TIP3   OH244480   4.823   5.955   2.002 -0.0585  0.4518 -0.4482
 6762TIP3    H144481   4.891   5.950   2.069  1.8477  1.7685 -2.1678
 6762TIP3    H244482   4.770   6.030   2.027 -1.2723 -0.8688  1.1671
 6763TIP3   OH244483   7.110   3.829   2.997  0.6730 -0.1632  0.1145
 6763TIP3    H144484   7.145   3.848   2.910  0.6360  0.0776  0.1506
 6763TIP3    H244485   7.057   3.906   3.019  1.3841  0.1611  0.7149
 6764TIP3   OH244486   3.975   3.724   0.936  0.2815  0.2225 -0.0756
 6764TIP3    H144487   4.064   3.760   0.936  0.4753 -0.2396  1.0577
 6764TIP3    H244488   3.987   3.631   0.919 -0.0220  0.2187 -0.2781
 6765TIP3   OH244489   6.731   4.939   2.871 -0.1456 -0.7488  0.5650
 6765TIP3    H144490   6.779   4.934   2.954 -0.9772  1.0431  1.1972
 6765TIP3    H244491   6.676   5.016   2.880 -0.3925 -0.6206 -1.6006
 6766TIP3   OH244492   4.999   6.526   3.012  0.5323  0.0034  0.0762
 6766TIP3    H144493   4.970   6.587   2.944 -0.7917 -1.6775 -0.9392
 6766TIP3    H244494   5.029   6.582   3.084 -1.0126  1.8496 -0.6493
 6767TIP3   OH244495   7.423   2.678   3.311  0.1939 -0.2133 -0.3680
 6767TIP3    H144496   7.459   2.590   3.322 -0.3394 -0.3776  0.1062
 6767TIP3    H244497   7.349   2.666   3.252 -1.1966 -0.4503  1.3371
 6768TIP3   OH244498   1.061   0.557   1.141 -0.2863  0.2555 -0.3019
 6768TIP3    H144499   1.091   0.607   1.065 -1.4984 -0.4579 -1.2897
 6768TIP3    H244500   1.018   0.622   1.197  0.2548  0.7113 -0.3984
 6769TIP3   OH244501   3.357   1.525   3.862  0.0812  0.5051 -0.6977
 6769TIP3    H144502   3.365   1.605   3.809 -0.6640  0.5405 -0.7639
 6769TIP3    H244503   3.285   1.544   3.923 -0.3271 -0.2456 -0.9420
 6770TIP3   OH244504   0.838   5.550   2.090 -0.4471 -0.0637  0.3446
 6770TIP3    H144505   0.845   5.459   2.121  2.1039  0.5128  1.8015
 6770TIP3    H244506   0.756   5.582   2.129 -0.1410 -1.0536  1.9140
 6771TIP3   OH244507   0.443   7.357   1.172 -0.3158 -0.3792  0.2136
 6771TIP3    H144508   0.390   7.386   1.098 -0.9868 -3.1284 -0.4858
 6771TIP3    H244509   0.382   7.356   1.246 -0.5443 -0.9292  0.0208
 6772TIP3   OH244510   5.116   1.701   3.331  0.3403  0.3429 -0.0114
 6772TIP3    H144511   5.192   1.662   3.287  0.1134  0.7566 -0.8029
 6772TIP3    H244512   5.040   1.669   3.282  0.1200  1.2896 -0.3203
 6773TIP3   OH244513   4.832   4.259   1.233  0.6169  0.2810 -0.1787
 6773TIP3    H144514   4.928   4.261   1.242  0.6872  0.7673 -0.9883
 6773TIP3    H244515   4.805   4.189   1.293  1.2638  1.6472  1.8402
 6774TIP3   OH244516   5.488   0.330   1.130  0.1156 -0.2749  0.1165
 6774TIP3    H144517   5.547   0.295   1.196 -0.2471  1.3110  1.3593
 6774TIP3    H244518   5.509   0.424   1.127 -2.4597  0.4055  0.7989
 6775TIP3   OH244519   2.115   5.192   3.102 -0.0241 -0.1400  0.6143
 6775TIP3    H144520   2.062   5.254   3.052  0.4694 -0.3448 -0.1742
 6775TIP3    H244521   2.092   5.210   3.194  0.4032  1.4736  0.4349
 6776TIP3   OH244522   1.403   6.420   1.987 -0.0062 -0.0365  0.1907
 6776TIP3    H144523   1.322   6.435   2.035 -1.0793 -1.5246 -1.0253
 6776TIP3    H244524   1.373   6.394   1.899  1.7967 -0.3763 -0.3541
 6777TIP3   OH244525   5.996   0.558   1.305  0.5151 -0.0169 -0.0703
 6777TIP3    H144526   5.994   0.634   1.364  1.7938 -0.4893  0.6195
 6777TIP3    H244527   5.915   0.565   1.255 -0.5325  0.5281  1.5931
 6778TIP3   OH244528   6.018   5.719   2.239 -0.2643  0.5410 -0.6956
 6778TIP3    H144529   5.943   5.736   2.182 -0.0735 -0.6674 -1.3453
 6778TIP3    H244530   6.092   5.709   2.178 -0.3289 -2.3774 -0.4455
 6779TIP3   OH244531   0.089   7.496   3.032 -0.3287 -0.2649  0.0440
 6779TIP3    H144532   0.169   7.517   2.984  0.5123 -0.3071  1.3812
 6779TIP3    H244533   0.032   7.571   3.018  0.2160  0.0792 -0.3538
 6780TIP3   OH244534   1.371   7.445   0.828 -0.6290  0.2212 -0.5515
 6780TIP3    H144535   1.347   7.478   0.914 -1.1149 -2.4290  0.4224
 6780TIP3    H244536   1.291   7.454   0.775 -1.3078 -0.9662  0.2297
 6781TIP3   OH244537   1.757   6.957   1.817 -0.9895  0.5483  0.2320
 6781TIP3    H144538   1.789   7.047   1.809  1.3632 -0.2480 -0.1346
 6781TIP3    H244539   1.781   6.931   1.906  1.0001 -0.5965 -0.5761
 6782TIP3   OH244540   4.461   3.397   2.766 -0.6146 -0.0867 -0.4825
 6782TIP3    H144541   4.532   3.418   2.705 -0.9707  0.1735 -0.8054
 6782TIP3    H244542   4.504   3.391   2.851 -0.0258 -0.9550 -0.8263
 6783TIP3   OH244543   0.677   6.301   3.167 -0.7271 -0.1247 -0.3850
 6783TIP3    H144544   0.602   6.243   3.182 -1.5491  0.5365 -1.7223
 6783TIP3    H244545   0.674   6.319   3.073 -0.0434  1.4608 -0.1212
 6784TIP3   OH244546   1.773   1.250   1.259 -0.0832  0.2549  0.3874
 6784TIP3    H144547   1.747   1.342   1.271 -0.7378 -0.0918  1.7500
 6784TIP3    H244548   1.707   1.200   1.307 -0.1189 -0.9918 -0.8768
 6785TIP3   OH244549   6.429   7.591   1.196  0.0897 -0.2933  0.2322
 6785TIP3    H144550   6.515   7.634   1.201 -0.7158  1.7588 -1.6777
 6785TIP3    H244551   6.374   7.640   1.257 -0.1470 -0.4668  0.1601
 6786TIP3   OH244552   0.041   7.068   1.972  0.2098 -0.5862 -0.1320
 6786TIP3    H144553   0.136   7.067   1.983  0.1909 -0.3838  0.0588
 6786TIP3    H244554   0.023   7.151   1.929 -0.1327  0.6370  2.2362
 6787TIP3   OH244555   3.720   5.342   2.797 -0.0968 -0.0983 -0.0689
 6787TIP3    H144556   3.807   5.358   2.834  0.8324 -1.5624 -1.5373
 6787TIP3    H244557   3.736   5.324   2.705 -2.1836  1.6483 -0.8487
 6788TIP3   OH244558   2.884   5.771   3.216  0.1439 -0.1027  0.1762
 6788TIP3    H144559   2.837   5.696   3.253 -0.6151  0.4297  0.3067
 6788TIP3    H244560   2.817   5.819   3.167  0.6257  0.4972  0.1013
 6789TIP3   OH244561   0.173   2.352   2.870 -0.1285  0.4856  0.6270
 6789TIP3    H144562   0.095   2.341   2.924  1.5438 -2.4488  2.7334
 6789TIP3    H244563   0.152   2.309   2.787 -1.3307  1.3687  0.4591
 6790TIP3   OH244564   5.288   5.117   2.133 -0.0772 -0.5058 -0.1003
 6790TIP3    H144565   5.242   5.096   2.214 -1.1834  0.8945 -0.3161
 6790TIP3    H244566   5.237   5.073   2.065 -0.0094 -0.4774 -0.1694
 6791TIP3   OH244567   3.359   1.809   3.244  0.0238 -0.0804 -0.0373
 6791TIP3    H144568   3.394   1.725   3.273  0.2565  0.3768  1.0675
 6791TIP3    H244569   3.434   1.853   3.204  0.0857 -0.1057  0.0507
 6792TIP3   OH244570   7.376   5.726   0.827 -0.6272  0.2628  0.1292
 6792TIP3    H144571   7.307   5.729   0.761  0.9698 -0.1487 -1.6554
 6792TIP3    H244572   7.426   5.806   0.813 -0.5335  0.4122  1.2031
 6793TIP3   OH244573   7.127   3.315   1.436  0.2104 -0.5037 -0.5995
 6793TIP3    H144574   7.130   3.407   1.464  1.0300 -0.8780  0.6300
 6793TIP3    H244575   7.035   3.291   1.444  0.2969 -0.4088  1.3098
 6794TIP3   OH244576   0.274   3.725   2.317 -0.0408 -0.1180  0.0900
 6794TIP3    H144577   0.352   3.718   2.261  0.2809  1.2920  0.3233
 6794TIP3    H244578   0.304   3.775   2.393 -1.5352  1.9423 -0.5797
 6795TIP3   OH244579   4.147   1.812   1.547 -0.2790  0.3923  0.3031
 6795TIP3    H144580   4.072   1.756   1.564 -0.4297  0.2810 -0.6599
 6795TIP3    H244581   4.223   1.753   1.549 -0.5440 -0.1145 -1.8510
 6796TIP3   OH244582   1.246   0.635   2.362  0.2410  0.2851  0.1882
 6796TIP3    H144583   1.317   0.604   2.418  0.1703 -3.1043 -1.4023
 6796TIP3    H244584   1.167   0.623   2.415  0.4500  0.2230  0.4915
 6797TIP3   OH244585   3.258   2.224   1.880 -0.2364 -0.9991  0.4455
 6797TIP3    H144586   3.191   2.156   1.877 -0.0899 -1.1142 -0.8562
 6797TIP3    H244587   3.308   2.212   1.798 -1.5020  1.9752 -0.9011
 6798TIP3   OH244588   6.540   1.095   2.437 -0.1081  0.0346 -0.1851
 6798TIP3    H144589   6.622   1.092   2.387  0.0182 -0.5064  0.0483
 6798TIP3    H244590   6.484   1.153   2.386  0.4200  0.4076 -0.3499
 6799TIP3   OH244591   2.041   1.421   3.748  0.0149  0.1016 -0.1113
 6799TIP3    H144592   1.949   1.439   3.729 -0.3757 -0.8073  0.8218
 6799TIP3    H244593   2.053   1.330   3.722  0.6246  0.1853 -0.1245
 6800TIP3   OH244594   0.344   1.753   1.695 -0.2649 -0.4356  0.2940
 6800TIP3    H144595   0.379   1.842   1.700  0.6294 -0.7966  0.6778
 6800TIP3    H244596   0.253   1.764   1.667  0.0189  0.5573 -0.2678
 6801TIP3   OH244597   4.474   4.629   1.555  0.2061 -0.2976  0.6795
 6801TIP3    H144598   4.512   4.652   1.471 -1.2650 -0.8831 -0.1753
 6801TIP3    H244599   4.549   4.599   1.607  1.3550  1.4351  0.1182
 6802TIP3   OH244600   2.271   0.855   0.662 -0.2384 -0.0699  0.4731
 6802TIP3    H144601   2.189   0.857   0.612 -1.5181  0.3311  2.4602
 6802TIP3    H244602   2.283   0.945   0.692  0.8702 -0.1556  0.3419
 6803TIP3   OH244603   0.747   5.054   2.060 -0.3589 -0.5305  0.6762
 6803TIP3    H144604   0.817   5.000   2.023  0.9756  1.6356 -0.1415
 6803TIP3    H244605   0.775   5.073   2.149 -0.5230 -0.6667  0.7576
 6804TIP3   OH244606   1.959   1.036   2.691 -0.2553 -0.6828 -0.0175
 6804TIP3    H144607   1.898   0.970   2.723 -0.3957 -1.9453 -2.6088
 6804TIP3    H244608   1.982   1.006   2.603  2.0199  1.1827 -0.1545
 6805TIP3   OH244609   2.104   6.600   2.630  0.1353 -0.3931 -0.0744
 6805TIP3    H144610   2.035   6.543   2.665 -1.0316 -0.2886 -2.0614
 6805TIP3    H244611   2.145   6.638   2.708 -1.4589 -1.1542  1.2040
 6806TIP3   OH244612   6.727   6.698   1.399 -1.0710 -0.0508 -0.2149
 6806TIP3    H144613   6.751   6.611   1.433  0.2329 -0.4910 -2.1057
 6806TIP3    H244614   6.803   6.753   1.418 -1.3247  0.3279 -0.2815
 6807TIP3   OH244615   4.263   7.204   1.742  0.0459 -0.1093 -0.6754
 6807TIP3    H144616   4.334   7.148   1.773 -0.2015  0.1538  0.3847
 6807TIP3    H244617   4.210   7.146   1.687  0.0660 -0.8008  0.0162
 6808TIP3   OH244618   2.825   6.316   1.629 -0.1268  0.3038 -0.1288
 6808TIP3    H144619   2.733   6.314   1.603  0.2731 -1.5764 -1.6323
 6808TIP3    H244620   2.834   6.245   1.692  0.5107 -0.3331 -0.9090
 6809TIP3   OH244621   3.494   1.227   2.231 -0.6017 -0.2919 -0.0919
 6809TIP3    H144622   3.537   1.266   2.155 -0.4616 -0.6687 -0.2083
 6809TIP3    H244623   3.405   1.262   2.230 -0.4017  0.2364 -0.0396
 6810TIP3   OH244624   4.310   5.778   3.030 -0.1351  0.3295 -0.1515
 6810TIP3    H144625   4.371   5.796   2.958  0.3279  0.5219  0.2819
 6810TIP3    H244626   4.234   5.739   2.988  0.5832 -0.5998 -0.6161
 6811TIP3   OH244627   2.150   1.106   1.988 -0.1893  0.1493  0.2389
 6811TIP3    H144628   2.090   1.047   2.034 -1.2966 -0.5611 -1.9841
 6811TIP3    H244629   2.131   1.093   1.896  2.3126  1.1226 -0.4976
 6812TIP3   OH244630   4.754   1.955   1.757 -0.4173  0.4048 -0.1223
 6812TIP3    H144631   4.723   1.865   1.770 -1.4747  0.7583 -0.1300
 6812TIP3    H244632   4.749   1.968   1.662  0.4883  0.2180 -0.2044
 6813TIP3   OH244633   2.678   7.340   1.630 -0.0493  0.0348 -0.0084
 6813TIP3    H144634   2.673   7.416   1.571  0.8484 -0.7204 -1.0993
 6813TIP3    H244635   2.587   7.313   1.642 -0.2420 -0.0689 -1.4427
 6814TIP3   OH244636   7.128   5.504   2.635  0.0318 -0.1144 -0.5886
 6814TIP3    H144637   7.165   5.477   2.719  0.8516  0.3634 -0.7825
 6814TIP3    H244638   7.041   5.465   2.633 -0.0481 -0.0114  0.5460
 6815TIP3   OH244639   0.947   2.776   2.758  0.1847 -0.0369  0.0928
 6815TIP3    H144640   0.936   2.867   2.787  0.3864 -0.4305  1.4727
 6815TIP3    H244641   0.866   2.732   2.784 -0.5689  0.0479 -1.9349
 6816TIP3   OH244642   5.664   4.576   1.864  0.2982  0.1805 -0.8879
 6816TIP3    H144643   5.680   4.484   1.883 -0.0305  0.0296 -1.3358
 6816TIP3    H244644   5.688   4.587   1.772  0.5926  0.6026 -0.7660
 6817TIP3   OH244645   1.791   4.263   1.998 -0.3679 -0.5931 -0.1225
 6817TIP3    H144646   1.722   4.253   1.933  1.5502 -1.0438 -2.2152
 6817TIP3    H244647   1.835   4.178   1.998 -0.1321 -0.5039  1.5917
 6818TIP3   OH244648   5.199   6.194   2.340 -0.5574 -0.2780 -0.2465
 6818TIP3    H144649   5.265   6.245   2.386 -1.9350  0.2265  1.2742
 6818TIP3    H244650   5.239   6.172   2.257  2.2104 -1.5158  1.2867
 6819TIP3   OH244651   6.664   5.123   1.319  0.1967  0.3353  0.7684
 6819TIP3    H144652   6.684   5.105   1.411  0.5998  0.6217  0.7365
 6819TIP3    H244653   6.693   5.045   1.272  1.5484  0.8752  0.6817
 6820TIP3   OH244654   6.914   7.138   1.259  0.0867  0.5321 -0.1028
 6820TIP3    H144655   6.859   7.162   1.185  0.3865  0.5417 -0.3207
 6820TIP3    H244656   6.856   7.088   1.316  0.0373 -0.0609 -0.6671
 6821TIP3   OH244657   5.646   1.105   0.972 -0.4013  0.1377  0.1333
 6821TIP3    H144658   5.734   1.083   0.941 -0.9385 -2.1695  0.0147
 6821TIP3    H244659   5.656   1.113   1.067 -0.2676 -1.7336  0.3300
 6822TIP3   OH244660   5.657   1.994   1.400 -1.0471 -0.1721 -0.0813
 6822TIP3    H144661   5.607   2.063   1.443 -0.5791  0.0119  0.1705
 6822TIP3    H244662   5.749   2.019   1.412 -0.8608 -0.9608  0.2402
 6823TIP3   OH244663   7.015   4.423   0.915  0.0407 -0.8459 -0.3944
 6823TIP3    H144664   7.101   4.412   0.955 -0.1079 -0.9109 -0.0860
 6823TIP3    H244665   7.033   4.436   0.822  0.3014 -2.5141 -0.6014
 6824TIP3   OH244666   7.120   2.737   9.397  0.4797  0.0121 -0.5664
 6824TIP3    H144667   7.151   2.740   9.488 -0.6360 -0.4992 -0.1525
 6824TIP3    H244668   7.065   2.814   9.387 -1.2826 -1.1386 -0.0738
 6825TIP3   OH244669   7.243   5.059   0.896  0.2032  1.0154  0.4343
 6825TIP3    H144670   7.183   5.080   0.968 -0.4326  3.0356 -0.6047
 6825TIP3    H244671   7.315   5.121   0.905  0.3818  0.9404 -0.3676
 6826TIP3   OH244672   2.067   3.400   1.896  0.1088 -0.2003  0.5648
 6826TIP3    H144673   2.047   3.424   1.806 -1.2291 -1.0063  0.6263
 6826TIP3    H244674   2.100   3.481   1.936 -0.8495  0.5907 -0.2079
 6827TIP3   OH244675   5.897   5.438   0.857  0.2441 -0.3495  0.1816
 6827TIP3    H144676   5.933   5.404   0.775 -0.1947 -1.8815  0.5856
 6827TIP3    H244677   5.965   5.420   0.923  0.1807 -0.0422  0.3343
 6828TIP3   OH244678   3.547   1.685   1.693 -0.7137 -0.3201  0.2275
 6828TIP3    H144679   3.615   1.751   1.681 -1.2316  0.4196  1.1906
 6828TIP3    H244680   3.558   1.656   1.784 -1.9348  0.1136  0.5303
 6829TIP3   OH244681   1.875   2.220   3.188 -0.4372  0.5827 -0.3052
 6829TIP3    H144682   1.937   2.266   3.245 -1.2836  2.5271 -0.8979
 6829TIP3    H244683   1.890   2.127   3.208  0.2884  1.1194  2.0351
 6830TIP3   OH244684   4.493   7.262   3.402 -0.1221 -0.2325 -0.4370
 6830TIP3    H144685   4.587   7.246   3.399 -0.0537  0.3034 -1.2845
 6830TIP3    H244686   4.455   7.175   3.416  0.5619 -0.2379  1.6380
 6831TIP3   OH244687   2.859   5.995   2.162  0.4243 -0.0490  0.1402
 6831TIP3    H144688   2.888   5.916   2.116  0.6242  0.2200 -0.2013
 6831TIP3    H244689   2.928   6.059   2.146  0.7561 -0.1141  1.2734
 6832TIP3   OH244690   2.630   4.889   2.261  0.1599 -0.0417 -0.2621
 6832TIP3    H144691   2.611   4.796   2.273 -0.3875  0.3599  2.8205
 6832TIP3    H244692   2.544   4.932   2.259  0.4042  0.4108 -1.6271
 6833TIP3   OH244693   2.883   2.701   2.362 -0.2809 -0.2295 -0.3671
 6833TIP3    H144694   2.824   2.755   2.309 -1.3707 -0.0474  0.9760
 6833TIP3    H244695   2.933   2.651   2.298 -2.2087 -0.7233 -1.5793
 6834TIP3   OH244696   3.387   4.140   2.010  0.5509  0.4881  0.2746
 6834TIP3    H144697   3.402   4.224   1.967 -0.8101 -0.1089 -1.4625
 6834TIP3    H244698   3.317   4.099   1.960  2.2233 -2.3944  0.1007
 6835TIP3   OH244699   6.531   6.517   0.558 -0.7915 -0.1455  0.8399
 6835TIP3    H144700   6.478   6.542   0.482 -1.8530  0.0191  1.6112
 6835TIP3    H244701   6.468   6.485   0.622 -0.0337  0.6840  2.0423
 6836TIP3   OH244702   2.729   2.271   0.716 -0.0443 -0.2741 -0.5297
 6836TIP3    H144703   2.691   2.187   0.741 -0.1718 -0.2645 -0.6898
 6836TIP3    H244704   2.776   2.253   0.634  0.7550 -0.4093 -0.0573
 6837TIP3   OH244705   4.857   3.523   1.313  0.1710  0.2340 -0.7775
 6837TIP3    H144706   4.781   3.543   1.259 -0.5014 -0.8684 -0.2729
 6837TIP3    H244707   4.910   3.464   1.259  0.6132  0.8855 -1.0719
 6838TIP3   OH244708   2.741   0.426   2.015 -0.1482  0.0079  0.3706
 6838TIP3    H144709   2.699   0.366   2.077  0.0440 -0.2772  0.2269
 6838TIP3    H244710   2.823   0.452   2.058 -0.8284  1.1989  1.0094
 6839TIP3   OH244711   0.188   5.238   2.671 -0.0256 -0.0349 -0.2867
 6839TIP3    H144712   0.250   5.165   2.664  1.8796  1.1454  2.4045
 6839TIP3    H244713   0.223   5.304   2.610  0.7564  0.2026  0.4017
 6840TIP3   OH244714   3.598   7.393   1.247  0.5362 -0.2505  0.4014
 6840TIP3    H144715   3.532   7.421   1.310 -1.0326  3.2090 -2.4753
 6840TIP3    H244716   3.554   7.325   1.196 -0.0932  0.6069 -0.2139
 6841TIP3   OH244717   2.922   2.328   2.686 -0.7792  0.0440 -0.2565
 6841TIP3    H144718   2.961   2.396   2.632 -0.7723  0.6053  0.4473
 6841TIP3    H244719   2.829   2.351   2.691 -0.5338  0.8198  1.1505
 6842TIP3   OH244720   4.078   0.549   3.047  0.4132 -0.6865  0.1635
 6842TIP3    H144721   4.085   0.616   3.115  1.4613 -1.4275  0.8080
 6842TIP3    H244722   4.089   0.467   3.094  1.9107 -1.1819 -1.0076
 6843TIP3   OH244723   6.764   1.766   1.020  0.1407 -0.3073 -0.0742
 6843TIP3    H144724   6.674   1.736   1.031  0.3657 -0.3415  1.9955
 6843TIP3    H244725   6.815   1.685   1.014  0.0701 -0.2879 -1.0960
 6844TIP3   OH244726   0.445   5.249   1.495  0.2696 -0.1674  0.1581
 6844TIP3    H144727   0.371   5.262   1.434  2.3392  2.8208 -2.0444
 6844TIP3    H244728   0.510   5.203   1.443  0.7929 -0.7586  1.3190
 6845TIP3   OH244729   2.555   5.514   1.701 -0.4827 -0.0727 -0.1429
 6845TIP3    H144730   2.551   5.609   1.697  1.6252  0.1544  1.1924
 6845TIP3    H244731   2.499   5.490   1.775  0.7662  0.3874  0.9962
 6846TIP3   OH244732   6.501   5.345   0.842 -0.0059  0.6371  0.5004
 6846TIP3    H144733   6.498   5.266   0.896 -1.9748 -1.0656 -1.9000
 6846TIP3    H244734   6.468   5.414   0.899  0.0289 -0.6080  2.1061
 6847TIP3   OH244735   5.881   1.319   2.115 -0.2055  0.1292 -0.4636
 6847TIP3    H144736   5.882   1.231   2.076  1.9372  0.2713 -0.8565
 6847TIP3    H244737   5.973   1.338   2.132 -0.8454  0.8662  2.9493
 6848TIP3   OH244738   3.125   5.081   1.598  0.0037  0.8625  0.2810
 6848TIP3    H144739   3.168   5.034   1.669  1.2263  1.1083 -0.2800
 6848TIP3    H244740   3.170   5.165   1.594  0.2195  0.7066 -1.0287
 6849TIP3   OH244741   2.492   3.878   1.459  0.0238  0.1193  0.1720
 6849TIP3    H144742   2.530   3.792   1.440  0.0110 -0.2929  1.8767
 6849TIP3    H244743   2.456   3.907   1.375 -0.8350 -1.9525 -0.2363
 6850TIP3   OH244744   5.754   5.772   2.755 -0.2193 -0.5229  0.1051
 6850TIP3    H144745   5.761   5.686   2.716 -1.0927  0.5399 -2.5949
 6850TIP3    H244746   5.672   5.807   2.722 -0.2762  1.0738  1.7679
 6851TIP3   OH244747   5.636   3.355   1.977  0.3885 -0.1262  0.4021
 6851TIP3    H144748   5.725   3.390   1.969  1.2739 -2.1962  0.4416
 6851TIP3    H244749   5.648   3.268   2.014 -1.5827 -0.8530 -0.5057
 6852TIP3   OH244750   3.580   7.330   0.609  0.3464  0.1052 -0.7516
 6852TIP3    H144751   3.635   7.310   0.684  0.0121  1.4348 -0.1208
 6852TIP3    H244752   3.604   7.420   0.586 -1.0384  0.4491 -0.9106
 6853TIP3   OH244753   0.169   5.163   0.598  0.0670  0.3774  0.3100
 6853TIP3    H144754   0.151   5.089   0.540  0.8164  0.3278  0.1300
 6853TIP3    H244755   0.087   5.211   0.601 -0.1170  0.1282 -0.4310
 6854TIP3   OH244756   1.760   0.340   0.924  0.0562  0.3505 -0.1801
 6854TIP3    H144757   1.685   0.283   0.907 -0.5795  0.5372  1.7098
 6854TIP3    H244758   1.830   0.281   0.951  0.5377  0.1977 -1.6988
 6855TIP3   OH244759   3.596   3.497   2.295  0.0166  0.0130  0.1769
 6855TIP3    H144760   3.531   3.554   2.335  0.1354  0.0159  0.3631
 6855TIP3    H244761   3.617   3.539   2.211 -0.2364  0.0007  0.1077
 6856TIP3   OH244762   1.518   1.708   2.082 -0.7063 -0.2420  0.2702
 6856TIP3    H144763   1.572   1.753   2.147 -1.5239  1.0385  0.0979
 6856TIP3    H244764   1.430   1.708   2.119 -1.9015  3.3861 -2.0885
 6857TIP3   OH244765   5.290   3.460   2.238  0.4342 -0.3732 -0.0962
 6857TIP3    H144766   5.318   3.425   2.153 -0.5032 -0.2525 -0.4684
 6857TIP3    H244767   5.291   3.384   2.296  1.4061 -0.3915 -0.1243
 6858TIP3   OH244768   3.399   1.066   1.948  0.3119 -0.0528 -0.5673
 6858TIP3    H144769   3.491   1.081   1.927  0.1491  1.4814 -0.2919
 6858TIP3    H244770   3.359   1.042   1.865  1.0267 -1.2114 -0.6069
 6859TIP3   OH244771   4.762   3.819   1.223 -0.4820  0.2539 -0.1053
 6859TIP3    H144772   4.828   3.843   1.158 -0.2151 -0.1046  0.0316
 6859TIP3    H244773   4.702   3.762   1.175  0.4075 -1.0474  0.2643
 6860TIP3   OH244774   0.465   6.784   1.384 -0.6633 -0.1060  0.3194
 6860TIP3    H144775   0.432   6.873   1.367 -0.1923 -0.1771 -1.1023
 6860TIP3    H244776   0.387   6.731   1.397 -1.0203  0.2630 -0.2468
 6861TIP3   OH244777   6.944   5.701   1.425  0.5726  0.7164 -0.2289
 6861TIP3    H144778   6.939   5.733   1.515 -0.7679  1.6837 -0.6142
 6861TIP3    H244779   6.993   5.770   1.379  0.3535  0.7275 -0.4453
 6862TIP3   OH244780   2.279   3.270   1.705 -0.1620 -0.2400  0.4086
 6862TIP3    H144781   2.359   3.266   1.653  1.5685  0.2625  2.9119
 6862TIP3    H244782   2.257   3.363   1.708  0.2260 -0.1739  1.2599
 6863TIP3   OH244783   7.589   3.918   2.488  0.1497 -0.1144 -0.3064
 6863TIP3    H144784   7.520   3.855   2.464 -1.2781  0.8983  0.9781
 6863TIP3    H244785   7.587   3.983   2.418  0.8456 -0.8466 -1.0372
 6864TIP3   OH244786   6.182   3.100   3.231 -0.5569  0.0066 -0.3820
 6864TIP3    H144787   6.105   3.071   3.281 -0.7296  0.5268 -0.3419
 6864TIP3    H244788   6.228   3.019   3.210 -2.0609 -0.5018 -1.9543
 6865TIP3   OH244789   6.309   3.335   1.527  0.1230  0.1020  0.0852
 6865TIP3    H144790   6.244   3.267   1.547 -1.0322  0.9296 -0.7731
 6865TIP3    H244791   6.383   3.286   1.489 -0.9220 -0.6302 -1.0652
 6866TIP3   OH244792   5.486   7.652   1.046 -0.0554  0.2390  0.0313
 6866TIP3    H144793   5.425   7.714   1.085 -2.0591 -0.1668 -2.2183
 6866TIP3    H244794   5.572   7.694   1.054 -0.7672  1.4372  2.0944
 6867TIP3   OH244795   3.611   2.605   1.027  0.1713  0.4357  0.0314
 6867TIP3    H144796   3.598   2.676   1.090  0.6065  0.3180  0.2544
 6867TIP3    H244797   3.551   2.536   1.056 -1.0255  1.0803 -0.7795
 6868TIP3   OH244798   2.178   5.519   3.240  0.0495  0.4327 -0.2944
 6868TIP3    H144799   2.106   5.558   3.189 -0.8636 -0.1229  0.5503
 6868TIP3    H244800   2.136   5.453   3.294  1.4359 -0.9961 -0.9057
 6869TIP3   OH244801   1.121   2.382   0.738 -0.2495  0.6305 -0.3279
 6869TIP3    H144802   1.078   2.463   0.763  1.3519  1.4206  0.0419
 6869TIP3    H244803   1.050   2.324   0.710 -1.5626  1.6669  0.7119
 6870TIP3   OH244804   6.053   0.206   1.175  0.1569 -0.0212  0.1694
 6870TIP3    H144805   6.084   0.185   1.087 -0.8213 -1.8961  0.2355
 6870TIP3    H244806   6.022   0.297   1.168  0.5574  0.0311 -1.2758
 6871TIP3   OH244807   3.424   5.724   2.203 -0.0867 -0.1692  0.5830
 6871TIP3    H144808   3.470   5.769   2.132  1.4231  2.2889  2.9235
 6871TIP3    H244809   3.437   5.631   2.186  0.1907  0.3079 -2.3004
 6872TIP3   OH244810   3.966   4.605   1.740 -0.1081 -0.2506 -0.0774
 6872TIP3    H144811   3.934   4.682   1.693 -0.7539  0.6490  1.7518
 6872TIP3    H244812   4.061   4.606   1.726 -0.0776  1.0087  0.1069
 6873TIP3   OH244813   4.591   6.140   0.973  0.0559 -0.4581 -0.1083
 6873TIP3    H144814   4.556   6.063   1.018  0.4471 -0.4834  0.1625
 6873TIP3    H244815   4.680   6.115   0.948 -0.6576 -0.9846 -2.2693
 6874TIP3   OH244816   0.530   5.495   2.602  0.3956  0.8106  0.2040
 6874TIP3    H144817   0.455   5.521   2.548  0.0977  1.8502  1.0865
 6874TIP3    H244818   0.491   5.474   2.687  1.0627  0.9921  0.5567
 6875TIP3   OH244819   3.544   5.534   2.955 -0.1600  0.4749  0.2456
 6875TIP3    H144820   3.620   5.554   2.900  2.4462  1.2437  3.8221
 6875TIP3    H244821   3.480   5.602   2.932  0.6133  0.5270 -2.0198
 6876TIP3   OH244822   3.650   3.649   2.073  0.8042  0.0109 -0.2689
 6876TIP3    H144823   3.681   3.612   1.990 -1.3285  1.0057 -1.5873
 6876TIP3    H244824   3.661   3.743   2.063 -0.0189  0.1781  0.3229
 6877TIP3   OH244825   7.511   1.496   1.115  0.0039  0.2841 -0.0915
 6877TIP3    H144826   7.502   1.451   1.199 -0.3801  1.0718  0.2970
 6877TIP3    H244827   7.483   1.431   1.051  0.8244 -0.5151  0.3270
 6878TIP3   OH244828   6.640   5.635   2.662  0.2997 -0.8386 -0.2317
 6878TIP3    H144829   6.619   5.684   2.742  0.6846 -0.6379 -0.2527
 6878TIP3    H244830   6.732   5.655   2.645  0.2605 -1.0029 -0.6427
 6879TIP3   OH244831   5.266   3.866   1.629  0.1671 -0.0945 -0.1265
 6879TIP3    H144832   5.241   3.854   1.721 -2.5784  0.1842 -0.7526
 6879TIP3    H244833   5.343   3.811   1.618  0.0069 -0.8735  2.1100
 6880TIP3   OH244834   7.447   4.228   1.244 -0.1246 -0.0357 -0.0016
 6880TIP3    H144835   7.482   4.280   1.317  0.5933 -0.7719  0.1897
 6880TIP3    H244836   7.413   4.149   1.285 -0.5634 -0.0408 -0.3726
 6881TIP3   OH244837   5.254   6.440   2.718 -0.2181  0.1550 -0.2134
 6881TIP3    H144838   5.320   6.421   2.785 -1.2134 -2.9285  0.0107
 6881TIP3    H244839   5.287   6.397   2.639 -1.0933  0.1546 -0.5839
 6882TIP3   OH244840   2.601   7.277   2.969  0.4338  0.1197 -0.6613
 6882TIP3    H144841   2.568   7.199   2.924  0.1137  0.7645 -1.5721
 6882TIP3    H244842   2.620   7.247   3.058 -0.0846 -0.8946 -0.8760
 6883TIP3   OH244843   3.220   7.241   1.001  0.5840 -0.1344 -0.0768
 6883TIP3    H144844   3.158   7.238   0.928  1.1296 -0.4883 -0.5291
 6883TIP3    H244845   3.293   7.295   0.969  0.7445 -0.1397  0.2720
 6884TIP3   OH244846   4.466   6.118   2.059  0.5959  0.6571 -0.3149
 6884TIP3    H144847   4.542   6.161   2.097  2.0282  0.0179 -2.2901
 6884TIP3    H244848   4.431   6.064   2.130  1.1703  1.9549  1.0107
 6885TIP3   OH244849   2.620   0.432   2.950 -0.2649 -0.5172  0.4382
 6885TIP3    H144850   2.687   0.429   3.018  0.1941  2.2526  0.2130
 6885TIP3    H244851   2.538   0.417   2.996 -0.0108  1.7684  1.7573
 6886TIP3   OH244852   3.194   4.173   0.725 -0.0552  0.4673  0.2065
 6886TIP3    H144853   3.225   4.085   0.744  0.5612  0.5153 -0.5173
 6886TIP3    H244854   3.117   4.185   0.781  0.2673 -0.2696  0.8143
 6887TIP3   OH244855   0.387   1.814   2.184 -0.6015  0.0474  0.0142
 6887TIP3    H144856   0.431   1.788   2.103 -0.4319 -0.1215  0.1568
 6887TIP3    H244857   0.425   1.756   2.251 -1.8338 -0.8806 -0.0476
 6888TIP3   OH244858   3.262   4.679   2.552 -0.2065 -0.8913  0.6291
 6888TIP3    H144859   3.178   4.717   2.524  0.4267  0.4458  0.4721
 6888TIP3    H244860   3.246   4.651   2.642 -0.5432  0.3159  0.9699
 6889TIP3   OH244861   5.721   1.082   1.761 -0.5433 -0.1169 -0.2448
 6889TIP3    H144862   5.812   1.105   1.744 -0.4785 -1.9200 -2.8256
 6889TIP3    H244863   5.727   1.006   1.820 -0.4695  0.6022  0.7034
 6890TIP3   OH244864   2.080   2.565   1.621  0.0732  0.0867 -0.0982
 6890TIP3    H144865   2.125   2.626   1.562  0.6336  0.5465  0.7773
 6890TIP3    H244866   2.148   2.535   1.681 -0.6901  0.5029  1.0184
 6891TIP3   OH244867   5.535   5.970   0.713  0.3521 -0.3347  0.0299
 6891TIP3    H144868   5.488   5.987   0.794 -1.4701 -0.7783 -0.8937
 6891TIP3    H244869   5.533   6.053   0.665  0.6221 -0.3216  0.0396
 6892TIP3   OH244870   3.858   0.670   2.018  0.3704 -0.0706  0.3480
 6892TIP3    H144871   3.948   0.650   2.042  0.8754  0.9346 -0.6482
 6892TIP3    H244872   3.807   0.597   2.054  1.4283 -0.1117  1.8335
 6893TIP3   OH244873   0.283   2.464   1.012  0.0331  0.0950 -0.0635
 6893TIP3    H144874   0.331   2.398   1.062  0.2384  1.5233  1.7328
 6893TIP3    H244875   0.273   2.425   0.925  4.9308 -0.1188 -0.7998
 6894TIP3   OH244876   5.566   6.673   3.149 -0.2224  0.4856 -0.1569
 6894TIP3    H144877   5.579   6.614   3.224 -0.7054 -0.2816 -0.6653
 6894TIP3    H244878   5.650   6.718   3.139 -0.3895  1.2001  1.3446
 6895TIP3   OH244879   0.336   7.309   2.652 -0.0601 -0.1375 -0.2156
 6895TIP3    H144880   0.418   7.339   2.690  0.4119 -0.9514 -0.5666
 6895TIP3    H244881   0.339   7.340   2.561  0.4119 -1.1943 -0.5674
 6896TIP3   OH244882   5.144   5.445   2.591  0.5317 -0.0500  0.3064
 6896TIP3    H144883   5.152   5.376   2.657 -0.5854  0.7054  1.2647
 6896TIP3    H244884   5.226   5.494   2.598 -0.5208  1.5148  2.9136
 6897TIP3   OH244885   3.262   6.026   1.623  0.2197  0.0716 -0.0248
 6897TIP3    H144886   3.185   6.080   1.607  1.0568  0.7539 -2.1108
 6897TIP3    H244887   3.298   6.059   1.706  0.7948  2.9474 -1.2734
 6898TIP3   OH244888   1.847   0.071   1.070  0.0818  0.4902 -0.4440
 6898TIP3    H144889   1.759   0.088   1.037 -0.0726  1.6315  0.5008
 6898TIP3    H244890   1.846  -0.022   1.095 -1.1108  0.6868  0.3008
 6899TIP3   OH244891   0.304   5.619   2.439  0.4838 -0.2162  0.4266
 6899TIP3    H144892   0.225   5.666   2.414 -0.4574 -1.2003  1.4417
 6899TIP3    H244893   0.372   5.687   2.444 -0.2086  0.5940 -0.7379
 6900TIP3   OH244894   7.087   1.538   0.486  0.1223 -0.4996  0.3308
 6900TIP3    H144895   7.107   1.631   0.472  0.5741 -0.6198  0.1545
 6900TIP3    H244896   7.164   1.504   0.533 -0.9412 -0.3200  2.3045
 6901TIP3   OH244897   1.947   3.595   1.144 -0.1631 -0.1943  0.3905
 6901TIP3    H144898   1.963   3.513   1.098 -0.6807 -0.4169  0.6045
 6901TIP3    H244899   1.997   3.660   1.095  1.6106 -0.9049  1.2081
 6902TIP3   OH244900   4.719   3.985   2.929  0.6589  0.2782 -0.3778
 6902TIP3    H144901   4.670   3.906   2.907  0.1920  0.8202 -1.3568
 6902TIP3    H244902   4.665   4.057   2.895  0.9154  1.0436  0.7678
 6903TIP3   OH244903   4.752   3.917   3.202  0.2913 -0.7089  0.4018
 6903TIP3    H144904   4.735   3.927   3.108  2.0113 -0.6228  0.0604
 6903TIP3    H244905   4.845   3.896   3.207  0.8405  1.7010  2.2213
 6904TIP3   OH244906   4.935   7.069   1.217  0.1065  0.0349 -0.3621
 6904TIP3    H144907   4.908   7.106   1.133  0.1141 -0.0118 -0.3848
 6904TIP3    H244908   4.912   6.977   1.211  0.4242 -0.0400 -0.4438
 6905TIP3   OH244909   7.612   5.293   0.596  0.4504 -0.8903  0.5209
 6905TIP3    H144910   7.575   5.374   0.631 -1.1756  0.1513 -3.1746
 6905TIP3    H244911   7.544   5.228   0.609  0.8709 -1.1456  1.5057
 6906TIP3   OH244912   0.009   7.509   2.267 -0.2370 -0.0390  0.4366
 6906TIP3    H144913   0.072   7.437   2.272  0.1001  0.1219 -1.0247
 6906TIP3    H244914   0.063   7.588   2.259 -0.6083  0.2001  0.2605
 6907TIP3   OH244915   5.951   0.384   1.537 -0.2804  0.2338 -0.0479
 6907TIP3    H144916   6.021   0.401   1.600 -1.7204  1.8418  1.2039
 6907TIP3    H244917   5.975   0.435   1.460  1.5038 -1.7603 -0.9321
 6908TIP3   OH244918   4.755   2.428   1.320  0.0148  0.2205 -0.1210
 6908TIP3    H144919   4.744   2.351   1.265 -1.6642  1.1922 -1.2253
 6908TIP3    H244920   4.726   2.399   1.407  2.9772 -1.4060  0.4561
 6909TIP3   OH244921   6.139   4.434   2.096 -0.1111  0.2505 -0.6946
 6909TIP3    H144922   6.157   4.393   2.181  1.7132  1.1517 -0.5761
 6909TIP3    H244923   6.067   4.495   2.113  0.4481  0.6584  0.3094
 6910TIP3   OH244924   3.928   1.233   1.451  0.2856 -0.0889 -0.1413
 6910TIP3    H144925   3.889   1.196   1.372 -0.8979 -2.1309  1.2785
 6910TIP3    H244926   4.007   1.180   1.465 -0.9316 -1.6002  1.4184
 6911TIP3   OH244927   3.619   4.528   1.225  0.3930  0.4437 -0.6481
 6911TIP3    H144928   3.637   4.610   1.178 -2.9590  1.3778 -0.5293
 6911TIP3    H244929   3.564   4.554   1.299  0.3143 -1.7808  0.1452
 6912TIP3   OH244930   1.992   5.844   1.761  0.4061 -0.3720 -0.2059
 6912TIP3    H144931   2.023   5.773   1.818 -0.7202 -0.8247 -0.1153
 6912TIP3    H244932   1.929   5.802   1.703 -0.8725  0.6693  0.3577
 6913TIP3   OH244933   2.299   0.587   2.983  0.3374  0.6320 -0.3790
 6913TIP3    H144934   2.292   0.560   2.892 -0.4624 -0.4756 -0.0179
 6913TIP3    H244935   2.317   0.506   3.031 -1.0137  0.9009  0.6360
 6914TIP3   OH244936   4.231   0.953   0.630 -0.4464  0.0273 -0.1829
 6914TIP3    H144937   4.246   1.003   0.711 -3.3183 -1.2025  1.2405
 6914TIP3    H244938   4.296   0.883   0.633  1.6518  1.8439 -0.7020
 6915TIP3   OH244939   5.470   7.573   2.274  0.0559 -0.0596 -0.0114
 6915TIP3    H144940   5.402   7.506   2.284 -2.5956  2.4387  0.0362
 6915TIP3    H244941   5.507   7.555   2.187 -2.0486 -0.3897 -0.9103
 6916TIP3   OH244942   7.483   7.272   2.982  0.3275 -0.7019  0.1777
 6916TIP3    H144943   7.456   7.235   2.898 -0.6989 -0.7284  0.5065
 6916TIP3    H244944   7.413   7.333   3.005  1.6087  0.8937  0.0131
 6917TIP3   OH244945   1.081   2.144   1.899  0.0530 -0.1535  0.4149
 6917TIP3    H144946   0.986   2.157   1.896 -0.2659 -2.1891  0.3713
 6917TIP3    H244947   1.110   2.157   1.809 -0.1462  0.6313  0.4570
 6918TIP3   OH244948   2.369   3.031   1.879 -0.7764 -0.6413  0.2735
 6918TIP3    H144949   2.309   3.068   1.944  0.6625  1.7556  0.3553
 6918TIP3    H244950   2.386   3.103   1.819  0.8037 -1.7281 -0.6444
 6919TIP3   OH244951   1.585   7.441   2.675 -0.2402 -0.2750 -0.0741
 6919TIP3    H144952   1.667   7.490   2.677  0.4415 -1.3742 -0.2027
 6919TIP3    H244953   1.523   7.497   2.721  0.9900 -0.1163  1.4739
 6920TIP3   OH244954   2.205   0.700   2.345  0.6171 -0.3168 -0.4077
 6920TIP3    H144955   2.201   0.621   2.400  0.2368  0.5923  0.9077
 6920TIP3    H244956   2.162   0.674   2.263  1.3623 -1.7583 -0.3812
 6921TIP3   OH244957   1.085   5.786   1.028  0.1238 -0.2245 -0.5647
 6921TIP3    H144958   1.105   5.780   1.121 -1.9489  3.5461  0.3331
 6921TIP3    H244959   1.151   5.847   0.994 -0.7496  0.5279 -0.9319
 6922TIP3   OH244960   2.110   2.412   1.291  0.2001  0.0424 -0.3125
 6922TIP3    H144961   2.155   2.421   1.376 -0.7728  1.1803  0.1203
 6922TIP3    H244962   2.056   2.491   1.285 -1.4102 -1.0612 -1.0032
 6923TIP3   OH244963   0.084   0.614   1.288 -0.0899 -0.1124  0.4235
 6923TIP3    H144964   0.134   0.582   1.364  0.1495  0.2732  0.4296
 6923TIP3    H244965   0.024   0.541   1.267  0.9299 -0.8445 -0.0064
 6924TIP3   OH244966   3.609   1.386   1.819 -0.0678 -0.2416 -0.0052
 6924TIP3    H144967   3.585   1.383   1.727  0.7730 -1.8679 -0.2128
 6924TIP3    H244968   3.624   1.294   1.843  1.9141  0.3078  1.1310
 6925TIP3   OH244969   1.915   1.749   3.023 -0.4432  0.2004  0.7241
 6925TIP3    H144970   1.966   1.686   2.973 -0.9804 -1.2895  1.9453
 6925TIP3    H244971   1.944   1.737   3.114 -0.9041  1.3893  1.0532
 6926TIP3   OH244972   2.897   6.341   2.315 -0.2635 -0.5383  0.1320
 6926TIP3    H144973   2.944   6.422   2.332 -0.0177 -0.5463 -0.5185
 6926TIP3    H244974   2.965   6.274   2.311 -0.3791 -0.6289 -0.3073
 6927TIP3   OH244975   1.281   3.297   2.598  0.0506 -0.1492  0.1072
 6927TIP3    H144976   1.209   3.345   2.639 -0.2284 -0.8773  0.4780
 6927TIP3    H244977   1.244   3.211   2.577  1.1185 -0.9433  1.3507
 6928TIP3   OH244978   6.463   1.438   1.356 -0.0177 -0.1212 -0.2374
 6928TIP3    H144979   6.527   1.462   1.423  0.5825  0.6704 -1.0710
 6928TIP3    H244980   6.485   1.492   1.280 -0.5782 -1.1039 -1.1426
 6929TIP3   OH244981   6.975   4.546   3.559  0.0114 -0.3505 -0.5759
 6929TIP3    H144982   6.948   4.637   3.547  1.0563  0.4186  2.1548
 6929TIP3    H244983   7.064   4.542   3.523  0.6314  0.2062  0.8391
 6930TIP3   OH244984   2.742   7.521   0.865 -0.5233 -1.0068 -0.4821
 6930TIP3    H144985   2.793   7.570   0.929 -1.7516  0.9906 -0.9551
 6930TIP3    H244986   2.678   7.473   0.918 -0.8357 -0.2151 -0.1208
 6931TIP3   OH244987   3.720   0.436   2.147 -0.3548 -0.5812 -0.0550
 6931TIP3    H144988   3.785   0.445   2.217  1.7678  1.3185 -2.1020
 6931TIP3    H244989   3.761   0.375   2.085  0.4654  2.0058 -2.2523
 6932TIP3   OH244990   4.734   3.259   2.313 -0.2221 -0.2699 -0.2107
 6932TIP3    H144991   4.717   3.312   2.235 -1.0591  0.7369  0.6138
 6932TIP3    H244992   4.723   3.169   2.284 -0.3860  0.0821 -1.2843
 6933TIP3   OH244993   2.660   5.469   1.425  0.2312 -0.1124 -0.4369
 6933TIP3    H144994   2.625   5.467   1.514  0.8893 -1.5235 -0.1822
 6933TIP3    H244995   2.591   5.511   1.373 -0.3414  0.3223  0.6510
 6934TIP3   OH244996   5.156   7.314   1.472 -0.0003  0.4180 -0.0675
 6934TIP3    H144997   5.189   7.315   1.382  0.2264  0.3259  0.0144
 6934TIP3    H244998   5.228   7.349   1.524  0.1273 -0.1866  0.1677
 6935TIP3   OH244999   2.407   1.203   2.438 -0.6231 -0.0070  0.1505
 6935TIP3    H145000   2.339   1.137   2.425 -1.4195  0.8838 -0.2526
 6935TIP3    H245001   2.486   1.162   2.403 -0.8139 -1.2501  1.0751
 6936TIP3   OH245002   4.815   3.865   2.170 -0.1706 -0.0799 -0.1286
 6936TIP3    H145003   4.821   3.904   2.257 -1.1970  0.6717 -0.3756
 6936TIP3    H245004   4.797   3.772   2.187  0.2832 -0.0681  0.4589
 6937TIP3   OH245005   4.701   4.864   2.271 -0.5854 -0.2948 -0.4697
 6937TIP3    H145006   4.775   4.865   2.210 -1.4569 -1.2192 -1.5819
 6937TIP3    H245007   4.624   4.871   2.216 -1.3516  3.0757  0.7882
 6938TIP3   OH245008   0.843   1.844   2.010  0.2544 -0.5399  0.5214
 6938TIP3    H145009   0.848   1.749   2.006  1.9868 -0.4546 -2.5987
 6938TIP3    H245010   0.932   1.872   2.031 -0.1612  0.3894  1.0720
 6939TIP3   OH245011   0.524   1.390   3.109 -0.0553  0.0135 -0.5784
 6939TIP3    H145012   0.476   1.471   3.089 -1.2521  0.4557  3.2339
 6939TIP3    H245013   0.462   1.320   3.088 -0.5530  0.3163 -0.1314
 6940TIP3   OH245014   0.961   2.377   1.697 -0.1823 -0.0819 -0.2910
 6940TIP3    H145015   0.934   2.467   1.718 -0.3064 -0.3277  0.6446
 6940TIP3    H245016   1.049   2.387   1.659 -0.3177  0.4521 -0.4850
 6941TIP3   OH245017   0.465   0.785   1.876 -0.5189  0.0330  0.3400
 6941TIP3    H145018   0.532   0.743   1.931 -1.6761  2.3405  3.8316
 6941TIP3    H245019   0.382   0.752   1.910 -1.2906  1.1434 -0.3907
 6942TIP3   OH245020   5.838   3.325   1.449 -0.1852  0.3950 -0.2903
 6942TIP3    H145021   5.835   3.256   1.383  1.6931  0.1974 -0.2252
 6942TIP3    H245022   5.924   3.366   1.437 -0.8082  1.9749  0.4303
 6943TIP3   OH245023   5.014   3.137   2.131 -0.1224  0.5338 -0.1716
 6943TIP3    H145024   4.925   3.108   2.150  0.6999 -1.4637  0.9089
 6943TIP3    H245025   5.056   3.144   2.217  0.9202  0.9123 -0.6981
 6944TIP3   OH245026   5.996   3.828   2.380  0.4588  0.4155  0.0589
 6944TIP3    H145027   6.013   3.899   2.318 -0.5504  0.3586 -0.2969
 6944TIP3    H245028   6.042   3.753   2.344  1.2994  0.8122  0.2884
 6945TIP3   OH245029   3.195   1.576   2.107 -0.1624 -0.0822  0.1201
 6945TIP3    H145030   3.187   1.538   2.195 -0.9428  1.0486  0.5753
 6945TIP3    H245031   3.221   1.667   2.123  2.4430 -0.5708 -0.9577
 6946TIP3   OH245032   4.915   0.372   2.411 -0.0599  0.3187 -0.2510
 6946TIP3    H145033   4.861   0.365   2.490  0.0287  1.2135 -0.1115
 6946TIP3    H245034   4.879   0.305   2.352 -0.5506  0.0978  0.2903
 6947TIP3   OH245035   1.219   1.691   1.429 -0.3490  0.5009  0.1011
 6947TIP3    H145036   1.287   1.640   1.473 -0.2589  0.5122 -0.0265
 6947TIP3    H245037   1.155   1.710   1.498 -0.5169 -0.0111  0.0951
 6948TIP3   OH245038   4.114   0.734   3.234  1.0204  0.0608  0.3179
 6948TIP3    H145039   4.190   0.751   3.290  0.5736 -1.4797  1.4898
 6948TIP3    H245040   4.074   0.820   3.221  2.3392  0.7480  0.5849
 6949TIP3   OH245041   4.631   0.457   1.628 -0.1635  0.3395  1.2171
 6949TIP3    H145042   4.660   0.485   1.714 -0.3128  0.6578  1.1640
 6949TIP3    H245043   4.555   0.512   1.608 -0.3529  0.0225  1.0372
 6950TIP3   OH245044   5.255   5.855   2.372  0.0630  0.2530 -0.2548
 6950TIP3    H145045   5.212   5.900   2.445 -0.1460  1.6521 -1.2076
 6950TIP3    H245046   5.347   5.877   2.381  0.4052 -1.4302  0.8539
 6951TIP3   OH245047   7.295   7.426   1.020 -0.4438  0.5974 -0.6498
 6951TIP3    H145048   7.306   7.333   1.043  0.3067  1.3244  2.2838
 6951TIP3    H245049   7.201   7.436   1.007 -0.8313 -0.1335  1.3383
 6952TIP3   OH245050   2.734   4.054   2.760  0.8194  0.2314 -0.2652
 6952TIP3    H145051   2.794   4.031   2.831  0.6900 -0.2471 -0.3046
 6952TIP3    H245052   2.721   4.148   2.768  1.1257  0.2421  0.0963
 6953TIP3   OH245053   4.054   3.534   1.417 -0.0675 -0.3075  0.0150
 6953TIP3    H145054   4.069   3.556   1.325 -0.7114 -1.2659 -0.3364
 6953TIP3    H245055   3.975   3.480   1.416  0.6061 -1.3526  0.9931
 6954TIP3   OH245056   6.462   3.161   0.847 -0.3054 -0.6626  0.7514
 6954TIP3    H145057   6.512   3.082   0.871  0.5054 -0.0828  1.0063
 6954TIP3    H245058   6.529   3.229   0.840 -0.9179 -0.1572 -0.1758
 6955TIP3   OH245059   4.752   4.350   1.683  0.0877 -0.4592 -0.0738
 6955TIP3    H145060   4.755   4.270   1.630 -0.5645 -0.3975 -0.2180
 6955TIP3    H245061   4.829   4.400   1.656  0.3144 -0.8872 -0.2278
 6956TIP3   OH245062   6.745   4.807   1.650 -0.4314 -0.0622 -0.1662
 6956TIP3    H145063   6.818   4.779   1.596  1.2233  0.4626  1.6985
 6956TIP3    H245064   6.680   4.736   1.642  0.6400 -0.9670 -1.1376
 6957TIP3   OH245065   0.097   6.405   2.687 -0.2171 -0.1145  0.2009
 6957TIP3    H145066   0.110   6.500   2.682  0.6245 -0.2550 -0.3649
 6957TIP3    H245067   0.046   6.393   2.767 -0.6159  0.8439  0.1113
 6958TIP3   OH245068   4.222   2.589   2.201 -0.1648  0.1301 -0.4179
 6958TIP3    H145069   4.226   2.616   2.109  0.2298  0.3913 -0.3255
 6958TIP3    H245070   4.311   2.600   2.234 -0.4262  0.6174  0.1561
 6959TIP3   OH245071   3.050   5.690   2.879  0.3253 -0.2297 -0.1209
 6959TIP3    H145072   3.040   5.642   2.961  0.0304  1.8786  1.1604
 6959TIP3    H245073   2.970   5.671   2.829 -0.1964 -0.3353  0.7448
 6960TIP3   OH245074   1.789   3.297   2.439  0.0755 -0.1035 -0.0314
 6960TIP3    H145075   1.788   3.299   2.344 -0.2057 -0.0956 -0.0290
 6960TIP3    H245076   1.881   3.286   2.462 -0.0535 -2.5045 -0.3462
 6961TIP3   OH245077   7.674   1.168   0.789  0.0728 -0.5005 -0.7218
 6961TIP3    H145078   7.636   1.080   0.786  0.2972 -0.5620 -2.2049
 6961TIP3    H245079   7.769   1.153   0.789  0.1354 -0.2743  0.5738
 6962TIP3   OH245080   6.059   2.298   2.236  0.3190  0.6316  0.9659
 6962TIP3    H145081   5.980   2.267   2.190  2.6123 -2.6127 -1.2100
 6962TIP3    H245082   6.062   2.246   2.317  0.9728 -0.4512  0.2736
 6963TIP3   OH245083   0.591   3.325   1.967  0.1469  0.7735 -0.1514
 6963TIP3    H145084   0.639   3.342   2.048  1.0024 -0.1492 -0.4401
 6963TIP3    H245085   0.657   3.288   1.907 -0.9698 -0.8022 -0.4730
 6964TIP3   OH245086   3.793   7.556   1.957  0.0474 -0.2554 -0.0899
 6964TIP3    H145087   3.813   7.494   2.026  1.6548 -0.9336 -1.1040
 6964TIP3    H245088   3.776   7.502   1.880 -0.1473  0.5136 -0.6052
 6965TIP3   OH245089   2.440   7.117   1.484 -0.7015  0.1125  0.6578
 6965TIP3    H145090   2.350   7.099   1.457 -0.7936  2.7786 -1.2213
 6965TIP3    H245091   2.433   7.188   1.547  0.0440 -0.4183  1.3611
 6966TIP3   OH245092   6.032   2.364   1.178  0.4675  0.0774 -0.0484
 6966TIP3    H145093   6.062   2.327   1.095  0.8126 -0.7157  0.4084
 6966TIP3    H245094   6.093   2.436   1.196 -0.5164  1.2396 -1.1982
 6967TIP3   OH245095   3.098   7.615   1.751 -0.4462  0.2233 -0.2820
 6967TIP3    H145096   3.070   7.706   1.744 -2.3473 -0.2385  0.7503
 6967TIP3    H245097   3.027   7.565   1.710 -0.1726 -0.8860  0.5529
 6968TIP3   OH245098   2.763   5.980   1.623 -0.1924  0.0780  0.4164
 6968TIP3    H145099   2.670   6.001   1.629 -0.6304 -1.3475 -0.8313
 6968TIP3    H245100   2.767   5.903   1.567  1.7595  0.1608  0.3646
 6969TIP3   OH245101   0.297   2.759   0.409 -0.2114  0.1403  0.2739
 6969TIP3    H145102   0.317   2.755   0.315 -0.1386 -0.9455  0.3217
 6969TIP3    H245103   0.350   2.689   0.448  2.3000  2.6246  1.6321
 6970TIP3   OH245104   3.505   2.705   1.590  0.2223 -0.0197 -0.3617
 6970TIP3    H145105   3.414   2.675   1.585  0.7038 -1.3960 -1.9266
 6970TIP3    H245106   3.532   2.685   1.680 -1.4913  2.0079  0.6600
 6971TIP3   OH245107   1.080   4.203   1.831 -0.5429 -0.0830  0.0843
 6971TIP3    H145108   1.024   4.132   1.799 -0.0278 -1.1565  1.4481
 6971TIP3    H245109   1.137   4.224   1.757 -0.3720 -1.4545 -0.1924
 6972TIP3   OH245110   1.405   3.429   0.842  0.2940  0.3362 -0.2962
 6972TIP3    H145111   1.388   3.372   0.917 -0.0114 -0.8760 -1.2683
 6972TIP3    H245112   1.491   3.468   0.861 -0.2029  0.8249  1.1358
 6973TIP3   OH245113   0.144   2.443   1.970 -0.0740  0.2839  0.1723
 6973TIP3    H145114   0.193   2.384   2.027 -0.8226  0.1640  0.7085
 6973TIP3    H245115   0.194   2.524   1.971  0.2247  0.0998  0.5348
 6974TIP3   OH245116   6.976   4.035   0.998  0.5101  0.7569  0.0160
 6974TIP3    H145117   6.909   3.984   1.044 -0.9360 -0.2927 -2.9580
 6974TIP3    H245118   6.966   4.124   1.032 -0.1509 -0.0268  1.9840
 6975TIP3   OH245119   2.332   6.418   0.948  0.2926  0.0655  0.1059
 6975TIP3    H145120   2.404   6.368   0.911 -1.4232 -2.8560  0.3962
 6975TIP3    H245121   2.270   6.427   0.876 -0.7026 -0.9030  0.8047
 6976TIP3   OH245122   0.734   3.734   1.470 -0.2358 -0.0013  0.1288
 6976TIP3    H145123   0.735   3.819   1.514  0.6658 -1.0677  2.3354
 6976TIP3    H245124   0.772   3.751   1.384 -1.3022  2.0358 -0.0100
 6977TIP3   OH245125   3.815   4.495   2.114  0.1696 -0.1045  0.0746
 6977TIP3    H145126   3.795   4.405   2.089  1.0024 -0.4008  0.4187
 6977TIP3    H245127   3.887   4.520   2.056  0.9205 -0.1756  0.9505
 6978TIP3   OH245128   0.754   4.668   0.701  0.1118 -0.3651  0.8908
 6978TIP3    H145129   0.765   4.592   0.644  1.0185 -0.5941  1.3457
 6978TIP3    H245130   0.839   4.714   0.697  0.3099 -0.5600  2.2754
 6979TIP3   OH245131   3.783   7.106   1.582 -0.7127 -0.5416 -0.1561
 6979TIP3    H145132   3.694   7.139   1.582 -0.4412  0.3370 -2.3480
 6979TIP3    H245133   3.838   7.183   1.571  0.4571 -0.9156  2.3662
 6980TIP3   OH245134   3.401   5.384   3.147 -0.6465 -0.3166  0.2014
 6980TIP3    H145135   3.413   5.391   3.241 -0.4599  0.2494  0.1425
 6980TIP3    H245136   3.458   5.452   3.111 -0.0003 -1.1303 -0.3648
 6981TIP3   OH245137   7.008   7.489   1.280 -0.6901  0.1486  0.2801
 6981TIP3    H145138   7.077   7.465   1.341 -1.4530 -0.8574  0.7896
 6981TIP3    H245139   7.034   7.575   1.246  1.9977 -1.1840 -1.3442
 6982TIP3   OH245140   7.059   1.863   2.367  0.0943  0.0702  0.0031
 6982TIP3    H145141   7.122   1.852   2.296 -1.2093  0.7513 -1.3211
 6982TIP3    H245142   7.023   1.775   2.380  1.1147 -0.2736  0.6012
 6983TIP3   OH245143   4.443   3.182   2.169  0.8720  1.1362  0.0635
 6983TIP3    H145144   4.462   3.260   2.221 -2.4158  1.1362  1.4857
 6983TIP3    H245145   4.424   3.216   2.081  2.9369  1.4796 -0.3126
 6984TIP3   OH245146   3.972   1.353   2.388  0.1681 -0.5504 -0.1043
 6984TIP3    H145147   4.053   1.398   2.364  0.2480 -1.1675 -1.0612
 6984TIP3    H245148   3.961   1.371   2.482  1.0164  0.1469 -0.1263
 6985TIP3   OH245149   2.064   2.497   2.208 -0.0438 -0.4832 -0.6039
 6985TIP3    H145150   2.031   2.407   2.204 -0.3958 -0.4362  0.7048
 6985TIP3    H245151   2.108   2.511   2.125 -2.6469 -0.8423 -2.1632
 6986TIP3   OH245152   3.186   1.228   3.178 -0.1951 -0.2413 -0.0080
 6986TIP3    H145153   3.202   1.322   3.172 -0.1737 -0.1303  1.3998
 6986TIP3    H245154   3.091   1.219   3.171 -0.1393 -0.1968 -0.9149
 6987TIP3   OH245155   1.823   7.208   1.960 -0.3042 -0.3248  0.2406
 6987TIP3    H145156   1.782   7.153   2.027  0.3406 -1.1790 -0.0473
 6987TIP3    H245157   1.754   7.223   1.896 -0.1675 -1.8405 -0.2957
 6988TIP3   OH245158   0.503   3.895   1.447 -0.0385 -0.4331 -0.7227
 6988TIP3    H145159   0.564   3.948   1.498 -1.3763 -0.6710  1.2584
 6988TIP3    H245160   0.543   3.808   1.446  0.7804 -0.0637 -1.5184
 6989TIP3   OH245161   0.874   4.964   3.437 -0.5932 -0.3649  0.3688
 6989TIP3    H145162   0.829   5.043   3.406 -0.2065 -0.6216 -0.9440
 6989TIP3    H245163   0.805   4.897   3.440 -0.4376 -0.6272 -1.1339
 6990TIP3   OH245164   0.984   6.767   1.789 -0.9617 -0.4096 -0.3746
 6990TIP3    H145165   0.969   6.791   1.698 -2.1293  0.2070 -0.0447
 6990TIP3    H245166   1.078   6.751   1.795 -1.0716 -1.9875 -2.0294
 6991TIP3   OH245167   3.382   2.377   1.607  0.9145  0.1569 -0.2621
 6991TIP3    H145168   3.331   2.406   1.683  0.4878 -0.7448 -0.1901
 6991TIP3    H245169   3.445   2.315   1.643  2.2516  1.4502 -0.3134
 6992TIP3   OH245170   5.995   6.240   1.404 -0.3769  0.4059 -0.4529
 6992TIP3    H145171   5.969   6.266   1.492 -0.0374  0.5614 -0.3957
 6992TIP3    H245172   5.929   6.279   1.347 -0.1049  1.0540 -0.3330
 6993TIP3   OH245173   0.959   6.890   2.255  0.0107 -0.2583 -0.1484
 6993TIP3    H145174   1.053   6.889   2.238  0.3763 -0.2721  1.7281
 6993TIP3    H245175   0.920   6.888   2.167  1.7411  1.4031 -1.0549
 6994TIP3   OH245176   2.291   4.313   1.889  0.0552  0.0587  0.2645
 6994TIP3    H145177   2.310   4.278   1.976 -2.1510 -0.1708  0.7220
 6994TIP3    H245178   2.261   4.402   1.905  3.0820  1.3816 -0.6589
 6995TIP3   OH245179   3.890   4.885   1.641 -0.0580  0.4577 -0.4214
 6995TIP3    H145180   3.834   4.935   1.700  0.5752  1.6541 -0.7945
 6995TIP3    H245181   3.879   4.929   1.556  2.0098  1.2335 -0.3460
 6996TIP3   OH245182   2.617   4.696   1.182  0.2439 -0.2394  0.3085
 6996TIP3    H145183   2.583   4.610   1.208  0.7003 -0.1850  1.1067
 6996TIP3    H245184   2.547   4.734   1.129 -1.0644 -0.0484  2.0627
 6997TIP3   OH245185   3.503   1.450   2.516 -1.1533  0.1736 -0.2262
 6997TIP3    H145186   3.555   1.492   2.448  0.6203  2.6865  2.4549
 6997TIP3    H245187   3.418   1.495   2.513 -0.9683  0.5062 -0.5133
 6998TIP3   OH245188   4.006   2.203   1.389  0.3170 -0.4345 -0.0547
 6998TIP3    H145189   4.094   2.242   1.385 -0.4885  1.3929 -3.1479
 6998TIP3    H245190   3.991   2.169   1.301 -2.1087 -0.6289  0.3778
 6999TIP3   OH245191   0.758   2.192   2.536  0.3506 -0.1471 -0.4543
 6999TIP3    H145192   0.763   2.153   2.448  0.9962 -0.9290 -0.0891
 6999TIP3    H245193   0.713   2.275   2.523  0.1196 -0.4147 -1.4733
 7000TIP3   OH245194   7.661   5.731   2.796  0.2035  0.2368  0.1706
 7000TIP3    H145195   7.741   5.705   2.751  0.6195  0.8630  0.5174
 7000TIP3    H245196   7.628   5.651   2.837  0.7743  0.0138  0.2009
 7001TIP3   OH245197   7.222   4.511   1.888 -0.2233 -0.0364  0.5177
 7001TIP3    H145198   7.190   4.429   1.926 -0.2570 -0.9598 -1.3895
 7001TIP3    H245199   7.148   4.571   1.895 -0.3565 -0.2993  1.5044
 7002TIP3   OH245200   5.458   3.854   3.424 -0.0150 -0.3451  0.1005
 7002TIP3    H145201   5.423   3.811   3.346  1.6578 -0.4850 -0.6173
 7002TIP3    H245202   5.552   3.836   3.421  0.2409  0.5862  1.5643
 7003TIP3   OH245203   0.888   2.955   0.699  0.2420  0.4263 -0.0912
 7003TIP3    H145204   0.866   3.025   0.638 -1.6468  0.0517  0.0917
 7003TIP3    H245205   0.907   2.999   0.782  0.8089  0.8051 -0.4161
 7004TIP3   OH245206   2.553   6.358   3.486 -0.4370  0.3732 -0.1907
 7004TIP3    H145207   2.612   6.433   3.476 -0.5009  0.4630  0.0786
 7004TIP3    H245208   2.483   6.374   3.424  0.1474 -0.0634 -0.9834
 7005TIP3   OH245209   4.905   1.543   2.788 -0.4942  0.1949 -0.3110
 7005TIP3    H145210   4.843   1.553   2.716 -1.2603  0.3106  0.3482
 7005TIP3    H245211   4.850   1.527   2.865  0.3244 -0.2668  0.1879
 7006TIP3   OH245212   3.208   3.383   1.125  0.0768 -0.5519  0.3598
 7006TIP3    H145213   3.200   3.380   1.220 -0.4236  1.8371  0.4768
 7006TIP3    H245214   3.236   3.473   1.107  1.0372 -1.2059 -1.7134
 7007TIP3   OH245215   7.663   6.825   1.198 -0.3442 -0.1031 -0.0276
 7007TIP3    H145216   7.598   6.783   1.254 -0.9483  1.1358  0.2456
 7007TIP3    H245217   7.742   6.827   1.252 -1.1523  1.8634  1.1870
 7008TIP3   OH245218   2.403   6.728   1.283 -0.0857  0.2110  0.0956
 7008TIP3    H145219   2.439   6.768   1.204 -0.0647 -1.0787 -0.5773
 7008TIP3    H245220   2.442   6.641   1.286  1.2910  0.8131  2.4986
 7009TIP3   OH245221   1.171   1.908   0.779  0.0937  0.0125  0.7896
 7009TIP3    H145222   1.079   1.910   0.752  0.3463  2.3341 -0.1225
 7009TIP3    H245223   1.212   1.846   0.717 -0.7455 -0.7184  0.9357
 7010TIP3   OH245224   2.984   2.797   0.644  0.3679 -0.4880  0.1490
 7010TIP3    H145225   2.931   2.776   0.721 -0.9521 -0.2994 -0.6747
 7010TIP3    H245226   3.027   2.879   0.667 -1.3676  0.5011  0.0853
 7011TIP3   OH245227   7.269   7.084   0.807 -0.7761 -0.0514 -0.1169
 7011TIP3    H145228   7.306   7.161   0.765 -0.7533 -0.2822 -0.5241
 7011TIP3    H245229   7.325   7.012   0.778 -0.5635 -0.1682  0.5631
 7012TIP3   OH245230   4.363   7.147   3.136 -0.3427  0.2611 -0.3468
 7012TIP3    H145231   4.434   7.180   3.081 -1.1413 -0.8894 -2.1672
 7012TIP3    H245232   4.406   7.115   3.214  0.8834  1.6007 -0.4321
 7013TIP3   OH245233   4.409   3.319   1.948 -0.0300 -0.0172  0.7840
 7013TIP3    H145234   4.500   3.312   1.919  0.2566  3.3422  0.4080
 7013TIP3    H245235   4.387   3.411   1.934 -3.9089 -0.9309 -0.2322
 7014TIP3   OH245236   2.601   5.215   1.196  0.0134  0.0858 -0.0128
 7014TIP3    H145237   2.561   5.145   1.246  0.4253  0.0488  0.2718
 7014TIP3    H245238   2.597   5.291   1.254 -0.3105  0.2674 -0.2679
 7015TIP3   OH245239   4.601   0.037   1.303 -0.1474  0.1973  0.4550
 7015TIP3    H145240   4.567   0.114   1.348 -0.9716  0.4595 -0.5777
 7015TIP3    H245241   4.658  -0.005   1.367 -0.2985  1.2388  1.2985
 7016TIP3   OH245242   7.482   5.893   1.482  0.4271  0.1594  0.6232
 7016TIP3    H145243   7.488   5.802   1.452 -1.3621  1.0582 -2.9862
 7016TIP3    H245244   7.391   5.902   1.512  0.5522  0.8128  0.8109
 7017TIP3   OH245245   0.184   0.758   1.993  0.1100 -0.3132 -0.3393
 7017TIP3    H145246   0.210   0.843   2.030  1.0094 -0.5975 -0.2806
 7017TIP3    H245247   0.127   0.780   1.919  0.4666  0.3489 -0.4273
 7018TIP3   OH245248   2.550   6.819   3.230 -0.2074 -0.0453 -0.6656
 7018TIP3    H145249   2.501   6.834   3.311 -1.4107 -1.0639 -1.1760
 7018TIP3    H245250   2.629   6.873   3.240 -0.7167  0.4885  0.8183
 7019TIP3   OH245251   2.258   2.321   1.552  0.2405 -0.2040 -0.6598
 7019TIP3    H145252   2.227   2.253   1.612 -1.1165  0.9988  0.0665
 7019TIP3    H245253   2.233   2.289   1.465  0.4619 -1.0609 -0.4137
 7020TIP3   OH245254   3.391   4.406   2.960  0.1656  0.5447  0.2480
 7020TIP3    H145255   3.367   4.315   2.945 -2.1863  1.2107 -0.4262
 7020TIP3    H245256   3.486   4.407   2.955  0.1835 -1.6500 -0.9575
 7021TIP3   OH245257   0.399   5.414   2.822  0.2060 -0.4106 -0.1599
 7021TIP3    H145258   0.418   5.463   2.902  1.3116 -1.0849  0.0141
 7021TIP3    H245259   0.425   5.324   2.843  1.0989 -0.4859 -1.4609
 7022TIP3   OH245260   2.676   7.214   3.226  0.5669  0.2371 -0.1445
 7022TIP3    H145261   2.719   7.283   3.277  1.9276 -1.2019  0.7487
 7022TIP3    H245262   2.725   7.135   3.248 -3.3964 -1.8899  2.1077
 7023TIP3   OH245263   0.314   1.705   0.792  0.0617 -0.1914  0.7251
 7023TIP3    H145264   0.238   1.669   0.839 -0.8688  0.5426 -0.1645
 7023TIP3    H245265   0.300   1.678   0.701  0.9423 -0.1487  0.5749
 7024TIP3   OH245266   3.593   0.574   1.864  0.7965 -0.2364 -0.7393
 7024TIP3    H145267   3.663   0.537   1.916  0.4023  0.9179  0.6908
 7024TIP3    H245268   3.537   0.500   1.842  0.8520 -0.7408  0.7156
 7025TIP3   OH245269   3.642   1.270   2.634  0.1793  0.0785  0.0315
 7025TIP3    H145270   3.612   1.288   2.724 -1.1198 -0.9366 -0.1693
 7025TIP3    H245271   3.602   1.339   2.582 -2.5185 -1.6243 -0.3303
 7026TIP3   OH245272   2.107   2.969   2.425 -0.2103 -0.1127 -0.2751
 7026TIP3    H145273   2.194   2.985   2.461  0.6912 -0.7355 -2.0337
 7026TIP3    H245274   2.047   2.999   2.493  1.3574 -0.6776  1.4577
 7027TIP3   OH245275   1.516   1.447   0.720 -0.4931 -0.3733  0.2319
 7027TIP3    H145276   1.581   1.419   0.785 -1.0096 -0.9847  0.4966
 7027TIP3    H245277   1.567   1.492   0.652  0.2454 -1.1148  0.2865
 7028TIP3   OH245278   4.420   0.223   1.474  0.1429 -0.0270  0.1212
 7028TIP3    H145279   4.417   0.201   1.567  0.4085  0.8488  0.3407
 7028TIP3    H245280   4.355   0.165   1.434 -0.1219 -0.2643  0.8786
 7029TIP3   OH245281   1.542   2.896   2.491  0.3789  0.1799  0.5360
 7029TIP3    H145282   1.592   2.831   2.541 -0.0723 -0.8816 -0.3478
 7029TIP3    H245283   1.451   2.881   2.516  0.1045 -0.5987 -0.8104
 7030TIP3   OH245284   1.160   0.452   2.979  0.3550  0.5191 -0.4160
 7030TIP3    H145285   1.119   0.538   2.982  0.0648  0.3644  0.2958
 7030TIP3    H245286   1.247   0.468   2.942  1.2884  1.5285  2.0190
 7031TIP3   OH245287   4.914   6.250   2.314 -0.0050 -0.3949  0.3215
 7031TIP3    H145288   5.009   6.250   2.311  0.0329  1.2469  0.3583
 7031TIP3    H245289   4.892   6.192   2.387  0.9671 -0.7504  0.3358
 7032TIP3   OH245290   1.664   2.649   0.976 -0.4970 -0.4027 -0.0785
 7032TIP3    H145291   1.608   2.727   0.972 -1.3235 -0.9097  0.9981
 7032TIP3    H245292   1.752   2.683   0.962 -0.6228  1.0317  2.0495
 7033TIP3   OH245293   0.251   3.130   0.632 -0.5537  0.5089 -0.5138
 7033TIP3    H145294   0.275   3.055   0.687 -1.8781 -0.3888 -1.1070
 7033TIP3    H245295   0.308   3.201   0.663  1.7216 -1.0522 -0.8220
 7034TIP3   OH245296   3.085   0.243   3.037  0.3705 -0.8466  0.2234
 7034TIP3    H145297   3.127   0.224   2.954  0.9041  1.5334 -0.1176
 7034TIP3    H245298   3.143   0.306   3.080 -1.9129  1.2026  0.5169
 7035TIP3   OH245299   0.357   3.368   0.769 -0.1076 -0.1466  0.0413
 7035TIP3    H145300   0.339   3.437   0.706 -0.6953 -0.6462 -0.3537
 7035TIP3    H245301   0.446   3.385   0.800  1.1075 -1.2267 -2.6331
 7036TIP3   OH245302   1.790   7.051   2.343 -0.1614  0.0282 -0.2563
 7036TIP3    H145303   1.857   6.983   2.343  0.0232  0.1276 -2.6381
 7036TIP3    H245304   1.723   7.019   2.282 -0.9167  1.1714 -0.0579
 7037TIP3   OH245305   6.437   3.843   1.135 -0.0435  1.1018 -0.2898
 7037TIP3    H145306   6.360   3.854   1.192  1.1552 -0.1878  1.6836
 7037TIP3    H245307   6.471   3.932   1.124 -0.8292  1.4812  0.2179
 7038TIP3   OH245308   5.307   2.560   8.223  0.0143 -0.5029  0.6343
 7038TIP3    H145309   5.309   2.644   8.268 -0.9204  0.3044 -0.7494
 7038TIP3    H245310   5.397   2.544   8.196 -0.0515  0.8760 -0.4909
 7039TIP3   OH245311   6.194   6.471   2.519 -0.3747  0.1894  0.2607
 7039TIP3    H145312   6.225   6.553   2.557  2.4718 -1.7529  2.6206
 7039TIP3    H245313   6.249   6.458   2.442  0.9003 -0.5396  1.2427
 7040TIP3   OH245314   7.254   4.699   1.152  0.2399  0.0742 -0.3060
 7040TIP3    H145315   7.270   4.742   1.068 -0.0864  0.1260 -0.3428
 7040TIP3    H245316   7.322   4.734   1.210  0.0755  0.5281 -0.3773
 7041TIP3   OH245317   7.276   5.845   3.560  0.6063 -0.0888  0.1213
 7041TIP3    H145318   7.289   5.752   3.580  1.2316  0.4955  2.8849
 7041TIP3    H245319   7.187   5.863   3.589  0.3893  0.1289 -0.6681
 7042TIP3   OH245320   1.240   6.595   2.957 -0.0738  0.4345 -0.7413
 7042TIP3    H145321   1.168   6.631   3.008  0.5852 -1.2473  1.5056
 7042TIP3    H245322   1.199   6.566   2.875 -1.5344  1.3704 -0.3785
 7043TIP3   OH245323   5.416   5.319   1.821 -0.1748  0.1777  0.4142
 7043TIP3    H145324   5.320   5.325   1.818 -0.2889 -0.7745  1.4918
 7043TIP3    H245325   5.437   5.233   1.785  0.1611 -0.1870  1.4386
 7044TIP3   OH245326   2.120   6.582   1.207 -0.1292 -0.2040  0.3148
 7044TIP3    H145327   2.212   6.561   1.193 -0.0699  1.5490 -2.8343
 7044TIP3    H245328   2.104   6.563   1.299  2.9765 -1.9308  0.5920
 7045TIP3   OH245329   0.154   2.009   1.030  0.2478  0.3053 -0.1192
 7045TIP3    H145330   0.156   1.964   1.114 -0.7730  0.2575 -0.1055
 7045TIP3    H245331   0.242   2.000   0.995  1.1557  1.6384  1.6348
 7046TIP3   OH245332   1.245   3.078   0.784 -0.4254 -0.5708 -0.7189
 7046TIP3    H145333   1.219   3.102   0.873 -0.5345 -0.3465 -0.8110
 7046TIP3    H245334   1.168   3.096   0.730  0.0217  0.4522 -1.0495
 7047TIP3   OH245335   2.974   4.378   2.187 -0.9661  0.0307 -0.1284
 7047TIP3    H145336   2.981   4.466   2.224 -0.3991 -0.2711  0.5022
 7047TIP3    H245337   3.062   4.341   2.195 -1.3109 -0.7756  0.0775
 7048TIP3   OH245338   7.370   1.530   1.551 -0.5343 -0.0650 -0.2002
 7048TIP3    H145339   7.339   1.588   1.620 -0.5680 -2.2255  1.7444
 7048TIP3    H245340   7.292   1.511   1.499 -0.2922  2.4316 -1.5815
 7049TIP3   OH245341   6.275   5.536   0.472  0.5406  0.1702 -0.3579
 7049TIP3    H145342   6.368   5.518   0.457  0.4700 -0.7084  0.1629
 7049TIP3    H245343   6.236   5.449   0.487 -0.3486  0.5347 -0.5112
 7050TIP3   OH245344   7.383   5.799   2.705  0.9957  0.5633  0.3211
 7050TIP3    H145345   7.356   5.709   2.723  2.7307  0.4072  2.7275
 7050TIP3    H245346   7.472   5.805   2.742  1.9113  2.6020 -1.9632
 7051TIP3   OH245347   1.767   0.576   2.270  0.0089  0.1283 -0.4773
 7051TIP3    H145348   1.734   0.510   2.330 -0.0023 -1.0193 -1.6847
 7051TIP3    H245349   1.818   0.526   2.206  0.9244  1.4280 -0.8033
 7052TIP3   OH245350   5.427   6.164   0.932  0.1797 -0.5293 -0.3403
 7052TIP3    H145351   5.332   6.162   0.919  0.3037 -1.6756 -1.2219
 7052TIP3    H245352   5.440   6.138   1.023 -0.3248 -0.7900 -0.3448
 7053TIP3   OH245353   4.276   6.661   1.517  0.1244 -0.1598  0.4225
 7053TIP3    H145354   4.306   6.595   1.454  2.0691  2.2445 -1.3677
 7053TIP3    H245355   4.349   6.669   1.579  1.5636  2.6285 -1.4195
 7054TIP3   OH245356   0.884   0.071   2.013  0.2238  0.4406  0.0162
 7054TIP3    H145357   0.844  -0.011   2.040  0.3468  0.5404  0.5244
 7054TIP3    H245358   0.947   0.046   1.946 -0.0931  0.1833 -0.1896
 7055TIP3   OH245359   2.141   5.587   1.777 -0.4836 -0.5754  0.6669
 7055TIP3    H145360   2.165   5.573   1.685 -1.4526 -0.7837  0.4320
 7055TIP3    H245361   2.069   5.526   1.792 -1.2803  0.4471  1.1573
 7056TIP3   OH245362   0.141   4.168   1.732 -0.0887  0.2720 -0.0907
 7056TIP3    H145363   0.204   4.115   1.781  1.4243  2.7970  0.8467
 7056TIP3    H245364   0.107   4.231   1.795  0.5622  2.4627 -1.8025
 7057TIP3   OH245365   6.510   2.786   1.614 -0.1306 -0.4061  0.1540
 7057TIP3    H145366   6.497   2.691   1.612  2.1295 -0.7837  0.4895
 7057TIP3    H245367   6.499   2.814   1.523 -1.2666 -0.8963  0.1261
 7058TIP3   OH245368   0.737   5.116   1.052  0.3005  0.0372 -0.4110
 7058TIP3    H145369   0.804   5.164   1.003  1.6211  0.0977  1.3397
 7058TIP3    H245370   0.743   5.026   1.019  0.7819  0.1839 -0.7382
 7059TIP3   OH245371   0.423   6.036   3.621 -0.3427  0.0020  0.3081
 7059TIP3    H145372   0.492   5.972   3.607 -0.4575 -0.4822  1.8391
 7059TIP3    H245373   0.469   6.117   3.642 -0.2219  0.2446 -0.7909
 7060TIP3   OH245374   2.514   4.372   1.702 -0.4581  0.5191  0.4782
 7060TIP3    H145375   2.430   4.379   1.748 -1.4800 -2.8328 -0.5700
 7060TIP3    H245376   2.557   4.297   1.743  1.0207  0.8120 -0.4740
 7061TIP3   OH245377   0.415   2.242   1.522  0.4871  0.4055 -0.1856
 7061TIP3    H145378   0.391   2.330   1.495 -1.5977  0.2906  1.1032
 7061TIP3    H245379   0.380   2.185   1.454  1.3868  0.5014 -0.7526
 7062TIP3   OH245380   2.203   3.275   0.604 -0.1330  0.0904 -0.0045
 7062TIP3    H145381   2.180   3.242   0.691  0.8569 -0.7497 -0.0490
 7062TIP3    H245382   2.178   3.205   0.544  3.0693 -1.2072  0.0066
 7063TIP3   OH245383   6.077   3.197   2.244 -0.4023  0.2000 -0.0268
 7063TIP3    H145384   6.048   3.134   2.177 -2.6207  0.2341  0.8048
 7063TIP3    H245385   6.138   3.147   2.299 -1.7523 -1.1220  0.3436
 7064TIP3   OH245386   3.939   2.913   3.030  0.5506  0.2315  0.1429
 7064TIP3    H145387   3.971   2.838   3.080  2.4843  1.5048  0.9411
 7064TIP3    H245388   3.889   2.965   3.093 -1.0505 -0.5038 -0.4838
 7065TIP3   OH245389   1.845   6.723   2.925 -0.3368 -0.1535  0.4604
 7065TIP3    H145390   1.837   6.628   2.940  0.9886 -0.3942 -0.2539
 7065TIP3    H245391   1.811   6.762   3.006  0.9135 -1.2987  1.6116
 7066TIP3   OH245392   6.312   5.980   1.964  0.0049 -0.4357  0.1866
 7066TIP3    H145393   6.255   5.953   2.036  0.4742 -0.5315  0.5334
 7066TIP3    H245394   6.337   5.898   1.921 -3.7092 -0.2241 -2.8654
 7067TIP3   OH245395   2.767   2.174   1.345  0.1592  0.2478 -0.2051
 7067TIP3    H145396   2.862   2.188   1.347  0.2757 -0.4945 -0.2687
 7067TIP3    H245397   2.747   2.140   1.432 -0.1119  0.7852 -0.0573
 7068TIP3   OH245398   1.695   1.986   2.273 -0.2125  0.7580 -0.5577
 7068TIP3    H145399   1.737   2.053   2.328 -0.7155  1.2548 -0.7795
 7068TIP3    H245400   1.720   2.009   2.184  0.4530  0.0544 -0.5615
 7069TIP3   OH245401   6.322   0.082   0.740  0.6498 -0.4398 -0.1681
 7069TIP3    H145402   6.296   0.144   0.808 -0.0965 -1.6708  0.7275
 7069TIP3    H245403   6.240   0.038   0.716  1.3259 -1.8363  0.0173
 7070TIP3   OH245404   0.869   4.792   1.578  0.7254 -0.3595 -0.1635
 7070TIP3    H145405   0.894   4.789   1.486 -0.8718  1.5272 -0.7449
 7070TIP3    H245406   0.941   4.839   1.621  1.5571 -1.3926 -0.3934
 7071TIP3   OH245407   6.951   7.331   1.982  0.0492  0.8758  0.1096
 7071TIP3    H145408   6.939   7.310   1.890  0.3016  0.8394  0.0849
 7071TIP3    H245409   6.874   7.294   2.026  0.6556 -0.4204  0.1146
 7072TIP3   OH245410   0.707   3.049   2.720 -0.5843  0.2777  0.7063
 7072TIP3    H145411   0.793   3.073   2.755 -0.2678  0.0496  0.0863
 7072TIP3    H245412   0.663   3.006   2.794  0.3871 -0.9421  0.6141
 7073TIP3   OH245413   7.352   3.168   0.735 -0.0049  0.5108 -0.1484
 7073TIP3    H145414   7.297   3.096   0.704 -1.0520  0.1920  2.2359
 7073TIP3    H245415   7.440   3.145   0.705 -0.8138  0.0089 -2.3370
 7074TIP3   OH245416   3.985   3.471   0.790  0.0348 -0.0345 -0.6032
 7074TIP3    H145417   3.890   3.474   0.786 -0.2123 -3.1166  0.4428
 7074TIP3    H245418   4.009   3.399   0.731  1.5972 -0.2124  0.2022
 7075TIP3   OH245419   0.989   6.792   1.507 -0.2928 -0.4265 -0.0866
 7075TIP3    H145420   1.038   6.827   1.432 -0.5201  0.9625  0.3761
 7075TIP3    H245421   0.898   6.815   1.489 -0.2378  0.8139  1.0456
 7076TIP3   OH245422   2.673   3.037   0.359 -0.3345 -0.2052 -0.4103
 7076TIP3    H145423   2.657   3.124   0.395  0.8147  0.6923 -1.9949
 7076TIP3    H245424   2.617   3.032   0.282 -1.7209 -1.5874  0.6091
 7077TIP3   OH245425   4.924   5.653   2.151  0.1563  0.2848  0.3091
 7077TIP3    H145426   4.938   5.747   2.166  0.4770  0.3546 -0.3837
 7077TIP3    H245427   4.993   5.611   2.203  0.1277  0.4407  0.4748
 7078TIP3   OH245428   5.441   3.793   3.124 -0.9352 -0.1583  0.2401
 7078TIP3    H145429   5.483   3.717   3.162  0.5763  0.3779 -0.2843
 7078TIP3    H245430   5.356   3.799   3.169 -0.2019 -0.9035  1.7873
 7079TIP3   OH245431   3.220   2.301   0.431  0.1660  0.2625  0.2420
 7079TIP3    H145432   3.161   2.375   0.419 -0.2519 -0.0282  0.4629
 7079TIP3    H245433   3.255   2.313   0.519 -0.6263 -0.2977  0.6499
 7080TIP3   OH245434   4.592   2.954   3.099  0.5384 -0.3656  0.9254
 7080TIP3    H145435   4.632   2.868   3.107 -0.2087 -0.8438 -0.1923
 7080TIP3    H245436   4.666   3.013   3.083  1.2615 -0.4515  3.5923
 7081TIP3   OH245437   3.243   6.285   2.539  0.0771  0.1193  0.0614
 7081TIP3    H145438   3.264   6.220   2.606  1.9143 -0.3029 -0.8746
 7081TIP3    H245439   3.292   6.363   2.566 -0.6739  0.5490  0.2021
 7082TIP3   OH245440   2.551   5.931   1.915  0.0878  0.3548  0.4639
 7082TIP3    H145441   2.577   5.842   1.892 -0.0394  0.0835  1.3455
 7082TIP3    H245442   2.556   5.979   1.832  0.0671 -0.4854 -0.0388
 7083TIP3   OH245443   0.719   3.774   2.452 -0.3229  0.1881 -0.0222
 7083TIP3    H145444   0.651   3.835   2.480  0.7777  1.3804  0.1620
 7083TIP3    H245445   0.722   3.708   2.522  0.6268  1.7087  1.4474
 7084TIP3   OH245446   6.593   2.129   0.823  0.4187  0.0896  0.2035
 7084TIP3    H145447   6.528   2.059   0.825 -0.2082  0.6576 -0.1851
 7084TIP3    H245448   6.587   2.170   0.909 -0.7396  1.0433 -0.3152
 7085TIP3   OH245449   4.524   0.719   1.356 -0.5403  0.0959 -0.3145
 7085TIP3    H145450   4.474   0.680   1.428 -2.3488  0.8878 -1.0834
 7085TIP3    H245451   4.462   0.779   1.314  0.9972  0.9045 -1.5002
 7086TIP3   OH245452   2.787   6.878   2.773  0.6345  0.2787 -0.2325
 7086TIP3    H145453   2.747   6.800   2.735 -0.4830 -0.0611  1.4904
 7086TIP3    H245454   2.715   6.939   2.785  0.1571 -0.7706  3.9985
 7087TIP3   OH245455   2.368   5.918   1.123 -0.1995  0.0369 -0.3695
 7087TIP3    H145456   2.293   5.921   1.182 -0.3010  0.2623 -0.5111
 7087TIP3    H245457   2.332   5.940   1.037 -0.5449 -2.6518 -1.0201
 7088TIP3   OH245458   0.670   6.781   3.160 -0.1635 -0.4939 -0.1814
 7088TIP3    H145459   0.649   6.773   3.067 -2.8135  0.5613  0.2395
 7088TIP3    H245460   0.662   6.875   3.179  1.6630 -0.5079  0.8545
 7089TIP3   OH245461   7.228   3.867   1.767 -0.0327  0.3900 -0.2321
 7089TIP3    H145462   7.286   3.869   1.843  0.2284 -0.2968 -0.4066
 7089TIP3    H245463   7.287   3.856   1.692 -0.3211  0.6388 -0.4994
 7090TIP3   OH245464   5.103   2.689   3.473 -0.1244 -0.0120 -0.1133
 7090TIP3    H145465   5.190   2.707   3.438 -0.6295 -2.0823 -2.7801
 7090TIP3    H245466   5.111   2.602   3.513 -0.6872  0.3441  0.8112
 7091TIP3   OH245467   2.825   5.529   1.042 -0.2094 -0.2607 -0.4640
 7091TIP3    H145468   2.745   5.489   1.009 -2.1940  1.3611  2.0337
 7091TIP3    H245469   2.821   5.620   1.011 -0.6461  0.4846  1.6207
 7092TIP3   OH245470   1.511   2.437   1.118 -0.0799  0.3591 -0.5835
 7092TIP3    H145471   1.600   2.427   1.085 -0.6620 -0.7247 -1.8915
 7092TIP3    H245472   1.455   2.402   1.049 -1.4131 -1.1192  1.1450
 7093TIP3   OH245473   6.331   3.932   2.783 -0.1714  0.2828  0.2934
 7093TIP3    H145474   6.324   3.878   2.704 -0.2341  0.2863  0.2965
 7093TIP3    H245475   6.291   3.879   2.852 -1.4683  0.8816  0.0277
 7094TIP3   OH245476   4.524   6.120   2.700  0.0701  0.3042 -0.6772
 7094TIP3    H145477   4.537   6.190   2.635 -1.2688  2.4646  1.2416
 7094TIP3    H245478   4.455   6.153   2.757  1.1640 -1.4833  1.8595
 7095TIP3   OH245479   4.637   2.607   1.740 -0.3774 -0.2844 -0.3058
 7095TIP3    H145480   4.628   2.666   1.665  1.2801  0.5580  0.0971
 7095TIP3    H245481   4.597   2.655   1.813 -0.9562 -0.6078 -0.4035
 7096TIP3   OH245482   6.551   6.123   0.634 -0.0832 -0.3365  0.0985
 7096TIP3    H145483   6.565   6.117   0.540  0.1251 -0.8080  0.1589
 7096TIP3    H245484   6.468   6.171   0.643  0.8746  1.4766 -0.2797
 7097TIP3   OH245485   5.709   4.964   2.360  0.1313  0.5201  0.1030
 7097TIP3    H145486   5.707   5.038   2.299 -2.2479 -1.2324 -2.1369
 7097TIP3    H245487   5.781   4.910   2.329 -0.5433  0.0483 -0.6701
 7098TIP3   OH245488   0.251   1.052   0.700 -0.1738  0.0643 -0.0335
 7098TIP3    H145489   0.328   1.104   0.678 -0.6307  0.5125 -0.5929
 7098TIP3    H245490   0.271   0.965   0.666 -0.0567  0.2672 -0.4928
 7099TIP3   OH245491   2.250   0.080   2.086  0.0826 -0.1691  0.1589
 7099TIP3    H145492   2.267   0.148   2.152  0.9593 -1.2924  1.1407
 7099TIP3    H245493   2.331   0.077   2.035  0.3827 -1.0287  0.6627
 7100TIP3   OH245494   4.521   4.259   3.090  0.6404 -0.3739 -0.0566
 7100TIP3    H145495   4.466   4.189   3.126  2.5358 -0.6233  2.6795
 7100TIP3    H245496   4.490   4.338   3.134  0.4572  0.0251 -0.8867
 7101TIP3   OH245497   5.236   5.498   2.989 -0.5039  0.6441 -0.1038
 7101TIP3    H145498   5.305   5.543   2.940  0.1021  1.7973  1.7329
 7101TIP3    H245499   5.174   5.567   3.012 -1.5712 -0.1436 -0.4843
 7102TIP3   OH245500   6.439   7.058   0.879 -0.5275  0.1882  0.1717
 7102TIP3    H145501   6.387   7.134   0.852 -1.3752 -0.4611 -0.0830
 7102TIP3    H245502   6.451   7.070   0.974 -0.8586  0.5167  0.1775
 7103TIP3   OH245503   5.787   7.508   3.027  0.2376 -0.3362  0.0520
 7103TIP3    H145504   5.810   7.442   3.092  1.4325 -1.0503 -1.0348
 7103TIP3    H245505   5.729   7.463   2.965 -2.8234  0.9532  1.7575
 7104TIP3   OH245506   2.420   0.235   1.921  0.1161  0.6909  0.3180
 7104TIP3    H145507   2.409   0.210   1.829 -0.9330 -0.9286  0.8305
 7104TIP3    H245508   2.496   0.184   1.950  0.8456  1.6837  0.2177
 7105TIP3   OH245509   6.721   2.598   0.942 -0.7496 -0.0940 -0.2588
 7105TIP3    H145510   6.750   2.558   1.024 -0.4749  0.4672 -0.0710
 7105TIP3    H245511   6.702   2.689   0.965  2.8638  1.1438 -1.4699
 7106TIP3   OH245512   6.247   2.728   2.464  0.3004  0.8950 -0.2625
 7106TIP3    H145513   6.292   2.748   2.546 -0.1814  0.6652  0.0666
 7106TIP3    H245514   6.154   2.730   2.488  0.1480  1.0962 -0.8662
 7107TIP3   OH245515   4.813   7.326   2.634 -0.2534  0.4493  0.0249
 7107TIP3    H145516   4.793   7.258   2.698 -0.5425 -0.3112 -0.8426
 7107TIP3    H245517   4.881   7.287   2.578 -0.2388  0.9712 -0.3266
 7108TIP3   OH245518   5.011   0.840   1.354 -0.6667  0.0157 -0.2729
 7108TIP3    H145519   5.036   0.795   1.273 -0.8488  0.7456 -0.7404
 7108TIP3    H245520   4.944   0.784   1.393  0.0162 -0.7666 -0.1969
 7109TIP3   OH245521   3.760   6.106   2.562 -0.2888  0.8214  0.2196
 7109TIP3    H145522   3.796   6.021   2.588 -1.5647  0.8434  2.2559
 7109TIP3    H245523   3.731   6.093   2.472  0.2957 -0.6374  0.2167
 7110TIP3   OH245524   0.456   2.987   2.567 -0.6991  0.0092  0.8110
 7110TIP3    H145525   0.388   2.962   2.629  0.1394 -1.1490  1.2983
 7110TIP3    H245526   0.529   3.016   2.622 -0.5160  0.4895  0.3209
 7111TIP3   OH245527   4.260   1.925   1.318 -0.2266  0.3735 -0.4451
 7111TIP3    H145528   4.273   1.842   1.272 -1.8112  0.6114 -1.4016
 7111TIP3    H245529   4.205   1.902   1.393 -0.6951  0.5546 -0.7294
 7112TIP3   OH245530   2.666   6.661   2.672 -0.0704 -0.6642 -0.0292
 7112TIP3    H145531   2.574   6.661   2.698 -0.5486 -0.2333 -1.6216
 7112TIP3    H245532   2.669   6.612   2.590  0.8646  0.5284 -0.7544
 7113TIP3   OH245533   5.222   1.509   1.419 -0.0064  0.2713  0.0666
 7113TIP3    H145534   5.154   1.444   1.436 -0.0939 -0.0502 -1.4054
 7113TIP3    H245535   5.183   1.592   1.448 -1.3791  0.2221 -1.4720
 7114TIP3   OH245536   6.523   5.403   2.591 -0.2666  0.0330  0.0793
 7114TIP3    H145537   6.594   5.349   2.557  0.1758  0.4556  0.3192
 7114TIP3    H245538   6.565   5.483   2.621 -1.2061  1.7188 -2.7393
 7115TIP3   OH245539   7.572   2.741   2.549  0.1209  0.2566 -0.0590
 7115TIP3    H145540   7.569   2.832   2.520  1.4444  0.6626  0.9576
 7115TIP3    H245541   7.498   2.699   2.505  0.3358  1.4803 -1.6573
 7116TIP3   OH245542   7.154   0.044   1.212 -0.3293 -0.3175 -0.4771
 7116TIP3    H145543   7.159   0.109   1.283 -0.9548 -0.6135 -0.1566
 7116TIP3    H245544   7.160   0.096   1.132 -1.7976  0.2470 -0.2411
 7117TIP3   OH245545   2.319   5.159   1.998 -0.1803  0.3734  0.3441
 7117TIP3    H145546   2.294   5.129   1.910 -0.9953  0.7221  0.4389
 7117TIP3    H245547   2.333   5.253   1.988 -3.1889  1.0362  1.1073
 7118TIP3   OH245548   0.276   4.792   2.155 -0.2933 -0.0582 -0.0416
 7118TIP3    H145549   0.365   4.801   2.121 -0.9287 -2.4574 -2.7761
 7118TIP3    H245550   0.257   4.876   2.196  3.2219  0.4906  0.7629
 7119TIP3   OH245551   0.285   4.147   3.490 -0.7159  0.0115  0.0528
 7119TIP3    H145552   0.190   4.147   3.497 -0.8246  0.4626 -1.0735
 7119TIP3    H245553   0.309   4.055   3.484 -1.0373 -0.1237  0.8084
 7120TIP3   OH245554   7.206   4.344   3.218 -0.0880 -0.7167 -0.5337
 7120TIP3    H145555   7.180   4.255   3.241  1.2931 -1.0998 -0.3548
 7120TIP3    H245556   7.299   4.336   3.193  0.0350  0.6540 -0.5914
 7121TIP3   OH245557   3.483   7.622   2.451  0.1923  0.0326  0.3607
 7121TIP3    H145558   3.436   7.699   2.419 -0.7517 -0.4925  0.4207
 7121TIP3    H245559   3.574   7.649   2.455  0.3785  0.1792 -2.6406
 7122TIP3   OH245560   3.843   4.443   0.890 -0.7557 -0.7341  0.7012
 7122TIP3    H145561   3.888   4.359   0.881 -1.6843 -1.4363  2.2783
 7122TIP3    H245562   3.903   4.498   0.940 -0.0211 -0.3094 -0.5812
 7123TIP3   OH245563   6.539   7.535   0.372  0.1153  0.1228  0.5327
 7123TIP3    H145564   6.492   7.607   0.414 -0.3067  0.6632 -0.7889
 7123TIP3    H245565   6.477   7.462   0.372  0.2271  0.0225  1.0892
 7124TIP3   OH245566   0.055   5.310   2.886  0.1986  0.3807 -0.0822
 7124TIP3    H145567   0.056   5.223   2.926  2.0715  0.4451  0.0955
 7124TIP3    H245568   0.116   5.304   2.812  1.7872  1.9796  1.0021
 7125TIP3   OH245569   4.236   3.745   0.842 -0.6566  0.1356  0.5628
 7125TIP3    H145570   4.255   3.653   0.859  2.4664  0.1176 -1.9740
 7125TIP3    H245571   4.286   3.766   0.763 -1.3690  3.9888  0.8981
 7126TIP3   OH245572   7.014   1.899   1.689  0.0608 -0.3705  0.3524
 7126TIP3    H145573   7.015   1.861   1.777  0.3766  0.9801  0.9504
 7126TIP3    H245574   6.923   1.889   1.660 -0.4174  0.5685  1.4658
 7127TIP3   OH245575   6.449   6.565   2.761  0.1500  0.2426  0.5925
 7127TIP3    H145576   6.404   6.502   2.817 -0.2127 -0.5536 -0.5614
 7127TIP3    H245577   6.457   6.643   2.816 -2.4154  0.3525  0.9808
 7128TIP3   OH245578   4.053   1.028   1.089 -0.1200 -0.7591  0.5999
 7128TIP3    H145579   3.980   0.966   1.084  2.1346 -3.6301  0.3383
 7128TIP3    H245580   4.082   1.023   1.180  0.3522 -0.4146  0.4694
 7129TIP3   OH245581   4.393   4.066   2.798  0.2342  0.3079  0.9079
 7129TIP3    H145582   4.333   4.021   2.857  0.2900 -1.4222 -0.3162
 7129TIP3    H245583   4.348   4.068   2.714  1.6492 -0.5546  0.0990
 7130TIP3   OH245584   4.695   5.703   1.640  0.2590  0.4170  0.1515
 7130TIP3    H145585   4.769   5.763   1.650  1.2803 -0.8539  0.5998
 7130TIP3    H245586   4.643   5.715   1.719  0.1289  1.1104 -0.0307
 7131TIP3   OH245587   5.363   6.827   1.520  0.3683 -0.0865  0.3392
 7131TIP3    H145588   5.366   6.761   1.589  1.5558 -0.5197 -0.0987
 7131TIP3    H245589   5.408   6.787   1.445 -0.5135  0.5314 -0.5561
 7132TIP3   OH245590   0.523   3.668   0.474 -0.2596  0.1198  0.4019
 7132TIP3    H145591   0.451   3.709   0.522 -2.0596 -1.6549 -0.6299
 7132TIP3    H245592   0.485   3.646   0.389  2.4513  2.0101 -1.4430
 7133TIP3   OH245593   1.806   2.836   2.882 -0.3902 -0.1205 -1.0254
 7133TIP3    H145594   1.830   2.917   2.925 -1.2504 -0.0499 -0.6509
 7133TIP3    H245595   1.801   2.772   2.953 -1.8493  0.0049 -0.9766
 7134TIP3   OH245596   1.139   4.468   0.493  0.4626 -0.6531 -0.0668
 7134TIP3    H145597   1.083   4.546   0.489  1.2948 -0.0130  0.5264
 7134TIP3    H245598   1.167   4.463   0.584 -0.7749 -2.5223  0.2657
 7135TIP3   OH245599   4.252   0.711   1.803 -0.3096 -0.0369  0.1001
 7135TIP3    H145600   4.204   0.769   1.862  0.1938  0.4217  0.0698
 7135TIP3    H245601   4.327   0.681   1.855 -1.9151 -2.8003  1.0484
 7136TIP3   OH245602   7.352   5.797   2.038  0.3336 -0.3941  0.0400
 7136TIP3    H145603   7.291   5.751   1.981 -0.7382  0.2080  0.6600
 7136TIP3    H245604   7.335   5.762   2.126  0.5219  0.1434  0.3002
 7137TIP3   OH245605   2.605   1.760   0.870 -0.4243 -0.6582 -0.7137
 7137TIP3    H145606   2.587   1.762   0.964 -0.6860  2.4109 -0.7414
 7137TIP3    H245607   2.699   1.742   0.863 -0.5148 -1.4850  0.0884
 7138TIP3   OH245608   3.226   0.601   2.011 -0.1166 -0.1203 -0.2751
 7138TIP3    H145609   3.316   0.598   2.044 -0.0404 -0.0394 -0.4687
 7138TIP3    H245610   3.230   0.553   1.928 -0.3770 -0.6098 -0.0063
 7139TIP3   OH245611   0.846   0.711   1.257 -1.0064 -0.0577 -0.2655
 7139TIP3    H145612   0.845   0.727   1.352 -0.8004  1.0818 -0.4463
 7139TIP3    H245613   0.768   0.755   1.224 -0.6977  0.1584 -0.7174
 7140TIP3   OH245614   2.061   1.935   3.629 -0.3352 -0.5759 -0.0928
 7140TIP3    H145615   1.971   1.924   3.598  0.2581  0.2913 -2.2612
 7140TIP3    H245616   2.098   1.846   3.627 -1.3813 -1.1243  1.8312
 7141TIP3   OH245617   3.765   5.658   2.832  0.0366  0.0144 -0.4856
 7141TIP3    H145618   3.809   5.579   2.862 -1.1661 -0.7270 -0.6092
 7141TIP3    H245619   3.767   5.652   2.736  2.4198  1.5668 -0.6271
 7142TIP3   OH245620   6.901   5.345   0.645  0.0864 -0.2303  0.2366
 7142TIP3    H145621   6.904   5.284   0.718  1.2148 -1.3672 -0.6976
 7142TIP3    H245622   6.962   5.414   0.669  2.0952 -1.6646 -0.4558
 7143TIP3   OH245623   5.367   4.604   1.862  0.1310  0.1523  0.2563
 7143TIP3    H145624   5.355   4.647   1.777 -1.0028  0.4685  0.5600
 7143TIP3    H245625   5.460   4.613   1.881  0.0657  1.7991 -0.0632
 7144TIP3   OH245626   4.091   5.277   3.069  0.1224 -0.3110  0.1410
 7144TIP3    H145627   4.114   5.195   3.112  1.4494 -0.4927 -0.8522
 7144TIP3    H245628   4.047   5.328   3.137  2.1945 -0.5595  1.7828
 7145TIP3   OH245629   1.824   5.783   2.796 -0.2662 -0.0258 -0.3662
 7145TIP3    H145630   1.746   5.831   2.769  0.7875  1.0153 -1.6687
 7145TIP3    H245631   1.869   5.841   2.857 -0.7599 -0.8620  0.8405
 7146TIP3   OH245632   1.654   3.522   2.123 -0.1190  0.4511 -0.9052
 7146TIP3    H145633   1.573   3.572   2.134  1.5186  3.0720  0.3260
 7146TIP3    H245634   1.716   3.564   2.183  2.1444 -1.5249 -1.7031
 7147TIP3   OH245635   6.345   1.930   1.991 -0.4128 -1.0280 -0.2626
 7147TIP3    H145636   6.367   1.934   2.084  0.8548  1.1635 -0.5863
 7147TIP3    H245637   6.251   1.912   1.989 -0.5780 -0.5103  1.4551
 7148TIP3   OH245638   2.641   3.927   0.977 -0.3887  0.4391 -1.1106
 7148TIP3    H145639   2.597   4.012   0.974 -0.5147  0.4328  0.1163
 7148TIP3    H245640   2.707   3.936   1.045  1.8571  0.5774 -3.1883
 7149TIP3   OH245641   2.070   6.208   2.636 -0.0466  0.6474 -0.7910
 7149TIP3    H145642   2.001   6.265   2.670  1.1848  0.6738  1.9026
 7149TIP3    H245643   2.043   6.120   2.664  0.7758  0.6098 -0.0866
 7150TIP3   OH245644   4.539   4.064   1.677 -0.2538 -0.3236 -0.1372
 7150TIP3    H145645   4.584   4.005   1.736  0.5792 -0.1700 -0.6114
 7150TIP3    H245646   4.551   4.026   1.590 -2.0079 -0.8936 -0.1829
 7151TIP3   OH245647   7.129   7.168   2.240  0.0856 -0.1603 -0.2186
 7151TIP3    H145648   7.217   7.147   2.272 -0.4536 -1.4358  0.5384
 7151TIP3    H245649   7.121   7.263   2.252  0.1617 -0.4315  3.0279
 7152TIP3   OH245650   2.485   1.118   1.758  0.3031  0.3050 -0.5922
 7152TIP3    H145651   2.561   1.172   1.741  1.1845 -0.6512  0.1399
 7152TIP3    H245652   2.516   1.051   1.819 -1.1085 -0.1421 -0.3110
 7153TIP3   OH245653   0.591   7.504   1.791 -0.1103 -0.4581  0.1658
 7153TIP3    H145654   0.545   7.437   1.740  3.0460 -2.0828 -0.8813
 7153TIP3    H245655   0.653   7.543   1.729  0.0175  1.5387  1.4490
 7154TIP3   OH245656   4.718   4.189   2.385 -0.0229  0.1075  0.1981
 7154TIP3    H145657   4.682   4.272   2.416 -1.0608 -0.8948  1.8491
 7154TIP3    H245658   4.734   4.203   2.292 -1.8564  1.6131  0.0391
 7155TIP3   OH245659   2.102   4.719   2.601 -0.7241  0.1776 -0.2883
 7155TIP3    H145660   2.101   4.646   2.663 -3.7611  0.2988 -0.0249
 7155TIP3    H245661   2.133   4.682   2.519 -2.0160 -1.4082 -0.1012
 7156TIP3   OH245662   6.144   1.982   1.074  0.2253 -0.0680 -0.2512
 7156TIP3    H145663   6.235   2.011   1.075 -0.0553  0.8627 -0.8951
 7156TIP3    H245664   6.130   1.945   1.161  0.9557  0.5935  0.1629
 7157TIP3   OH245665   2.540   2.592   3.480  0.1601 -0.2469 -0.7883
 7157TIP3    H145666   2.608   2.584   3.546 -1.2487  1.5672  1.0038
 7157TIP3    H245667   2.568   2.665   3.426 -0.4486  0.6807  0.1194
 7158TIP3   OH245668   6.952   2.155   3.126 -0.5876  0.6024 -0.8750
 7158TIP3    H145669   7.044   2.127   3.118 -0.5315  0.5494 -0.1227
 7158TIP3    H245670   6.956   2.250   3.117 -0.4560  0.6053 -0.7979
 7159TIP3   OH245671   3.477   4.388   1.952  0.7012 -0.3655 -0.2597
 7159TIP3    H145672   3.434   4.443   1.886  0.3573 -1.1865 -0.7493
 7159TIP3    H245673   3.439   4.416   2.035  1.4083  0.9315 -0.3577
 7160TIP3   OH245674   4.050   2.814   1.932 -0.1004 -0.5337 -0.8788
 7160TIP3    H145675   4.089   2.874   1.868  0.5958 -0.6433 -0.5707
 7160TIP3    H245676   4.119   2.749   1.948 -0.4514 -0.7889 -0.3881
 7161TIP3   OH245677   2.401   0.154   1.669  0.1059 -0.6392  0.4318
 7161TIP3    H145678   2.470   0.166   1.604  0.8308 -0.0708  1.2800
 7161TIP3    H245679   2.324   0.198   1.632  0.1978 -1.2409 -0.5020
 7162TIP3   OH245680   5.385   3.564   2.711  0.6714 -0.1899  0.4909
 7162TIP3    H145681   5.316   3.547   2.775 -0.4908  0.8374 -0.4285
 7162TIP3    H245682   5.417   3.652   2.733 -0.0191  0.3433 -0.5465
 7163TIP3   OH245683   2.357   0.011   3.093 -0.1700 -0.6292  0.1840
 7163TIP3    H145684   2.275  -0.012   3.050 -0.8857  0.8990  0.6741
 7163TIP3    H245685   2.345  -0.017   3.184 -0.2034 -0.2813  0.2871
 7164TIP3   OH245686   0.781   6.050   3.307 -0.2165 -0.1415 -0.0622
 7164TIP3    H145687   0.838   6.076   3.234  2.1853 -2.2282  0.8913
 7164TIP3    H245688   0.786   5.955   3.308  0.4388 -0.2081  3.1819
 7165TIP3   OH245689   6.395   2.146   1.841 -0.2124  0.1633  0.2381
 7165TIP3    H145690   6.412   2.064   1.887 -0.5435  0.8995  1.7314
 7165TIP3    H245691   6.331   2.123   1.774  2.7035 -1.6092 -2.1711
 7166TIP3   OH245692   2.989   2.092   2.814 -0.5723 -0.4305 -0.4339
 7166TIP3    H145693   3.064   2.058   2.765 -0.1641 -1.7020  0.9761
 7166TIP3    H245694   2.963   2.171   2.767  1.0700 -0.4648 -1.4787
 7167TIP3   OH245695   1.165   1.564   1.193 -0.2367 -0.0627  0.5178
 7167TIP3    H145696   1.084   1.529   1.230  1.2593 -2.6104  1.6684
 7167TIP3    H245697   1.212   1.600   1.268  0.6741 -0.7796  0.3229
 7168TIP3   OH245698   0.259   6.774   2.090 -0.5828  0.5410  0.0856
 7168TIP3    H145699   0.226   6.854   2.131 -0.3734  0.6671  0.0152
 7168TIP3    H245700   0.191   6.709   2.104 -0.3067  0.4483  1.0636
 7169TIP3   OH245701   6.540   4.031   1.372  0.5248  0.2502 -0.7056
 7169TIP3    H145702   6.627   4.038   1.331  1.1044 -1.7642  0.0609
 7169TIP3    H245703   6.555   3.979   1.451 -1.2396  0.7102 -0.0223
 7170TIP3   OH245704   3.698   0.865   3.238  0.5737 -0.3609  0.3414
 7170TIP3    H145705   3.698   0.775   3.271 -3.7451 -1.0724 -0.9363
 7170TIP3    H245706   3.606   0.892   3.242  1.2511  2.9607 -2.0478
 7171TIP3   OH245707   6.623   0.657   0.808  0.1011  0.0676  0.2208
 7171TIP3    H145708   6.534   0.657   0.773  1.0979 -1.3920 -2.5704
 7171TIP3    H245709   6.625   0.582   0.868 -0.9259  1.0675  1.5711
 7172TIP3   OH245710   6.930   0.810   2.033  0.5323  0.4821 -0.5028
 7172TIP3    H145711   6.969   0.856   1.959 -0.0329  0.4357 -0.8402
 7172TIP3    H245712   6.837   0.800   2.009  0.3685  0.3528  0.1512
 7173TIP3   OH245713   2.547   2.002   2.786  0.1677 -0.3101 -0.2556
 7173TIP3    H145714   2.573   1.931   2.845 -0.6504 -2.0526 -1.8827
 7173TIP3    H245715   2.465   1.972   2.747 -2.0199  2.9784  1.3068
 7174TIP3   OH245716   3.329   1.441   0.598  0.1548 -0.1808 -0.0842
 7174TIP3    H145717   3.272   1.515   0.620  0.3300 -0.1109  0.1420
 7174TIP3    H245718   3.278   1.363   0.621 -0.4782 -0.1683 -1.3905
 7175TIP3   OH245719   3.067   6.129   2.380 -0.3216 -0.4627  0.6370
 7175TIP3    H145720   3.120   6.057   2.346 -0.9699 -1.5567  1.8649
 7175TIP3    H245721   3.120   6.167   2.450 -1.1026 -1.5565  1.8656
 7176TIP3   OH245722   0.720   6.723   1.191  0.0489 -0.3617 -0.2083
 7176TIP3    H145723   0.720   6.764   1.277 -2.6980  0.2973 -0.4350
 7176TIP3    H245724   0.744   6.793   1.130 -0.6517 -0.1238 -0.2152
 7177TIP3   OH245725   7.293   7.374   2.356 -0.0284 -0.0486 -0.0109
 7177TIP3    H145726   7.330   7.424   2.428 -1.5476  0.5467  0.3962
 7177TIP3    H245727   7.343   7.401   2.279 -0.0452  1.2284  0.4062
 7178TIP3   OH245728   6.982   5.167   1.641 -0.1256  0.1572 -0.4297
 7178TIP3    H145729   6.954   5.254   1.668 -0.9553  0.1625 -1.2512
 7178TIP3    H245730   6.904   5.128   1.603  0.1916 -1.0171  0.0821
 7179TIP3   OH245731   6.052   0.048   2.182 -0.2367 -0.0099 -1.2276
 7179TIP3    H145732   6.078   0.140   2.187  0.3632 -0.2210  2.2347
 7179TIP3    H245733   6.066   0.024   2.090  1.1043  2.9138 -1.9102
 7180TIP3   OH245734   5.411   0.614   3.031 -0.4822  0.2326  0.1232
 7180TIP3    H145735   5.345   0.575   3.088  1.6269 -2.0237  1.2499
 7180TIP3    H245736   5.458   0.676   3.087 -0.7327  0.7635 -0.2502
 7181TIP3   OH245737   3.266   4.184   1.204  0.2768 -0.0259 -0.4876
 7181TIP3    H145738   3.299   4.181   1.293 -0.3675  0.4224 -0.2249
 7181TIP3    H245739   3.307   4.261   1.166  1.9593 -1.2012 -1.1713
 7182TIP3   OH245740   2.620   0.968   2.598  0.0465 -0.2583  0.4858
 7182TIP3    H145741   2.629   1.004   2.509  0.7453 -0.2118  0.5729
 7182TIP3    H245742   2.704   0.926   2.615 -1.2602 -3.4298 -0.2517
 7183TIP3   OH245743   5.578   5.472   2.361  0.3210 -0.9151 -0.3769
 7183TIP3    H145744   5.523   5.415   2.306 -1.6737 -0.5722  1.1220
 7183TIP3    H245745   5.582   5.555   2.313 -0.9053 -0.8006 -0.3275
 7184TIP3   OH245746   2.875   3.672   2.039 -0.0582  0.0590 -0.6411
 7184TIP3    H145747   2.848   3.580   2.031  0.0488  0.0504 -0.9219
 7184TIP3    H245748   2.968   3.668   2.063 -0.6017  0.0736  1.6374
 7185TIP3   OH245749   7.009   0.369   1.022  0.2506  0.2420 -0.8144
 7185TIP3    H145750   7.032   0.278   1.003  2.1920  0.5988 -0.3819
 7185TIP3    H245751   6.977   0.367   1.112 -2.0572 -0.3350 -1.5770
 7186TIP3   OH245752   4.662   2.988   0.865  0.1953  0.2882  0.3461
 7186TIP3    H145753   4.570   2.991   0.891 -1.0902  1.5744 -3.7114
 7186TIP3    H245754   4.677   2.897   0.838 -0.4538  0.4669 -0.6525
 7187TIP3   OH245755   2.661   0.105   3.416  0.6276  0.4074 -0.0673
 7187TIP3    H145756   2.636   0.142   3.500  0.5922 -0.1224  0.1604
 7187TIP3    H245757   2.742   0.058   3.433  0.6050  0.2703 -0.3217
 7188TIP3   OH245758   3.305   3.270   3.297 -0.1996  0.2245  0.1066
 7188TIP3    H145759   3.276   3.260   3.388 -2.0536 -1.3267 -0.5910
 7188TIP3    H245760   3.348   3.187   3.277  1.7095  1.1881  0.0238
 7189TIP3   OH245761   1.455   3.443   2.924  0.4892 -0.5698  0.1472
 7189TIP3    H145762   1.369   3.469   2.958  1.2835  0.1013  1.7420
 7189TIP3    H245763   1.482   3.516   2.868 -0.3397 -1.1830 -1.1016
 7190TIP3   OH245764   7.026   0.368   3.198  0.0518 -0.6809 -0.3425
 7190TIP3    H145765   6.985   0.440   3.246  1.6288  0.1258 -0.1559
 7190TIP3    H245766   7.102   0.407   3.156 -0.1675 -1.8102 -1.9026
 7191TIP3   OH245767   3.205   5.796   2.689 -0.0830  0.3796 -0.4118
 7191TIP3    H145768   3.167   5.768   2.772  0.7589  1.5116  0.3902
 7191TIP3    H245769   3.274   5.732   2.671  1.4340  1.4788  1.1077
 7192TIP3   OH245770   5.009   6.779   2.233 -0.2502 -0.2166  0.3459
 7192TIP3    H145771   4.976   6.692   2.257  0.6666 -0.2253  1.7057
 7192TIP3    H245772   4.933   6.823   2.194 -2.0718 -0.1559  3.5371
 7193TIP3   OH245773   2.979   1.443   2.512 -0.0217  0.1337  0.0572
 7193TIP3    H145774   2.934   1.360   2.493  0.5135 -0.1400 -0.0473
 7193TIP3    H245775   2.911   1.499   2.549  0.0850 -1.0863  2.2183
 7194TIP3   OH245776   0.197   2.003   2.438 -0.0117 -1.0870 -0.3393
 7194TIP3    H145777   0.290   1.999   2.460 -0.2139 -1.1246  0.5369
 7194TIP3    H245778   0.195   2.028   2.346  0.8714 -1.3246 -0.4276
 7195TIP3   OH245779   5.285   3.178   2.365  0.1394 -0.0369  0.0197
 7195TIP3    H145780   5.283   3.110   2.432  0.7674 -2.4216 -2.1871
 7195TIP3    H245781   5.377   3.185   2.340 -0.1399  0.4001 -0.9453
 7196TIP3   OH245782   7.101   3.420   3.017 -0.0076  0.2117  0.4559
 7196TIP3    H145783   7.043   3.350   3.049  0.5164 -0.5876 -0.3023
 7196TIP3    H245784   7.189   3.384   3.026  0.3236  1.0875  0.7813
 7197TIP3   OH245785   7.542   3.416   3.767  0.0807 -0.4917 -0.0705
 7197TIP3    H145786   7.582   3.330   3.780  1.4723  0.0984 -0.2271
 7197TIP3    H245787   7.465   3.400   3.714 -0.6220 -1.8442  1.3097
 7198TIP3   OH245788   2.706   6.572   3.458  0.5996 -0.0576  0.7091
 7198TIP3    H145789   2.714   6.662   3.490  2.1825  0.9255 -2.0630
 7198TIP3    H245790   2.797   6.542   3.449  0.1267 -1.4995  0.4864
 7199TIP3   OH245791   2.956   1.559   1.776  0.0584 -0.4701 -0.6943
 7199TIP3    H145792   2.940   1.615   1.853  0.7035  1.3269 -1.8021
 7199TIP3    H245793   2.981   1.475   1.813  0.9628  0.5115  1.0874
 7200TIP3   OH245794   5.944   5.434   2.306  0.1199 -0.0671 -0.0043
 7200TIP3    H145795   5.936   5.406   2.215 -0.9816 -0.1819  0.1218
 7200TIP3    H245796   5.984   5.521   2.301  1.0486 -0.5144 -0.5321
 7201TIP3   OH245797   6.271   7.675   3.117  0.3588 -0.3876  0.3251
 7201TIP3    H145798   6.183   7.661   3.084  0.2373  1.9331 -0.5079
 7201TIP3    H245799   6.259   7.708   3.206  0.3353  0.4626  0.0156
 7202TIP3   OH245800   7.124   5.202   2.312 -0.2537 -0.0899 -0.2782
 7202TIP3    H145801   7.083   5.160   2.387  2.6048  0.9085  2.0232
 7202TIP3    H245802   7.170   5.278   2.348 -1.4742  2.4914 -3.5885
 7203TIP3   OH245803   7.174   3.619   2.337  0.2496 -0.4890  0.1321
 7203TIP3    H145804   7.244   3.681   2.360  0.3226 -0.0055 -1.2960
 7203TIP3    H245805   7.160   3.633   2.243 -0.1147 -2.2774 -0.1104
 7204TIP3   OH245806   0.703   2.848   1.798  0.0912 -0.2025  0.2853
 7204TIP3    H145807   0.766   2.776   1.795 -0.4223 -0.7936  2.2118
 7204TIP3    H245808   0.640   2.827   1.729 -0.0443 -1.6250  0.8053
 7205TIP3   OH245809   0.628   1.262   2.199  0.0203 -0.3411 -0.2321
 7205TIP3    H145810   0.655   1.297   2.114 -0.7753  1.4503  0.2228
 7205TIP3    H245811   0.560   1.197   2.178 -0.5113  0.4335 -0.9360
 7206TIP3   OH245812   1.979   5.149   2.275 -0.5740 -0.6941  0.4275
 7206TIP3    H145813   2.046   5.208   2.240 -0.9669 -0.2800  0.3572
 7206TIP3    H245814   2.001   5.063   2.240  0.1406 -0.6321  0.7182
 7207TIP3   OH245815   7.447   2.920   2.384  0.1550  0.1001 -0.6409
 7207TIP3    H145816   7.409   2.973   2.314  2.3182  2.1286 -0.3843
 7207TIP3    H245817   7.399   2.946   2.462  1.6405  2.3967 -0.3809
 7208TIP3   OH245818   0.622   7.416   1.355  0.1597  0.2900  0.2575
 7208TIP3    H145819   0.614   7.508   1.381 -0.5739  0.3344 -0.0923
 7208TIP3    H245820   0.558   7.406   1.284  2.8241  0.4661 -2.3787
 7209TIP3   OH245821   6.027   0.742   1.761  0.4424 -0.5750  0.0057
 7209TIP3    H145822   6.097   0.679   1.744  0.4404 -0.5014 -0.2859
 7209TIP3    H245823   5.994   0.718   1.847  0.2651 -1.1432 -0.2113
 7210TIP3   OH245824   0.925   4.797   3.004  0.1086 -0.3054  0.0186
 7210TIP3    H145825   0.983   4.769   3.075  1.3318  0.2862 -0.7243
 7210TIP3    H245826   0.945   4.737   2.932 -1.0988 -0.8751  0.1239
 7211TIP3   OH245827   0.068   5.789   1.899 -0.1432 -0.0318  0.1270
 7211TIP3    H145828   0.116   5.793   1.816 -0.6991 -0.0494 -0.1994
 7211TIP3    H245829   0.001   5.856   1.891  0.5279  0.7626  1.0393
 7212TIP3   OH245830   0.445   3.431   2.328  0.1287 -0.0648  0.5712
 7212TIP3    H145831   0.458   3.511   2.277  1.7360 -0.0558  0.9372
 7212TIP3    H245832   0.466   3.457   2.418 -1.5243 -0.3745  1.0837
 7213TIP3   OH245833   7.490   2.613   1.146 -0.0693 -0.2896  0.1195
 7213TIP3    H145834   7.534   2.600   1.062  0.8589  0.0175  0.5406
 7213TIP3    H245835   7.530   2.549   1.204 -1.1179 -0.8920  0.1900
 7214TIP3   OH245836   5.565   0.078   0.778  0.0193 -0.2978  0.5158
 7214TIP3    H145837   5.552  -0.013   0.751 -3.0737  0.5007 -1.1803
 7214TIP3    H245838   5.517   0.086   0.861 -0.4885 -0.0308  0.2018
 7215TIP3   OH245839   5.456   5.530   1.115  0.2223  0.5636  0.2356
 7215TIP3    H145840   5.528   5.593   1.119  0.3620  0.4004  0.2928
 7215TIP3    H245841   5.457   5.498   1.025  1.3562 -0.7590  0.6885
 7216TIP3   OH245842   5.267   3.406   3.655  0.0795  0.1254  0.0828
 7216TIP3    H145843   5.332   3.477   3.653  0.5693 -0.2785  0.9568
 7216TIP3    H245844   5.213   3.421   3.578 -0.1735  1.7768  0.5401
 7217TIP3   OH245845   3.215   6.986   1.810  0.0679  0.1822 -0.1756
 7217TIP3    H145846   3.215   6.918   1.743 -1.1684  0.5427 -0.5688
 7217TIP3    H245847   3.122   7.000   1.830  0.3642 -1.8497  3.6232
 7218TIP3   OH245848   6.440   6.225   1.993  0.4786  0.2075 -0.1125
 7218TIP3    H145849   6.373   6.157   1.985 -0.7573  1.3709  0.0512
 7218TIP3    H245850   6.510   6.183   2.043 -1.1902 -0.3085  1.9596
 7219TIP3   OH245851   0.582   3.009   3.101  0.2975  0.1653 -0.1094
 7219TIP3    H145852   0.633   3.053   3.168  0.5084  1.3893 -1.0350
 7219TIP3    H245853   0.634   2.933   3.076  0.9099  0.5171  0.0829
 7220TIP3   OH245854   4.948   1.671   0.967  0.0212  0.1454  0.1767
 7220TIP3    H145855   5.013   1.671   1.037  0.1516 -2.8049  0.1815
 7220TIP3    H245856   4.938   1.579   0.944 -1.4164  0.8544 -2.4121
 7221TIP3   OH245857   6.766   1.423   2.798  0.1978 -0.1908  0.2734
 7221TIP3    H145858   6.738   1.343   2.752 -0.8884 -0.9194  2.1098
 7221TIP3    H245859   6.685   1.471   2.813  0.7128  0.6997  0.2424
 7222TIP3   OH245860   3.499   0.822   1.821  0.2011 -0.2789 -0.1361
 7222TIP3    H145861   3.467   0.846   1.908  0.1406  0.1640 -0.2805
 7222TIP3    H245862   3.551   0.743   1.836  1.5608  0.7012  0.5565
 7223TIP3   OH245863   0.275   3.943   1.033  0.2485  0.0020  0.3966
 7223TIP3    H145864   0.190   3.940   0.989  0.0740  1.8468  0.5161
 7223TIP3    H245865   0.335   3.978   0.967  0.6845 -0.2441  0.6556
 7224TIP3   OH245866   3.768   5.429   2.127 -0.2288 -0.5113 -0.0376
 7224TIP3    H145867   3.849   5.417   2.178  0.2481  1.6382 -0.2007
 7224TIP3    H245868   3.768   5.356   2.065  2.1778 -0.0143 -0.7533
 7225TIP3   OH245869   5.275   4.531   2.906 -0.8083 -0.2839  0.2524
 7225TIP3    H145870   5.303   4.598   2.844  0.8503  0.0522  1.3299
 7225TIP3    H245871   5.198   4.491   2.864  1.3698 -1.4446 -3.0255
 7226TIP3   OH245872   4.643   1.107   1.232 -0.0018  0.0163 -0.1605
 7226TIP3    H145873   4.704   1.104   1.305 -0.5339 -0.4166  0.2801
 7226TIP3    H245874   4.585   1.181   1.251  1.6931  1.8301 -1.6782
 7227TIP3   OH245875   3.343   2.057   0.464  0.5954 -0.7061  0.9526
 7227TIP3    H145876   3.406   2.060   0.392  2.8927 -0.5381  2.8072
 7227TIP3    H245877   3.287   2.133   0.450 -0.0228 -1.5065 -1.4014
 7228TIP3   OH245878   1.475   6.181   1.046 -0.6445  0.2975  0.8909
 7228TIP3    H145879   1.500   6.264   1.084 -0.3875  0.9457 -0.6020
 7228TIP3    H245880   1.416   6.205   0.974  0.0985 -0.7366 -0.0951
 7229TIP3   OH245881   4.992   2.840   1.964 -0.0533 -0.2849 -0.4693
 7229TIP3    H145882   4.927   2.890   1.915  0.3946 -0.0054 -0.7798
 7229TIP3    H245883   4.986   2.874   2.053  0.4169  0.5017 -0.7311
 7230TIP3   OH245884   2.016   5.652   2.465  0.3907 -0.0990 -0.3809
 7230TIP3    H145885   2.079   5.719   2.490  0.4027  0.0909 -0.9054
 7230TIP3    H245886   1.975   5.625   2.547  0.4694  0.4654 -0.1580
 7231TIP3   OH245887   2.381   2.477   1.019  0.5385  0.3927 -0.4227
 7231TIP3    H145888   2.436   2.475   0.940  0.2757  0.4461 -0.6087
 7231TIP3    H245889   2.437   2.442   1.088  1.5427  2.4259 -0.1300
 7232TIP3   OH245890   2.406   1.987   3.144  0.3099 -0.0090 -0.8601
 7232TIP3    H145891   2.319   2.027   3.137  0.4912  0.2486 -1.7525
 7232TIP3    H245892   2.466   2.061   3.148  0.3416 -0.0672  3.0927
 7233TIP3   OH245893   6.556   1.667   0.502  0.3805  0.1394  0.4420
 7233TIP3    H145894   6.644   1.654   0.468  0.7269  0.3315  1.2659
 7233TIP3    H245895   6.506   1.699   0.426  0.2545 -2.8025 -0.8423
 7234TIP3   OH245896   4.661   5.502   2.271  0.2204  0.1321 -0.1600
 7234TIP3    H145897   4.752   5.515   2.245  0.5785  1.6148  1.6962
 7234TIP3    H245898   4.619   5.586   2.255 -0.4240 -0.0435  0.5426
 7235TIP3   OH245899   5.749   5.112   3.475  0.3839 -0.6441 -1.0057
 7235TIP3    H145900   5.751   5.202   3.506  1.8227 -0.2396 -2.1502
 7235TIP3    H245901   5.841   5.090   3.460  0.1571 -2.6776  0.2499
 7236TIP3   OH245902   1.767   0.837   2.796 -0.3199  0.2048  0.9764
 7236TIP3    H145903   1.694   0.897   2.783 -0.0253  0.4528  0.4673
 7236TIP3    H245904   1.740   0.756   2.752  0.0105  0.5312  0.1552
 7237TIP3   OH245905   7.130   0.758   2.232 -0.4373  0.4683  0.3023
 7237TIP3    H145906   7.085   0.778   2.150 -1.3110  0.4483  0.7615
 7237TIP3    H245907   7.164   0.670   2.220  0.3321  0.8480 -0.4087
 7238TIP3   OH245908   1.181   2.127   1.613  0.2311 -0.0774  0.3011
 7238TIP3    H145909   1.271   2.151   1.635 -0.4066  2.0300  0.8525
 7238TIP3    H245910   1.181   2.116   1.518  0.6455  2.2683 -0.0425
 7239TIP3   OH245911   4.395   3.042   3.388 -0.1547 -0.3233 -0.1109
 7239TIP3    H145912   4.488   3.035   3.409  0.0733  0.0397 -0.9562
 7239TIP3    H245913   4.391   3.106   3.317 -1.1827  0.6214  0.7779
 7240TIP3   OH245914   4.847   2.790   1.089 -0.4262 -0.4661  0.6210
 7240TIP3    H145915   4.924   2.820   1.041  0.2964 -2.2605  0.5577
 7240TIP3    H245916   4.788   2.866   1.092  1.4113  1.0084  0.8545
 7241TIP3   OH245917   6.395   5.993   1.609  0.0630  0.2272  0.2108
 7241TIP3    H145918   6.428   5.946   1.685  0.4769  0.3627  0.1171
 7241TIP3    H245919   6.324   6.048   1.644  0.7435  0.8518  0.6367
 7242TIP3   OH245920   0.460   4.151   1.685  0.0200  0.2706 -0.2790
 7242TIP3    H145921   0.391   4.119   1.627 -0.9522  1.2535  0.3005
 7242TIP3    H245922   0.514   4.206   1.629  1.5919 -2.0784 -1.2409
 7243TIP3   OH245923   6.389   7.318   2.396  0.2539  0.2609 -0.4005
 7243TIP3    H145924   6.451   7.313   2.469 -0.4238 -1.0234  0.1156
 7243TIP3    H245925   6.385   7.411   2.375 -0.3720  0.8244  1.9447
 7244TIP3   OH245926   4.707   7.642   1.054  0.8104  0.0838  0.4695
 7244TIP3    H145927   4.745   7.722   1.017 -0.3810  0.2876 -0.3820
 7244TIP3    H245928   4.693   7.663   1.147  0.5004  0.8860  0.2495
 7245TIP3   OH245929   2.083   1.690   2.688  0.0619 -0.3216  0.4297
 7245TIP3    H145930   2.071   1.752   2.616 -0.8114  0.3067  1.1045
 7245TIP3    H245931   2.122   1.741   2.758  0.7878 -0.9044  0.4671
 7246TIP3   OH245932   4.649   3.324   3.451  0.3141  0.2086 -0.3096
 7246TIP3    H145933   4.609   3.404   3.486 -1.1595 -0.4961 -0.2947
 7246TIP3    H245934   4.730   3.354   3.410  0.5779  1.4829  1.0413
 7247TIP3   OH245935   4.926   4.917   2.126 -0.4920 -0.1814  0.1165
 7247TIP3    H145936   4.908   4.888   2.037  0.8740  0.2251 -0.3150
 7247TIP3    H245937   4.984   4.993   2.116  2.7832 -2.3144  1.3535
 7248TIP3   OH245938   6.655   2.513   0.698  0.7355 -1.1140 -0.5072
 7248TIP3    H145939   6.713   2.439   0.678  2.1567 -0.0646 -0.3667
 7248TIP3    H245940   6.686   2.547   0.781 -0.9251 -1.2969  0.2385
 7249TIP3   OH245941   4.171   2.970   2.225  0.1139 -0.2151  0.1230
 7249TIP3    H145942   4.239   2.988   2.290  0.2514 -0.6388  0.1016
 7249TIP3    H245943   4.158   2.875   2.230 -2.7366  0.1504  2.3699
 7250TIP3   OH245944   1.595   3.336   0.421  0.0251 -0.4161 -0.2138
 7250TIP3    H145945   1.525   3.305   0.479 -0.5007  0.2596 -0.4860
 7250TIP3    H245946   1.559   3.413   0.378  1.1009  0.2198 -0.0084
 7251TIP3   OH245947   0.240   3.849   3.237  0.2193  0.3340  0.2636
 7251TIP3    H145948   0.169   3.873   3.179  0.4246 -0.4300 -0.3142
 7251TIP3    H245949   0.259   3.758   3.217  0.6039  0.1872  1.2079
 7252TIP3   OH245950   4.331   5.145   2.193  0.0327  0.1694  0.0232
 7252TIP3    H145951   4.406   5.150   2.133 -0.5905  2.4335 -0.6585
 7252TIP3    H245952   4.359   5.193   2.271 -0.3616  0.1892  0.1556
 7253TIP3   OH245953   6.317   1.003   1.158  0.5069 -0.5241  0.5483
 7253TIP3    H145954   6.335   1.097   1.151  0.3586 -0.5555 -0.3267
 7253TIP3    H245955   6.356   0.965   1.079 -0.0646 -1.1032  0.5401
 7254TIP3   OH245956   1.764   2.065   1.459  0.1552 -0.4682  0.6377
 7254TIP3    H145957   1.797   2.103   1.377  0.0303  1.1200  1.2929
 7254TIP3    H245958   1.714   2.135   1.500 -1.3905 -1.8143  1.2043
 7255TIP3   OH245959   2.416   3.287   2.774  0.3801 -0.1431 -0.5475
 7255TIP3    H145960   2.339   3.275   2.830  0.6344  2.1392  0.3980
 7255TIP3    H245961   2.394   3.361   2.718  1.0384 -0.9427 -1.9263
 7256TIP3   OH245962   4.984   6.483   2.713 -0.0053  0.8419  0.1372
 7256TIP3    H145963   4.992   6.399   2.758 -1.9252 -0.0888 -1.1214
 7256TIP3    H245964   5.072   6.501   2.680  0.2399 -1.2211 -0.4876
 7257TIP3   OH245965   0.412   7.075   2.497 -0.1451  0.0454 -0.1654
 7257TIP3    H145966   0.378   7.109   2.579  0.2167 -0.1087  0.0530
 7257TIP3    H245967   0.404   7.148   2.435  0.8862  0.6391  0.3663
 7258TIP3   OH245968   1.783   3.534   0.797  0.3571  0.7470  0.0228
 7258TIP3    H145969   1.833   3.453   0.793 -0.2483  0.4116 -2.3340
 7258TIP3    H245970   1.845   3.602   0.772  0.0602  0.5156 -1.4514
 7259TIP3   OH245971   5.170   5.489   3.442 -0.5903 -0.0877 -0.4071
 7259TIP3    H145972   5.219   5.561   3.402 -1.8506  2.9643  2.9862
 7259TIP3    H245973   5.225   5.459   3.514 -0.3121 -2.3087 -1.4681
 7260TIP3   OH245974   5.077   4.155   1.188 -0.4393  0.2628 -0.2644
 7260TIP3    H145975   5.120   4.098   1.252  1.4453  2.6587  0.7709
 7260TIP3    H245976   5.117   4.131   1.105 -1.5625 -1.6212 -0.3134
 7261TIP3   OH245977   3.202   0.450   2.569 -0.4437  0.2256 -0.3574
 7261TIP3    H145978   3.252   0.519   2.526  0.2613  0.3866  0.6976
 7261TIP3    H245979   3.111   0.470   2.550 -0.1417  0.0440 -2.1420
 7262TIP3   OH245980   6.990   7.044   0.900 -0.0904  0.2108 -0.8536
 7262TIP3    H145981   6.949   7.118   0.944 -0.1688  0.2477 -0.9886
 7262TIP3    H245982   7.081   7.073   0.886  0.4603 -0.5071  0.9418
 7263TIP3   OH245983   6.092   0.721   0.978  0.0826  0.2616  0.2646
 7263TIP3    H145984   6.084   0.627   0.965 -0.3176  0.2181  0.7827
 7263TIP3    H245985   6.126   0.754   0.895 -0.7176 -0.2153 -0.2633
 7264TIP3   OH245986   0.940   1.423   1.281 -0.5839 -0.2591  0.2203
 7264TIP3    H145987   0.915   1.459   1.366  0.2877 -0.5196  0.5889
 7264TIP3    H245988   0.856   1.399   1.240 -0.9182 -2.0947  1.8567
 7265TIP3   OH245989   4.781   5.803   8.553 -0.4502  0.2711  0.0385
 7265TIP3    H145990   4.843   5.870   8.583  0.5061 -0.3016 -0.5978
 7265TIP3    H245991   4.785   5.808   8.458 -1.9167  0.6813 -0.0313
 7266TIP3   OH245992   5.340   7.158   1.052 -0.0895 -0.3778 -0.3244
 7266TIP3    H145993   5.426   7.166   1.011 -0.0758 -0.7834 -0.3837
 7266TIP3    H245994   5.280   7.147   0.979 -0.5068  2.1362 -0.4359
 7267TIP3   OH245995   3.463   4.881   3.346  0.7633  0.3015  0.2627
 7267TIP3    H145996   3.371   4.862   3.363  1.2995 -0.6308  2.3926
 7267TIP3    H245997   3.464   4.974   3.323 -0.6074  0.5950  1.2378
 7268TIP3   OH245998   5.320   1.370   1.974 -0.3599  0.2562  0.0496
 7268TIP3    H145999   5.414   1.357   1.961 -0.5474  0.2016 -1.5219
 7268TIP3    H246000   5.280   1.330   1.896 -1.6770  0.4220  0.6117
 7269TIP3   OH246001   5.583   3.517   1.397 -0.1277  0.0582 -0.0343
 7269TIP3    H146002   5.662   3.463   1.390 -0.4094 -0.2841 -0.5581
 7269TIP3    H246003   5.607   3.600   1.356 -0.1034 -0.1156 -0.3735
 7270TIP3   OH246004   4.499   6.618   1.978  0.2048 -0.5422 -0.2315
 7270TIP3    H146005   4.445   6.681   2.025  1.7835 -1.1487  2.6053
 7270TIP3    H246006   4.450   6.535   1.984 -1.3474  0.0351 -3.0286
 7271TIP3   OH246007   7.365   5.054   2.788  0.0639  0.5643  0.0907
 7271TIP3    H146008   7.379   5.056   2.693 -0.3797 -0.9484 -0.0181
 7271TIP3    H246009   7.312   5.132   2.805 -0.5270  0.4331 -1.0231
 7272TIP3   OH246010   7.245   0.510   0.988  0.3985 -0.6021 -0.2095
 7272TIP3    H146011   7.292   0.466   0.917  0.0697  1.1421 -1.5648
 7272TIP3    H246012   7.157   0.473   0.984  0.6642 -1.2779 -0.0009
 7273TIP3   OH246013   2.293   1.015   1.582 -0.3039 -0.0455  0.1863
 7273TIP3    H146014   2.337   1.065   1.650 -0.1147  0.4796 -0.3105
 7273TIP3    H246015   2.359   0.952   1.552 -0.0137  0.4688 -0.2764
 7274TIP3   OH246016   2.415   3.243   1.170  0.1392 -0.3482 -0.0261
 7274TIP3    H146017   2.321   3.261   1.181 -0.0961 -2.1504  1.3260
 7274TIP3    H246018   2.427   3.155   1.206  2.1875 -0.5765 -1.1287
 7275TIP3   OH246019   4.315   1.647   2.123 -0.2082  0.0171  0.0782
 7275TIP3    H146020   4.316   1.595   2.204  0.5688 -1.5079 -0.8550
 7275TIP3    H246021   4.233   1.696   2.127 -0.9190 -1.1901  1.0874
 7276TIP3   OH246022   5.454   4.427   3.107 -0.9568 -0.1006  0.3369
 7276TIP3    H146023   5.382   4.466   3.057 -0.2566  1.4397  0.4539
 7276TIP3    H246024   5.532   4.450   3.057 -0.5205 -1.7320  0.2245
 7277TIP3   OH246025   1.929   6.226   2.953 -0.0570 -0.2215  0.3549
 7277TIP3    H146026   1.840   6.193   2.940 -0.7841  1.8547 -0.3001
 7277TIP3    H246027   1.938   6.233   3.048 -0.6264 -0.3460  0.4247
 7278TIP3   OH246028   2.381   2.257   2.048 -0.1415  0.3055 -0.2795
 7278TIP3    H146029   2.327   2.324   2.007  0.2967  1.7404  1.3627
 7278TIP3    H246030   2.470   2.277   2.020  0.3044  1.9291  1.9993
 7279TIP3   OH246031   3.606   5.403   2.469  0.3444 -0.4714  0.1691
 7279TIP3    H146032   3.573   5.317   2.496 -2.1306  0.4262  0.2275
 7279TIP3    H246033   3.577   5.413   2.378 -1.2221  1.1026  0.7934
 7280TIP3   OH246034   1.440   0.844   1.738  0.2842  0.6494  0.1858
 7280TIP3    H146035   1.455   0.932   1.706  3.2626  0.4537  0.6994
 7280TIP3    H246036   1.398   0.856   1.823 -1.3342  1.4216 -0.6789
 7281TIP3   OH246037   3.881   6.617   1.351  0.2294  0.8607  0.4445
 7281TIP3    H146038   3.936   6.656   1.283 -1.1471 -0.2946 -1.4092
 7281TIP3    H246039   3.897   6.523   1.344 -1.9696  0.4849 -0.2097
 7282TIP3   OH246040   2.933   5.887   1.812  0.5327 -0.1795  0.9055
 7282TIP3    H146041   2.900   5.797   1.821  1.6744 -0.7173 -0.0235
 7282TIP3    H246042   2.869   5.930   1.756  1.1103 -1.0828 -0.5126
 7283TIP3   OH246043   1.768   3.971   2.300  1.0886  0.3198  0.1524
 7283TIP3    H146044   1.720   4.003   2.377  2.0359 -0.2566  0.9967
 7283TIP3    H246045   1.854   4.012   2.307  1.2479  0.1041 -0.4970
 7284TIP3   OH246046   1.112   5.119   2.116 -0.5262 -0.7757 -0.2544
 7284TIP3    H146047   1.035   5.069   2.089 -1.3906  0.2996  0.1558
 7284TIP3    H246048   1.169   5.054   2.158 -1.2889 -1.5521 -0.3865
 7285TIP3   OH246049   4.622   6.715   3.401  0.2046  0.6381 -0.0347
 7285TIP3    H146050   4.553   6.692   3.338  0.0482 -0.0798  0.3795
 7285TIP3    H246051   4.647   6.631   3.440 -0.1934  1.1388  1.3660
 7286TIP3   OH246052   5.296   5.195   2.559  0.0848  0.1959 -0.4374
 7286TIP3    H146053   5.275   5.227   2.647 -0.6921  0.1085 -0.5911
 7286TIP3    H246054   5.391   5.206   2.552  0.4729 -1.7012  1.1638
 7287TIP3   OH246055   3.082   3.728   1.358  0.6465 -0.6900 -0.6384
 7287TIP3    H146056   3.162   3.753   1.312 -0.4506  2.3040 -1.1848
 7287TIP3    H246057   3.024   3.698   1.288 -0.6454  2.8486 -1.3317
 7288TIP3   OH246058   6.216   2.166   1.391  0.0653  0.0461  0.3605
 7288TIP3    H146059   6.194   2.073   1.383 -1.9524  0.2762  2.4538
 7288TIP3    H246060   6.183   2.205   1.310 -2.0733 -0.5981  0.8572
 7289TIP3   OH246061   5.668   1.863   2.857 -0.4038 -0.1632 -0.2558
 7289TIP3    H146062   5.579   1.833   2.840 -0.7305  1.3856 -1.6678
 7289TIP3    H246063   5.658   1.930   2.925 -0.4207  0.3291 -0.7262
 7290TIP3   OH246064   2.308   1.545   1.356  0.2064  0.3527  0.1833
 7290TIP3    H146065   2.278   1.620   1.305 -1.1426  1.2641  2.1922
 7290TIP3    H246066   2.354   1.583   1.431  0.6021 -0.8691  0.5836
 7291TIP3   OH246067   6.359   1.812   0.622  0.3704  0.0683  0.8011
 7291TIP3    H146068   6.309   1.742   0.663  0.2237 -1.1778 -1.3488
 7291TIP3    H246069   6.439   1.770   0.591  1.7621  1.5489  2.1444
 7292TIP3   OH246070   2.323   2.945   2.884 -0.0382  0.6662 -0.2013
 7292TIP3    H146071   2.273   3.026   2.892 -1.6533 -0.4400  2.4402
 7292TIP3    H246072   2.256   2.878   2.866  1.2496 -0.1641 -2.3579
 7293TIP3   OH246073   3.639   5.899   1.277 -0.5053 -0.2961  0.0769
 7293TIP3    H146074   3.682   5.813   1.273 -2.4547 -1.2987 -0.2078
 7293TIP3    H246075   3.602   5.902   1.365 -0.4238  0.2771  0.0918
 7294TIP3   OH246076   0.387   0.369   0.652 -0.2755  0.4313 -0.3101
 7294TIP3    H146077   0.401   0.332   0.565  0.7908 -0.3194  0.1562
 7294TIP3    H246078   0.471   0.357   0.697 -1.5087 -1.4956  1.6530
 7295TIP3   OH246079   7.663   5.173   1.595 -0.2528 -0.4219  0.0029
 7295TIP3    H146080   7.746   5.126   1.600  0.7946  1.0848 -1.9721
 7295TIP3    H246081   7.685   5.264   1.614 -1.6185 -0.1519  0.3881
 7296TIP3   OH246082   7.095   2.866   2.490 -0.3176 -0.2154  0.1578
 7296TIP3    H146083   7.170   2.917   2.521 -1.0054  0.8463  0.1269
 7296TIP3    H246084   7.019   2.914   2.521 -1.0032 -1.0270 -0.2177
 7297TIP3   OH246085   1.688   1.438   0.927  0.4129 -0.5039  0.4274
 7297TIP3    H146086   1.696   1.533   0.923 -1.8063 -0.2453  0.8850
 7297TIP3    H246087   1.775   1.407   0.953  1.2338  1.3631  0.0177
 7298TIP3   OH246088   5.585   4.163   3.353  0.0491  0.3816  0.3184
 7298TIP3    H146089   5.595   4.188   3.261  0.2890 -0.7590  0.0190
 7298TIP3    H246090   5.656   4.101   3.368 -2.6391 -3.0381 -0.0336
 7299TIP3   OH246091   3.732   7.248   1.923 -0.4474  0.7191  0.4318
 7299TIP3    H146092   3.717   7.290   1.838 -2.4289  1.8962  1.3080
 7299TIP3    H246093   3.656   7.190   1.934  0.7897 -0.9420  0.5533
 7300TIP3   OH246094   5.842   6.302   0.984  0.5914  0.1863 -0.2535
 7300TIP3    H146095   5.828   6.396   0.979 -0.3468  0.0863  0.3403
 7300TIP3    H246096   5.789   6.273   1.058 -0.4412 -1.0558 -1.4328
 7301TIP3   OH246097   4.125   5.192   1.568  0.7655 -0.4593  0.1287
 7301TIP3    H146098   4.125   5.121   1.504  1.7154 -1.4010  1.1331
 7301TIP3    H246099   4.140   5.148   1.652  2.5180  1.0403  0.6400
 7302TIP3   OH246100   3.323   1.253   1.218 -0.3431  0.0676  0.5542
 7302TIP3    H146101   3.407   1.293   1.194 -0.3548  0.9082  1.8062
 7302TIP3    H246102   3.346   1.165   1.247  0.2484  0.5464  1.6308
 7303TIP3   OH246103   7.095   0.645   2.508 -0.0169  0.1282  0.2472
 7303TIP3    H146104   7.007   0.612   2.489 -0.3018  1.1711 -0.3321
 7303TIP3    H246105   7.126   0.679   2.424  0.5359  0.6979  0.6777
 7304TIP3   OH246106   7.351   4.680   2.729  0.0840 -0.5546  0.1457
 7304TIP3    H146107   7.424   4.673   2.790  0.6533 -1.5393 -0.6171
 7304TIP3    H246108   7.307   4.595   2.734  0.9273 -1.1665 -1.7392
 7305TIP3   OH246109   1.835   0.364   2.000  0.2678  0.1746  0.3185
 7305TIP3    H146110   1.912   0.364   1.944  0.7754 -0.8443  0.9988
 7305TIP3    H246111   1.797   0.277   1.990 -1.2582  0.9046 -0.6063
 7306TIP3   OH246112   6.587   3.664   1.287 -0.3149 -0.7680  0.6486
 7306TIP3    H146113   6.526   3.627   1.350 -0.8873 -1.6546 -0.3867
 7306TIP3    H246114   6.536   3.728   1.238 -0.7431 -2.1832 -0.8542
 7307TIP3   OH246115   4.299   1.570   1.382  0.5750 -0.5830 -0.1947
 7307TIP3    H146116   4.206   1.560   1.404  0.5848 -1.2037 -0.4182
 7307TIP3    H246117   4.343   1.504   1.435  0.6667 -1.7103 -1.6218
 7308TIP3   OH246118   0.602   3.645   3.228 -0.0196 -0.0370  0.0616
 7308TIP3    H146119   0.514   3.609   3.226 -0.4017  0.7011  1.8069
 7308TIP3    H246120   0.603   3.711   3.160 -0.2431 -1.2326 -1.1384
 7309TIP3   OH246121   4.727   2.341   0.931  0.3775 -0.3229  0.2436
 7309TIP3    H146122   4.750   2.426   0.969  1.1683  1.2391 -3.3677
 7309TIP3    H246123   4.670   2.361   0.857 -3.1518 -3.3593  1.7903
 7310TIP3   OH246124   1.828   7.620   1.470 -0.1659  0.0568 -0.3172
 7310TIP3    H146125   1.738   7.598   1.493 -0.5324  0.4238 -1.3082
 7310TIP3    H246126   1.881   7.587   1.542 -1.1842  0.7493  0.7934
 7311TIP3   OH246127   6.650   3.366   0.855  0.2117 -0.1352 -0.5327
 7311TIP3    H146128   6.629   3.435   0.793 -0.3003  0.0801 -0.1228
 7311TIP3    H246129   6.630   3.403   0.941  0.7583 -0.4879 -0.2447
 7312TIP3   OH246130   0.412   0.208   1.115  0.2294 -0.1762 -0.2692
 7312TIP3    H146131   0.353   0.192   1.188 -1.7151  1.3511 -1.4012
 7312TIP3    H246132   0.392   0.297   1.087  0.7754 -0.7582 -2.7579
 7313TIP3   OH246133   2.997   0.275   2.674  0.0608  0.0356  0.1715
 7313TIP3    H146134   2.955   0.273   2.588 -0.6906 -0.5852  0.5482
 7313TIP3    H246135   2.994   0.367   2.700  1.3600  0.4323 -0.9705
 7314TIP3   OH246136   1.822   3.148   2.208  0.3596 -0.3034  0.6480
 7314TIP3    H146137   1.788   3.059   2.206 -1.6695  0.4208  1.1392
 7314TIP3    H246138   1.816   3.178   2.117  0.1450 -0.3409  0.6497
 7315TIP3   OH246139   4.307   4.649   2.076 -0.4559  0.2431 -0.2458
 7315TIP3    H146140   4.272   4.727   2.120  0.0696  0.7087 -0.6499
 7315TIP3    H246141   4.229   4.601   2.048 -0.7826  0.8576 -0.4026
 7316TIP3   OH246142   7.465   1.258   3.067 -0.3426 -0.0329 -0.1171
 7316TIP3    H146143   7.558   1.246   3.049 -0.3496 -0.0319 -0.1545
 7316TIP3    H246144   7.425   1.264   2.980 -0.4077 -0.2574 -0.1026
 7317TIP3   OH246145   2.696   2.499   0.869  0.3542 -0.0913  0.2168
 7317TIP3    H146146   2.686   2.554   0.792  2.8859  0.6687  0.3439
 7317TIP3    H246147   2.703   2.410   0.834  0.2982  0.1115 -0.3222
 7318TIP3   OH246148   2.647   5.443   2.426  0.0624 -0.0594  0.2012
 7318TIP3    H146149   2.617   5.485   2.507  0.4607  0.1383  0.2498
 7318TIP3    H246150   2.584   5.373   2.410 -0.0969 -0.0108  0.6114
 7319TIP3   OH246151   5.389   6.317   2.506 -0.0117  0.4243 -0.0278
 7319TIP3    H146152   5.394   6.236   2.557  0.1529  0.7707  0.5106
 7319TIP3    H246153   5.479   6.346   2.496 -0.0839  0.6469 -0.0487
 7320TIP3   OH246154   3.527   4.626   1.470  0.0243  0.2177  0.0780
 7320TIP3    H146155   3.540   4.720   1.458  0.7600  0.1522  0.3356
 7320TIP3    H246156   3.585   4.603   1.543  0.9470 -0.6997 -0.9157
 7321TIP3   OH246157   5.483   1.841   1.649 -0.0734 -0.6780 -0.2195
 7321TIP3    H146158   5.417   1.899   1.609 -0.3167 -1.9841 -1.8377
 7321TIP3    H246159   5.431   1.774   1.693  0.1908 -0.5990  0.2107
 7322TIP3   OH246160   7.542   4.734   1.032 -0.1043  0.5128  0.6811
 7322TIP3    H146161   7.491   4.671   0.981 -0.2106  1.0728  0.0814
 7322TIP3    H246162   7.578   4.683   1.105  0.3664 -0.3963 -0.1660
 7323TIP3   OH246163   2.732   3.082   1.576 -0.4275  0.0080  0.1069
 7323TIP3    H146164   2.814   3.058   1.618 -1.0050  2.0193  2.6293
 7323TIP3    H246165   2.736   3.178   1.569 -2.8670  0.2622  1.1630
 7324TIP3   OH246166   4.597   3.444   2.528 -0.4125  0.2078  0.2083
 7324TIP3    H146167   4.512   3.464   2.487  0.4217  1.6582 -0.9140
 7324TIP3    H246168   4.636   3.377   2.471  0.4359  1.7035 -1.0527
 7325TIP3   OH246169   4.128   2.990   1.730 -0.0656 -0.0750  0.3252
 7325TIP3    H146170   4.091   3.069   1.690 -2.2906 -0.6517  1.0976
 7325TIP3    H246171   4.181   2.951   1.661  0.3758  1.6276 -0.3437
 7326TIP3   OH246172   5.037   7.603   1.733  0.3211  0.0531 -0.2171
 7326TIP3    H146173   5.059   7.570   1.646 -0.5116  1.5985 -1.0524
 7326TIP3    H246174   5.095   7.678   1.746 -0.0293  0.2413  0.2825
 7327TIP3   OH246175   0.959   5.537   3.630 -0.1354 -0.1614 -0.1763
 7327TIP3    H146176   1.033   5.534   3.570  1.5107  2.5015  1.5115
 7327TIP3    H246177   0.953   5.449   3.666  1.2639 -0.8111 -1.4423
 7328TIP3   OH246178   4.640   4.922   3.066 -0.1103 -0.0283  0.5078
 7328TIP3    H146179   4.656   4.980   3.141  2.1394 -0.0179  0.0813
 7328TIP3    H246180   4.708   4.855   3.073  1.4559  1.0531 -2.5527
 7329TIP3   OH246181   5.945   0.732   2.532  0.2091 -0.1353  0.0723
 7329TIP3    H146182   5.984   0.801   2.585 -2.0255 -1.2356  3.4845
 7329TIP3    H246183   5.925   0.774   2.448  0.7827  2.7564  1.2591
 7330TIP3   OH246184   1.087   1.830   2.428 -0.5721  0.3220 -0.1128
 7330TIP3    H146185   1.155   1.823   2.495 -1.1348  1.1988  0.5756
 7330TIP3    H246186   1.080   1.924   2.410 -2.7907  0.4667  1.1220
 7331TIP3   OH246187   4.232   2.114   1.640  0.4934 -0.7397 -0.1341
 7331TIP3    H146188   4.256   2.152   1.555 -0.1967  0.0376  0.0069
 7331TIP3    H246189   4.170   2.044   1.619 -1.1235  0.6376 -0.1962
 7332TIP3   OH246190   1.630   6.409   1.130  0.3303 -0.8962  0.8603
 7332TIP3    H146191   1.614   6.362   1.211  1.7164  1.1985  2.4634
 7332TIP3    H246192   1.718   6.446   1.140  1.8765 -2.9139 -2.8675
 7333TIP3   OH246193   1.049   2.660   0.796  0.5782 -0.1347 -0.0781
 7333TIP3    H146194   0.980   2.726   0.786 -1.8995 -2.4647  0.3685
 7333TIP3    H246195   1.120   2.691   0.740 -2.0711  0.9106 -3.2361
 7334TIP3   OH246196   3.481   3.809   2.883 -0.4160  0.4362 -0.2942
 7334TIP3    H146197   3.535   3.871   2.834  0.8372 -0.8307 -0.5612
 7334TIP3    H246198   3.397   3.810   2.838 -0.2368  1.5172 -0.6350
 7335TIP3   OH246199   5.964   0.028   1.388  0.3473  0.3466 -0.0284
 7335TIP3    H146200   6.001   0.087   1.323 -1.3317  0.9791 -0.4523
 7335TIP3    H246201   5.886  -0.009   1.347 -0.9731  1.0414  1.7105
 7336TIP3   OH246202   4.510   4.080   1.371  0.6385 -0.4674 -0.2610
 7336TIP3    H146203   4.520   3.985   1.362  2.9005 -0.2446 -0.5755
 7336TIP3    H246204   4.480   4.110   1.285 -0.1750 -0.8858 -0.1316
 7337TIP3   OH246205   4.839   0.196   1.055 -0.0588 -0.1447  0.0417
 7337TIP3    H146206   4.865   0.192   1.147 -1.1368  1.1816  0.4271
 7337TIP3    H246207   4.765   0.257   1.052 -0.7823 -1.0096 -1.5448
 7338TIP3   OH246208   5.052   6.429   1.596 -0.0722  0.2785  0.2416
 7338TIP3    H146209   4.957   6.417   1.593  0.1431 -1.8498 -2.2059
 7338TIP3    H246210   5.068   6.510   1.547 -0.5637 -0.7924 -1.8182
 7339TIP3   OH246211   3.901   2.671   0.580  0.0426 -0.4149 -0.1805
 7339TIP3    H146212   3.808   2.656   0.564  0.2656 -0.4193 -1.6000
 7339TIP3    H246213   3.940   2.584   0.587  0.1130 -0.4320 -0.7350
 7340TIP3   OH246214   4.487   3.640   1.631  0.1973  0.6993  0.1450
 7340TIP3    H146215   4.533   3.566   1.672 -0.2622 -0.1997 -0.9197
 7340TIP3    H246216   4.400   3.638   1.669  0.3324  0.9975  0.4741
 7341TIP3   OH246217   4.615   3.288   1.764  0.7367  0.1255  0.4584
 7341TIP3    H146218   4.559   3.236   1.707 -0.1800  1.2211  0.3271
 7341TIP3    H246219   4.655   3.353   1.707  0.7711  0.4529  0.8480
 7342TIP3   OH246220   3.739   2.467   1.552  0.6196 -0.7402  0.0223
 7342TIP3    H146221   3.688   2.545   1.574 -0.6135 -1.9674  1.7679
 7342TIP3    H246222   3.686   2.422   1.486  0.9467 -0.5410 -0.3886
 7343TIP3   OH246223   6.346   3.481   2.563 -0.0350  0.1351  0.0820
 7343TIP3    H146224   6.278   3.458   2.499  0.3265  0.6466 -0.4889
 7343TIP3    H246225   6.307   3.457   2.647 -0.7487  0.0010 -0.2716
 7344TIP3   OH246226   3.597   4.306   2.638  0.2654 -0.5311  0.1632
 7344TIP3    H146227   3.662   4.308   2.708 -0.2742 -0.4809  0.6652
 7344TIP3    H246228   3.603   4.392   2.597  0.5956 -0.5681  0.1318
 7345TIP3   OH246229   1.951   0.703   1.467 -0.2909  0.1265  0.6428
 7345TIP3    H146230   1.952   0.762   1.392 -1.3263 -1.7888 -0.9743
 7345TIP3    H246231   2.018   0.638   1.446 -0.3004 -0.1974  1.6019
 7346TIP3   OH246232   3.136   5.330   2.214  0.5975 -0.6807 -0.7295
 7346TIP3    H146233   3.099   5.315   2.301  2.5137 -0.0314  0.2562
 7346TIP3    H246234   3.076   5.285   2.154 -1.4697 -0.0640  0.7803
 7347TIP3   OH246235   3.775   4.862   2.035  0.1641  0.2106  0.2622
 7347TIP3    H146236   3.704   4.817   2.079  1.1951 -0.5570  1.1836
 7347TIP3    H246237   3.827   4.900   2.105  1.6801 -0.8025 -0.2497
 7348TIP3   OH246238   1.174   5.190   0.619 -0.4283 -0.2373  0.4329
 7348TIP3    H146239   1.240   5.260   0.616  0.7989 -1.3367  0.7796
 7348TIP3    H246240   1.109   5.216   0.554  0.5519  0.6913 -0.2226
 7349TIP3   OH246241   5.525   6.006   1.556 -0.5109 -0.4037  0.2562
 7349TIP3    H146242   5.439   6.009   1.598 -1.0180  2.2510 -0.7724
 7349TIP3    H246243   5.507   6.020   1.463  1.0293  0.8817  0.1058
 7350TIP3   OH246244   3.346   4.644   0.850 -0.0784 -0.1716  0.7763
 7350TIP3    H146245   3.440   4.649   0.868  0.1888 -1.9949  0.2177
 7350TIP3    H246246   3.341   4.599   0.765 -1.4429  0.9466  0.2177
 7351TIP3   OH246247   0.540   4.896   2.105 -0.4648 -0.7427 -0.0988
 7351TIP3    H146248   0.521   4.968   2.165 -0.4393 -0.6648 -0.1825
 7351TIP3    H246249   0.615   4.928   2.054 -2.3527  0.4892 -2.2935
 7352TIP3   OH246250   3.090   2.658   0.422 -0.3908  0.2090  0.0297
 7352TIP3    H146251   3.111   2.727   0.359  0.4507  0.9072  1.0497
 7352TIP3    H246252   3.066   2.705   0.502  3.0783 -0.5828  1.7331
 7353TIP3   OH246253   7.076   0.712   1.281  0.0975  0.1508  0.2916
 7353TIP3    H146254   7.098   0.805   1.287  0.9525  0.0069 -0.3586
 7353TIP3    H246255   7.160   0.668   1.289 -0.2556 -0.5478  0.1900
 7354TIP3   OH246256   5.477   2.224   1.533  0.4901 -0.0217  0.0124
 7354TIP3    H146257   5.438   2.295   1.481 -0.7206 -1.5499 -1.2546
 7354TIP3    H246258   5.429   2.226   1.616 -0.7314 -0.4071 -0.6631
 7355TIP3   OH246259   7.584   6.509   0.790  0.4351 -0.3267  0.2983
 7355TIP3    H146260   7.668   6.481   0.753  0.6687  3.0458 -2.1537
 7355TIP3    H246261   7.605   6.590   0.837 -1.3070  0.0464  0.4877
 7356TIP3   OH246262   2.947   2.955   1.960  0.5335 -0.2688 -0.2990
 7356TIP3    H146263   2.986   2.905   1.889 -0.2148 -1.0982 -0.1455
 7356TIP3    H246264   3.006   2.942   2.035  1.7684  1.2736 -0.9449
 7357TIP3   OH246265   1.691   0.626   1.528 -0.6002 -0.1735 -0.0864
 7357TIP3    H146266   1.784   0.623   1.505  0.1397  0.0336  2.5413
 7357TIP3    H246267   1.688   0.670   1.613 -2.5751 -3.9330  2.0965
 7358TIP3   OH246268   0.900   4.365   0.862 -0.5037  0.1955  0.5464
 7358TIP3    H146269   0.884   4.401   0.775  1.2349  0.0509  0.1258
 7358TIP3    H246270   0.878   4.273   0.854  0.8976 -0.1065 -0.1514
 7359TIP3   OH246271   2.075   1.728   3.364 -0.2402 -0.1593 -0.8023
 7359TIP3    H146272   2.150   1.701   3.312  0.5201  0.8767 -0.2875
 7359TIP3    H246273   2.077   1.671   3.441 -0.8457 -1.0953 -1.4568
 7360TIP3   OH246274   3.717   3.466   0.740  0.1623 -0.2780  0.6935
 7360TIP3    H146275   3.682   3.442   0.654  1.1983 -2.8559  0.8855
 7360TIP3    H246276   3.642   3.461   0.799 -0.1959 -0.3431  0.2312
 7361TIP3   OH246277   6.285   0.302   2.933 -0.6805  0.8301 -0.2120
 7361TIP3    H146278   6.192   0.306   2.910 -0.6060  1.5440 -0.4250
 7361TIP3    H246279   6.287   0.259   3.018 -1.2752  1.4227  0.1113
 7362TIP3   OH246280   0.501   6.562   3.200  0.4047 -0.3880 -0.0951
 7362TIP3    H146281   0.544   6.647   3.208  0.7837 -0.4327 -1.5017
 7362TIP3    H246282   0.530   6.514   3.278  3.2715 -0.5449 -1.1220
 7363TIP3   OH246283   2.611   3.761   3.519 -0.2852  0.5389  0.3678
 7363TIP3    H146284   2.693   3.788   3.560 -0.0911  3.0278 -1.3745
 7363TIP3    H246285   2.638   3.719   3.437 -0.7049  1.2707 -0.1606
 7364TIP3   OH246286   4.565   1.943   2.116 -0.1585 -0.2359  0.4329
 7364TIP3    H146287   4.636   1.881   2.135  0.4281  0.6182  1.0875
 7364TIP3    H246288   4.561   1.947   2.021  1.1073  0.1913  0.3878
 7365TIP3   OH246289   0.441   6.362   1.038  0.0432  0.3432  0.0186
 7365TIP3    H146290   0.530   6.397   1.039 -0.0261  0.6027  2.2218
 7365TIP3    H246291   0.442   6.291   1.103 -1.3434  0.3905  0.1284
 7366TIP3   OH246292   0.005   6.370   1.238 -0.6457  0.9347  0.7906
 7366TIP3    H146293  -0.040   6.453   1.223  0.5987  1.4994  0.0196
 7366TIP3    H246294   0.056   6.356   1.159 -0.2911 -0.2160  1.2065
 7367TIP3   OH246295   5.008   5.189   2.108 -0.2271 -0.2738 -0.0426
 7367TIP3    H146296   5.025   5.234   2.025 -0.2042  0.8662  0.5544
 7367TIP3    H246297   4.967   5.256   2.163 -1.1144 -1.2774  0.5575
 7368TIP3   OH246298   5.700   3.991   0.984 -0.4655  0.2012  0.0699
 7368TIP3    H146299   5.665   4.021   0.901 -0.3606 -1.8977 -0.7857
 7368TIP3    H246300   5.624   3.966   1.035 -0.4121 -1.2165 -0.5166
 7369TIP3   OH246301   1.960   2.347   1.919  0.6019  0.2878  0.7589
 7369TIP3    H146302   2.039   2.397   1.899 -1.2520  1.9490 -3.4215
 7369TIP3    H246303   1.947   2.290   1.843 -2.4880  0.4988  0.9986
 7370TIP3   OH246304   2.866   0.913   3.192  0.5507 -0.1802 -0.1848
 7370TIP3    H146305   2.777   0.943   3.209  0.5609 -0.9246  1.3359
 7370TIP3    H246306   2.874   0.915   3.096 -1.4711 -1.1519 -0.4284
 7371TIP3   OH246307   0.231   0.620   1.645  0.0454 -1.0195  0.1952
 7371TIP3    H146308   0.149   0.584   1.610 -0.8087 -0.6215  1.6822
 7371TIP3    H246309   0.208   0.709   1.673  1.1094 -0.7389  0.2117
 7372TIP3   OH246310   5.603   5.401   0.888 -0.4019 -0.0929 -0.2742
 7372TIP3    H146311   5.609   5.315   0.847  1.3599  0.8686 -2.1917
 7372TIP3    H246312   5.693   5.434   0.889 -0.9733  1.5789  0.7894
 7373TIP3   OH246313   5.966   1.658   0.785  0.4091  0.2903  0.0516
 7373TIP3    H146314   5.940   1.566   0.788  0.2095  0.3732  1.5160
 7373TIP3    H246315   5.999   1.671   0.696  0.8650 -1.3076 -0.0366
 7374TIP3   OH246316   6.878   3.884   1.403 -0.0969 -0.0576 -0.1026
 7374TIP3    H146317   6.841   3.799   1.428 -0.7938  0.2239 -0.1751
 7374TIP3    H246318   6.959   3.890   1.453  0.4888 -1.2130 -0.8424
 7375TIP3   OH246319   6.712   5.815   2.015 -0.8043  0.2533  0.5374
 7375TIP3    H146320   6.798   5.825   2.056 -0.6058  0.1604  0.1516
 7375TIP3    H246321   6.705   5.890   1.956 -1.6379  1.1009  1.6905
 7376TIP3   OH246322   0.757   2.719   0.416 -0.3085 -0.2814  0.4294
 7376TIP3    H146323   0.679   2.770   0.438 -1.8080 -0.4977 -3.5588
 7376TIP3    H246324   0.826   2.784   0.405 -0.4394  0.1257  1.7475
 7377TIP3   OH246325   0.683   5.351   3.055  0.3808 -0.2791  0.9754
 7377TIP3    H146326   0.742   5.424   3.034 -0.9725  0.6711  0.3049
 7377TIP3    H246327   0.595   5.387   3.040 -0.3438 -1.8473  1.3237
 7378TIP3   OH246328   5.718   5.278   1.382  0.4891  0.4145  0.2570
 7378TIP3    H146329   5.775   5.247   1.311 -0.0882 -0.0222 -0.0223
 7378TIP3    H246330   5.731   5.373   1.384  1.1538  0.3290  0.1365
 7379TIP3   OH246331   1.593   5.647   2.574  0.2068 -0.6751  0.1930
 7379TIP3    H146332   1.617   5.558   2.599  1.1866 -0.4661  0.0656
 7379TIP3    H246333   1.671   5.699   2.596  0.5834 -0.2488 -1.9400
 7380TIP3   OH246334   5.827   3.016   0.968  0.1591 -0.0553  1.0332
 7380TIP3    H146335   5.878   2.949   0.923  0.3498  0.3996  0.5650
 7380TIP3    H246336   5.867   3.099   0.942  0.6170  0.2010  2.4753
 7381TIP3   OH246337   2.592   0.211   1.473  0.2191 -0.1516 -0.3976
 7381TIP3    H146338   2.668   0.253   1.513 -0.1023  0.5232 -0.4862
 7381TIP3    H246339   2.596   0.236   1.380 -0.8244  1.0128 -0.1703
 7382TIP3   OH246340   7.630   2.890   3.275 -0.3631  0.0495 -0.5627
 7382TIP3    H146341   7.563   2.822   3.280 -1.7196  1.3064 -1.1943
 7382TIP3    H246342   7.664   2.884   3.186 -0.7435  0.4380 -0.7345
 7383TIP3   OH246343   4.868   1.411   2.338 -0.0506  0.6871  0.0016
 7383TIP3    H146344   4.878   1.366   2.254  1.9895  0.2125  0.4467
 7383TIP3    H246345   4.952   1.456   2.352 -0.3014  0.6813  1.8240
 7384TIP3   OH246346   5.752   6.057   2.270  0.2525 -0.1782  0.2212
 7384TIP3    H146347   5.758   6.101   2.185 -0.7132 -2.0073 -0.8279
 7384TIP3    H246348   5.837   6.014   2.280  0.1108 -0.5585 -0.1710
 7385TIP3   OH246349   0.279   0.544   0.851 -0.0091 -0.6958  0.3328
 7385TIP3    H146350   0.338   0.520   0.923 -0.0977 -1.3999  0.1785
 7385TIP3    H246351   0.296   0.478   0.784 -0.9586 -0.8992  0.2775
 7386TIP3   OH246352   7.345   2.999   2.633 -0.2727  0.4876  0.2312
 7386TIP3    H146353   7.298   3.071   2.675 -0.6248  0.3117  0.1423
 7386TIP3    H246354   7.437   3.027   2.632 -0.6353  1.8043 -1.5079
 7387TIP3   OH246355   0.446   6.038   2.248  0.0230 -0.1128 -0.3517
 7387TIP3    H146356   0.469   6.067   2.161 -1.6384  1.1377 -0.4240
 7387TIP3    H246357   0.350   6.031   2.247  0.0420 -1.1751  1.0396
 7388TIP3   OH246358   4.927   5.044   1.776  0.1799 -0.0384  0.3048
 7388TIP3    H146359   4.911   5.136   1.799 -0.3666 -0.2883  0.9280
 7388TIP3    H246360   4.906   5.039   1.682  0.8840  0.6252  0.1041
 7389TIP3   OH246361   3.097   2.186   2.181  0.0044 -0.1065 -0.4825
 7389TIP3    H146362   3.070   2.201   2.272  0.4724  0.8794 -0.4927
 7389TIP3    H246363   3.191   2.202   2.180  0.1590 -0.9986 -0.9658
 7390TIP3   OH246364   5.408   6.593   2.952  0.1498 -0.0866  0.8192
 7390TIP3    H146365   5.325   6.634   2.975 -0.3417 -0.4310 -0.2861
 7390TIP3    H246366   5.465   6.611   3.026 -0.7149  0.7196  1.3038
 7391TIP3   OH246367   7.225   1.311   2.079 -0.3342  0.6807 -0.0119
 7391TIP3    H146368   7.190   1.288   1.994  0.5049  0.8603 -0.4207
 7391TIP3    H246369   7.252   1.402   2.071  0.6330  0.4226  0.1310
 7392TIP3   OH246370   2.556   5.724   1.163 -0.2139 -0.4659 -0.1469
 7392TIP3    H146371   2.633   5.773   1.191 -0.2429 -1.0487  0.9813
 7392TIP3    H246372   2.492   5.791   1.140  0.9984  0.0589 -2.2731
 7393TIP3   OH246373   0.211   2.024   2.823 -0.0018  0.2726  0.1993
 7393TIP3    H146374   0.154   2.084   2.776 -2.2119 -0.6741  1.4706
 7393TIP3    H246375   0.154   1.951   2.847  1.7420 -0.7136  1.6492
 7394TIP3   OH246376   2.798   7.200   1.125  0.4807  0.4466  0.2618
 7394TIP3    H146377   2.728   7.172   1.184  0.8575  1.0946  1.0329
 7394TIP3    H246378   2.766   7.281   1.086 -0.0520 -0.3133 -0.9733
 7395TIP3   OH246379   3.467   4.609   2.336  0.2836 -0.1843 -0.3553
 7395TIP3    H146380   3.390   4.591   2.389 -0.4629  1.1577 -0.9251
 7395TIP3    H246381   3.517   4.527   2.336 -1.8937 -1.6026 -1.2267
 7396TIP3   OH246382   4.512   5.849   2.843 -0.1996  0.0744 -0.2729
 7396TIP3    H146383   4.576   5.806   2.900 -0.3175 -1.3236 -1.1521
 7396TIP3    H246384   4.552   5.934   2.822  0.4641  0.0372  0.7535
 7397TIP3   OH246385   0.281   4.620   2.677  0.1132  0.1273  0.1679
 7397TIP3    H146386   0.282   4.675   2.599  3.0673  1.0097  0.7223
 7397TIP3    H246387   0.365   4.575   2.676 -0.7329 -1.6349  1.6763
 7398TIP3   OH246388   3.218   1.869   2.148 -0.3577 -0.0490  0.0800
 7398TIP3    H146389   3.242   1.842   2.237  2.1873 -0.9705 -0.7918
 7398TIP3    H246390   3.227   1.964   2.148  2.3473 -0.2387  0.1684
 7399TIP3   OH246391   2.402   5.511   1.279  0.3576  0.5897  0.5403
 7399TIP3    H146392   2.318   5.512   1.233  1.0808 -1.5147 -0.9539
 7399TIP3    H246393   2.460   5.564   1.225  0.2392  1.3065  1.1032
 7400TIP3   OH246394   4.034   0.203   1.537 -0.4532 -0.2971  0.0729
 7400TIP3    H146395   4.070   0.115   1.541  0.7477  0.1973  0.5900
 7400TIP3    H246396   3.941   0.192   1.556 -0.4901 -1.5469 -0.7578
 7401TIP3   OH246397   4.732   1.741   2.183  0.4901  0.7920 -0.1448
 7401TIP3    H146398   4.822   1.712   2.166  0.0491 -0.1029 -1.0473
 7401TIP3    H246399   4.721   1.731   2.278  0.5205 -1.6549 -0.3444
 7402TIP3   OH246400   3.359   6.135   0.870 -0.1242 -0.1736  0.1381
 7402TIP3    H146401   3.344   6.057   0.924  1.9969 -1.0459 -0.4266
 7402TIP3    H246402   3.396   6.101   0.788 -0.2759  1.3594 -0.6152
 7403TIP3   OH246403   3.400   0.915   1.601 -0.4312 -0.1151  0.3045
 7403TIP3    H146404   3.376   1.004   1.624  1.7923  0.3512  1.0243
 7403TIP3    H246405   3.412   0.870   1.685 -1.2850 -1.0373 -0.0452
 7404TIP3   OH246406   0.222   3.437   2.571 -0.6626 -0.2057 -0.9146
 7404TIP3    H146407   0.251   3.519   2.610  0.2933 -0.0520 -1.9129
 7404TIP3    H246408   0.240   3.371   2.638 -2.4240  0.4861  0.3286
 7405TIP3   OH246409   0.350   2.034   1.317  0.2210 -0.0843  0.0772
 7405TIP3    H146410   0.305   2.098   1.261 -0.0581 -0.6848 -0.3904
 7405TIP3    H246411   0.286   1.965   1.331  0.6019 -0.3768  0.3861
 7406TIP3   OH246412   6.403   4.488   1.987 -0.2642 -0.4339 -0.4961
 7406TIP3    H146413   6.317   4.490   2.029 -0.1251 -1.6814 -0.1011
 7406TIP3    H246414   6.388   4.445   1.903  0.1966 -2.0343  0.2045
 7407TIP3   OH246415   3.525   4.865   2.475 -0.2225  0.0250  0.7338
 7407TIP3    H146416   3.535   4.798   2.407  1.4695  0.6290  0.3484
 7407TIP3    H246417   3.438   4.849   2.512 -1.1128 -0.4448 -1.4329
 7408TIP3   OH246418   4.919   7.473   1.490 -0.0172  0.3618 -0.4151
 7408TIP3    H146419   4.999   7.420   1.493 -0.6607 -0.7304 -1.4982
 7408TIP3    H246420   4.926   7.523   1.409  0.7902  2.3387  0.8192
 7409TIP3   OH246421   1.309   1.632   0.978 -0.0237 -0.0484 -0.4689
 7409TIP3    H146422   1.318   1.549   0.931 -1.8463 -0.6771  0.1904
 7409TIP3    H246423   1.257   1.609   1.055  0.6974  1.4492  0.4861
 7410TIP3   OH246424   6.112   6.994   0.521 -0.1714  0.0790  0.1020
 7410TIP3    H146425   6.123   7.008   0.427  2.8042  1.0879  0.4737
 7410TIP3    H246426   6.093   6.900   0.530 -0.5417 -0.0168 -1.4970
 7411TIP3   OH246427   2.534   2.662   1.325  0.0243 -0.2508 -0.8505
 7411TIP3    H146428   2.492   2.654   1.411 -0.1585 -2.2526 -1.0737
 7411TIP3    H246429   2.606   2.600   1.328  0.0106 -0.3557 -2.1482
 7412TIP3   OH246430   3.491   4.675   3.168  0.2591 -0.2619  0.0624
 7412TIP3    H146431   3.448   4.727   3.100  0.5900  0.9242  0.7251
 7412TIP3    H246432   3.466   4.717   3.250  1.4280 -0.4741  0.5580
 7413TIP3   OH246433   0.076   0.367   0.539 -0.2200  0.6247 -0.2644
 7413TIP3    H146434   0.082   0.280   0.579  0.5102 -0.0016 -1.6784
 7413TIP3    H246435   0.157   0.411   0.565  0.0438  0.3858 -0.6883
 7414TIP3   OH246436   0.718   5.744   2.403  0.0225 -0.2771  0.5938
 7414TIP3    H146437   0.741   5.700   2.484 -0.3859 -0.5160  0.5819
 7414TIP3    H246438   0.634   5.785   2.421 -2.2471 -3.7647 -0.9259
 7415TIP3   OH246439   6.867   4.968   1.978  0.4358 -0.1207  0.1294
 7415TIP3    H146440   6.824   5.011   1.904  0.7073 -0.2610 -0.1116
 7415TIP3    H246441   6.909   5.039   2.027 -0.0578  0.0158  0.3607
 7416TIP3   OH246442   6.128   3.397   2.434 -0.3259 -0.0552 -0.0349
 7416TIP3    H146443   6.112   3.330   2.369  1.0293 -0.8900  0.4502
 7416TIP3    H246444   6.080   3.367   2.512  2.5034 -2.0246  1.0958
 7417TIP3   OH246445   7.052   5.450   1.327  0.0945 -0.0508  0.6059
 7417TIP3    H146446   7.046   5.542   1.353 -0.7819 -0.2020  0.9888
 7417TIP3    H246447   7.034   5.451   1.233  0.8479  0.2447  0.4589
 7418TIP3   OH246448   6.274   0.782   1.445 -0.4827  0.2974  0.3352
 7418TIP3    H146449   6.220   0.765   1.368 -0.5741  1.0323  0.2226
 7418TIP3    H246450   6.348   0.833   1.411  0.1272 -0.4432  0.5375
 7419TIP3   OH246451   6.147   4.426   2.386  0.1799  0.5813  0.1133
 7419TIP3    H146452   6.233   4.404   2.422 -0.4615 -1.6958  0.4341
 7419TIP3    H246453   6.118   4.501   2.438  0.6987 -0.5321  2.1324
 7420TIP3   OH246454   1.733   0.322   3.599 -0.0173 -0.5106 -0.4416
 7420TIP3    H146455   1.649   0.279   3.612  0.2231 -0.4654  1.5312
 7420TIP3    H246456   1.712   0.415   3.595  0.0301 -0.3716  1.5582
 7421TIP3   OH246457   2.570   5.997   2.187  0.1200  0.1960 -0.0106
 7421TIP3    H146458   2.665   6.011   2.193  0.1986  0.6905 -1.6817
 7421TIP3    H246459   2.559   5.953   2.102 -1.1521  0.0948  0.1926
 7422TIP3   OH246460   7.282   0.527   3.117  0.3936 -0.2739 -0.4497
 7422TIP3    H146461   7.323   0.489   3.040 -1.1432  0.5850 -1.7547
 7422TIP3    H246462   7.295   0.621   3.107 -1.1577 -0.0401 -0.5011
 7423TIP3   OH246463   3.533   2.181   1.737 -0.1303 -0.2131  0.3560
 7423TIP3    H146464   3.613   2.170   1.686  0.9448  0.2198  1.8810
 7423TIP3    H246465   3.502   2.092   1.752  0.3650 -0.4139  0.2013
 7424TIP3   OH246466   5.183   0.146   1.749 -0.5211 -0.1749 -0.0520
 7424TIP3    H146467   5.185   0.140   1.654 -0.9029  0.5890 -0.1137
 7424TIP3    H246468   5.211   0.236   1.768 -0.0869 -0.4352  0.5734
 7425TIP3   OH246469   2.229   7.299   3.441  0.0560  0.6496  0.5113
 7425TIP3    H146470   2.308   7.248   3.428 -0.3237  0.6838 -2.4068
 7425TIP3    H246471   2.252   7.388   3.414 -0.9551  0.6706 -0.3306
 7426TIP3   OH246472   5.744   6.296   1.304  0.3828 -0.1272 -0.1034
 7426TIP3    H146473   5.672   6.312   1.365  0.4431  0.4774 -0.1786
 7426TIP3    H246474   5.752   6.378   1.255  0.5925 -0.4666 -0.6543
 7427TIP3   OH246475   5.666   2.630   2.474  0.2593 -0.1254  0.4431
 7427TIP3    H146476   5.706   2.558   2.523  1.7295 -0.7454 -1.5502
 7427TIP3    H246477   5.614   2.586   2.406 -2.0720  0.7088  1.5901
 7428TIP3   OH246478   1.649   2.265   1.608 -0.1967 -0.1628  0.1062
 7428TIP3    H146479   1.646   2.360   1.594  0.2266 -0.0280  0.8421
 7428TIP3    H246480   1.566   2.245   1.650 -1.4460 -0.5620 -2.4214
 7429TIP3   OH246481   7.189   7.110   1.855  0.0569 -0.0893  1.1060
 7429TIP3    H146482   7.264   7.111   1.913  1.5009 -0.2020 -0.6599
 7429TIP3    H246483   7.181   7.019   1.826  0.9598  0.3652 -0.7456
 7430TIP3   OH246484   0.953   0.035   1.173  0.3764  0.3059 -0.4552
 7430TIP3    H146485   0.859   0.036   1.154  0.5832  1.9674 -1.6086
 7430TIP3    H246486   0.971   0.121   1.211  1.5006  0.1806 -0.6713
 7431TIP3   OH246487   5.757   2.417   2.996 -0.0997  0.2895  0.0818
 7431TIP3    H146488   5.719   2.384   3.077  3.3471 -1.7781  1.0753
 7431TIP3    H246489   5.729   2.355   2.929 -0.0657 -0.0831  0.4083
 7432TIP3   OH246490   2.956   4.247   0.829 -0.5672  0.3446 -0.2606
 7432TIP3    H146491   2.958   4.284   0.917 -2.8269  0.3055 -0.1290
 7432TIP3    H246492   2.913   4.313   0.776  2.0837  1.0083 -1.7419
 7433TIP3   OH246493   0.800   4.057   1.040  0.0910 -0.6770 -0.1386
 7433TIP3    H146494   0.716   4.086   1.075  0.2848 -0.6322  0.2911
 7433TIP3    H246495   0.812   3.969   1.075  0.0582 -0.8222 -0.4872
 7434TIP3   OH246496   3.305   1.262   2.807  0.1942  0.1402  0.0375
 7434TIP3    H146497   3.392   1.267   2.846  0.0095  0.3667  0.4329
 7434TIP3    H246498   3.265   1.347   2.829  1.1224  1.5444 -3.1728
 7435TIP3   OH246499   6.296   2.038   0.805 -0.2743 -0.5619 -0.1886
 7435TIP3    H146500   6.251   2.002   0.881 -0.2236 -0.5438 -0.1499
 7435TIP3    H246501   6.318   1.962   0.751  2.1313 -0.8952  1.1096
 7436TIP3   OH246502   5.399   7.130   1.892  0.4670  0.0528  0.6565
 7436TIP3    H146503   5.406   7.122   1.987 -2.2416  0.7978  0.9853
 7436TIP3    H246504   5.321   7.079   1.869  1.0516 -0.0848 -1.1765
 7437TIP3   OH246505   6.201   5.243   2.405  0.1136  0.0423  0.3390
 7437TIP3    H146506   6.164   5.326   2.377 -0.3706 -0.3262 -0.1263
 7437TIP3    H246507   6.250   5.211   2.329  1.9971  0.8431  1.1529
 7438TIP3   OH246508   7.553   3.484   0.520 -0.2784  0.2089 -0.0629
 7438TIP3    H146509   7.488   3.420   0.490 -0.3111 -0.3013  1.0315
 7438TIP3    H246510   7.556   3.472   0.615  1.5435  0.1151 -0.0974
 7439TIP3   OH246511   7.270   6.341   0.758 -0.3248 -0.4952 -0.2820
 7439TIP3    H146512   7.270   6.428   0.797 -0.4389 -0.6119 -0.0237
 7439TIP3    H246513   7.319   6.287   0.820 -0.6181 -0.7079 -0.2360
 7440TIP3   OH246514   0.775   1.483   3.129 -0.1826 -0.1609 -0.4077
 7440TIP3    H146515   0.686   1.450   3.113 -0.0341 -1.1817  0.7364
 7440TIP3    H246516   0.814   1.491   3.042 -1.7059  1.2495 -1.0170
 7441TIP3   OH246517   0.652   5.475   1.381  0.1849 -0.1236  0.4180
 7441TIP3    H146518   0.590   5.486   1.309  0.2567  0.4830  0.4372
 7441TIP3    H246519   0.692   5.390   1.367 -0.2656 -0.2838  0.1001
 7442TIP3   OH246520   0.858   2.496   0.540 -0.2983  0.3624 -0.2265
 7442TIP3    H146521   0.895   2.539   0.617 -1.4517  1.7125 -0.3801
 7442TIP3    H246522   0.817   2.567   0.490 -0.9024 -0.7057 -1.3097
 7443TIP3   OH246523   2.505   4.060   2.625  0.6158 -0.5105 -0.4882
 7443TIP3    H146524   2.592   4.087   2.652  0.3238  0.4375 -0.4513
 7443TIP3    H246525   2.508   3.964   2.626  1.0048 -0.5216  1.6334
 7444TIP3   OH246526   5.885   1.730   2.402 -0.1763 -0.0372  0.3158
 7444TIP3    H146527   5.936   1.687   2.332 -0.3110 -0.7892  0.6729
 7444TIP3    H246528   5.948   1.743   2.472  0.3997  2.2692 -0.5287
 7445TIP3   OH246529   0.511   5.409   3.371 -0.6751  0.4463 -0.7937
 7445TIP3    H146530   0.587   5.438   3.320 -0.4413  1.1804 -0.0634
 7445TIP3    H246531   0.508   5.470   3.445 -0.9290 -0.6577  0.1295
 7446TIP3   OH246532   1.540   0.694   1.069 -0.4171 -0.6737  0.0497
 7446TIP3    H146533   1.488   0.634   1.121  0.4631 -0.9016  0.6964
 7446TIP3    H246534   1.578   0.754   1.133  0.7914 -1.0379 -0.2976
 7447TIP3   OH246535   3.274   7.073   2.791  0.2109  0.0653  0.0707
 7447TIP3    H146536   3.288   7.083   2.885  0.4143  1.1728 -0.0673
 7447TIP3    H246537   3.195   7.124   2.772 -1.9221 -2.9408  0.1784
 7448TIP3   OH246538   2.395   1.316   3.532  0.4506 -0.0938  0.0887
 7448TIP3    H146539   2.382   1.311   3.627 -0.6083  0.4995 -0.0019
 7448TIP3    H246540   2.405   1.410   3.515  1.4968 -0.2651 -0.2975
 7449TIP3   OH246541   4.958   2.759   1.625  0.3015 -0.6955  0.6873
 7449TIP3    H146542   4.994   2.703   1.694  2.9881 -1.1452 -0.9720
 7449TIP3    H246543   4.998   2.728   1.544 -4.8744 -2.1251 -1.7302
 7450TIP3   OH246544   0.043   4.024   2.897  0.0198 -0.0870 -0.3141
 7450TIP3    H146545   0.048   3.933   2.925 -0.9595 -0.0518  0.0134
 7450TIP3    H246546   0.131   4.044   2.865  0.0212 -1.4030 -1.2161
 7451TIP3   OH246547   6.896   6.353   0.752  0.5284  0.0058 -0.1087
 7451TIP3    H146548   6.966   6.357   0.686  0.6265 -1.5014 -0.1378
 7451TIP3    H246549   6.818   6.383   0.706  0.8966  0.4291 -0.4659
 7452TIP3   OH246550   3.120   2.889   1.456  0.4746  0.5608 -0.0523
 7452TIP3    H146551   3.200   2.931   1.427  0.1924  0.9261 -0.3114
 7452TIP3    H246552   3.073   2.867   1.375  1.1650 -1.3624  0.0128
 7453TIP3   OH246553   2.002   2.324   3.424 -0.4136  0.0191  0.2566
 7453TIP3    H146554   2.072   2.325   3.489  1.3259 -0.7383 -1.5035
 7453TIP3    H246555   1.921   2.320   3.475  0.9032 -2.0655  2.3333
 7454TIP3   OH246556   3.132   2.911   2.502 -0.3904 -0.5112 -0.2097
 7454TIP3    H146557   3.200   2.843   2.504  0.5301  0.3302 -1.5061
 7454TIP3    H246558   3.104   2.919   2.593  2.1750  0.0049  0.6274
 7455TIP3   OH246559   5.551   0.944   2.209  0.1841 -0.0795  0.0343
 7455TIP3    H146560   5.556   0.917   2.300 -2.4217  0.5471  0.4371
 7455TIP3    H246561   5.582   1.035   2.209  0.3028 -0.1202  0.2695
 7456TIP3   OH246562   1.469   1.833   2.365 -0.2320  0.6000 -0.0042
 7456TIP3    H146563   1.563   1.851   2.362  0.2985 -1.7369  0.2569
 7456TIP3    H246564   1.461   1.759   2.426 -2.4505  1.7225  1.1819
 7457TIP3   OH246565   5.114   0.476   1.912  0.2679  0.2151 -0.2287
 7457TIP3    H146566   5.172   0.439   1.979 -0.3072  0.4964  0.4304
 7457TIP3    H246567   5.160   0.459   1.829  0.5901 -0.8744  0.1585
 7458TIP3   OH246568   4.678   4.910   1.869 -0.2652 -0.1521 -0.6909
 7458TIP3    H146569   4.694   4.915   1.775 -2.8495 -1.2980 -1.2710
 7458TIP3    H246570   4.733   4.837   1.899 -1.1488 -1.3215 -1.7931
 7459TIP3   OH246571   2.422   6.213   2.090 -0.2721 -0.2040 -0.1936
 7459TIP3    H146572   2.508   6.172   2.081 -0.5267 -1.3226  1.7708
 7459TIP3    H246573   2.362   6.138   2.097 -0.9517  0.4731  1.9024
 7460TIP3   OH246574   3.232   6.667   2.207  0.8724 -0.0305  0.4267
 7460TIP3    H146575   3.325   6.650   2.224  1.0932  0.6448 -0.0434
 7460TIP3    H246576   3.230   6.759   2.181 -0.0257  0.1485  1.1046
 7461TIP3   OH246577   6.222   7.339   1.629  0.3399 -0.3909 -0.4594
 7461TIP3    H146578   6.156   7.269   1.628  2.0659 -2.1542  0.8462
 7461TIP3    H246579   6.206   7.386   1.711 -1.1465  1.1709 -1.5762
 7462TIP3   OH246580   3.093   6.433   1.157  0.0211  0.0240  0.0738
 7462TIP3    H146581   3.003   6.407   1.137 -0.2484  0.7032  0.3526
 7462TIP3    H246582   3.098   6.525   1.131  0.7253 -0.0905 -0.2137
 7463TIP3   OH246583   4.720   3.318   3.154  0.2895 -0.1479 -0.1872
 7463TIP3    H146584   4.793   3.346   3.209  0.3082 -0.7451  0.0955
 7463TIP3    H246585   4.748   3.236   3.115 -0.2051 -0.3556 -0.1202
 7464TIP3   OH246586   1.060   2.548   2.958 -0.3211  0.0707  0.3657
 7464TIP3    H146587   1.095   2.608   3.025 -2.0329 -0.0258  1.4037
 7464TIP3    H246588   1.039   2.468   3.006  0.5030 -0.8303 -0.7293
 7465TIP3   OH246589   7.534   5.647   3.110 -0.0871 -0.4057 -0.6642
 7465TIP3    H146590   7.466   5.621   3.047 -0.7040 -0.0289 -0.1639
 7465TIP3    H246591   7.492   5.712   3.166  1.0727  0.7752 -1.1258
 7466TIP3   OH246592   2.653   0.069   2.006 -0.4315  0.1985  0.1246
 7466TIP3    H146593   2.642   0.121   2.086  0.6843 -0.3525  0.6630
 7466TIP3    H246594   2.628  -0.020   2.032 -0.7928  0.1597 -0.3493
 7467TIP3   OH246595   5.547   2.320   3.181 -0.2877  0.3915 -0.5320
 7467TIP3    H146596   5.570   2.339   3.272 -2.0693  0.1679  0.0071
 7467TIP3    H246597   5.461   2.361   3.169 -2.4308 -3.6055 -0.5569
 7468TIP3   OH246598   5.107   1.262   2.702  0.3289 -0.1957  0.0347
 7468TIP3    H146599   5.112   1.251   2.797 -1.2558 -1.3169  0.0195
 7468TIP3    H246600   5.014   1.266   2.683  0.5754 -1.2021 -1.6101
 7469TIP3   OH246601   4.570   2.798   1.951 -0.1791  0.6917  0.2341
 7469TIP3    H146602   4.638   2.865   1.942 -1.0038  1.6064  0.7074
 7469TIP3    H246603   4.527   2.818   2.034  0.1110 -0.9560  0.8162
 7470TIP3   OH246604   7.222   4.173   1.939  0.4029 -0.1538 -0.1205
 7470TIP3    H146605   7.238   4.144   2.028 -0.2424  1.4679  0.5643
 7470TIP3    H246606   7.127   4.161   1.927  0.0014  2.1118  0.4052
 7471TIP3   OH246607   1.408   3.991   0.804  0.1387 -0.0684  0.1872
 7471TIP3    H146608   1.501   3.978   0.784 -0.4597 -0.9726 -2.2976
 7471TIP3    H246609   1.390   3.927   0.874  1.7291  1.4075  2.0852
 7472TIP3   OH246610   6.616   0.155   3.026  0.2530 -0.1259 -0.9554
 7472TIP3    H146611   6.699   0.139   3.071 -0.2327 -0.2246 -0.0791
 7472TIP3    H246612   6.568   0.073   3.036 -0.6881  0.5326  0.1739
 7473TIP3   OH246613   4.151   2.488   0.852 -0.0956 -0.2597 -0.2742
 7473TIP3    H146614   4.182   2.398   0.865  0.5705  0.0425  0.3250
 7473TIP3    H246615   4.081   2.480   0.787  0.1970 -1.1642 -0.4981
 7474TIP3   OH246616   1.947   2.772   2.300  0.8194 -0.1010 -0.2944
 7474TIP3    H146617   1.886   2.843   2.279  1.4739  0.7258  0.4486
 7474TIP3    H246618   2.012   2.814   2.358  0.3853 -1.6652  1.4195
 7475TIP3   OH246619   0.277   7.501   2.838  0.3260 -0.1408  0.3140
 7475TIP3    H146620   0.278   7.580   2.784  0.5267 -1.0429 -1.0641
 7475TIP3    H246621   0.264   7.430   2.775  0.7980 -1.2608  1.4468
 7476TIP3   OH246622   1.560   4.493   0.742 -0.9918 -0.4026  0.6448
 7476TIP3    H146623   1.624   4.423   0.729 -1.8344 -1.0079 -0.3752
 7476TIP3    H246624   1.482   4.449   0.773 -1.5342  0.0696 -0.0227
 7477TIP3   OH246625   3.450   1.669   2.817  0.4895 -0.5581 -0.5280
 7477TIP3    H146626   3.408   1.589   2.847 -3.2820  1.0636 -0.8073
 7477TIP3    H246627   3.485   1.647   2.731 -1.1930 -1.7800 -0.9645
 7478TIP3   OH246628   7.473   6.242   2.890  0.7249  0.1122  0.3326
 7478TIP3    H146629   7.498   6.320   2.941  0.8742  2.1558 -2.6143
 7478TIP3    H246630   7.425   6.188   2.952  1.0348  2.3284  2.6879
 7479TIP3   OH246631   7.560   2.675   9.020 -0.0592 -0.2590 -0.4720
 7479TIP3    H146632   7.499   2.721   9.078 -0.1303 -1.0567  0.1048
 7479TIP3    H246633   7.506   2.611   8.974  0.1440 -0.1832 -0.8205
 7480TIP3   OH246634   2.987   0.446   1.363  0.1750 -0.0368 -0.7642
 7480TIP3    H146635   3.080   0.427   1.354  0.3507  0.7081 -0.6314
 7480TIP3    H246636   2.946   0.362   1.384  1.2398  0.1276  2.5092
 7481TIP3   OH246637   2.390   2.555   2.244  0.3310 -0.6194 -0.4427
 7481TIP3    H146638   2.348   2.526   2.163 -0.0006  1.8742 -1.2396
 7481TIP3    H246639   2.481   2.529   2.235  0.2125 -0.7139 -1.4545
 7482TIP3   OH246640   6.713   7.114   2.444  0.0552  0.2904  0.3774
 7482TIP3    H146641   6.747   7.194   2.485  1.1524 -0.0336  0.1431
 7482TIP3    H246642   6.788   7.053   2.445 -0.4893 -0.4104 -0.2860
 7483TIP3   OH246643   1.692   3.292   2.879 -0.2577 -0.5293  0.0143
 7483TIP3    H146644   1.627   3.362   2.892  1.5262  1.2565 -0.2869
 7483TIP3    H246645   1.678   3.263   2.789  0.5333  1.1675 -0.7006
 7484TIP3   OH246646   6.518   3.597   0.929  0.0140  0.2688  0.2526
 7484TIP3    H146647   6.453   3.640   0.873 -0.3126 -0.2084  0.2557
 7484TIP3    H246648   6.467   3.562   1.002  0.2239 -0.3910  0.0925
 7485TIP3   OH246649   1.267   4.905   2.270  0.0610  0.1698  1.2064
 7485TIP3    H146650   1.346   4.913   2.323  0.3907  1.3759  0.5824
 7485TIP3    H246651   1.198   4.882   2.332  0.9399 -1.2044  1.7128
 7486TIP3   OH246652   5.314   1.968   1.985 -0.0561 -0.2835  0.4671
 7486TIP3    H146653   5.384   1.939   2.043 -1.2956 -1.3376  1.4872
 7486TIP3    H246654   5.309   1.899   1.918 -0.6291 -0.6180  0.8479
 7487TIP3   OH246655   7.465   5.990   0.827  0.4184  0.5918 -0.4410
 7487TIP3    H146656   7.436   6.016   0.914 -1.1146 -0.6372 -0.5333
 7487TIP3    H246657   7.399   6.027   0.768 -0.0182 -0.7235 -0.8271
 7488TIP3   OH246658   4.990   3.372   0.586 -0.1136 -0.1946  0.1128
 7488TIP3    H146659   4.894   3.375   0.590 -0.1292  1.9845 -0.5431
 7488TIP3    H246660   5.018   3.455   0.625  1.5573 -1.1176  0.9699
 7489TIP3   OH246661   3.648   6.887   1.978  0.1452  0.0766 -0.5670
 7489TIP3    H146662   3.663   6.794   1.997  2.0794  0.7549  1.6120
 7489TIP3    H246663   3.720   6.911   1.920 -0.1875  0.3057 -0.8880
 7490TIP3   OH246664   5.542   7.492   0.667 -0.0941 -0.0814 -0.2581
 7490TIP3    H146665   5.622   7.441   0.665 -1.6061 -2.5967 -0.1812
 7490TIP3    H246666   5.497   7.471   0.586 -1.4244 -0.0159  0.4241
 7491TIP3   OH246667   2.524   7.505   2.869 -0.0395 -0.0737 -0.7710
 7491TIP3    H146668   2.524   7.412   2.894 -0.1374  0.1512  0.0832
 7491TIP3    H246669   2.442   7.516   2.820  0.2245 -0.5469 -1.3440
 7492TIP3   OH246670   0.526   1.014   2.084 -0.5636 -0.2025 -0.4359
 7492TIP3    H146671   0.473   1.084   2.044 -0.6106 -1.0039 -1.8715
 7492TIP3    H246672   0.465   0.966   2.140 -0.3557  1.3229  1.1844
 7493TIP3   OH246673   5.121   1.525   2.363 -0.1854 -0.2420 -0.4333
 7493TIP3    H146674   5.118   1.607   2.412  0.9699  1.5013 -3.0792
 7493TIP3    H246675   5.192   1.475   2.406 -1.8825 -0.6330  2.1442
 7494TIP3   OH246676   4.484   5.092   1.091  0.3031 -0.1865 -0.2340
 7494TIP3    H146677   4.391   5.072   1.084  0.3117  0.1747 -1.6135
 7494TIP3    H246678   4.494   5.130   1.178 -0.2742 -3.0215  1.2096
 7495TIP3   OH246679   3.849   2.123   1.715 -0.3137  0.1051  0.3391
 7495TIP3    H146680   3.887   2.182   1.651  0.9085  0.0067  0.9584
 7495TIP3    H246681   3.880   2.155   1.800 -0.2521 -0.9738  0.7418
 7496TIP3   OH246682   4.178   7.203   1.169 -0.3502  0.0961 -0.1038
 7496TIP3    H146683   4.093   7.239   1.145 -0.0328  0.2209 -1.0637
 7496TIP3    H246684   4.180   7.117   1.127  0.9887  1.0956 -2.2130
 7497TIP3   OH246685   3.263   4.901   2.755  0.7809 -0.1820  0.1016
 7497TIP3    H146686   3.310   4.891   2.837  1.1719 -2.4303 -0.3311
 7497TIP3    H246687   3.255   4.812   2.721  1.4107  0.7585 -2.7376
 7498TIP3   OH246688   5.745   0.101   1.111 -0.2453  0.2505 -0.5855
 7498TIP3    H146689   5.769   0.188   1.145 -1.1350  0.0377  0.6918
 7498TIP3    H246690   5.748   0.044   1.188  0.5046 -0.9039 -1.4477
 7499TIP3   OH246691   6.454   0.311   2.005 -0.9962  0.4366  0.8289
 7499TIP3    H146692   6.450   0.252   1.930 -0.2630  1.9047 -0.4293
 7499TIP3    H246693   6.546   0.336   2.011 -0.7929 -0.5692  3.0223
 7500TIP3   OH246694   7.036   4.607   2.127 -0.6724 -0.0669 -0.8931
 7500TIP3    H146695   7.052   4.650   2.043 -0.8496 -1.7045 -1.8102
 7500TIP3    H246696   7.106   4.638   2.184 -0.0701  0.4566 -1.8962
 7501TIP3   OH246697   6.861   6.457   2.650 -0.4927  0.2210 -0.0846
 7501TIP3    H146698   6.956   6.444   2.641 -0.4354  0.9163 -0.5323
 7501TIP3    H246699   6.852   6.550   2.671 -1.1099  0.2705 -0.5660
 7502TIP3   OH246700   1.027   5.137   1.140 -0.1810 -0.3498 -0.2102
 7502TIP3    H146701   1.077   5.211   1.174 -0.6997 -0.3681  0.6243
 7502TIP3    H246702   0.961   5.177   1.083  0.0667 -0.2393 -0.4226
 7503TIP3   OH246703   6.417   5.750   1.919 -0.5099  0.2178  0.1399
 7503TIP3    H146704   6.487   5.761   1.984 -0.2652  0.0938 -0.0995
 7503TIP3    H246705   6.464   5.731   1.838 -0.8019  0.6375 -0.1276
 7504TIP3   OH246706   2.597   7.456   1.975  0.1924 -0.5790 -0.1514
 7504TIP3    H146707   2.577   7.498   1.891 -1.0465 -0.0022  0.4056
 7504TIP3    H246708   2.552   7.372   1.970  0.5204 -0.7502 -0.2476
 7505TIP3   OH246709   7.461   3.653   1.432 -1.0990  0.0142 -0.2710
 7505TIP3    H146710   7.533   3.713   1.452 -1.0264  0.3510 -1.4214
 7505TIP3    H246711   7.495   3.566   1.450 -1.3732  0.3071  1.9196
 7506TIP3   OH246712   1.995   2.643   1.231  0.2441 -0.1657 -0.2563
 7506TIP3    H146713   2.003   2.603   1.145  0.2664 -1.7712  0.4647
 7506TIP3    H246714   1.994   2.738   1.214  1.9589 -0.4030 -1.8664
 7507TIP3   OH246715   2.127   3.604   2.559 -0.1598 -0.0525 -0.0988
 7507TIP3    H146716   2.160   3.687   2.592 -0.9992  0.0159  0.6014
 7507TIP3    H246717   2.117   3.618   2.465  0.0741  0.5042 -0.0468
 7508TIP3   OH246718   4.688   2.400   2.474 -0.0133  0.3655  0.1062
 7508TIP3    H146719   4.610   2.361   2.436  1.1012 -1.7762 -0.1389
 7508TIP3    H246720   4.761   2.361   2.425  1.2683  1.4039  1.0930
 7509TIP3   OH246721   6.701   3.692   1.768 -0.2423 -0.3513  0.4252
 7509TIP3    H146722   6.627   3.631   1.763  0.2070 -0.8968  0.3502
 7509TIP3    H246723   6.761   3.663   1.699 -0.5337  0.8768 -0.3801
 7510TIP3   OH246724   3.288   3.357   2.345 -0.2891  0.3367 -0.5092
 7510TIP3    H146725   3.362   3.320   2.296 -1.2621 -1.3041 -0.8029
 7510TIP3    H246726   3.313   3.448   2.359  1.9637 -0.2470 -0.2740
 7511TIP3   OH246727   6.113   5.499   1.785  0.0175 -0.5400 -0.3220
 7511TIP3    H146728   6.071   5.569   1.736 -0.7619 -0.1334  0.8924
 7511TIP3    H246729   6.071   5.500   1.871  1.3939 -1.1675  0.4095
 7512TIP3   OH246730   0.806   5.600   1.568 -0.4957  0.8165  0.6877
 7512TIP3    H146731   0.759   5.570   1.490  1.6402  1.0131 -0.7650
 7512TIP3    H246732   0.847   5.522   1.603  0.8079  1.1431 -0.0480
 7513TIP3   OH246733   4.022   7.172   1.429 -0.1238  0.4892 -0.0274
 7513TIP3    H146734   4.086   7.180   1.358  1.0609  0.8690  1.0524
 7513TIP3    H246735   4.061   7.110   1.490  0.3795  2.5040  1.8240
 7514TIP3   OH246736   4.409   0.104   1.723  0.3630 -0.0672  0.5825
 7514TIP3    H146737   4.472   0.033   1.709 -0.0808 -0.6048  1.2300
 7514TIP3    H246738   4.326   0.059   1.743 -0.7656  0.5782 -2.1904
 7515TIP3   OH246739   5.770   4.519   1.557  0.1444  0.8910  0.4269
 7515TIP3    H146740   5.802   4.561   1.477  0.3114 -0.0324  0.0048
 7515TIP3    H246741   5.680   4.492   1.536  0.6923 -0.6977  0.0221
 7516TIP3   OH246742   4.476   4.447   1.060  0.0297 -0.1557 -0.3939
 7516TIP3    H146743   4.558   4.460   1.108  0.6987  1.0787 -1.8011
 7516TIP3    H246744   4.408   4.446   1.128  1.2024 -1.4796  0.8318
 7517TIP3   OH246745   7.360   7.276   0.613 -0.3511  0.7055  0.4256
 7517TIP3    H146746   7.393   7.364   0.634 -2.3076  2.1923 -2.2290
 7517TIP3    H246747   7.316   7.286   0.529 -3.3491 -2.1581  1.4747
 7518TIP3   OH246748   0.711   2.778   0.823 -0.7967  0.4337 -0.1933
 7518TIP3    H146749   0.636   2.781   0.763 -0.6616  0.8105 -0.3419
 7518TIP3    H246750   0.785   2.809   0.771 -0.2925 -1.0141 -0.3990
 7519TIP3   OH246751   3.784   0.942   0.992  0.1934 -0.0146 -0.0557
 7519TIP3    H146752   3.781   0.847   1.009  2.5936 -0.3086 -0.7936
 7519TIP3    H246753   3.706   0.959   0.939  0.2839 -1.8223 -0.8710
 7520TIP3   OH246754   6.878   0.003   1.644 -0.0836 -0.1296  0.0593
 7520TIP3    H146755   6.968  -0.016   1.617  0.3291  0.5760  0.8807
 7520TIP3    H246756   6.883   0.012   1.740 -0.8113  1.0068  0.0129
 7521TIP3   OH246757   5.185   2.214   1.181 -0.3840 -0.1786 -0.5656
 7521TIP3    H146758   5.245   2.282   1.149 -0.6519 -1.1249 -3.4382
 7521TIP3    H246759   5.241   2.154   1.230  0.2707  0.9047  0.0633
 7522TIP3   OH246760   4.266   5.037   2.992 -0.3381  0.0844 -0.5360
 7522TIP3    H146761   4.286   4.953   2.950  0.5048  0.0085  0.0023
 7522TIP3    H246762   4.346   5.060   3.039 -0.9858  0.5706  0.3549
 7523TIP3   OH246763   4.835   1.187   2.134  0.6810 -0.2740  0.4316
 7523TIP3    H146764   4.761   1.238   2.166  1.1655  0.0333  1.0843
 7523TIP3    H246765   4.825   1.188   2.039 -0.0343 -0.0616  0.5030
 7524TIP3   OH246766   1.155   6.483   2.720 -0.1070  0.2924 -0.1570
 7524TIP3    H146767   1.068   6.443   2.719  0.2033 -0.3961 -0.5355
 7524TIP3    H246768   1.201   6.441   2.647  0.2639  1.2825 -0.5018
 7525TIP3   OH246769   3.162   6.927   3.188 -0.2050  0.4198  0.1554
 7525TIP3    H146770   3.175   6.869   3.112  0.5069 -0.2158  0.7509
 7525TIP3    H246771   3.101   6.879   3.244 -0.8749  0.9714 -0.0756
 7526TIP3   OH246772   6.462   3.245   2.397  0.3881 -0.2402 -0.4954
 7526TIP3    H146773   6.467   3.255   2.302 -1.6947  0.9504 -0.5292
 7526TIP3    H246774   6.453   3.335   2.430 -0.0916 -0.7291  0.7367
 7527TIP3   OH246775   3.449   0.221   3.474  0.0025  0.3711 -0.5915
 7527TIP3    H146776   3.476   0.130   3.458 -2.4117 -0.1990 -1.8992
 7527TIP3    H246777   3.498   0.271   3.409  1.1838  0.0348 -0.0126
 7528TIP3   OH246778   0.349   2.770   2.817 -0.4516 -0.5932  0.2490
 7528TIP3    H146779   0.376   2.744   2.905  0.5023 -1.6329 -0.3266
 7528TIP3    H246780   0.340   2.687   2.769  1.5832  0.0196 -1.3536
 7529TIP3   OH246781   4.519   1.077   2.671 -0.2641 -0.2943 -0.3956
 7529TIP3    H146782   4.537   1.125   2.590 -2.3836 -1.8979 -1.9449
 7529TIP3    H246783   4.577   1.001   2.667  0.6709  0.3482  0.3793
 7530TIP3   OH246784   4.854   0.237   1.688  0.2064 -0.1007 -0.2981
 7530TIP3    H146785   4.820   0.175   1.624  1.9803 -0.0879 -1.3065
 7530TIP3    H246786   4.885   0.311   1.636  1.2103  0.1339  0.5987
 7531TIP3   OH246787   6.285   0.556   0.633 -0.3168 -0.1952  0.2776
 7531TIP3    H146788   6.255   0.636   0.676 -0.4915  0.2723 -0.6946
 7531TIP3    H246789   6.205   0.513   0.603 -0.1242  0.3279 -1.0489
 7532TIP3   OH246790   3.393   6.379   2.756  0.5509 -0.6094 -0.2726
 7532TIP3    H146791   3.402   6.475   2.749 -0.1375 -0.4874  0.4431
 7532TIP3    H246792   3.451   6.356   2.828 -0.2468 -0.5736  0.3819
 7533TIP3   OH246793   4.766   4.417   2.226 -0.7727  0.1890 -0.7639
 7533TIP3    H146794   4.819   4.457   2.296 -0.7533  2.6489 -2.0627
 7533TIP3    H246795   4.829   4.402   2.155 -0.8770 -1.8639 -0.4743
 7534TIP3   OH246796   4.887   6.240   1.802  0.2411 -0.0476  0.2806
 7534TIP3    H146797   4.792   6.252   1.801  0.3713  1.1217 -0.0253
 7534TIP3    H246798   4.903   6.168   1.740 -0.4869 -0.7645  0.9038
 7535TIP3   OH246799   3.946   2.188   1.101  0.8454 -0.2360 -0.6824
 7535TIP3    H146800   3.940   2.282   1.112  1.1109 -0.4960  2.5429
 7535TIP3    H246801   3.914   2.172   1.012 -0.5231  2.7284 -0.8241
 7536TIP3   OH246802   6.711   3.459   2.226 -0.0330  0.8793  0.4055
 7536TIP3    H146803   6.716   3.502   2.141  4.1976  0.0519 -0.0010
 7536TIP3    H246804   6.786   3.493   2.275  0.1345 -1.7208  2.1901
 7537TIP3   OH246805   6.522   0.715   2.141 -0.8631  0.2751 -0.3645
 7537TIP3    H146806   6.443   0.699   2.089 -0.3863  0.1120 -1.0410
 7537TIP3    H246807   6.512   0.657   2.217 -1.4614  0.3598 -0.3716
 7538TIP3   OH246808   5.713   7.650   1.616  0.1937  0.6910 -0.1006
 7538TIP3    H146809   5.744   7.712   1.682 -0.5394 -0.0961  1.0106
 7538TIP3    H246810   5.779   7.581   1.615  0.0185  0.5249  0.0473
 7539TIP3   OH246811   4.553   4.732   2.494 -0.1938  0.0345 -1.0007
 7539TIP3    H146812   4.519   4.822   2.493  1.0428  0.5230 -1.0400
 7539TIP3    H246813   4.532   4.698   2.407 -0.3271  0.4178 -1.1233
 7540TIP3   OH246814   6.443   1.749   1.031 -0.1741  0.1921  0.2048
 7540TIP3    H146815   6.408   1.803   1.102  0.2102  1.2053 -0.3614
 7540TIP3    H246816   6.380   1.758   0.960  0.9605  1.7270 -0.6851
 7541TIP3   OH246817   5.679   5.366   1.832 -0.0331 -0.0850 -0.3408
 7541TIP3    H146818   5.584   5.355   1.834  0.0856 -1.0032  1.1892
 7541TIP3    H246819   5.709   5.298   1.771 -0.4238  1.1740 -2.0392
 7542TIP3   OH246820   0.002   6.831   2.884  0.0479 -0.0088  0.2478
 7542TIP3    H146821  -0.001   6.739   2.910 -0.2819 -0.0076  0.2143
 7542TIP3    H246822  -0.018   6.831   2.791  1.0378  0.0047  0.0242
 7543TIP3   OH246823   4.951   7.094   1.492 -0.2349 -0.4227  0.2387
 7543TIP3    H146824   4.945   7.090   1.397 -0.8106 -0.0626  0.2511
 7543TIP3    H246825   5.030   7.143   1.510 -0.3249 -0.1649 -0.0624
 7544TIP3   OH246826   3.641   2.874   1.204  0.6573 -0.2661 -0.1192
 7544TIP3    H146827   3.692   2.927   1.142 -0.2635 -1.0459 -1.6019
 7544TIP3    H246828   3.707   2.838   1.263  1.4227  1.5776  0.2299
 7545TIP3   OH246829   5.917   1.631   1.528  0.1028 -0.3633  0.0357
 7545TIP3    H146830   5.964   1.631   1.445 -1.4846  0.8148 -0.9258
 7545TIP3    H246831   5.947   1.711   1.572  1.5432 -1.3792  1.0391
 7546TIP3   OH246832   5.784   4.690   2.270 -0.7873 -0.1311  0.3696
 7546TIP3    H146833   5.803   4.633   2.345  0.7862 -1.3320 -0.8518
 7546TIP3    H246834   5.826   4.646   2.196 -1.9297  1.2305 -1.1543
 7547TIP3   OH246835   0.477   5.063   0.672 -0.3505  0.1172 -0.8409
 7547TIP3    H146836   0.444   5.030   0.589 -2.2979 -2.0944  0.6737
 7547TIP3    H246837   0.486   4.985   0.727  0.2794  1.5582  1.2248
 7548TIP3   OH246838   4.086   2.040   2.352 -0.5448 -0.3387 -0.0857
 7548TIP3    H146839   4.158   1.987   2.386  0.7725  2.2624  1.4951
 7548TIP3    H246840   4.127   2.099   2.289 -1.6455 -0.0746 -0.5731
 7549TIP3   OH246841   3.582   3.199   0.979 -0.6023 -0.2480 -0.5625
 7549TIP3    H146842   3.559   3.286   0.946 -2.4330 -0.0465  1.0763
 7549TIP3    H246843   3.665   3.178   0.934 -0.0539  2.3474 -0.9558
 7550TIP3   OH246844   4.077   4.516   1.985  0.1011  0.0357  0.5590
 7550TIP3    H146845   4.145   4.449   1.990  0.5005  0.3871  0.0254
 7550TIP3    H246846   4.050   4.517   1.893 -0.3312  0.1908  0.6812
 7551TIP3   OH246847   2.843   0.666   1.335 -0.3445  0.2435 -0.0968
 7551TIP3    H146848   2.763   0.631   1.295 -0.3555  1.3150 -1.0554
 7551TIP3    H246849   2.898   0.589   1.349 -1.1881 -0.4050 -0.2424
 7552TIP3   OH246850   5.367   4.083   2.183 -0.2769  0.4272  0.8302
 7552TIP3    H146851   5.398   4.139   2.253 -2.3327  0.9438  1.4016
 7552TIP3    H246852   5.354   3.998   2.224  0.4644  0.1790  0.5639
 7553TIP3   OH246853   7.201   4.769   3.144 -0.3168 -0.1283 -0.5058
 7553TIP3    H146854   7.134   4.761   3.076  0.2193 -0.0721 -1.0550
 7553TIP3    H246855   7.185   4.695   3.202 -1.9521  0.8624  0.3884
 7554TIP3   OH246856   1.134   2.544   1.056  0.0985  0.2803  0.5348
 7554TIP3    H146857   1.085   2.619   1.020 -3.6193 -1.6242  1.1510
 7554TIP3    H246858   1.193   2.518   0.985  1.3481  3.4907  0.1956
 7555TIP3   OH246859   6.054   3.779   1.205  0.8257 -0.5046 -0.6694
 7555TIP3    H146860   6.098   3.730   1.134  1.5343 -1.5742  0.4660
 7555TIP3    H246861   6.105   3.758   1.283 -1.5433 -1.6126  0.6870
 7556TIP3   OH246862   4.634   0.785   2.784  0.4070  0.3382 -0.1898
 7556TIP3    H146863   4.543   0.806   2.805  0.5018  0.8467 -0.2689
 7556TIP3    H246864   4.683   0.864   2.807  0.9547 -0.2421  0.6849
 7557TIP3   OH246865   6.742   1.341   0.374  0.2864 -0.6205 -0.5097
 7557TIP3    H146866   6.780   1.349   0.287  0.2046  1.6465 -0.4039
 7557TIP3    H246867   6.749   1.429   0.412  0.3251 -1.5296  1.7856
 7558TIP3   OH246868   3.996   2.708   3.222  0.4088  0.0638 -0.8376
 7558TIP3    H146869   3.902   2.692   3.226  0.6623 -1.8308 -1.2428
 7558TIP3    H246870   4.013   2.775   3.288 -0.8684 -1.4473  1.1227
 7559TIP3   OH246871   2.999   4.014   0.525  0.3768 -0.3298 -0.2274
 7559TIP3    H146872   2.923   4.027   0.582 -0.3346  0.2438 -1.2699
 7559TIP3    H246873   3.065   4.073   0.559 -0.0121 -0.0491  0.0532
 7560TIP3   OH246874   1.512   4.933   2.431  0.0397 -0.5045  0.3639
 7560TIP3    H146875   1.508   5.013   2.482  0.4308 -0.8943  1.0172
 7560TIP3    H246876   1.597   4.937   2.386  0.0637 -0.5591  0.4044
 7561TIP3   OH246877   1.583   7.467   1.490 -0.6236  0.0301 -0.5396
 7561TIP3    H146878   1.558   7.401   1.554 -0.3626 -1.3388 -1.7824
 7561TIP3    H246879   1.575   7.423   1.406  0.4640  1.2967 -1.3588
 7562TIP3   OH246880   0.190   3.313   2.325  0.0926 -0.1426 -0.3698
 7562TIP3    H146881   0.166   3.344   2.412  1.7465 -1.2674  0.5399
 7562TIP3    H246882   0.276   3.353   2.308  0.0127 -0.3355 -1.2828
 7563TIP3   OH246883   0.379   6.424   2.961 -0.2749 -0.2822 -0.2669
 7563TIP3    H146884   0.288   6.414   2.992 -0.8677  0.8704 -1.4980
 7563TIP3    H246885   0.414   6.494   3.016 -0.8912  0.8224 -1.2179
 7564TIP3   OH246886   4.411   7.357   1.986  0.0275 -0.0466  0.0844
 7564TIP3    H146887   4.500   7.392   1.989 -0.2809  0.6927  1.0019
 7564TIP3    H246888   4.399   7.331   1.895  0.2653  2.3192 -0.6954
 7565TIP3   OH246889   1.033   6.705   1.187  0.0286 -0.2433 -0.2298
 7565TIP3    H146890   0.962   6.738   1.133  0.6647  0.9037 -0.4171
 7565TIP3    H246891   1.078   6.784   1.217 -0.3513 -0.8368  2.0574
 7566TIP3   OH246892   6.355   7.661   1.987  0.2511 -0.5498  0.5079
 7566TIP3    H146893   6.410   7.586   2.012 -0.2162 -0.4206  2.0689
 7566TIP3    H246894   6.417   7.727   1.957  0.7485 -1.2298  0.0178
 7567TIP3   OH246895   5.116   0.732   1.118  0.3280 -0.5449  0.0959
 7567TIP3    H146896   5.150   0.658   1.068  0.8139  0.1793 -0.6727
 7567TIP3    H246897   5.141   0.809   1.067 -0.4761  0.1354  0.6980
 7568TIP3   OH246898   6.100   3.511   1.706 -0.1483  0.0567 -0.5987
 7568TIP3    H146899   6.127   3.503   1.798 -2.5788 -0.2501  0.1602
 7568TIP3    H246900   6.138   3.434   1.664  0.6496 -0.0265  0.2211
 7569TIP3   OH246901   2.411   4.502   1.459 -0.2454  0.4778 -0.0989
 7569TIP3    H146902   2.351   4.429   1.445  0.8562 -0.5132  0.1980
 7569TIP3    H246903   2.473   4.470   1.524 -0.3746  2.0788  0.8624
 7570TIP3   OH246904   3.830   2.778   1.381  0.0859 -0.0991 -0.2623
 7570TIP3    H146905   3.799   2.768   1.472 -0.1893  1.6969 -0.1282
 7570TIP3    H246906   3.923   2.757   1.386  0.1079  0.1314  0.4677
 7571TIP3   OH246907   1.132   2.110   2.433  0.1518  0.5625  0.5752
 7571TIP3    H146908   1.101   2.199   2.419  0.2307  0.2620 -2.0156
 7571TIP3    H246909   1.206   2.119   2.492  0.2708  2.2360  0.2187
 7572TIP3   OH246910   6.790   6.040   1.827 -0.4441 -0.1190 -0.0134
 7572TIP3    H146911   6.858   6.074   1.886 -0.7654  1.3892 -0.4757
 7572TIP3    H246912   6.737   6.116   1.804 -1.8172 -1.1287 -0.3147
 7573TIP3   OH246913   5.022   0.541   2.221  0.3632 -0.0035  0.2913
 7573TIP3    H146914   5.000   0.462   2.271  0.3733 -0.4728 -0.4221
 7573TIP3    H246915   5.107   0.521   2.182  1.3888  1.1818  1.7660
 7574TIP3   OH246916   5.417   7.079   1.420  0.1550 -0.7376  0.2545
 7574TIP3    H146917   5.466   7.140   1.474 -1.1834  0.2534  0.4029
 7574TIP3    H246918   5.376   7.018   1.482 -2.0186  0.8701  0.5051
 7575TIP3   OH246919   3.287   5.991   1.324 -0.7373  0.5026  0.0129
 7575TIP3    H146920   3.370   6.005   1.369  0.0223  0.7656 -1.4377
 7575TIP3    H246921   3.275   6.068   1.269 -1.8286  0.3540  0.0091
 7576TIP3   OH246922   2.006   6.877   1.611 -0.0397 -0.3132 -0.8570
 7576TIP3    H146923   2.058   6.867   1.531  1.5844 -0.3665  0.1609
 7576TIP3    H246924   1.960   6.794   1.620 -0.5228 -0.1844 -1.8873
 7577TIP3   OH246925   5.494   3.545   2.456  0.4161 -0.0981  0.0037
 7577TIP3    H146926   5.418   3.498   2.424  0.4604  0.1329 -0.4389
 7577TIP3    H246927   5.477   3.556   2.550 -0.0038 -0.2071 -0.0570
 7578TIP3   OH246928   3.127   1.970   1.378  0.3353  0.8068  0.2441
 7578TIP3    H146929   3.079   1.926   1.308 -0.6923  2.1250  0.0715
 7578TIP3    H246930   3.069   1.964   1.455  1.2574 -0.2418  0.8836
 7579TIP3   OH246931   0.216   6.885   2.523 -0.1736  0.3831 -0.7762
 7579TIP3    H146932   0.248   6.809   2.571  2.3649  1.1849 -1.0268
 7579TIP3    H246933   0.288   6.948   2.529 -2.0605  2.6795 -0.8191
 7580TIP3   OH246934   6.666   0.827   1.942  0.1118 -0.2410 -1.1775
 7580TIP3    H146935   6.619   0.782   2.013 -0.1981  0.2307 -1.0788
 7580TIP3    H246936   6.651   0.771   1.865  0.0747 -0.5221 -0.9693
 7581TIP3   OH246937   0.395   7.081   1.392  0.1566  0.1114 -0.8635
 7581TIP3    H146938   0.344   7.162   1.392  1.3281  0.8740  0.1132
 7581TIP3    H246939   0.400   7.056   1.484  1.2321 -0.1478 -0.9842
 7582TIP3   OH246940   0.512   6.744   2.197 -0.4020  0.2036 -0.7179
 7582TIP3    H146941   0.561   6.663   2.182 -1.2391 -0.4600 -0.0018
 7582TIP3    H246942   0.430   6.732   2.149 -0.7102  0.4357 -0.2672
 7583TIP3   OH246943   0.758   3.526   3.622  0.1668  0.4148  0.7298
 7583TIP3    H146944   0.667   3.513   3.596 -0.3306 -1.0850  2.9581
 7583TIP3    H246945   0.755   3.599   3.684  0.5935  0.7692  0.3421
 7584TIP3   OH246946   3.940   7.153   0.898 -0.3178 -0.3072 -0.1365
 7584TIP3    H146947   3.983   7.224   0.851 -1.5304  0.9049  0.5045
 7584TIP3    H246948   3.874   7.121   0.837 -1.2954  0.6724  0.3710
 7585TIP3   OH246949   1.894   2.833   0.903 -0.2340  0.2667  0.4063
 7585TIP3    H146950   1.977   2.842   0.951  0.9523 -1.7728 -1.0773
 7585TIP3    H246951   1.921   2.830   0.811 -1.9359 -0.6683 -0.0885
 7586TIP3   OH246952   4.178   6.707   2.858  0.5929 -0.3243  0.1742
 7586TIP3    H146953   4.205   6.794   2.886 -1.4959  0.5641 -0.3327
 7586TIP3    H246954   4.194   6.651   2.934  0.0702  0.9413  1.2680
 7587TIP3   OH246955   7.504   2.273   2.663  0.0017  1.0766 -0.4020
 7587TIP3    H146956   7.457   2.225   2.731  2.3562  0.0873  0.6154
 7587TIP3    H246957   7.533   2.353   2.706  0.2265  1.1477 -0.6806
 7588TIP3   OH246958   5.201   3.956   1.364  0.1679 -0.3087 -0.3686
 7588TIP3    H146959   5.224   3.937   1.456  0.7589  0.8520 -0.2609
 7588TIP3    H246960   5.172   3.871   1.330  4.2730 -1.9675 -0.4181
 7589TIP3   OH246961   1.319   1.662   3.300 -0.1965  0.0050  0.2965
 7589TIP3    H146962   1.321   1.751   3.267 -3.1914 -0.2291 -0.7640
 7589TIP3    H246963   1.378   1.613   3.242 -0.5132  0.8126 -0.7200
 7590TIP3   OH246964   4.370   4.398   3.284  0.4656  0.4942 -0.0788
 7590TIP3    H146965   4.281   4.433   3.291  0.1832 -0.3684  0.8225
 7590TIP3    H246966   4.362   4.305   3.305  1.3138  0.0056 -1.7473
 7591TIP3   OH246967   0.728   6.534   2.573  0.0645 -0.5022  0.0483
 7591TIP3    H146968   0.736   6.584   2.492 -1.1647  1.2471  0.9141
 7591TIP3    H246969   0.677   6.591   2.631 -2.1458 -3.0941  0.8751
 7592TIP3   OH246970   1.154   0.296   1.863 -0.5175  0.0262  0.8313
 7592TIP3    H146971   1.063   0.314   1.885 -0.5904 -1.3623  1.7934
 7592TIP3    H246972   1.201   0.306   1.946 -0.0401 -0.7477  0.6655
 7593TIP3   OH246973   4.107   3.978   1.859 -0.2899 -0.1450 -0.3872
 7593TIP3    H146974   4.177   3.966   1.794  2.0148  1.3187  1.6385
 7593TIP3    H246975   4.098   4.073   1.865 -0.7091 -0.2666  1.1349
 7594TIP3   OH246976   6.096   4.668   2.518 -0.3498 -0.1833 -0.9124
 7594TIP3    H146977   6.108   4.759   2.492 -1.1728  0.0367 -0.5339
 7594TIP3    H246978   6.016   4.668   2.570 -0.6920 -1.2270 -1.4164
 7595TIP3   OH246979   1.332   6.082   2.756 -0.4510 -0.5688 -0.3760
 7595TIP3    H146980   1.258   6.041   2.709 -0.0902 -0.1160 -1.3618
 7595TIP3    H246981   1.294   6.111   2.839 -0.9875 -1.8527 -0.1472
 7596TIP3   OH246982   0.474   4.311   0.620 -0.3198 -0.2368  0.2084
 7596TIP3    H146983   0.512   4.334   0.705  0.3146 -0.8552  0.0983
 7596TIP3    H246984   0.379   4.318   0.634 -0.2168 -0.1196  0.9025
 7597TIP3   OH246985   1.101   4.639   0.930  0.5723  0.4504  0.1002
 7597TIP3    H146986   1.112   4.733   0.943 -0.0038  0.4649  0.5249
 7597TIP3    H246987   1.009   4.622   0.953  0.2307  0.0315 -1.4493
 7598TIP3   OH246988   3.292   6.304   1.782  0.2628 -0.1194 -0.0647
 7598TIP3    H146989   3.234   6.300   1.705  1.2511 -0.2155 -0.8300
 7598TIP3    H246990   3.255   6.373   1.836 -1.7576 -1.5345  0.4800
 7599TIP3   OH246991   0.278   2.828   2.313  0.1167 -0.0329 -0.1781
 7599TIP3    H146992   0.302   2.858   2.226 -1.3157  0.1852 -0.5219
 7599TIP3    H246993   0.339   2.872   2.372  1.4271 -0.5789 -1.1002
 7600TIP3   OH246994   4.082   5.863   1.912  0.4401 -0.0176  0.3265
 7600TIP3    H146995   4.105   5.820   1.994 -0.3026 -2.5314 -0.7111
 7600TIP3    H246996   4.119   5.807   1.844 -2.1868 -0.1306 -1.1530
 7601TIP3   OH246997   7.393   2.193   1.927 -0.0835  0.3320  0.3333
 7601TIP3    H146998   7.341   2.222   1.852  1.6781 -0.5720 -1.3183
 7601TIP3    H246999   7.480   2.229   1.911  0.5644 -0.6528  1.4853
 7602TIP3   OH247000   1.921   4.254   0.944  0.1984  0.2229  0.6414
 7602TIP3    H147001   1.954   4.164   0.941  1.4383  0.6724 -1.5397
 7602TIP3    H247002   1.985   4.301   0.996  0.8337  0.2697 -0.1563
 7603TIP3   OH247003   0.023   6.607   2.081  0.2137 -0.4988 -0.9020
 7603TIP3    H147004  -0.059   6.594   2.129  0.2715 -1.0458 -0.9510
 7603TIP3    H247005  -0.004   6.642   1.996  0.2013  2.3648  0.1716
 7604TIP3   OH247006   6.729   5.651   0.865 -0.2728  0.2428  0.2769
 7604TIP3    H147007   6.688   5.611   0.789 -0.4317  0.3146  0.3247
 7604TIP3    H247008   6.691   5.739   0.870  1.3061  1.0428 -0.8325
 7605TIP3   OH247009   1.438   0.439   2.129  1.0368 -0.2020 -0.4757
 7605TIP3    H147010   1.478   0.354   2.141  1.5753  0.0196 -0.6712
 7605TIP3    H247011   1.447   0.482   2.214  2.1389  0.2287 -0.7924
 7606TIP3   OH247012   7.316   2.921   3.385 -0.0212  0.0474 -0.3832
 7606TIP3    H147013   7.352   2.832   3.386 -0.9487 -0.3337  0.2512
 7606TIP3    H247014   7.356   2.963   3.462  0.8068  0.3501 -0.9677
 7607TIP3   OH247015   2.382   4.882   2.523 -0.0367 -0.3263  0.2519
 7607TIP3    H147016   2.456   4.936   2.496 -1.0126  0.3276 -1.2350
 7607TIP3    H247017   2.392   4.801   2.473  0.3777 -0.7860  1.0519
 7608TIP3   OH247018   0.021   2.159   0.661  0.2922 -0.1723 -0.4180
 7608TIP3    H147019   0.107   2.144   0.700  0.6465  0.1252 -1.0653
 7608TIP3    H247020   0.012   2.090   0.595 -0.4474 -0.8816  0.3912
 7609TIP3   OH247021   1.737   0.560   0.717  0.2854 -0.0735 -0.1909
 7609TIP3    H147022   1.643   0.563   0.736  0.6055  0.3412  1.4655
 7609TIP3    H247023   1.774   0.503   0.784  1.3778  0.8062 -0.0128
 7610TIP3   OH247024   5.130   5.089   2.366  0.3009 -0.1576 -0.4501
 7610TIP3    H147025   5.164   5.158   2.423  0.5435 -0.7516  0.1333
 7610TIP3    H247026   5.055   5.129   2.322 -0.0200  0.2468  0.4458
 7611TIP3   OH247027   1.135   5.459   1.888 -0.5389  0.4618 -0.2759
 7611TIP3    H147028   1.098   5.450   1.976  0.6931  2.1923  0.4905
 7611TIP3    H247029   1.217   5.410   1.892 -0.4507  0.5972 -0.4299
 7612TIP3   OH247030   1.133   1.192   1.269 -0.0697  0.0802 -0.0708
 7612TIP3    H147031   1.061   1.254   1.278  0.6580  0.8370  0.7171
 7612TIP3    H247032   1.209   1.245   1.247  0.7440 -0.3841  1.4086
 7613TIP3   OH247033   6.516   6.400   0.846  0.4314  0.3102  0.2602
 7613TIP3    H147034   6.459   6.325   0.832  3.3811 -2.1329  0.3317
 7613TIP3    H247035   6.532   6.402   0.940  1.4896  0.0893  0.1004
 7614TIP3   OH247036   2.275   0.299   1.328  0.2508  0.0204  0.2952
 7614TIP3    H147037   2.355   0.292   1.276  0.2907  0.1186  0.3438
 7614TIP3    H247038   2.219   0.229   1.294  0.2834  0.0720  0.1304
 7615TIP3   OH247039   3.606   3.825   2.388  0.3557  0.2961  0.0154
 7615TIP3    H147040   3.605   3.854   2.297 -0.7382 -1.6531 -0.6524
 7615TIP3    H247041   3.532   3.764   2.394  1.8744 -1.4902  1.5574
 7616TIP3   OH247042   2.449   3.370   0.601  0.3732  0.0785  0.1808
 7616TIP3    H147043   2.363   3.332   0.585  0.8750 -0.2670 -2.0043
 7616TIP3    H247044   2.433   3.464   0.604  0.0132  0.0720 -1.0623
 7617TIP3   OH247045   0.387   1.652   3.036 -0.0850 -0.1040 -0.2089
 7617TIP3    H147046   0.327   1.681   3.105 -1.1114  1.3221 -1.6295
 7617TIP3    H247047   0.450   1.724   3.028  0.5195 -0.6325 -0.1927
 7618TIP3   OH247048   5.058   3.573   1.883  0.2237 -0.3346 -0.0239
 7618TIP3    H147049   5.044   3.485   1.918 -1.7724  0.4685  1.3533
 7618TIP3    H247050   5.083   3.626   1.958 -1.4069  0.8460 -0.2601
 7619TIP3   OH247051   2.593   3.554   2.425 -0.0063 -0.2216 -0.5010
 7619TIP3    H147052   2.596   3.538   2.331  2.6577  0.1195 -0.5378
 7619TIP3    H247053   2.660   3.498   2.462  0.3542  1.0777  0.9560
 7620TIP3   OH247054   6.822   3.827   2.351 -0.3414 -0.4159 -0.8639
 7620TIP3    H147055   6.855   3.859   2.435  3.3599 -2.6599 -1.2325
 7620TIP3    H247056   6.887   3.855   2.287 -1.2587 -1.6854 -2.4350
 7621TIP3   OH247057   2.937   5.600   1.294 -0.0303  0.3040  0.0893
 7621TIP3    H147058   2.976   5.638   1.216 -0.4946  0.8051  0.0981
 7621TIP3    H247059   2.853   5.565   1.264 -0.3107  0.6967  0.4077
 7622TIP3   OH247060   7.672   2.260   1.808  0.0453 -0.0524  0.5876
 7622TIP3    H147061   7.730   2.184   1.812  0.1373  0.0629  1.5822
 7622TIP3    H247062   7.718   2.328   1.858 -0.4281  0.3910  0.4305
 7623TIP3   OH247063   1.418   5.323   3.334  0.6571  0.2594  0.6627
 7623TIP3    H147064   1.496   5.343   3.284  1.2391 -1.9671  0.6021
 7623TIP3    H247065   1.393   5.235   3.307 -0.2177 -0.1989  2.7337
 7624TIP3   OH247066   4.461   1.079   1.871 -0.5857 -0.0171 -0.2559
 7624TIP3    H147067   4.430   1.100   1.959  1.2553  1.8349  0.0160
 7624TIP3    H247068   4.384   1.041   1.827 -1.3929 -1.5367  2.2754
 7625TIP3   OH247069   5.891   6.549   0.816  0.1023  0.4921 -0.1854
 7625TIP3    H147070   5.962   6.539   0.879 -1.3126 -2.4811  1.1045
 7625TIP3    H247071   5.929   6.521   0.733  0.6127 -0.6549  0.4056
 7626TIP3   OH247072   0.623   6.337   2.874  0.1448  0.2220  0.8695
 7626TIP3    H147073   0.531   6.356   2.893  0.2592  0.5877  1.0655
 7626TIP3    H247074   0.621   6.281   2.797 -0.2669 -0.1351  1.1348
 7627TIP3   OH247075   3.326   7.202   2.135  0.3177  0.1033 -0.0170
 7627TIP3    H147076   3.331   7.245   2.221 -0.8331 -0.1106  0.1717
 7627TIP3    H247077   3.233   7.183   2.123 -0.1243  3.1207 -2.7840
 7628TIP3   OH247078   3.030   2.541   2.559 -0.1670 -0.0460 -0.2022
 7628TIP3    H147079   3.110   2.528   2.508 -0.1776  0.1939 -0.2804
 7628TIP3    H247080   2.986   2.614   2.516  0.2105  0.6823  0.6011
 7629TIP3   OH247081   6.100   4.496   0.953  0.2327 -0.4652  0.0240
 7629TIP3    H147082   6.007   4.495   0.976  0.0956 -0.3563 -0.5107
 7629TIP3    H247083   6.141   4.437   1.016  0.1145  1.0030  1.5161
 7630TIP3   OH247084   3.366   7.563   0.424 -0.0284 -0.2658  0.1710
 7630TIP3    H147085   3.413   7.488   0.388 -0.9451 -0.8825  0.2477
 7630TIP3    H247086   3.426   7.600   0.489  1.6499  0.8264 -1.8330
 7631TIP3   OH247087   0.531   4.529   2.616  0.2282  0.4697 -0.6346
 7631TIP3    H147088   0.514   4.435   2.621 -0.7671  0.6254 -0.7393
 7631TIP3    H247089   0.624   4.538   2.633  0.3515 -0.5443 -0.7168
 7632TIP3   OH247090   1.837   7.474   1.895  0.5360  0.4086 -0.3518
 7632TIP3    H147091   1.892   7.510   1.966 -0.9309  0.4753  0.7895
 7632TIP3    H247092   1.826   7.382   1.918  0.5566  0.2814 -0.8442
 7633TIP3   OH247093   2.081   3.922   1.198  0.3744 -0.0552  0.2089
 7633TIP3    H147094   2.137   3.846   1.213  0.0717  0.0218  1.9420
 7633TIP3    H247095   2.004   3.906   1.252 -1.1687  0.0105 -1.8409
 7634TIP3   OH247096   2.591   5.068   2.625 -0.3102  0.0926 -0.4999
 7634TIP3    H147097   2.671   5.121   2.624  0.5288 -1.0730  0.9630
 7634TIP3    H247098   2.543   5.098   2.703 -0.1868 -0.7714 -0.0842
 7635TIP3   OH247099   3.696   4.115   2.875  0.3262  0.6941  0.2466
 7635TIP3    H147100   3.636   4.080   2.940  1.0505  0.0181  0.5657
 7635TIP3    H247101   3.673   4.071   2.794 -0.6959  1.6671 -0.0095
 7636TIP3   OH247102   5.727   0.589   1.972 -0.0713  0.5989  0.2251
 7636TIP3    H147103   5.691   0.540   2.046 -0.1783  0.8084  0.3122
 7636TIP3    H247104   5.675   0.560   1.897  0.0961  0.3206  0.2184
 7637TIP3   OH247105   0.118   3.077   2.191 -0.3547  0.2749  0.1347
 7637TIP3    H147106   0.209   3.047   2.184 -0.0255  1.4172 -0.8951
 7637TIP3    H247107   0.125   3.164   2.232 -0.8049  1.1250 -1.5299
 7638TIP3   OH247108   3.916   1.657   1.628  0.0196 -0.2376 -0.4608
 7638TIP3    H147109   3.866   1.738   1.638  0.0506 -0.0865 -1.4129
 7638TIP3    H247110   3.905   1.612   1.711  0.2820  0.8960  0.2216
 7639TIP3   OH247111   0.349   3.475   2.941 -0.3412 -0.2396  0.2591
 7639TIP3    H147112   0.314   3.543   2.884 -1.1686 -0.6381  0.2748
 7639TIP3    H247113   0.375   3.405   2.882  1.4017  0.4398  0.1608
 7640TIP3   OH247114   2.738   3.714   2.843  0.5356  0.4997  0.4248
 7640TIP3    H147115   2.820   3.760   2.824 -0.1270  0.9926 -1.4313
 7640TIP3    H247116   2.732   3.715   2.939  3.5568 -1.1585  0.7487
 7641TIP3   OH247117   0.307   6.272   1.673  0.0436 -0.0454  0.1345
 7641TIP3    H147118   0.219   6.272   1.711 -0.6078  1.0845 -1.2898
 7641TIP3    H247119   0.335   6.180   1.678 -0.8715 -0.2882  1.3442
 7642TIP3   OH247120   3.866   1.499   1.845 -0.1422  0.0597  0.5212
 7642TIP3    H147121   3.785   1.448   1.851  2.0257 -3.6091  2.0654
 7642TIP3    H247122   3.880   1.532   1.934  0.6839 -0.4294  0.5799
 7643TIP3   OH247123   5.089   1.281   1.759  0.1114  0.2689  0.3142
 7643TIP3    H147124   5.146   1.255   1.687 -0.9489  0.1457 -0.5045
 7643TIP3    H247125   5.022   1.335   1.718  0.1610  1.2090  1.4042
 7644TIP3   OH247126   0.631   6.155   1.886 -0.0621 -0.0450  0.5586
 7644TIP3    H147127   0.664   6.221   1.825 -0.6139 -0.4167 -0.1548
 7644TIP3    H247128   0.674   6.074   1.859  0.5415 -0.0136  1.3748
 7645TIP3   OH247129   1.064   3.542   1.507  0.1508 -0.8416  0.1059
 7645TIP3    H147130   1.011   3.529   1.428 -0.2369  2.0476 -0.2039
 7645TIP3    H247131   1.000   3.543   1.578  0.2812 -1.4933  0.2363
 7646TIP3   OH247132   4.557   7.362   0.717 -0.2320 -0.0400 -0.1141
 7646TIP3    H147133   4.580   7.302   0.788  1.2900  0.4570 -0.1572
 7646TIP3    H247134   4.637   7.368   0.664 -0.5793  1.4775 -0.5022
 7647TIP3   OH247135   0.812   2.542   1.097  0.1647 -0.4488  0.3431
 7647TIP3    H147136   0.827   2.502   1.182  1.2175 -1.5235 -0.3187
 7647TIP3    H247137   0.897   2.539   1.053 -0.5806 -0.9238 -1.1507
 7648TIP3   OH247138   3.303   4.861   2.105 -0.1316  0.0775  0.3378
 7648TIP3    H147139   3.308   4.910   2.187  0.4627 -1.1801  1.0769
 7648TIP3    H247140   3.216   4.882   2.070 -0.4621  0.4800  1.3767
 7649TIP3   OH247141   7.224   0.604   0.647 -0.0403  0.3430  0.0488
 7649TIP3    H147142   7.264   0.683   0.682 -1.6891  2.0199 -1.6231
 7649TIP3    H247143   7.297   0.554   0.611  0.9099  1.7800 -0.0874
 7650TIP3   OH247144   4.375   7.573   2.451  0.1861 -0.1026  0.2386
 7650TIP3    H147145   4.349   7.665   2.448 -0.2420 -0.1321  2.0120
 7650TIP3    H247146   4.308   7.531   2.505  1.1392 -1.1727  0.6257
 7651TIP3   OH247147   4.955   2.821   3.287  0.4654  0.0557 -0.0754
 7651TIP3    H147148   5.006   2.771   3.351 -0.0553  0.3098  0.5429
 7651TIP3    H247149   4.866   2.820   3.321  0.3753  1.0929 -0.2473
 7652TIP3   OH247150   6.037   7.480   0.519 -0.7484  0.0822 -0.5306
 7652TIP3    H147151   6.131   7.492   0.521 -0.5926 -1.1290  0.1219
 7652TIP3    H247152   6.020   7.444   0.431 -0.6863  0.8218 -0.8541
 7653TIP3   OH247153   1.698   6.474   3.002 -0.4986  0.0369 -0.0730
 7653TIP3    H147154   1.625   6.503   2.948 -0.3110  0.9046  0.1334
 7653TIP3    H247155   1.669   6.390   3.038 -1.5971  0.5909  0.3806
 7654TIP3   OH247156   4.100   1.331   1.831  0.1653  0.0640 -0.1199
 7654TIP3    H147157   4.183   1.369   1.801  0.4373  0.3879  1.0174
 7654TIP3    H247158   4.034   1.397   1.810  0.2202 -0.0898 -0.8000
 7655TIP3   OH247159   0.049   4.251   3.204  0.3767 -0.7117 -0.3201
 7655TIP3    H147160   0.054   4.225   3.296  0.9233  1.2099  0.2408
 7655TIP3    H247161   0.133   4.225   3.167  0.2518 -1.2635 -0.2266
 7656TIP3   OH247162   7.565   5.419   1.845 -0.4858  0.0258  0.0721
 7656TIP3    H147163   7.652   5.408   1.808 -0.0381 -1.2510  1.3893
 7656TIP3    H247164   7.520   5.336   1.828 -1.2079  0.4093  0.0269
 7657TIP3   OH247165   3.666   1.096   1.855 -0.1472  0.7250  0.6833
 7657TIP3    H147166   3.705   1.041   1.923  0.8000 -1.6193 -1.5951
 7657TIP3    H247167   3.737   1.112   1.793 -1.2792  1.6771 -0.4316
 7658TIP3   OH247168   4.249   0.123   2.959  0.0158 -0.2378  0.1503
 7658TIP3    H147169   4.331   0.172   2.950 -0.0459 -0.1138  0.2421
 7658TIP3    H247170   4.268   0.059   3.028  0.0942 -0.3360  0.0375
 7659TIP3   OH247171   7.598   3.749   0.662  0.5671  0.0345  0.8577
 7659TIP3    H147172   7.551   3.676   0.622  3.3926 -0.6863 -1.5090
 7659TIP3    H247173   7.678   3.710   0.697  1.1262  1.6787  1.5279
 7660TIP3   OH247174   6.258   6.918   1.702  0.3248 -0.6536 -0.5140
 7660TIP3    H147175   6.264   6.992   1.642 -0.9891  0.1080  0.2460
 7660TIP3    H247176   6.347   6.908   1.736  0.5494  0.5183 -0.7143
 7661TIP3   OH247177   0.260   2.767   1.477 -0.3501  0.2336  0.0131
 7661TIP3    H147178   0.264   2.827   1.551  0.6258 -0.4373  0.5234
 7661TIP3    H247179   0.169   2.772   1.447 -0.6642  0.7976  1.0106
 7662TIP3   OH247180   7.595   2.329   1.235 -0.6334  0.7528 -0.4763
 7662TIP3    H147181   7.532   2.260   1.213  1.6085 -1.3916 -0.6575
 7662TIP3    H247182   7.631   2.355   1.150  1.1360 -0.5933 -0.2099
 7663TIP3   OH247183   2.384   2.124   0.719 -0.3767  0.2415  0.0914
 7663TIP3    H147184   2.468   2.085   0.742  0.3280  0.7550 -1.5095
 7663TIP3    H247185   2.406   2.210   0.684 -1.6223  0.6114  0.1771
 7664TIP3   OH247186   3.102   5.118   1.269  0.5700 -0.1962 -0.5640
 7664TIP3    H147187   3.029   5.175   1.242 -0.0823 -0.8133 -0.1328
 7664TIP3    H247188   3.109   5.053   1.199  0.0161 -0.7570 -0.1093
 7665TIP3   OH247189   2.172   2.506   0.799  0.2996 -0.0179  0.3911
 7665TIP3    H147190   2.239   2.574   0.794  0.1521  0.1047  0.0291
 7665TIP3    H247191   2.168   2.469   0.711 -0.2155  0.0837  0.3635
 7666TIP3   OH247192   4.330   6.244   2.340 -0.4156  0.1366  0.0649
 7666TIP3    H147193   4.241   6.263   2.312 -1.1280 -0.5456  1.7440
 7666TIP3    H247194   4.369   6.329   2.358  0.0169  0.5925 -2.6570
 7667TIP3   OH247195   1.454   5.803   1.161  0.2921  0.1505  0.3533
 7667TIP3    H147196   1.484   5.883   1.204 -1.0640  1.3662 -0.8240
 7667TIP3    H247197   1.363   5.793   1.190  0.2298 -0.5496 -0.0570
 7668TIP3   OH247198   5.595   2.642   1.906 -0.2565  0.2731 -0.1340
 7668TIP3    H147199   5.584   2.725   1.861  0.8437  0.3021 -0.3854
 7668TIP3    H247200   5.515   2.632   1.958 -1.0881  0.7168 -1.3048
 7669TIP3   OH247201   1.290   2.495   3.492 -0.3675 -0.4564  0.3871
 7669TIP3    H147202   1.249   2.574   3.456  1.3998  0.5317  0.4110
 7669TIP3    H247203   1.281   2.504   3.587  0.7604  0.2830  0.4400
 7670TIP3   OH247204   4.410   5.566   2.352 -0.3573 -0.2597  0.0073
 7670TIP3    H147205   4.341   5.548   2.288  0.3853 -1.1262 -0.5843
 7670TIP3    H247206   4.491   5.545   2.306  0.4125  1.9124  0.2779
 7671TIP3   OH247207   3.406   2.377   1.040  0.0489 -0.2296 -0.5198
 7671TIP3    H147208   3.439   2.292   1.011  1.2245  0.4343 -1.2130
 7671TIP3    H247209   3.322   2.358   1.082  0.7905 -1.8475  0.2891
 7672TIP3   OH247210   3.614   2.556   1.800 -0.1752 -0.2957  0.4758
 7672TIP3    H147211   3.709   2.548   1.810 -0.1768 -0.7686  0.1512
 7672TIP3    H247212   3.579   2.480   1.845 -0.4747  0.5226  1.6688
 7673TIP3   OH247213   6.771   4.760   3.543  0.3590 -0.9790 -0.4460
 7673TIP3    H147214   6.707   4.831   3.549  0.1749 -1.0877 -1.0072
 7673TIP3    H247215   6.814   4.773   3.459  0.7267 -1.1965 -0.2931
 7674TIP3   OH247216   3.279   2.850   3.328 -0.3301  0.3518  0.1113
 7674TIP3    H147217   3.357   2.806   3.295  1.3117  2.2527  1.1724
 7674TIP3    H247218   3.280   2.833   3.422 -1.4497  0.0697  0.0838
 7675TIP3   OH247219   1.936   5.199   1.067  0.4885 -0.2555  0.5057
 7675TIP3    H147220   1.992   5.184   0.991 -0.0954  1.0470 -0.2081
 7675TIP3    H247221   1.893   5.114   1.082  1.6258 -0.8985  0.2448
 7676TIP3   OH247222   1.158   7.371   1.491  0.4772 -0.1737  0.3625
 7676TIP3    H147223   1.069   7.344   1.513 -0.8690 -0.1214 -4.0920
 7676TIP3    H247224   1.211   7.292   1.503 -1.0964 -1.5263 -1.1468
 7677TIP3   OH247225   4.031   3.203   2.184 -0.4971 -0.2951 -0.6570
 7677TIP3    H147226   4.087   3.126   2.180 -1.7950 -1.3330  0.3686
 7677TIP3    H247227   4.025   3.234   2.094  0.4692 -1.0652 -0.9979
 7678TIP3   OH247228   2.615   1.398   4.154  1.1886  0.6489 -0.1311
 7678TIP3    H147229   2.527   1.436   4.160 -0.0124 -2.0198  1.0854
 7678TIP3    H247230   2.600   1.312   4.115  3.2042 -0.0228  0.4786
 7679TIP3   OH247231   4.385   6.922   2.742 -0.5194 -0.4658  0.4935
 7679TIP3    H147232   4.475   6.945   2.765 -1.2821 -0.9079  4.7234
 7679TIP3    H247233   4.330   6.978   2.798 -2.8514 -1.1256 -0.9848
 7680TIP3   OH247234   4.899   7.211   2.158 -0.4141  0.1999 -0.1221
 7680TIP3    H147235   4.926   7.147   2.224  0.8274 -0.7470 -1.4839
 7680TIP3    H247236   4.946   7.291   2.181  0.3638 -0.2537 -0.1131
 7681TIP3   OH247237   6.389   3.766   2.564 -0.5530 -0.2997  0.3266
 7681TIP3    H147238   6.394   3.671   2.559  2.4650 -0.2294  0.3084
 7681TIP3    H247239   6.389   3.795   2.473 -1.4451 -0.2666  0.3327
 7682TIP3   OH247240   1.453   1.580   1.545 -0.4814  0.7295  0.0294
 7682TIP3    H147241   1.445   1.596   1.639  0.4765  1.1318  0.0476
 7682TIP3    H247242   1.495   1.658   1.510 -1.1104  0.7185 -0.7962
 7683TIP3   OH247243   1.021   4.474   1.558  0.0717  0.2416 -0.3554
 7683TIP3    H147244   0.988   4.499   1.645 -0.3339  0.5927 -0.6058
 7683TIP3    H247245   0.947   4.430   1.516  0.0272  0.7371 -0.8017
 7684TIP3   OH247246   3.721   0.764   1.430 -0.1723  0.5288  0.5635
 7684TIP3    H147247   3.670   0.725   1.359  1.9349  0.3793 -0.9338
 7684TIP3    H247248   3.679   0.849   1.445 -2.5372 -0.6728  1.3357
 7685TIP3   OH247249   1.308   6.528   1.642 -0.1430  0.1876  0.3900
 7685TIP3    H147250   1.215   6.533   1.666 -0.0580  0.0912  0.7432
 7685TIP3    H247251   1.325   6.435   1.629 -0.2796  0.2637 -0.4339
 7686TIP3   OH247252   5.333   4.485   1.218 -0.2239 -0.6543 -0.3522
 7686TIP3    H147253   5.403   4.431   1.182  0.2812  0.0252 -0.4050
 7686TIP3    H247254   5.281   4.424   1.271  0.2325 -1.2233 -0.5453
 7687TIP3   OH247255   5.269   5.385   1.252  0.6615 -0.0858 -0.0658
 7687TIP3    H147256   5.214   5.461   1.274 -0.9146 -1.2573  0.1622
 7687TIP3    H247257   5.345   5.423   1.209 -0.4890  1.5803 -0.7368
 7688TIP3   OH247258   2.271   0.274   2.265  0.2741 -0.1205 -0.0857
 7688TIP3    H147259   2.299   0.307   2.350 -1.2405 -0.0899  0.4474
 7688TIP3    H247260   2.186   0.317   2.250  0.0630 -0.8669 -1.1502
 7689TIP3   OH247261   2.254   4.128   1.685 -0.2458  0.2299 -0.0200
 7689TIP3    H147262   2.242   4.199   1.748  0.1679 -0.4976  0.9196
 7689TIP3    H247263   2.349   4.127   1.668 -0.3197  0.2480 -0.4504
 7690TIP3   OH247264   1.733   1.541   2.485 -0.0691  0.0510 -0.0499
 7690TIP3    H147265   1.763   1.631   2.499 -0.4450 -0.2084  3.0195
 7690TIP3    H247266   1.642   1.540   2.515  0.5217 -1.7508  1.8956
 7691TIP3   OH247267   2.869   0.258   2.392 -0.3523  0.5915 -0.9040
 7691TIP3    H147268   2.810   0.333   2.402  1.1045  1.6043  0.6916
 7691TIP3    H247269   2.826   0.188   2.441 -0.2891  1.2952  0.1906
 7692TIP3   OH247270   5.436   6.674   0.936  0.5364  0.1554 -0.3239
 7692TIP3    H147271   5.454   6.720   1.018  0.8309 -0.0925 -0.2500
 7692TIP3    H247272   5.483   6.725   0.869 -1.2908  1.5192 -0.6511
 7693TIP3   OH247273   6.885   6.919   8.352  0.4174 -0.0514 -0.2265
 7693TIP3    H147274   6.889   6.876   8.266 -2.2674 -0.3047 -0.3101
 7693TIP3    H247275   6.944   6.867   8.407  1.4083 -0.4975 -1.6378
 7694TIP3   OH247276   0.889   1.015   2.853 -0.1828 -0.2249  0.2535
 7694TIP3    H147277   0.898   1.104   2.819 -0.5953  0.1702  1.1438
 7694TIP3    H247278   0.837   1.025   2.933  1.1494 -1.0579  1.2668
 7695TIP3   OH247279   5.738   5.547   1.384  0.0270  0.0549 -0.6888
 7695TIP3    H147280   5.723   5.593   1.302 -0.1358  2.6231  0.6564
 7695TIP3    H247281   5.814   5.591   1.423 -1.5796  0.8920  1.7659
 7696TIP3   OH247282   6.761   6.778   2.011  0.1714 -0.4496 -0.1424
 7696TIP3    H147283   6.745   6.747   2.100 -1.8337 -0.8754 -0.6056
 7696TIP3    H247284   6.777   6.699   1.960 -2.2688 -0.6067 -0.8021
 7697TIP3   OH247285   5.924   2.761   1.670  0.1011 -0.0361  0.5320
 7697TIP3    H147286   5.893   2.699   1.736 -1.6603 -0.0630 -0.2754
 7697TIP3    H247287   5.883   2.844   1.694  0.6932  0.3199  0.3362
 7698TIP3   OH247288   0.040   6.217   1.717 -0.0212 -0.6231 -0.1696
 7698TIP3    H147289   0.064   6.222   1.625  0.2023  1.1683 -0.0472
 7698TIP3    H247290  -0.045   6.174   1.718 -1.2895  1.6538 -1.4932
 7699TIP3   OH247291   7.516   3.174   3.277 -0.8398 -0.3023  0.1519
 7699TIP3    H147292   7.430   3.140   3.252 -0.1456 -0.9993 -1.4343
 7699TIP3    H247293   7.566   3.096   3.300 -1.3082  0.2699  3.5989
 7700TIP3   OH247294   3.581   4.754   3.580 -0.3724 -0.0455  0.5046
 7700TIP3    H147295   3.572   4.824   3.515  0.4380 -0.5139 -0.1240
 7700TIP3    H247296   3.675   4.753   3.601 -0.4162 -0.7846  0.6829
 7701TIP3   OH247297   4.902   2.238   2.360 -0.0593  0.3706 -0.6473
 7701TIP3    H147298   4.911   2.242   2.265 -1.8607 -0.8783 -0.9210
 7701TIP3    H247299   4.839   2.167   2.375 -0.7042  1.3097  1.4121
 7702TIP3   OH247300   7.105   7.495   0.692  0.0005  0.6557  0.1817
 7702TIP3    H147301   7.159   7.439   0.748 -1.4775 -0.5897  0.4517
 7702TIP3    H247302   7.121   7.462   0.604  1.3158  1.7401 -0.0086
 7703TIP3   OH247303   7.646   5.305   1.214  0.4288 -0.2412  0.3942
 7703TIP3    H147304   7.660   5.285   1.122  1.6442  1.5158  0.1598
 7703TIP3    H247305   7.561   5.265   1.235  0.0483 -0.4927 -1.5163
 7704TIP3   OH247306   1.718   3.325   0.990 -0.0246  0.2384 -0.2655
 7704TIP3    H147307   1.707   3.418   1.011  0.5476  0.5163 -1.1107
 7704TIP3    H247308   1.803   3.321   0.945 -0.6421 -0.4737 -1.4280
 7705TIP3   OH247309   1.289   5.735   1.985 -0.4621  0.0466 -0.1980
 7705TIP3    H147310   1.384   5.738   1.980 -0.4070 -0.0362  0.6415
 7705TIP3    H247311   1.261   5.703   1.899  0.2200  0.8088 -0.7122
 7706TIP3   OH247312   4.860   6.918   1.786 -0.0875 -0.0499 -0.2774
 7706TIP3    H147313   4.861   6.850   1.853 -0.9882  0.3080  0.1195
 7706TIP3    H247314   4.817   6.877   1.711 -1.6799  0.3857  0.3439
 7707TIP3   OH247315   2.681   3.240   0.593 -0.1830  0.2571  0.1995
 7707TIP3    H147316   2.750   3.304   0.607 -1.7514  2.2435 -0.7330
 7707TIP3    H247317   2.599   3.290   0.597 -1.4847 -1.6383 -0.7585
 7708TIP3   OH247318   1.689   1.936   0.575  0.0193 -0.1452 -0.4969
 7708TIP3    H147319   1.699   1.967   0.485 -0.9170 -0.6925 -0.7983
 7708TIP3    H247320   1.640   2.006   0.619  0.3615  0.0619 -0.4394
 7709TIP3   OH247321   6.802   1.998   1.257 -0.5468  0.0846  0.0322
 7709TIP3    H147322   6.771   1.916   1.219 -0.0984  0.1375 -0.4719
 7709TIP3    H247323   6.723   2.044   1.284 -0.8433 -0.2099 -0.3235
 7710TIP3   OH247324   4.338   5.713   1.978 -0.2249  0.3374 -0.0213
 7710TIP3    H147325   4.396   5.669   1.916  0.1328  0.4488  0.2353
 7710TIP3    H247326   4.390   5.784   2.014 -0.2111 -0.1140  0.8795
 7711TIP3   OH247327   1.227   2.733   0.589 -0.1068  0.1102 -0.3336
 7711TIP3    H147328   1.262   2.732   0.500  2.0170  1.6606  0.3910
 7711TIP3    H247329   1.295   2.777   0.641 -0.9690 -1.3083  2.1886
 7712TIP3   OH247330   2.201   4.679   1.134 -0.4373 -0.0108  0.1487
 7712TIP3    H147331   2.138   4.703   1.066  0.3992  0.8993 -0.3275
 7712TIP3    H247332   2.280   4.727   1.112 -0.2482  0.6160  1.9882
 7713TIP3   OH247333   2.436   2.163   1.782  0.3730 -0.4031 -0.4314
 7713TIP3    H147334   2.361   2.118   1.742 -0.4100  0.9839 -0.5590
 7713TIP3    H247335   2.430   2.142   1.875  0.5068 -1.2345 -0.6003
 7714TIP3   OH247336   3.720   1.556   2.821 -0.2201 -0.0652 -0.0781
 7714TIP3    H147337   3.752   1.562   2.911 -2.3006  0.2917  0.6862
 7714TIP3    H247338   3.744   1.640   2.781  0.4652 -0.1160  0.2113
 7715TIP3   OH247339   6.558   2.485   2.058  0.2236 -0.3832  0.0964
 7715TIP3    H147340   6.470   2.459   2.083 -0.1316  0.0256 -0.6874
 7715TIP3    H247341   6.550   2.577   2.033  0.3402 -0.9707 -2.3711
 7716TIP3   OH247342   7.566   7.395   1.608 -0.5270 -0.0029  0.3736
 7716TIP3    H147343   7.622   7.324   1.577 -1.0819  0.0288 -0.7279
 7716TIP3    H247344   7.485   7.352   1.635 -0.5334  0.1211  0.5594
 7717TIP3   OH247345   2.634   2.281   1.962 -0.2769  0.6401 -0.0614
 7717TIP3    H147346   2.666   2.192   1.944 -2.0395 -0.2841  1.1427
 7717TIP3    H247347   2.632   2.323   1.876  1.3617 -0.1721 -0.5513
 7718TIP3   OH247348   4.011   0.580   1.776 -0.1926  0.5984 -0.1642
 7718TIP3    H147349   3.940   0.635   1.810 -1.4618 -1.6522  1.0289
 7718TIP3    H247350   4.091   0.629   1.797 -1.2434  1.8837  1.0509
 7719TIP3   OH247351   3.510   6.318   1.068 -1.0544  0.0728  0.5781
 7719TIP3    H147352   3.426   6.275   1.082 -0.8439 -0.3006  0.7311
 7719TIP3    H247353   3.574   6.257   1.106 -0.5240 -0.5848 -1.2977
 7720TIP3   OH247354   6.418   6.756   2.961 -0.5316  0.4247 -0.0622
 7720TIP3    H147355   6.383   6.738   3.048  0.1615 -2.0540 -0.2177
 7720TIP3    H247356   6.502   6.800   2.978  0.4465 -1.5900  0.6529
 7721TIP3   OH247357   0.702   6.445   1.101 -0.5010  0.4723 -0.2671
 7721TIP3    H147358   0.763   6.448   1.027  0.1575  0.2836  0.2611
 7721TIP3    H247359   0.717   6.527   1.148 -0.5250  0.3467 -0.0393
 7722TIP3   OH247360   4.526   5.412   3.560  0.0097  0.5657  0.1076
 7722TIP3    H147361   4.478   5.466   3.623 -1.2113 -1.7691  1.2819
 7722TIP3    H247362   4.459   5.383   3.498 -0.2141 -2.6164  1.6711
 7723TIP3   OH247363   0.535   0.350   1.739 -0.6208 -0.1460  0.4111
 7723TIP3    H147364   0.570   0.343   1.650 -1.4667 -1.0416  0.1233
 7723TIP3    H247365   0.606   0.322   1.796 -0.8986 -2.1721 -0.1751
 7724TIP3   OH247366   1.673   2.373   1.977  0.5427 -0.2995 -0.0703
 7724TIP3    H147367   1.767   2.356   1.978  1.0060  1.9636 -0.1466
 7724TIP3    H247368   1.651   2.380   1.884  0.4883  0.1190 -0.0252
 7725TIP3   OH247369   1.132   3.049   2.559 -0.2115  0.2308  0.1296
 7725TIP3    H147370   1.073   3.021   2.630 -0.3838  0.0728 -0.0751
 7725TIP3    H247371   1.201   2.982   2.558 -0.3159  0.1252  0.0168
 7726TIP3   OH247372   5.214   6.776   3.084 -0.3622 -0.2515  0.2548
 7726TIP3    H147373   5.275   6.847   3.104 -0.1099  0.4796 -2.5876
 7726TIP3    H247374   5.139   6.819   3.043 -2.3457 -1.2633  2.5760
 7727TIP3   OH247375   6.665   5.208   2.464 -0.0566 -0.3008 -0.0807
 7727TIP3    H147376   6.705   5.208   2.378 -1.6392 -0.3823 -0.8466
 7727TIP3    H247377   6.637   5.118   2.478 -2.3353  0.2255 -0.7599
 7728TIP3   OH247378   4.696   6.969   1.426  0.2859 -0.0961  0.1901
 7728TIP3    H147379   4.711   6.915   1.349 -0.4876  3.1617 -2.5045
 7728TIP3    H247380   4.780   7.010   1.445  0.1283  0.2954  0.0629
 7729TIP3   OH247381   3.122   1.511   4.018  0.6699  0.7889 -0.2069
 7729TIP3    H147382   3.037   1.476   4.044  0.7503  1.4539  0.9879
 7729TIP3    H247383   3.104   1.603   3.996  1.1995  1.1300  0.7554
 7730TIP3   OH247384   1.629   5.945   2.683  0.5666 -0.0775 -0.7779
 7730TIP3    H147385   1.572   6.015   2.713  0.3023 -0.5602 -0.1145
 7730TIP3    H247386   1.598   5.925   2.595 -0.3342 -0.3623 -0.4101
 7731TIP3   OH247387   3.641   6.646   1.109  0.1118 -0.5210 -0.4745
 7731TIP3    H147388   3.664   6.561   1.073  1.1996 -0.8316  0.8811
 7731TIP3    H247389   3.560   6.630   1.158  0.2008 -0.7256 -0.3958
 7732TIP3   OH247390   3.762   3.853   2.676  0.2885  0.1381  0.3039
 7732TIP3    H147391   3.792   3.769   2.641 -2.3307 -1.7931  2.2645
 7732TIP3    H247392   3.706   3.889   2.607 -0.1498 -0.7282  0.1924
 7733TIP3   OH247393   3.270   7.526   3.388  0.0709  0.4830 -0.0554
 7733TIP3    H147394   3.323   7.593   3.432 -0.2608  0.3357  0.5782
 7733TIP3    H247395   3.183   7.567   3.379 -0.0331  0.2760  0.0071
 7734TIP3   OH247396   3.697   5.952   3.070  0.6783  0.0293  0.2532
 7734TIP3    H147397   3.674   6.010   3.142 -2.4526 -0.7181  0.0080
 7734TIP3    H247398   3.738   5.876   3.112 -1.0296 -0.3608  1.2955
 7735TIP3   OH247399   5.441   2.347   0.601 -0.2330  0.6055  0.5070
 7735TIP3    H147400   5.534   2.336   0.583  0.1688  1.2285  2.0810
 7735TIP3    H247401   5.415   2.267   0.647 -0.6507  0.1505 -0.4815
 7736TIP3   OH247402   4.047   4.657   2.339  0.6099  0.0019 -0.7079
 7736TIP3    H147403   4.091   4.572   2.341 -0.2031 -0.4508 -1.3773
 7736TIP3    H247404   4.111   4.716   2.298  1.3949 -0.1413  0.2744
 7737TIP3   OH247405   3.371   5.161   1.351 -0.7497  0.5088 -1.0498
 7737TIP3    H147406   3.379   5.233   1.413  1.1865  0.6014 -1.3478
 7737TIP3    H247407   3.276   5.147   1.342 -1.1296  2.2512 -0.1371
 7738TIP3   OH247408   2.853   2.833   2.614 -0.3291 -0.7718 -0.4873
 7738TIP3    H147409   2.896   2.915   2.635 -1.0931 -0.3696 -0.4565
 7738TIP3    H247410   2.870   2.820   2.521  1.2405 -1.4636 -0.1350
 7739TIP3   OH247411   4.232   5.694   2.534  0.6489 -0.6340  0.1408
 7739TIP3    H147412   4.279   5.680   2.616  1.0369  1.4631  0.3364
 7739TIP3    H247413   4.292   5.663   2.466  1.3168 -0.2117  0.5271
 7740TIP3   OH247414   4.685   2.756   3.391  0.6917 -0.1629  0.2029
 7740TIP3    H147415   4.612   2.699   3.413  0.6746  0.3820  1.6425
 7740TIP3    H247416   4.657   2.844   3.417  1.9592  0.0071  1.0977
 7741TIP3   OH247417   4.874   0.952   1.744 -0.2592  0.0737 -0.3225
 7741TIP3    H147418   4.944   0.940   1.679  1.3217  0.6991  1.1713
 7741TIP3    H247419   4.878   0.873   1.798 -1.0611 -0.1175 -0.5445
 7742TIP3   OH247420   3.816   0.115   1.676  0.1132  0.3586 -0.4692
 7742TIP3    H147421   3.759   0.040   1.656 -0.4903  0.8193 -0.4954
 7742TIP3    H247422   3.892   0.076   1.719  0.2074 -0.3655 -1.2726
 7743TIP3   OH247423   6.210   4.470   3.194  0.3061  0.3898 -0.4243
 7743TIP3    H147424   6.186   4.488   3.284  1.8210  0.0637  0.0698
 7743TIP3    H247425   6.205   4.375   3.186  1.0623  0.3421 -0.4032
 7744TIP3   OH247426   2.577   7.357   1.044 -0.0452 -0.1470 -0.1150
 7744TIP3    H147427   2.515   7.390   1.109 -0.2383  1.0903 -0.8943
 7744TIP3    H247428   2.532   7.283   1.003 -0.6902  0.2432 -0.1256
 7745TIP3   OH247429   5.741   6.822   2.495  0.0409  0.9680  0.1216
 7745TIP3    H147430   5.747   6.902   2.547 -1.4206  0.1028  1.7396
 7745TIP3    H247431   5.826   6.779   2.509  0.7099  2.0412 -0.4991
 7746TIP3   OH247432   3.425   1.935   1.801  0.1377  0.0252  0.2556
 7746TIP3    H147433   3.415   1.952   1.708  2.3947 -0.1108 -0.0583
 7746TIP3    H247434   3.469   1.850   1.806  1.0954  0.5493  1.3819
 7747TIP3   OH247435   5.631   1.283   2.349 -0.3028 -0.1936 -0.1935
 7747TIP3    H147436   5.676   1.368   2.351 -0.9407  0.1374  0.5282
 7747TIP3    H247437   5.542   1.303   2.320 -1.0787 -0.2836  1.9652
 7748TIP3   OH247438   5.353   0.680   2.795 -0.1018  0.3082  0.0918
 7748TIP3    H147439   5.374   0.643   2.881 -2.2503 -0.9515  0.1259
 7748TIP3    H247440   5.338   0.773   2.812  0.3115  0.2376  0.9143
 7749TIP3   OH247441   6.592   1.452   1.600 -0.1691  0.6061  0.2938
 7749TIP3    H147442   6.630   1.491   1.678  0.5895  1.2617 -0.3856
 7749TIP3    H247443   6.580   1.360   1.622  0.5693  0.6704  0.9794
 7750TIP3   OH247444   2.418   0.405   3.161 -0.6010  0.0304 -0.0009
 7750TIP3    H147445   2.433   0.320   3.202  1.2587  0.7102  0.8111
 7750TIP3    H247446   2.352   0.447   3.217  1.1151  0.5139  1.7563
 7751TIP3   OH247447   1.661   5.924   2.425 -0.3337  0.1934  0.6198
 7751TIP3    H147448   1.694   5.858   2.363  1.8500  0.8721  0.9801
 7751TIP3    H247449   1.566   5.921   2.415 -0.2120 -1.9746 -0.4259
 7752TIP3   OH247450   0.494   4.342   2.944 -0.0068  0.4907 -0.3926
 7752TIP3    H147451   0.550   4.329   2.868  1.5990 -1.3481  0.9999
 7752TIP3    H247452   0.458   4.255   2.963  0.4444  0.6712  1.5005
 7753TIP3   OH247453   3.373   2.085   2.110 -0.3843 -0.0957  0.2363
 7753TIP3    H147454   3.437   2.142   2.152 -0.9997  0.4502  0.4585
 7753TIP3    H247455   3.378   2.106   2.017  1.3203 -1.6435 -0.0896
 7754TIP3   OH247456   2.571   4.943   1.711  0.3860 -0.5087 -0.8300
 7754TIP3    H147457   2.513   4.938   1.787  0.8162 -1.8411 -0.5606
 7754TIP3    H247458   2.534   4.880   1.649  0.9815 -0.6536 -1.0449
 7755TIP3   OH247459   6.860   6.996   2.681 -0.4870 -0.2407 -0.2366
 7755TIP3    H147460   6.910   7.021   2.603 -1.4969 -1.3517 -1.2854
 7755TIP3    H247461   6.858   7.075   2.735 -2.3311  1.5236 -2.7110
 7756TIP3   OH247462   7.534   0.161   2.615  0.0217  0.0157  0.2182
 7756TIP3    H147463   7.624   0.135   2.635  0.2339  0.9942  0.6322
 7756TIP3    H247464   7.525   0.247   2.656 -1.3228 -0.3543  0.7666
 7757TIP3   OH247465   6.812   4.224   2.399 -0.1777  0.0957  0.0417
 7757TIP3    H147466   6.755   4.184   2.332  2.0206 -1.5216 -0.9804
 7757TIP3    H247467   6.788   4.180   2.480  1.2347 -2.5032 -0.8250
 7758TIP3   OH247468   2.452   3.682   0.927  0.2908 -0.4697 -0.4638
 7758TIP3    H147469   2.505   3.756   0.955  0.2249 -0.0937 -1.3231
 7758TIP3    H247470   2.458   3.620   1.000 -0.6371  0.8652  0.8074
 7759TIP3   OH247471   1.646   0.354   3.057  0.4461 -0.1657  0.0614
 7759TIP3    H147472   1.667   0.424   3.120  1.0121  0.7887 -1.1503
 7759TIP3    H247473   1.728   0.307   3.044  0.4805  0.0184 -0.4116
 7760TIP3   OH247474   6.977   4.875   1.320 -0.0828 -0.4269  0.0229
 7760TIP3    H147475   6.892   4.886   1.277 -0.0326  1.9847  0.4063
 7760TIP3    H247476   7.041   4.876   1.249 -0.2103  0.5311 -0.0890
 7761TIP3   OH247477   3.268   1.199   2.509 -0.2371 -0.1283 -0.6382
 7761TIP3    H147478   3.286   1.217   2.601 -1.2920 -0.8339 -0.2835
 7761TIP3    H247479   3.262   1.285   2.468 -1.5228  0.2480  0.3016
 7762TIP3   OH247480   0.937   0.349   3.348 -0.5283  0.5618  0.4685
 7762TIP3    H147481   1.026   0.345   3.312  0.2404 -0.8970  2.3654
 7762TIP3    H247482   0.890   0.277   3.306 -0.4152  0.5007  0.4480
 7763TIP3   OH247483   2.315   4.391   0.996  0.2496  0.3072 -0.1532
 7763TIP3    H147484   2.349   4.465   1.046  0.7650 -0.6344  0.9348
 7763TIP3    H247485   2.222   4.386   1.019  0.5518 -0.3074  0.9783
 7764TIP3   OH247486   7.241   0.802   1.916 -0.2495  0.4905 -0.2767
 7764TIP3    H147487   7.229   0.878   1.972 -2.0797 -0.0396  0.1248
 7764TIP3    H247488   7.329   0.812   1.881  0.1091  2.0027  0.9269
 7765TIP3   OH247489   6.862   6.107   0.862 -0.7899 -0.3247 -0.1250
 7765TIP3    H147490   6.880   6.199   0.841  1.9257 -0.9844 -1.1191
 7765TIP3    H247491   6.805   6.077   0.791  0.5386 -0.0639 -1.3455
 7766TIP3   OH247492   0.999   4.768   0.652 -0.5655  0.1065  0.2643
 7766TIP3    H147493   1.065   4.799   0.714 -0.6400  1.0684 -0.1331
 7766TIP3    H247494   1.016   4.816   0.571  0.4489 -2.1457 -0.9777
 7767TIP3   OH247495   3.682   4.970   0.968 -0.3182  0.3369  0.4090
 7767TIP3    H147496   3.590   4.987   0.946 -0.4104  1.1059  1.3665
 7767TIP3    H247497   3.718   5.056   0.987  0.6424  0.0481 -0.0690
 7768TIP3   OH247498   6.064   7.598   0.750 -0.1538 -0.0868  0.0748
 7768TIP3    H147499   6.008   7.562   0.818 -0.2339 -1.0251 -0.4717
 7768TIP3    H247500   6.041   7.549   0.671  0.9294  0.0006 -0.3188
 7769TIP3   OH247501   1.778   4.313   0.713  0.8637 -0.2529 -0.4555
 7769TIP3    H147502   1.848   4.342   0.653  0.4699  0.8132 -0.4255
 7769TIP3    H247503   1.822   4.303   0.797  0.9584  0.6246 -0.3867
 7770TIP3   OH247504   6.758   5.452   3.068 -0.1387  0.4144  0.7794
 7770TIP3    H147505   6.832   5.391   3.069 -0.4419 -0.0381  3.5731
 7770TIP3    H247506   6.690   5.406   3.020  1.1860  0.6904 -1.5339
 7771TIP3   OH247507   3.969   0.965   1.623  0.2994  0.4672  0.1138
 7771TIP3    H147508   3.929   1.044   1.659  1.0884  0.3706  1.2492
 7771TIP3    H247509   3.907   0.895   1.642  0.7285  0.4087  1.3691
 7772TIP3   OH247510   2.713   5.716   1.556 -0.1286 -0.0303  0.1128
 7772TIP3    H147511   2.733   5.645   1.495 -1.2749 -1.1219  0.9332
 7772TIP3    H247512   2.734   5.680   1.642 -1.4791  0.2985  0.6129
 7773TIP3   OH247513   5.370   6.891   2.539 -0.5861  0.1155  0.3981
 7773TIP3    H147514   5.409   6.820   2.592  1.0598  0.0001 -0.8941
 7773TIP3    H247515   5.392   6.868   2.449  1.2867  2.9670  0.0001
 7774TIP3   OH247516   2.490   2.876   0.935 -0.0338 -0.4393 -0.4436
 7774TIP3    H147517   2.544   2.949   0.906 -1.2612  0.8778  0.4140
 7774TIP3    H247518   2.542   2.833   1.003  0.4060  0.0950 -0.4405
 7775TIP3   OH247519   6.923   1.357   1.469  0.0337 -0.2981 -0.3635
 7775TIP3    H147520   6.903   1.442   1.509 -0.3469 -0.1034 -0.9639
 7775TIP3    H247521   6.861   1.349   1.397  0.4524 -0.8322 -0.6667
 7776TIP3   OH247522   3.789   5.703   1.210  0.0436 -0.0959 -0.2497
 7776TIP3    H147523   3.781   5.656   1.127  0.2414  0.8734 -0.8192
 7776TIP3    H247524   3.870   5.753   1.203  0.5159 -0.6401  0.8663
 7777TIP3   OH247525   4.172   4.745   1.597 -0.4466  0.6200 -0.5201
 7777TIP3    H147526   4.239   4.786   1.543  0.9604  1.2548  1.5596
 7777TIP3    H247527   4.106   4.813   1.610 -0.3640  0.7438 -0.7593
 7778TIP3   OH247528   0.495   4.815   1.454  0.8212 -0.2522  0.3296
 7778TIP3    H147529   0.543   4.737   1.482 -0.0155 -0.4952  1.1352
 7778TIP3    H247530   0.410   4.809   1.499 -0.1411 -0.0513 -1.3520
 7779TIP3   OH247531   1.860   3.854   0.636 -0.3084  0.1123 -0.0987
 7779TIP3    H147532   1.866   3.792   0.563 -0.6911 -0.2949  0.2116
 7779TIP3    H247533   1.801   3.923   0.605  1.7176  1.4422 -1.2306
 7780TIP3   OH247534   0.709   6.823   1.644 -0.2450  0.2055  0.3647
 7780TIP3    H147535   0.735   6.751   1.587 -0.2274  1.2532 -0.9927
 7780TIP3    H247536   0.616   6.807   1.661  0.2682 -1.4055  2.0470
 7781TIP3   OH247537   7.289   7.161   1.078 -0.1034  0.4484  0.2864
 7781TIP3    H147538   7.382   7.139   1.090 -0.8041 -1.9430  2.0288
 7781TIP3    H247539   7.269   7.133   0.989  0.7112  0.5284  0.0671
 7782TIP3   OH247540   7.071   6.412   3.014  0.4568 -0.0750  1.2421
 7782TIP3    H147541   7.162   6.440   3.020  0.6532 -0.4931  0.3216
 7782TIP3    H247542   7.030   6.476   2.955  0.8605 -1.5175 -0.7172
 7783TIP3   OH247543   6.299   0.967   2.001  0.6668  1.0017 -0.3271
 7783TIP3    H147544   6.304   0.877   1.967 -1.0546  1.3126 -1.5540
 7783TIP3    H247545   6.250   0.959   2.082 -1.0142  0.9815 -1.2963
 7784TIP3   OH247546   2.604   0.907   1.914  0.3681 -0.3081 -0.5603
 7784TIP3    H147547   2.685   0.921   1.962  0.1108 -1.0845  0.1286
 7784TIP3    H247548   2.567   0.827   1.952 -1.5652  0.9168  0.3323
 7785TIP3   OH247549   2.638   3.061   0.783 -0.3829 -0.2513  0.8463
 7785TIP3    H147550   2.640   3.120   0.708  0.2988 -1.4089 -0.0799
 7785TIP3    H247551   2.617   3.117   0.858 -0.5050  1.0164 -0.1169
 7786TIP3   OH247552   5.072   1.945   1.254  0.4719  0.2449 -0.2426
 7786TIP3    H147553   5.031   1.972   1.336  0.0309 -1.6629  0.2166
 7786TIP3    H247554   5.061   2.020   1.196 -1.0746  0.8739  0.7891
 7787TIP3   OH247555   3.217   4.686   1.080  0.3359 -0.1267 -0.6014
 7787TIP3    H147556   3.212   4.781   1.068  1.4425 -0.0629 -0.7294
 7787TIP3    H247557   3.262   4.655   1.001  0.7461 -0.6490 -0.1728
 7788TIP3   OH247558   2.166   1.659   3.627  0.4184 -0.2332  0.0718
 7788TIP3    H147559   2.117   1.596   3.679  0.2730  0.6877  1.0784
 7788TIP3    H247560   2.258   1.632   3.636  0.5387  0.6289  1.8778
 7789TIP3   OH247561   6.089   3.567   2.791  0.0145 -0.5151  0.1847
 7789TIP3    H147562   6.158   3.615   2.836  1.4190 -1.4381 -0.9285
 7789TIP3    H247563   6.052   3.630   2.729  1.6288 -0.7341 -1.0471
 7790TIP3   OH247564   6.513   1.493   1.090  0.2321 -0.0933 -0.2928
 7790TIP3    H147565   6.536   1.467   1.001 -1.9314  0.0619 -0.9469
 7790TIP3    H247566   6.501   1.588   1.085  1.3475  0.1093  0.4900
 7791TIP3   OH247567   3.920   4.145   1.322 -0.0173  0.4043  0.2142
 7791TIP3    H147568   3.827   4.125   1.310  0.3852 -0.8451 -1.0917
 7791TIP3    H247569   3.937   4.121   1.413 -0.8178  0.0143  0.2762
 7792TIP3   OH247570   1.304   5.245   1.924  0.1834  0.4141 -0.0481
 7792TIP3    H147571   1.236   5.213   1.983  1.8739 -0.2558  1.6272
 7792TIP3    H247572   1.279   5.209   1.838 -0.1451 -2.1351  1.0137
 7793TIP3   OH247573   2.074   1.820   1.685 -0.0162  0.1737 -0.5067
 7793TIP3    H147574   2.125   1.739   1.684  2.0995  1.4169  0.2342
 7793TIP3    H247575   2.068   1.846   1.592 -0.0968 -0.4675 -0.6830
 7794TIP3   OH247576   5.279   6.471   3.274  0.0958  0.0315  0.0799
 7794TIP3    H147577   5.311   6.561   3.278 -1.6378  0.7991 -1.6474
 7794TIP3    H247578   5.185   6.479   3.291 -0.1546 -1.4006 -0.5400
 7795TIP3   OH247579   7.299   0.458   3.387  0.4761 -0.0223  0.6114
 7795TIP3    H147580   7.302   0.452   3.292  0.3003  1.3053  0.5007
 7795TIP3    H247581   7.390   0.451   3.415  0.9956  2.9042  0.0507
 7796TIP3   OH247582   6.024   0.104   1.648 -0.0009 -0.6812 -0.3829
 7796TIP3    H147583   5.981   0.097   1.563 -1.3990  0.6507  0.1741
 7796TIP3    H247584   6.071   0.187   1.644 -2.1106  0.6549  0.9702
 7797TIP3   OH247585   0.190   6.262   1.035  0.3209  0.5738 -0.3705
 7797TIP3    H147586   0.268   6.314   1.015  2.4636 -2.4345 -0.4887
 7797TIP3    H247587   0.169   6.217   0.953 -0.0527 -0.4396  0.2538
 7798TIP3   OH247588   6.370   3.419   1.118  0.0534  0.1301  0.3177
 7798TIP3    H147589   6.451   3.407   1.169 -1.1471  0.3425  2.3621
 7798TIP3    H247590   6.342   3.330   1.097  0.2381  0.0086  0.5737
 7799TIP3   OH247591   4.201   6.715   2.553 -0.3158  0.0002 -0.1066
 7799TIP3    H147592   4.217   6.712   2.647  1.7364  3.5406 -0.1699
 7799TIP3    H247593   4.134   6.783   2.542 -0.5440 -0.3745 -1.2028
 7800TIP3   OH247594   6.945   2.110   2.366  0.4824  0.1049 -0.1429
 7800TIP3    H147595   7.002   2.163   2.310  1.4871  0.5015  1.2165
 7800TIP3    H247596   6.995   2.029   2.380  0.8912  0.5763  1.3041
 7801TIP3   OH247597   6.360   4.046   1.684  0.6473  0.7286 -0.0049
 7801TIP3    H147598   6.297   3.982   1.718  1.9202  0.2978  1.6995
 7801TIP3    H247599   6.415   3.995   1.624  0.6586  0.6142  0.1025
 7802TIP3   OH247600   6.193   2.122   1.657 -0.1999 -0.2208  0.8215
 7802TIP3    H147601   6.131   2.191   1.678 -1.3460 -0.9756  0.0529
 7802TIP3    H247602   6.208   2.131   1.563  1.8208  0.6857  1.1724
 7803TIP3   OH247603   6.911   7.567   3.061  0.3072 -0.1281 -0.2684
 7803TIP3    H147604   6.903   7.542   2.969  1.4927 -0.2138 -0.3595
 7803TIP3    H247605   6.929   7.485   3.106 -1.0873 -0.2220  0.1796
 7804TIP3   OH247606   6.253   5.724   2.124 -0.2625 -0.1125  0.1511
 7804TIP3    H147607   6.282   5.694   2.038 -2.6733 -0.2604 -0.6927
 7804TIP3    H247608   6.243   5.644   2.176  0.0487 -0.1358  0.1730
 7805TIP3   OH247609   4.297   2.736   0.897 -0.2009 -0.5063 -1.0362
 7805TIP3    H147610   4.260   2.781   0.821 -3.0126  1.8127  1.4244
 7805TIP3    H247611   4.246   2.656   0.905 -1.0476  0.0525 -0.7100
 7806TIP3   OH247612   5.570   7.086   1.688  0.4974 -0.2268  0.1223
 7806TIP3    H147613   5.606   7.007   1.728  0.1406 -0.1499  0.6122
 7806TIP3    H247614   5.508   7.119   1.753  0.2444  0.1563 -0.3085
 7807TIP3   OH247615   6.350   6.360   3.146  0.2074 -0.2925 -0.1778
 7807TIP3    H147616   6.392   6.276   3.131  2.2851  0.7175 -0.3382
 7807TIP3    H247617   6.326   6.358   3.239  2.0553 -0.3401  0.3392
 7808TIP3   OH247618   3.581   0.346   2.411  0.1666 -0.2072  0.8949
 7808TIP3    H147619   3.565   0.439   2.396 -0.2107 -0.0890  1.9406
 7808TIP3    H247620   3.657   0.344   2.470  0.5409 -0.5857  0.4089
 7809TIP3   OH247621   1.316   4.115   2.069  0.6586  0.3180 -0.1874
 7809TIP3    H147622   1.301   4.046   2.004 -1.8943 -0.8757  1.5183
 7809TIP3    H247623   1.409   4.106   2.092  1.0995 -0.5679 -2.1259
 7810TIP3   OH247624   0.355   4.693   2.397  0.6898  0.3403  0.0494
 7810TIP3    H147625   0.341   4.598   2.391 -0.5135  0.3107  2.2496
 7810TIP3    H247626   0.341   4.724   2.308  1.4683 -1.5735 -0.8062
 7811TIP3   OH247627   6.944   4.638   1.481  0.3829  0.1000  0.0049
 7811TIP3    H147628   6.951   4.713   1.422 -0.1811 -0.5434 -0.9128
 7811TIP3    H247629   6.946   4.562   1.423 -0.0095 -0.5596  0.8345
 7812TIP3   OH247630   6.081   5.335   1.058  0.3142 -0.0742  0.0527
 7812TIP3    H147631   6.135   5.270   1.102 -2.1318 -0.1716  3.2399
 7812TIP3    H247632   6.119   5.419   1.082  0.3059 -0.1946  0.4888
 7813TIP3   OH247633   6.812   3.473   3.654 -0.3518 -0.0292 -0.2336
 7813TIP3    H147634   6.729   3.515   3.636  0.2047  1.4207  0.4178
 7813TIP3    H247635   6.869   3.497   3.581  0.0555  0.6268  0.2858
 7814TIP3   OH247636   5.037   7.222   2.532  0.2257 -0.2302 -0.0180
 7814TIP3    H147637   5.104   7.174   2.582  0.9167 -0.2601 -0.9492
 7814TIP3    H247638   5.017   7.165   2.459  2.3248  1.5404 -2.1325
 7815TIP3   OH247639   4.827   1.277   1.106  0.5253  0.3447  0.0913
 7815TIP3    H147640   4.908   1.246   1.147  0.4106  1.4876  1.2412
 7815TIP3    H247641   4.785   1.197   1.074  0.6565 -0.6503  2.1725
 7816TIP3   OH247642   1.162   3.282   1.515 -0.6440 -0.0927 -0.1652
 7816TIP3    H147643   1.156   3.260   1.608 -2.1832 -1.1563 -0.4935
 7816TIP3    H247644   1.133   3.373   1.511  0.5442  0.3470  0.5121
 7817TIP3   OH247645   7.009   6.414   0.983 -0.2740 -0.1100  0.5204
 7817TIP3    H147646   6.986   6.379   0.896  1.2177  2.3260 -0.9683
 7817TIP3    H247647   6.942   6.480   1.001 -2.1760 -2.4098  2.6046
 7818TIP3   OH247648   4.044   3.228   1.646  0.2551  0.4519  0.6444
 7818TIP3    H147649   4.032   3.263   1.557  1.0113 -0.4253  0.1809
 7818TIP3    H247650   3.967   3.258   1.694  0.5421  2.1841  0.0973
 7819TIP3   OH247651   1.479   0.189   1.848 -0.1678 -0.3409 -0.1459
 7819TIP3    H147652   1.477   0.281   1.872  1.0561  0.0187 -1.2867
 7819TIP3    H247653   1.568   0.174   1.816 -0.7239 -1.5720 -1.2478
 7820TIP3   OH247654   4.558   5.880   1.182  0.0106 -0.3681  0.5510
 7820TIP3    H147655   4.557   5.799   1.234  1.8450 -0.7552  0.0334
 7820TIP3    H247656   4.484   5.931   1.217  1.2253 -0.5262  3.7103
 7821TIP3   OH247657   1.680   5.569   1.758  0.0431  0.5602  0.3512
 7821TIP3    H147658   1.696   5.607   1.671  0.4907 -0.6308 -0.1042
 7821TIP3    H247659   1.592   5.533   1.752  0.2203  0.1344  0.2512
 7822TIP3   OH247660   3.483   0.329   1.849 -0.1027  0.6565  0.2818
 7822TIP3    H147661   3.417   0.286   1.904 -0.0163  0.2720  0.0857
 7822TIP3    H247662   3.565   0.285   1.872 -0.5591 -2.1365 -2.7752
 7823TIP3   OH247663   5.548   1.876   2.093  0.1208 -0.0377 -0.5038
 7823TIP3    H147664   5.621   1.918   2.138  0.6831 -1.6711  0.2097
 7823TIP3    H247665   5.568   1.783   2.097 -1.1896 -0.4140 -1.7812
 7824TIP3   OH247666   6.338   2.919   3.094  0.3707  0.3149 -0.1850
 7824TIP3    H147667   6.389   3.000   3.080  0.0122  0.7984  1.1522
 7824TIP3    H247668   6.400   2.849   3.074  1.1621  0.9055  0.1177
 7825TIP3   OH247669   0.690   5.953   2.828  0.4706  0.1612 -0.0253
 7825TIP3    H147670   0.738   5.873   2.807  0.4535 -0.2608  1.3834
 7825TIP3    H247671   0.755   6.011   2.868  0.1837  0.2833  0.2773
 7826TIP3   OH247672   5.814   3.474   2.547 -0.2365  0.1372  0.5280
 7826TIP3    H147673   5.743   3.417   2.517  0.1024  0.1276 -0.2894
 7826TIP3    H247674   5.882   3.414   2.576 -0.9747  0.1370  2.4202
 7827TIP3   OH247675   3.420   4.961   1.707  0.3034  0.2584 -0.0791
 7827TIP3    H147676   3.355   4.896   1.681 -1.2291  2.0711 -1.0167
 7827TIP3    H247677   3.377   5.012   1.775  1.1541  0.8511  0.0368
 7828TIP3   OH247678   0.690   3.449   0.903  0.5459  0.2450 -0.2696
 7828TIP3    H147679   0.694   3.439   0.998 -0.4852  0.9658 -0.1344
 7828TIP3    H247680   0.690   3.543   0.889  0.3752  0.1448 -0.9740
 7829TIP3   OH247681   6.747   6.905   1.692 -0.1069 -0.3627 -0.8473
 7829TIP3    H147682   6.795   6.822   1.694  0.5830  0.0297 -0.7910
 7829TIP3    H247683   6.803   6.966   1.741 -0.0978  0.3989 -1.7852
 7830TIP3   OH247684   6.494   2.781   1.305 -0.1736  0.2563  0.1021
 7830TIP3    H147685   6.584   2.779   1.272 -0.3592  0.2934 -0.4240
 7830TIP3    H247686   6.440   2.764   1.228 -0.5896 -0.4950  0.5481
 7831TIP3   OH247687   6.434   7.361   2.024 -0.2824 -0.6104 -0.0923
 7831TIP3    H147688   6.434   7.341   1.930 -0.0420 -2.0864  0.1993
 7831TIP3    H247689   6.467   7.281   2.065  0.8644  0.4655  1.1606
 7832TIP3   OH247690   4.713   1.831   1.030 -0.3368  0.0018  0.1422
 7832TIP3    H147691   4.650   1.775   0.985  0.0029  0.0064 -0.3474
 7832TIP3    H247692   4.798   1.796   1.005 -0.1397 -1.4273  2.6170
 7833TIP3   OH247693   1.838   3.982   1.955 -0.3122  0.5252 -0.5296
 7833TIP3    H147694   1.888   3.915   2.003 -0.8392  0.6338  0.1876
 7833TIP3    H247695   1.888   3.996   1.875  0.4023  0.0810 -0.1740
 7834TIP3   OH247696   0.607   6.284   2.296  0.2090 -0.5122 -0.1713
 7834TIP3    H147697   0.537   6.226   2.266 -0.6631  0.3382  0.1957
 7834TIP3    H247698   0.591   6.367   2.250  1.5812 -0.6125 -0.8801
 7835TIP3   OH247699   5.900   5.721   2.499 -0.0200 -0.7940  0.2118
 7835TIP3    H147700   5.906   5.807   2.540  1.9642 -1.3347  1.1732
 7835TIP3    H247701   5.956   5.726   2.422  0.8509 -1.4450  0.7733
 7836TIP3   OH247702   3.898   0.403   1.286 -0.3219 -0.3440  0.1588
 7836TIP3    H147703   3.805   0.425   1.280  0.2144  4.2733  3.4900
 7836TIP3    H247704   3.912   0.381   1.378  1.8914 -0.9966 -0.2707
 7837TIP3   OH247705   7.370   5.561   2.846 -0.7622 -0.3493 -0.5361
 7837TIP3    H147706   7.284   5.528   2.874 -0.8025 -1.2621 -1.6278
 7837TIP3    H247707   7.406   5.490   2.793 -0.6151  1.1798 -2.5881
 7838TIP3   OH247708   1.209   6.146   3.060  0.3549  0.3440 -0.2369
 7838TIP3    H147709   1.151   6.221   3.073  1.1239  0.8371  0.4216
 7838TIP3    H247710   1.167   6.075   3.109 -0.0281  0.5232 -0.3011
 7839TIP3   OH247711   3.215   6.733   2.979  0.4796  0.3830  0.5060
 7839TIP3    H147712   3.218   6.651   2.930 -1.0887 -0.1001  1.1490
 7839TIP3    H247713   3.179   6.797   2.917 -0.8359 -0.0634  0.7806
 7840TIP3   OH247714   7.115   3.974   1.525  0.0677  0.1342  0.3875
 7840TIP3    H147715   7.154   3.975   1.612  0.9061  1.9130  0.0245
 7840TIP3    H247716   7.184   4.006   1.467 -1.0107  0.6019 -0.6841
 7841TIP3   OH247717   5.238   3.037   1.969  0.1050  0.3870 -0.0169
 7841TIP3    H147718   5.169   3.092   2.006 -0.4265  0.2177 -0.7181
 7841TIP3    H247719   5.256   2.971   2.036 -1.4899 -0.4774 -0.3743
 7842TIP3   OH247720   6.548   6.096   1.103  0.2212  0.4260 -0.5009
 7842TIP3    H147721   6.453   6.108   1.102  0.1558  0.0899  0.4405
 7842TIP3    H247722   6.566   6.053   1.187  0.5574 -5.0509 -2.9446
 7843TIP3   OH247723   0.360   1.211   2.592  1.0643 -0.1246 -0.4189
 7843TIP3    H147724   0.265   1.215   2.577  0.6568  0.7631  1.9370
 7843TIP3    H247725   0.391   1.298   2.571  1.1466 -0.0630 -0.0517
 7844TIP3   OH247726   0.071   2.532   2.497  0.2640 -0.0504  0.3380
 7844TIP3    H147727   0.130   2.551   2.569 -0.1480  1.0920  0.4013
 7844TIP3    H247728   0.013   2.609   2.493 -0.3909 -0.5727 -0.5246
 7845TIP3   OH247729   7.252   7.440   1.446  0.2510  0.3195  0.5074
 7845TIP3    H147730   7.271   7.364   1.500 -1.3012 -0.1108  0.4675
 7845TIP3    H247731   7.338   7.481   1.433  1.0853 -1.2765  0.7124
 7846TIP3   OH247732   0.790   4.748   2.355  0.4374 -0.4447 -0.3967
 7846TIP3    H147733   0.769   4.675   2.297 -1.7465  0.5290 -0.9444
 7846TIP3    H247734   0.707   4.768   2.400  0.7510  2.0865 -0.7558
 7847TIP3   OH247735   3.457   6.986   3.477 -0.2255  0.2924  0.1903
 7847TIP3    H147736   3.495   6.916   3.531 -0.3487 -1.2110 -1.5779
 7847TIP3    H247737   3.533   7.029   3.437 -0.2222 -0.1394 -0.2728
 7848TIP3   OH247738   0.914   4.294   1.127  0.4035  0.2462  0.0896
 7848TIP3    H147739   0.878   4.205   1.123 -0.8452  0.7131  0.3152
 7848TIP3    H247740   0.929   4.319   1.036  1.4433 -0.4528  0.0621
 7849TIP3   OH247741   2.914   3.816   0.875 -0.2046  0.2796  0.0146
 7849TIP3    H147742   2.830   3.857   0.854 -0.6268  0.6513  2.1545
 7849TIP3    H247743   2.954   3.876   0.939  1.4458 -0.1732 -0.5658
 7850TIP3   OH247744   3.248   2.019   2.698 -0.0153  0.0704  0.2241
 7850TIP3    H147745   3.295   2.087   2.649  0.1908  0.3379  0.7761
 7850TIP3    H247746   3.310   1.990   2.765 -0.0551 -0.7676 -0.0896
 7851TIP3   OH247747   4.890   0.342   1.987 -0.1115 -0.4189  0.0108
 7851TIP3    H147748   4.877   0.315   1.896 -1.3794 -1.0228  0.3538
 7851TIP3    H247749   4.962   0.406   1.983 -0.3250 -0.2358 -1.4415
 7852TIP3   OH247750   2.403   5.637   2.633 -0.0076 -0.0741 -0.0033
 7852TIP3    H147751   2.363   5.645   2.720 -3.8543 -1.7185 -1.4165
 7852TIP3    H247752   2.477   5.578   2.646 -1.4239 -1.5569  1.9835
 7853TIP3   OH247753   5.242   5.766   2.779  0.3121 -0.1949 -0.0927
 7853TIP3    H147754   5.310   5.736   2.840 -0.4663 -1.0056  0.4156
 7853TIP3    H247755   5.281   5.757   2.692  1.3636  0.7557  0.2582
 7854TIP3   OH247756   5.370   1.159   0.871 -0.4512  0.5407 -0.0619
 7854TIP3    H147757   5.380   1.156   0.776 -0.7158 -0.5495 -0.0765
 7854TIP3    H247758   5.458   1.141   0.905 -0.4505  0.4406 -0.1142
 7855TIP3   OH247759   3.534   4.752   2.118  0.3146  0.0667  0.2688
 7855TIP3    H147760   3.451   4.789   2.088 -0.0790 -1.7349 -1.0017
 7855TIP3    H247761   3.512   4.707   2.200 -0.4846 -2.1562 -1.0855
 7856TIP3   OH247762   5.853   3.555   1.991 -0.4296  0.1749 -0.2301
 7856TIP3    H147763   5.929   3.614   1.992  1.6741 -2.3011  1.5338
 7856TIP3    H247764   5.805   3.575   2.071  0.0657 -0.1867  0.1670
 7857TIP3   OH247765   1.411   5.541   1.055 -0.0038  0.4622  0.0769
 7857TIP3    H147766   1.372   5.615   1.101 -0.5024 -0.5918  1.3923
 7857TIP3    H247767   1.461   5.494   1.122 -0.7694 -1.1219 -0.4262
 7858TIP3   OH247768   3.913   4.122   2.179  0.1548  0.1374 -0.1666
 7858TIP3    H147769   3.896   4.034   2.146 -1.4590  0.7464 -1.0321
 7858TIP3    H247770   3.837   4.173   2.153 -0.4238  1.0939  3.0103
 7859TIP3   OH247771   2.934   0.029   3.549  0.0947 -0.0176  0.0709
 7859TIP3    H147772   2.946  -0.006   3.637  1.3043 -0.9998 -0.4449
 7859TIP3    H247773   2.972  -0.037   3.491  0.0413  0.9564 -1.1377
 7860TIP3   OH247774   2.539   4.435   1.230 -0.1831 -0.0433 -0.2430
 7860TIP3    H147775   2.578   4.368   1.285 -0.6509 -0.1633 -0.0523
 7860TIP3    H247776   2.495   4.494   1.292 -1.8253 -0.8932 -0.5431
 7861TIP3   OH247777   0.433   0.736   2.455  0.1468 -0.2107 -0.0007
 7861TIP3    H147778   0.345   0.756   2.487  0.6863 -1.6167  2.6233
 7861TIP3    H247779   0.475   0.822   2.446 -0.8571  0.3810  0.7365
 7862TIP3   OH247780   6.540   1.725   1.491  0.3739 -0.4809  0.1254
 7862TIP3    H147781   6.574   1.647   1.537  0.3428  0.1557  1.2598
 7862TIP3    H247782   6.455   1.740   1.531  1.0488  1.0655  1.0668
 7863TIP3   OH247783   7.333   5.729   2.314  0.1005 -0.1362 -0.0801
 7863TIP3    H147784   7.387   5.672   2.368 -0.4631 -0.3366  0.2805
 7863TIP3    H247785   7.267   5.763   2.373  0.6822  1.2417 -0.1999
 7864TIP3   OH247786   4.512   5.349   2.702 -0.3160 -0.2055  0.4415
 7864TIP3    H147787   4.445   5.308   2.756 -1.6919  2.1670  0.6486
 7864TIP3    H247788   4.492   5.442   2.705  1.9880  0.4109 -0.9147
 7865TIP3   OH247789   7.330   7.223   1.640  0.0712  0.0276 -0.3894
 7865TIP3    H147790   7.347   7.143   1.591  1.2729 -0.9696  1.5450
 7865TIP3    H247791   7.294   7.193   1.724 -3.2288  1.7273 -1.0231
 7866TIP3   OH247792   6.286   3.149   1.049 -0.2786 -0.2577 -0.0843
 7866TIP3    H147793   6.354   3.114   1.106  0.4866  1.0464 -0.1662
 7866TIP3    H247794   6.321   3.141   0.961  0.2637  1.3879 -0.0524
 7867TIP3   OH247795   3.601   3.650   0.467  0.0226  0.3810 -0.1701
 7867TIP3    H147796   3.570   3.562   0.489 -1.9235 -0.0115 -3.7471
 7867TIP3    H247797   3.670   3.637   0.402  0.4048  1.4887 -0.0166
 7868TIP3   OH247798   3.091   2.965   3.176 -0.3847 -0.6602  0.2498
 7868TIP3    H147799   3.174   2.944   3.218  0.2875 -1.2984 -1.3250
 7868TIP3    H247800   3.025   2.939   3.240  0.5959  0.8598  1.9864
 7869TIP3   OH247801   5.020   2.527   3.226  0.5706  0.4749 -0.1655
 7869TIP3    H147802   4.951   2.498   3.166  1.4389  1.8499 -1.9206
 7869TIP3    H247803   4.972   2.557   3.303 -0.7625  0.6589 -1.0199
 7870TIP3   OH247804   3.044   5.719   1.094 -0.2907  0.6728 -0.1325
 7870TIP3    H147805   3.034   5.748   1.003 -0.1133 -0.3036 -0.4788
 7870TIP3    H247806   3.130   5.677   1.097 -1.8941 -3.1165 -0.6745
 7871TIP3   OH247807   7.408   6.707   2.885 -0.4771  0.6413  0.3517
 7871TIP3    H147808   7.349   6.741   2.818  0.0020  1.0336  0.1223
 7871TIP3    H247809   7.465   6.781   2.907 -0.5335  0.4780  1.0913
 7872TIP3   OH247810   4.670   7.423   1.974  0.4844 -0.0647 -0.1365
 7872TIP3    H147811   4.722   7.353   1.933  2.0621  0.2420  1.2264
 7872TIP3    H247812   4.722   7.502   1.961  0.2271  0.3078  0.9935
 7873TIP3   OH247813   6.364   4.676   3.083 -0.2414  0.1750 -0.1371
 7873TIP3    H147814   6.299   4.735   3.047  0.8216  1.1483 -0.5123
 7873TIP3    H247815   6.315   4.621   3.145 -1.3816  0.9480 -0.3249
 7874TIP3   OH247816   1.773   2.386   1.101 -0.1410  0.4176  0.1925
 7874TIP3    H147817   1.824   2.357   1.177  1.0467  2.4639  0.2351
 7874TIP3    H247818   1.837   2.427   1.043 -1.2002 -0.1610 -1.4458
 7875TIP3   OH247819   1.541   4.389   2.188 -0.4553 -0.4351  0.1587
 7875TIP3    H147820   1.604   4.361   2.121 -1.4185 -0.7887 -0.6147
 7875TIP3    H247821   1.458   4.399   2.141 -0.7988  0.8755  0.9952
 7876TIP3   OH247822   3.109   2.381   1.051  0.2343 -0.1884 -0.5228
 7876TIP3    H147823   3.079   2.447   1.114 -2.8478 -0.1381 -1.8864
 7876TIP3    H247824   3.067   2.406   0.969  0.0205 -3.1202 -1.3971
 7877TIP3   OH247825   5.534   1.045   2.830 -0.2382  0.4651 -0.1189
 7877TIP3    H147826   5.618   1.024   2.791  0.4069  0.6240  1.1190
 7877TIP3    H247827   5.521   1.138   2.812 -1.0584  0.0373 -1.9116
 7878TIP3   OH247828   2.067   2.824   2.804  0.1025 -0.1732 -0.0699
 7878TIP3    H147829   2.005   2.886   2.764 -0.9289 -1.0506  0.1242
 7878TIP3    H247830   2.020   2.788   2.879  0.8443 -0.8895  0.0648
 7879TIP3   OH247831   5.045   1.515   1.210  0.2612 -0.0277  0.2693
 7879TIP3    H147832   5.126   1.531   1.258 -1.2369 -1.6523  3.6224
 7879TIP3    H247833   5.062   1.435   1.160  1.0651  0.2941  0.0131
 7880TIP3   OH247834   6.657   1.364   2.193 -0.6089  0.0128 -0.0867
 7880TIP3    H147835   6.631   1.364   2.285  1.2847 -0.3323  0.4740
 7880TIP3    H247836   6.658   1.271   2.169  1.6457 -0.1343  0.3961
 7881TIP3   OH247837   0.732   5.657   2.658 -0.1388 -0.1215 -0.0306
 7881TIP3    H147838   0.813   5.610   2.681  0.4082  0.8343  0.0600
 7881TIP3    H247839   0.666   5.588   2.650  0.2737 -0.7675  1.6658
 7882TIP3   OH247840   3.930   4.667   1.403  0.2403  0.5604  0.2622
 7882TIP3    H147841   4.003   4.654   1.464 -0.4091  0.0456  0.9553
 7882TIP3    H247842   3.923   4.584   1.357  0.5853  0.8755 -0.3774
 7883TIP3   OH247843   0.685   1.349   1.215  0.2166  0.1114 -0.0285
 7883TIP3    H147844   0.637   1.328   1.135 -0.5666 -1.1549  0.7409
 7883TIP3    H247845   0.624   1.329   1.286  1.1869  0.3986  0.9193
 7884TIP3   OH247846   3.475   3.590   1.528  0.4514  0.0027 -0.4830
 7884TIP3    H147847   3.540   3.659   1.542  1.3021 -0.8823  0.0827
 7884TIP3    H247848   3.501   3.549   1.446  0.3365 -0.0525 -0.4911
 7885TIP3   OH247849   5.416   4.922   2.591 -0.3183  0.6777  0.3270
 7885TIP3    H147850   5.369   4.991   2.544 -0.9492  0.7872  1.0994
 7885TIP3    H247851   5.453   4.867   2.522 -0.1437  1.5613 -0.2963
 7886TIP3   OH247852   0.855   2.446   1.338  0.1612  0.5231  0.0294
 7886TIP3    H147853   0.929   2.386   1.338 -0.6194 -0.4854 -0.9220
 7886TIP3    H247854   0.786   2.399   1.385 -1.0573 -0.1915 -2.3023
 7887TIP3   OH247855   2.059   3.311   2.526 -0.1080 -0.0466  0.4928
 7887TIP3    H147856   2.086   3.399   2.552 -0.5926  1.1083 -2.5080
 7887TIP3    H247857   2.141   3.263   2.513  0.1884  0.3699  0.7973
 7888TIP3   OH247858   5.404   0.168   2.092  0.0908 -0.1091 -0.0309
 7888TIP3    H147859   5.493   0.153   2.122 -0.5788 -1.3476  1.4698
 7888TIP3    H247860   5.391   0.103   2.022 -0.1558 -1.1305  0.9256
 7889TIP3   OH247861   4.738   1.493   2.562  0.0394 -0.5714 -0.7376
 7889TIP3    H147862   4.701   1.581   2.556 -0.1150 -0.4637  1.1927
 7889TIP3    H247863   4.768   1.474   2.473  1.4209  2.0110 -0.9380
 7890TIP3   OH247864   0.486   4.581   0.514  0.4625  0.5641 -0.3085
 7890TIP3    H147865   0.510   4.500   0.559 -1.9051 -0.1769 -0.2470
 7890TIP3    H247866   0.557   4.596   0.452  2.2502 -0.0879  1.4567
 7891TIP3   OH247867   2.089   6.800   1.012 -0.0358 -0.1171 -0.2241
 7891TIP3    H147868   2.112   6.745   1.087  0.6231  0.8578  0.2957
 7891TIP3    H247869   2.029   6.865   1.048 -0.3900 -0.1543 -0.7315
 7892TIP3   OH247870   1.323   4.436   2.916 -0.1196  0.0142 -0.0676
 7892TIP3    H147871   1.284   4.368   2.970 -0.1011  0.6310  0.7433
 7892TIP3    H247872   1.410   4.401   2.894 -0.7008 -0.8981 -0.9937
 7893TIP3   OH247873   2.007   4.418   2.005  0.0022  0.1955  0.3260
 7893TIP3    H147874   2.041   4.442   2.092 -0.5107  2.9388 -0.1218
 7893TIP3    H247875   1.945   4.347   2.022  1.5661 -0.8713  1.8835
 7894TIP3   OH247876   0.355   7.002   1.103  0.5258 -0.1542  0.1029
 7894TIP3    H147877   0.290   7.054   1.055  1.3613 -1.3250 -2.4783
 7894TIP3    H247878   0.327   7.007   1.195 -2.7060  0.0757 -0.7745
 7895TIP3   OH247879   2.944   3.342   0.536 -0.3470 -0.2128 -0.0255
 7895TIP3    H147880   2.974   3.315   0.623  0.0134 -2.7150 -0.8710
 7895TIP3    H247881   3.002   3.414   0.512  1.1027 -1.0630  0.8218
 7896TIP3   OH247882   2.086   1.253   2.791  0.3544  0.5813  0.1825
 7896TIP3    H147883   2.083   1.305   2.711  2.1566  0.5900  0.0916
 7896TIP3    H247884   2.108   1.165   2.762  1.6413  0.7143  0.6949
 7897TIP3   OH247885   4.372   5.535   1.610  0.2679  0.6254  0.0418
 7897TIP3    H147886   4.430   5.611   1.601 -0.1151  0.9789  0.4668
 7897TIP3    H247887   4.392   5.500   1.696  1.2323 -0.4447 -0.5866
 7898TIP3   OH247888   3.773   1.243   3.201  0.2956 -0.2717  0.4190
 7898TIP3    H147889   3.689   1.205   3.175  0.3721 -0.4967  0.4906
 7898TIP3    H247890   3.751   1.321   3.251  0.1471  0.2563 -0.4495
 7899TIP3   OH247891   6.942   6.683   1.780  0.0371  0.4385 -0.1084
 7899TIP3    H147892   6.951   6.589   1.791 -0.1884 -0.0014 -3.0007
 7899TIP3    H247893   7.020   6.720   1.822  0.1300 -0.9810  1.0614
 7900TIP3   OH247894   2.130   3.842   0.720 -0.0660 -0.4502 -0.3472
 7900TIP3    H147895   2.138   3.749   0.698 -1.5781 -0.6668 -0.0919
 7900TIP3    H247896   2.046   3.869   0.682 -0.1714  0.5223  0.5318
 7901TIP3   OH247897   6.479   6.537   2.025  0.2832  0.3208  0.1503
 7901TIP3    H147898   6.518   6.524   1.939  3.6035  0.2135  1.5342
 7901TIP3    H247899   6.487   6.452   2.068 -1.2649  0.3961  0.6638
 7902TIP3   OH247900   0.007   5.385   3.160 -0.2815  0.3505  0.2880
 7902TIP3    H147901  -0.043   5.467   3.161 -0.4629  0.2572 -0.3772
 7902TIP3    H247902   0.007   5.359   3.068  1.6274  0.7462  0.1359
 7903TIP3   OH247903   2.307   6.199   1.545 -0.2914 -0.2312  0.0378
 7903TIP3    H147904   2.279   6.255   1.473 -0.3065 -1.0974 -0.6539
 7903TIP3    H247905   2.243   6.215   1.614 -0.9204 -0.1902 -0.5395
 7904TIP3   OH247906   4.615   4.620   1.836 -0.2444 -0.4862  0.2168
 7904TIP3    H147907   4.656   4.534   1.838  0.8424 -0.1420 -2.5787
 7904TIP3    H247908   4.656   4.668   1.907 -0.3785 -2.0224  1.3877
 7905TIP3   OH247909   5.640   5.327   2.920 -0.6570  0.5692 -0.1155
 7905TIP3    H147910   5.589   5.304   2.843 -3.1943  2.1646  0.9472
 7905TIP3    H247911   5.608   5.269   2.989  1.5426 -0.8049 -0.1663
 7906TIP3   OH247912   7.012   5.880   3.643  0.3712  0.5743 -0.3614
 7906TIP3    H147913   6.949   5.932   3.694 -1.2549 -1.4614 -0.1256
 7906TIP3    H247914   6.981   5.887   3.553  0.0423 -0.0606 -0.3070
 7907TIP3   OH247915   1.143   2.281   7.246 -0.6628  0.1043 -0.2385
 7907TIP3    H147916   1.184   2.208   7.293  0.1351 -0.3680 -1.6122
 7907TIP3    H247917   1.056   2.289   7.285 -0.0036 -0.1747  1.3909
 7908TIP3   OH247918   1.020   0.288   1.273  0.1709 -0.1291  0.2550
 7908TIP3    H147919   1.072   0.297   1.352 -2.0748  2.6002  1.6301
 7908TIP3    H247920   1.061   0.347   1.210  0.8277 -0.8067  0.0397
 7909TIP3   OH247921   4.356   1.129   2.115 -0.6985  0.0352 -0.1839
 7909TIP3    H147922   4.339   1.092   2.201 -2.9522 -1.1412 -1.0586
 7909TIP3    H247923   4.278   1.180   2.095 -0.8745 -0.9221 -2.1310
 7910TIP3   OH247924   7.142   6.724   0.634  0.5917  0.0489 -0.0437
 7910TIP3    H147925   7.098   6.640   0.624  0.7218 -0.5260  3.1613
 7910TIP3    H247926   7.075   6.789   0.612 -1.2134 -0.8608  2.3751
 7911TIP3   OH247927   6.792   4.762   2.139 -0.2003 -0.2598  0.2684
 7911TIP3    H147928   6.821   4.827   2.075  0.5012  1.9558  2.6807
 7911TIP3    H247929   6.865   4.701   2.146  0.0534 -0.0437 -0.3784
 7912TIP3   OH247930   5.845   1.665   2.755 -0.3298  0.1963 -0.1224
 7912TIP3    H147931   5.761   1.710   2.761 -0.6466 -0.3929 -0.0668
 7912TIP3    H247932   5.871   1.650   2.846  0.1157  0.8753 -0.1271
 7913TIP3   OH247933   2.141   7.287   0.696  0.3196  0.0110  0.4099
 7913TIP3    H147934   2.180   7.202   0.678  1.9205  1.0331 -1.3350
 7913TIP3    H247935   2.148   7.298   0.791 -0.3978 -1.9670  0.7438
 7914TIP3   OH247936   3.153   1.779   2.886  0.4066  0.4284  0.1069
 7914TIP3    H147937   3.233   1.775   2.833  1.0658  0.7662  1.0485
 7914TIP3    H247938   3.175   1.838   2.958 -0.6980  0.5191  0.3871
 7915TIP3   OH247939   3.503   3.046   3.230  0.1641  0.0624 -0.7037
 7915TIP3    H147940   3.477   2.955   3.247 -0.3162  0.3918  0.4196
 7915TIP3    H247941   3.597   3.048   3.243  0.1632 -0.2527 -0.6521
 7916TIP3   OH247942   4.799   7.146   1.898  0.1512  0.0478 -0.5429
 7916TIP3    H147943   4.868   7.153   1.964 -0.4205  1.3491 -0.0377
 7916TIP3    H247944   4.820   7.067   1.849  2.0104  0.4003 -0.4039
 7917TIP3   OH247945   5.542   2.538   1.289  0.0327 -0.3559 -0.1841
 7917TIP3    H147946   5.618   2.481   1.298  0.3739 -0.2927 -2.1387
 7917TIP3    H247947   5.575   2.614   1.240 -0.8534  0.6027  0.6661
 7918TIP3   OH247948   4.604   0.260   1.847  0.0292  0.0027 -0.1741
 7918TIP3    H147949   4.534   0.214   1.800  1.1658 -2.1233  0.0875
 7918TIP3    H247950   4.675   0.268   1.784 -0.3299  1.9922 -0.3816
 7919TIP3   OH247951   7.306   3.429   1.914  0.7573 -0.1731 -0.2511
 7919TIP3    H147952   7.373   3.363   1.901  0.5105 -0.4799  0.0145
 7919TIP3    H247953   7.224   3.386   1.890  0.5072 -0.1954  0.6087
 7920TIP3   OH247954   1.831   0.123   2.966  0.2705 -0.0289 -0.9091
 7920TIP3    H147955   1.782   0.048   3.001  1.2675 -1.0320 -1.6157
 7920TIP3    H247956   1.922   0.093   2.963  1.2831  2.3147  1.8728
 7921TIP3   OH247957   3.535   3.523   2.831  0.0919 -0.0932  0.1395
 7921TIP3    H147958   3.539   3.609   2.873 -0.1709  0.1729 -0.3583
 7921TIP3    H247959   3.442   3.500   2.833 -0.2293  0.7645 -1.8936
 7922TIP3   OH247960   3.449   7.041   0.880 -0.0295  1.0257 -0.2365
 7922TIP3    H147961   3.539   7.013   0.900  0.5630  2.7660 -0.2899
 7922TIP3    H247962   3.460   7.116   0.822 -1.5939 -0.1782 -2.2457
 7923TIP3   OH247963   1.439   7.068   2.496 -0.7139 -0.2077  0.4737
 7923TIP3    H147964   1.440   7.132   2.424  0.0333 -1.0355 -0.2672
 7923TIP3    H247965   1.350   7.072   2.530 -1.0209  0.3478 -0.3676
 7924TIP3   OH247966   6.292   6.677   0.633 -0.1411  0.4425 -0.1391
 7924TIP3    H147967   6.361   6.716   0.580  0.6344 -1.0645 -0.2816
 7924TIP3    H247968   6.211   6.705   0.592  0.3674  2.1558 -0.0360
 7925TIP3   OH247969   2.519   3.763   2.652  0.2252 -0.2214  0.5820
 7925TIP3    H147970   2.476   3.680   2.635 -0.0886  0.2194 -0.9063
 7925TIP3    H247971   2.592   3.741   2.710 -0.9782 -1.2236  1.7485
 7926TIP3   OH247972   1.391   4.292   3.173 -0.5658  0.5303 -0.3471
 7926TIP3    H147973   1.413   4.256   3.087 -2.1199 -2.2286  0.2715
 7926TIP3    H247974   1.466   4.267   3.228 -0.8679 -0.3125 -0.3017
 7927TIP3   OH247975   7.470   7.422   2.145 -0.1468  0.2471  0.2023
 7927TIP3    H147976   7.556   7.444   2.182 -0.0286  1.9724 -0.9477
 7927TIP3    H247977   7.487   7.348   2.087  0.3804 -0.0453  0.7232
 7928TIP3   OH247978   6.176   3.834   1.676 -0.0489 -0.1340 -0.1245
 7928TIP3    H147979   6.153   3.765   1.615  0.9465 -0.0922 -0.5735
 7928TIP3    H247980   6.102   3.895   1.673 -0.2067 -0.3611 -0.9490
 7929TIP3   OH247981   4.132   4.386   2.339  0.4838  0.4362  0.1447
 7929TIP3    H147982   4.102   4.346   2.257  1.0399 -1.3573  0.7744
 7929TIP3    H247983   4.060   4.372   2.400  0.8466  0.0092  0.4806
 7930TIP3   OH247984   3.468   7.135   1.906  0.6484 -0.2352  0.2502
 7930TIP3    H147985   3.410   7.067   1.871  1.3894 -1.6580  1.6393
 7930TIP3    H247986   3.417   7.175   1.976 -0.1922  1.4461 -1.2437
 7931TIP3   OH247987   7.560   0.687   1.502 -0.0355 -0.5920  0.4203
 7931TIP3    H147988   7.546   0.689   1.597  1.0167 -1.4413  0.6151
 7931TIP3    H247989   7.618   0.612   1.488  0.4788  0.0030 -0.8027
 7932TIP3   OH247990   5.754   6.775   1.654  0.2881 -0.6030  0.1079
 7932TIP3    H147991   5.687   6.713   1.684  0.1499 -0.6052 -0.1904
 7932TIP3    H247992   5.812   6.722   1.600 -0.0233 -0.4107 -0.4258
 7933TIP3   OH247993   2.182   6.971   2.598  0.4719  0.3113 -0.3542
 7933TIP3    H147994   2.132   6.958   2.678  2.7266 -0.5250  1.0254
 7933TIP3    H247995   2.128   6.931   2.529 -0.6886 -0.6260  1.0427
 7934TIP3   OH247996   6.575   4.817   0.890 -0.3646 -0.1560 -0.0487
 7934TIP3    H147997   6.543   4.813   0.800 -1.6084 -1.3952  0.4237
 7934TIP3    H247998   6.559   4.730   0.926  0.0774  0.3224  1.4028
 7935TIP3   OH247999   4.590   5.774   2.184  0.3247  0.0589 -0.1220
 7935TIP3    H148000   4.520   5.832   2.213 -0.7797 -0.7630 -1.0781
 7935TIP3    H248001   4.663   5.793   2.244 -0.7154  0.8804  0.9307
 7936TIP3   OH248002   4.480   4.174   1.115 -0.1628  1.2355  0.3162
 7936TIP3    H148003   4.428   4.122   1.054  0.3397  1.1614 -0.0530
 7936TIP3    H248004   4.469   4.264   1.086 -0.0359  1.2149  0.2103
 7937TIP3   OH248005   0.572   1.601   2.234 -0.1117 -0.0151 -0.1170
 7937TIP3    H148006   0.574   1.588   2.139 -1.1511 -1.4937  0.0311
 7937TIP3    H248007   0.634   1.538   2.269 -1.5951 -1.3010  0.3161
 7938TIP3   OH248008   3.309   2.250   2.870 -0.5678  0.2910  0.8589
 7938TIP3    H148009   3.334   2.162   2.896  1.3026  0.3802 -0.3908
 7938TIP3    H248010   3.311   2.248   2.774  2.0601  2.2509  0.7390
 7939TIP3   OH248011   4.991   2.195   1.756  0.0356 -0.1411  0.5735
 7939TIP3    H148012   5.043   2.147   1.821 -1.8122 -2.3312  0.5760
 7939TIP3    H248013   4.906   2.206   1.798 -0.6746 -0.1130 -0.8399
 7940TIP3   OH248014   3.971   1.150   3.046 -0.1437 -0.5483  0.6808
 7940TIP3    H148015   3.923   1.185   3.121 -2.4329 -0.4217 -0.7343
 7940TIP3    H248016   4.026   1.222   3.016 -1.1985  0.2825  0.6854
 7941TIP3   OH248017   5.273   6.584   1.741  0.1937  0.6568 -0.0835
 7941TIP3    H148018   5.227   6.543   1.668  0.2431 -0.7913  0.6545
 7941TIP3    H248019   5.205   6.600   1.806  0.3928  0.4957  0.1655
 7942TIP3   OH248020   1.419   6.471   3.246 -0.1203  0.0910  0.0210
 7942TIP3    H148021   1.327   6.478   3.219  0.3413  0.8576 -1.4123
 7942TIP3    H248022   1.464   6.541   3.200  1.6989 -1.9943 -1.6026
 7943TIP3   OH248023   7.496   4.546   1.935 -0.3997  0.1223  0.1194
 7943TIP3    H148024   7.527   4.635   1.952 -0.0282  0.7647 -3.2143
 7943TIP3    H248025   7.401   4.554   1.925 -0.3391  0.2235 -0.4219
 7944TIP3   OH248026   4.382   2.217   0.975 -0.0913 -0.1745  0.2950
 7944TIP3    H148027   4.445   2.147   0.957  0.2707  0.1750  0.1867
 7944TIP3    H248028   4.300   2.171   0.992 -0.3487 -0.5446 -1.7545
 7945TIP3   OH248029   2.504   7.064   1.207 -0.5317 -0.3152  0.1007
 7945TIP3    H148030   2.463   7.148   1.229 -1.1196 -0.7865  0.8514
 7945TIP3    H248031   2.537   7.032   1.291  1.6008  0.1464 -0.5004
 7946TIP3   OH248032   3.005   2.115   1.032 -0.0950 -0.0597  0.2543
 7946TIP3    H148033   3.069   2.058   0.990  0.3750 -1.0351  2.1805
 7946TIP3    H248034   3.056   2.192   1.059 -0.5213  0.8584 -1.4231
 7947TIP3   OH248035   0.479   2.039   2.510  0.4261  0.4866  0.0084
 7947TIP3    H148036   0.546   2.083   2.562  1.6160 -0.7508 -0.4152
 7947TIP3    H248037   0.525   1.966   2.468 -1.4566 -1.2923  0.8522
 7948TIP3   OH248038   2.996   0.164   1.643 -0.0381 -0.2917  0.1484
 7948TIP3    H148039   2.945   0.161   1.562 -0.2069 -0.4969  0.2598
 7948TIP3    H248040   3.005   0.257   1.663  1.7247 -0.1212 -1.1773
 7949TIP3   OH248041   4.698   5.644   2.526 -0.1209  0.0505  1.0404
 7949TIP3    H148042   4.678   5.572   2.467  0.5907  1.5473 -1.1252
 7949TIP3    H248043   4.783   5.623   2.563  1.2156  0.8306 -1.4208
 7950TIP3   OH248044   7.294   6.583   1.782  0.3009 -0.0932  0.3920
 7950TIP3    H148045   7.378   6.537   1.784  0.5284  0.3002  2.4500
 7950TIP3    H248046   7.228   6.515   1.795  0.5285 -0.0908  1.7198
 7951TIP3   OH248047   7.089   3.337   3.511 -0.2653 -0.0153 -0.1768
 7951TIP3    H148048   7.024   3.406   3.497  0.3265  0.2731 -1.6868
 7951TIP3    H248049   7.038   3.257   3.518 -0.9514  0.5077  1.4075
 7952TIP3   OH248050   3.142   2.929   2.204 -0.3771  0.0176  0.3359
 7952TIP3    H148051   3.187   2.845   2.193 -1.0046 -0.3457  0.4879
 7952TIP3    H248052   3.135   2.940   2.298  0.1677  0.4998  0.3232
 7953TIP3   OH248053   6.863   0.135   2.181 -0.1595 -0.1575 -0.0664
 7953TIP3    H148054   6.936   0.075   2.197 -0.3734 -0.1026  1.1717
 7953TIP3    H248055   6.788   0.078   2.164 -0.2364 -0.2375  0.5337
 7954TIP3   OH248056   5.372   4.777   1.630 -0.3665  0.1560 -0.0283
 7954TIP3    H148057   5.291   4.738   1.598 -0.1457 -1.2513  1.0339
 7954TIP3    H248058   5.441   4.725   1.589 -0.0383  0.2848  0.3525
 7955TIP3   OH248059   1.562   4.057   2.487  0.3936 -0.0053  0.1800
 7955TIP3    H148060   1.487   4.097   2.443 -0.3754 -0.4617  1.0222
 7955TIP3    H248061   1.569   4.104   2.570  2.4844  1.5686 -0.8175
 7956TIP3   OH248062   7.444   4.082   2.857 -0.3624  0.2153  0.0269
 7956TIP3    H148063   7.408   3.998   2.828 -1.3603  0.7492 -0.3213
 7956TIP3    H248064   7.536   4.063   2.874 -0.3201 -0.7055 -1.0572
 7957TIP3   OH248065   7.418   5.619   1.701  0.0981  0.0345 -0.2368
 7957TIP3    H148066   7.469   5.580   1.772 -0.0495  0.9781  0.4166
 7957TIP3    H248067   7.403   5.548   1.639 -0.0506 -0.8979  0.8453
 7958TIP3   OH248068   6.282   4.147   2.469 -0.4869 -0.5850  0.2181
 7958TIP3    H148069   6.205   4.147   2.411  0.7864 -1.2283 -1.5453
 7958TIP3    H248070   6.352   4.108   2.417  1.5562  1.6277  1.1016
 7959TIP3   OH248071   1.368   1.328   1.212  0.3509  0.2231  0.4647
 7959TIP3    H148072   1.366   1.420   1.186  2.4878 -0.1440 -1.3018
 7959TIP3    H248073   1.428   1.325   1.287  0.7947  0.1813  0.1072
 7960TIP3   OH248074   5.961   4.033   1.070  0.5114  0.1609  0.4839
 7960TIP3    H148075   6.005   3.952   1.097  0.2726 -0.5101 -1.0746
 7960TIP3    H248076   5.882   4.004   1.025  0.2711  1.2726  0.1668
 7961TIP3   OH248077   5.546   4.144   1.993  0.3120 -0.5227  0.5740
 7961TIP3    H148078   5.468   4.124   2.045  0.2719 -3.0647 -0.3344
 7961TIP3    H248079   5.616   4.155   2.058 -0.5058  0.3187  1.3267
 7962TIP3   OH248080   6.119   5.584   1.213 -0.3152  0.4913  0.1151
 7962TIP3    H148081   6.132   5.649   1.144 -0.6007 -0.5212 -0.9140
 7962TIP3    H248082   6.207   5.567   1.246 -0.1421  0.7599 -0.1981
 7963TIP3   OH248083   7.109   3.642   3.195 -0.5934 -0.3133  0.2946
 7963TIP3    H148084   7.132   3.709   3.131  0.2200  0.2779  1.1746
 7963TIP3    H248085   7.093   3.563   3.143  0.8269 -0.0597 -0.5816
 7964TIP3   OH248086   5.543   2.702   1.506  0.2393 -0.0816  0.0792
 7964TIP3    H148087   5.542   2.636   1.437  0.7642  0.3154 -0.3108
 7964TIP3    H248088   5.476   2.672   1.568 -0.6364 -0.1553 -0.8685
 7965TIP3   OH248089   3.500   1.230   3.172 -0.2003  0.1234 -0.2969
 7965TIP3    H148090   3.503   1.274   3.257  0.8824 -1.2449  0.4026
 7965TIP3    H248091   3.407   1.214   3.157 -0.7425  3.0686 -0.8571
 7966TIP3   OH248092   3.498   6.983   2.191  0.3725  0.0953 -0.4024
 7966TIP3    H148093   3.541   6.937   2.119 -0.1943  0.3893 -0.9371
 7966TIP3    H248094   3.430   7.035   2.149  1.2512  1.7563  0.1241
 7967TIP3   OH248095   1.756   7.086   0.764 -0.0647  0.2430 -0.0415
 7967TIP3    H148096   1.709   7.071   0.682 -0.2349  1.3141 -0.1538
 7967TIP3    H248097   1.811   7.163   0.746  0.4315  0.0480  0.6253
 7968TIP3   OH248098   5.713   2.934   2.240  0.5018  0.0618 -0.7189
 7968TIP3    H148099   5.640   2.888   2.281 -0.0541  0.8334 -0.8178
 7968TIP3    H248100   5.790   2.879   2.258  0.1519  0.0164  0.6974
 7969TIP3   OH248101   2.848   4.487   1.927 -0.0060 -0.4169  0.5465
 7969TIP3    H148102   2.932   4.457   1.893 -0.4471 -1.7762  0.5702
 7969TIP3    H248103   2.837   4.437   2.008 -0.5202  0.2614  0.9000
 7970TIP3   OH248104   6.990   0.517   0.741 -0.3721 -0.6656 -0.7210
 7970TIP3    H148105   7.078   0.525   0.705  0.0348  0.2561  0.4070
 7970TIP3    H248106   7.002   0.473   0.825 -0.8081  0.5907  0.0248
 7971TIP3   OH248107   7.072   3.155   0.576  0.4046  0.4499 -0.1081
 7971TIP3    H148108   7.024   3.072   0.568  0.6834  0.1447  1.2078
 7971TIP3    H248109   7.162   3.131   0.555  0.0724  0.9871 -2.4017
 7972TIP3   OH248110   3.020   0.372   3.779  0.0578  0.1257  0.4511
 7972TIP3    H148111   3.068   0.385   3.861  1.5286  0.6333 -0.4546
 7972TIP3    H248112   2.955   0.442   3.778 -0.0255  0.0698  1.2114
 7973TIP3   OH248113   2.428   5.761   1.583 -0.5161  0.1091  0.2302
 7973TIP3    H148114   2.515   5.785   1.553 -1.0368  0.4786 -1.0753
 7973TIP3    H248115   2.393   5.841   1.622 -1.1125  0.6672 -1.3626
 7974TIP3   OH248116   1.536   6.800   2.562 -0.0569  0.1819  0.1399
 7974TIP3    H148117   1.450   6.774   2.594  0.2132  0.1340  0.8335
 7974TIP3    H248118   1.521   6.886   2.522 -0.4975  0.0006 -0.0899
 7975TIP3   OH248119   4.418   6.937   2.462 -0.3507 -0.2110  0.4184
 7975TIP3    H148120   4.348   6.983   2.416  0.5046  2.2333  1.3747
 7975TIP3    H248121   4.380   6.915   2.547 -0.6726 -1.0567  0.0643
 7976TIP3   OH248122   4.403   4.950   2.605  0.1668 -0.6110  0.3425
 7976TIP3    H148123   4.458   4.915   2.675 -0.2349  0.6813  1.3593
 7976TIP3    H248124   4.315   4.951   2.642 -0.5144 -2.2345 -1.1013
 7977TIP3   OH248125   3.461   7.193   1.149  0.0212  0.7899  0.2868
 7977TIP3    H148126   3.510   7.111   1.150 -0.2066  0.6386 -0.3508
 7977TIP3    H248127   3.375   7.168   1.115 -0.4656  1.0685  1.2727
 7978TIP3   OH248128   6.362   1.097   1.431  0.2713 -0.3554 -0.3146
 7978TIP3    H148129   6.338   1.083   1.340  0.3846 -0.0744 -0.3902
 7978TIP3    H248130   6.437   1.040   1.446  0.2660 -0.3844 -0.4022
 7979TIP3   OH248131   3.207   2.260   3.516  0.2995  0.4042 -0.2737
 7979TIP3    H148132   3.242   2.175   3.488 -1.1828  0.3053 -2.0735
 7979TIP3    H248133   3.112   2.250   3.508  0.0166  1.7100  1.1383
 7980TIP3   OH248134   3.426   3.251   1.212  0.0906  0.3490 -0.1070
 7980TIP3    H148135   3.485   3.202   1.155 -0.9339  0.3220 -1.1863
 7980TIP3    H248136   3.361   3.288   1.152  0.0048  1.8087  0.8527
 7981TIP3   OH248137   3.076   4.136   2.380  0.7272 -0.0926  0.6611
 7981TIP3    H148138   3.157   4.093   2.409  0.6907 -0.5999  0.0252
 7981TIP3    H248139   3.048   4.188   2.455  1.8485  0.3895  0.7712
 7982TIP3   OH248140   0.856   0.462   2.701 -0.4483  0.0897  0.1288
 7982TIP3    H148141   0.880   0.449   2.793 -0.6071 -0.4329  0.1021
 7982TIP3    H248142   0.792   0.393   2.684  1.4151 -1.4521 -1.0821
 7983TIP3   OH248143   7.124   1.359   3.121  0.0631  0.0941 -0.2467
 7983TIP3    H148144   7.080   1.354   3.036 -0.3823  3.7822 -0.3828
 7983TIP3    H248145   7.207   1.404   3.103  0.3427  0.1823  1.1546
 7984TIP3   OH248146   6.731   1.013   0.763 -0.0900  0.1604  0.6355
 7984TIP3    H148147   6.782   1.063   0.700 -0.2998 -0.7814 -0.3106
 7984TIP3    H248148   6.789   0.942   0.790  0.1079  0.7342  1.7471
 7985TIP3   OH248149   3.277   4.173   1.493 -0.0004 -0.4713  0.1378
 7985TIP3    H148150   3.297   4.089   1.534  0.2727 -0.6639 -0.3834
 7985TIP3    H248151   3.246   4.228   1.565 -0.0076 -0.9607  0.5129
 7986TIP3   OH248152   5.560   6.549   2.405 -0.1983  0.2136  0.2160
 7986TIP3    H148153   5.519   6.599   2.475  0.2153  2.1498 -0.8515
 7986TIP3    H248154   5.627   6.497   2.448  0.5269  1.8986  1.2089
 7987TIP3   OH248155   1.492   0.168   2.137  0.0316 -0.1814  1.0689
 7987TIP3    H148156   1.429   0.180   2.065  1.8251 -0.0144 -0.5416
 7987TIP3    H248157   1.536   0.086   2.116  1.5336  0.5598  1.2076
 7988TIP3   OH248158   5.112   2.720   3.023 -0.4870 -0.9279  0.3001
 7988TIP3    H148159   5.084   2.646   3.077 -1.3287 -0.2402  0.8367
 7988TIP3    H248160   5.171   2.769   3.080  0.5932 -1.5266 -0.2838
 7989TIP3   OH248161   1.109   1.079   1.512  0.0286 -0.1923  0.2578
 7989TIP3    H148162   1.128   1.111   1.423 -0.9211  0.2905  0.2142
 7989TIP3    H248163   1.163   1.134   1.569  0.3973 -0.2848 -0.0003
 7990TIP3   OH248164   4.108   1.257   2.084 -0.2604 -0.6162 -0.5946
 7990TIP3    H148165   4.096   1.248   1.990  0.7176 -2.3155 -0.5905
 7990TIP3    H248166   4.042   1.200   2.123  0.0204 -0.7316 -0.2840
 7991TIP3   OH248167   0.780   7.141   2.735  0.6723  0.1498 -0.5646
 7991TIP3    H148168   0.833   7.076   2.781  0.2919  0.2499  0.0237
 7991TIP3    H248169   0.801   7.128   2.643  1.8261  0.2787 -0.3333
 7992TIP3   OH248170   0.585   4.416   2.253  0.5688  0.2220  0.1225
 7992TIP3    H148171   0.511   4.420   2.314 -0.7107  1.6921 -1.4286
 7992TIP3    H248172   0.649   4.358   2.296 -1.1975 -0.5855  1.7991
 7993TIP3   OH248173   3.687   3.530   1.066 -0.5513  0.3056  0.0984
 7993TIP3    H148174   3.715   3.614   1.028  1.5850 -0.8883 -1.1665
 7993TIP3    H248175   3.768   3.483   1.082 -1.7309 -2.1848 -0.8294
 7994TIP3   OH248176   3.027   4.289   1.653  0.0272  0.3264  0.5195
 7994TIP3    H148177   2.937   4.311   1.631 -0.0675  0.4013  0.9734
 7994TIP3    H248178   3.079   4.325   1.581 -0.2713  0.5876  0.4341
 7995TIP3   OH248179   2.697   6.661   0.666  0.6070  0.1861  0.4757
 7995TIP3    H148180   2.698   6.610   0.585  1.5590 -1.5701  1.5170
 7995TIP3    H248181   2.772   6.719   0.660 -1.2281  2.5544 -1.2970
 7996TIP3   OH248182   3.842   6.456   2.337 -0.4092  0.0374  0.5933
 7996TIP3    H148183   3.889   6.393   2.283  0.7757  0.7322  0.7869
 7996TIP3    H248184   3.822   6.409   2.418 -2.0709 -0.9673 -0.3306
 7997TIP3   OH248185   6.067   4.907   2.690 -1.0551  0.2296 -0.0687
 7997TIP3    H148186   5.973   4.906   2.703 -1.3781 -0.9991 -2.0028
 7997TIP3    H248187   6.079   4.955   2.607  0.3742  3.5070  1.8287
 7998TIP3   OH248188   4.877   2.828   2.932  0.0418  0.1463  0.1896
 7998TIP3    H148189   4.815   2.773   2.980  1.1259  0.1007  1.6071
 7998TIP3    H248190   4.963   2.795   2.957  0.7100  2.1429  0.7118
 7999TIP3   OH248191   0.942   1.318   2.268  0.4507  0.0661 -0.0352
 7999TIP3    H148192   0.976   1.387   2.212  0.6521 -0.2797 -0.3390
 7999TIP3    H248193   0.872   1.277   2.217 -0.4119  0.7418  0.5630
 8000TIP3   OH248194   4.793   6.120   2.541 -0.3392  0.6512 -0.2910
 8000TIP3    H148195   4.788   6.151   2.631 -2.0601  0.7614 -0.3858
 8000TIP3    H248196   4.704   6.091   2.520 -0.1025  1.0830 -2.1144
 8001TIP3   OH248197   6.297   4.739   3.534  0.7303 -0.2097 -0.1307
 8001TIP3    H148198   6.386   4.728   3.566  1.0048 -1.0451 -1.1131
 8001TIP3    H248199   6.265   4.649   3.521  0.6768  0.0669 -2.2047
 8002TIP3   OH248200   2.803   7.236   1.901 -0.0730 -0.1402  0.0721
 8002TIP3    H148201   2.810   7.322   1.942 -1.0309  0.1598 -0.3711
 8002TIP3    H248202   2.784   7.255   1.809  1.6606 -0.8039 -0.4634
 8003TIP3   OH248203   2.115   0.080   2.993  0.3739 -0.3747  0.4065
 8003TIP3    H148204   2.149   0.085   2.904  0.2035 -1.3361  0.2795
 8003TIP3    H248205   2.096   0.171   3.017  0.2479 -0.1331 -0.5956
 8004TIP3   OH248206   3.030   0.886   0.784  0.2455  0.0895 -0.1041
 8004TIP3    H148207   3.098   0.903   0.719 -0.3357 -0.2032 -0.8075
 8004TIP3    H248208   3.007   0.972   0.818 -0.6817  0.4597 -1.5760
 8005TIP3   OH248209   3.528   1.373   1.536  0.3110  0.3259  0.3335
 8005TIP3    H148210   3.584   1.428   1.481  0.7158 -0.2952  0.1150
 8005TIP3    H248211   3.440   1.387   1.502  0.6898 -1.0081 -1.3191
 8006TIP3   OH248212   0.077   3.673   1.245  0.0865 -0.1830 -0.0136
 8006TIP3    H148213   0.083   3.578   1.256  1.4543 -0.0868  0.3332
 8006TIP3    H248214   0.055   3.685   1.152 -3.4655 -0.8550  0.6141
 8007TIP3   OH248215   2.490   3.749   2.160 -0.2009  0.3157 -0.3614
 8007TIP3    H148216   2.547   3.816   2.122  0.0444  0.1302 -0.3261
 8007TIP3    H248217   2.536   3.666   2.144 -0.8578  0.0819 -1.0511
 8008TIP3   OH248218   5.060   2.021   1.943 -0.5405  0.0478  0.2077
 8008TIP3    H148219   5.017   1.994   2.024 -0.5195 -0.6093  0.0066
 8008TIP3    H248220   5.151   1.991   1.954 -0.3722  0.5607  0.2247
 8009TIP3   OH248221   7.287   2.171   2.514  0.0928 -0.2877  0.1928
 8009TIP3    H148222   7.297   2.214   2.429 -1.8667 -0.5500 -0.2061
 8009TIP3    H248223   7.357   2.208   2.568  0.0976  1.4211 -0.9125
 8010TIP3   OH248224   5.612   6.853   2.913 -0.6864  0.3375  0.5166
 8010TIP3    H148225   5.676   6.841   2.983 -1.3725  2.5397  1.6089
 8010TIP3    H248226   5.531   6.817   2.948 -0.5790 -0.3698  0.0466
 8011TIP3   OH248227   5.878   4.256   1.587 -0.2719  0.1720  0.1951
 8011TIP3    H148228   5.808   4.216   1.535  0.8894 -0.9605 -0.5651
 8011TIP3    H248229   5.857   4.349   1.588 -2.3117 -0.2468  0.8373
 8012TIP3   OH248230   6.988   1.298   2.889 -0.1376 -0.5935  0.4329
 8012TIP3    H148231   7.002   1.240   2.814 -1.4454 -0.3431 -0.0360
 8012TIP3    H248232   6.907   1.345   2.868 -0.1950 -0.0766  1.7257
 8013TIP3   OH248233   2.817   6.700   0.953 -0.0466  0.0324  0.3673
 8013TIP3    H148234   2.789   6.614   0.985  0.5592 -0.5305 -0.5594
 8013TIP3    H248235   2.766   6.714   0.873  2.4818 -1.2389 -1.6334
 8014TIP3   OH248236   4.912   6.074   3.065 -0.1385  0.5196 -0.0780
 8014TIP3    H148237   4.987   6.021   3.040 -0.0892  0.9770 -0.9388
 8014TIP3    H248238   4.949   6.145   3.118 -0.1501 -0.0470  0.6986
 8015TIP3   OH248239   3.604   7.300   3.071 -0.1861 -0.0734  0.0568
 8015TIP3    H148240   3.681   7.244   3.086 -0.4952 -0.5348 -0.0569
 8015TIP3    H248241   3.595   7.350   3.152  0.5205  0.3412 -0.1063
 8016TIP3   OH248242   2.009   7.155   3.144 -0.2322 -0.0890 -0.3433
 8016TIP3    H148243   1.936   7.157   3.206 -1.4384 -1.3986 -1.6492
 8016TIP3    H248244   1.996   7.231   3.088  0.9036  1.1420  0.9874
 8017TIP3   OH248245   4.378   5.963   2.318 -0.6028 -0.0705  0.3570
 8017TIP3    H148246   4.430   5.948   2.397 -0.4208 -2.8311 -0.2019
 8017TIP3    H248247   4.349   6.055   2.326  2.9500  1.1219  1.4692
 8018TIP3   OH248248   4.347   0.774   3.374 -0.7082 -0.1339  0.2453
 8018TIP3    H148249   4.392   0.707   3.426  0.2343  0.2867  0.0029
 8018TIP3    H248250   4.385   0.856   3.405 -2.5748  0.3891  1.2487
 8019TIP3   OH248251   1.259   1.039   3.414 -0.7729 -0.1940 -0.4978
 8019TIP3    H148252   1.172   1.074   3.434 -0.5367 -0.0001  0.2250
 8019TIP3    H248253   1.318   1.113   3.428 -0.4124 -0.5298 -0.2324
 8020TIP3   OH248254   1.139   5.510   1.464 -0.3044  0.3521  0.4374
 8020TIP3    H148255   1.188   5.442   1.419 -1.5734 -0.9048  0.8794
 8020TIP3    H248256   1.081   5.462   1.523 -1.9338  1.7751  0.0538
 8021TIP3   OH248257   3.548   0.748   0.665 -0.1969  0.1046 -0.2956
 8021TIP3    H148258   3.481   0.682   0.684  0.8661 -0.9509 -0.0277
 8021TIP3    H248259   3.561   0.742   0.570 -1.0036  0.8485 -0.4600
 8022TIP3   OH248260   6.651   2.089   2.584 -0.7480  0.5901  0.5104
 8022TIP3    H148261   6.680   1.997   2.578 -0.4538  0.7281 -0.3499
 8022TIP3    H248262   6.560   2.083   2.613 -0.3527  0.0865  1.7553
 8023TIP3   OH248263   3.098   0.467   0.929 -0.0959 -0.3924  0.0529
 8023TIP3    H148264   3.142   0.403   0.985  0.2438  0.1652  0.4359
 8023TIP3    H248265   3.051   0.524   0.990 -0.5752 -0.4033 -0.2980
 8024TIP3   OH248266   1.905   5.430   1.839  0.4127 -0.5646  0.1758
 8024TIP3    H148267   1.892   5.449   1.933  0.4414 -0.0903  0.0900
 8024TIP3    H248268   1.855   5.498   1.795  1.1012 -0.2642 -0.1552
 8025TIP3   OH248269   4.165   3.475   1.978  0.0782 -0.3346  0.2812
 8025TIP3    H148270   4.241   3.530   1.997 -0.5042  0.9467 -0.9433
 8025TIP3    H248271   4.200   3.386   1.976  1.0866 -0.0320  2.0965
 8026TIP3   OH248272   6.014   3.949   2.076 -0.2012 -0.1455 -0.3140
 8026TIP3    H148273   6.094   3.981   2.035  0.9355 -0.8326  1.2274
 8026TIP3    H248274   5.990   3.871   2.026  1.4681 -1.2902  0.5885
 8027TIP3   OH248275   6.436   0.380   1.681  0.4172  0.2582  0.6826
 8027TIP3    H148276   6.387   0.300   1.662 -0.2458  1.2855 -2.5404
 8027TIP3    H248277   6.527   0.352   1.688  0.2230 -0.7902 -0.6522
 8028TIP3   OH248278   4.700   4.142   2.067 -0.3322  0.3220  0.3666
 8028TIP3    H148279   4.748   4.212   2.025 -1.0312  0.6905  0.1682
 8028TIP3    H248280   4.748   4.062   2.045  1.3464  0.8622  1.8572
 8029TIP3   OH248281   5.843   3.087   1.326  0.4067 -1.0441  0.1521
 8029TIP3    H148282   5.777   3.073   1.258  2.5798 -1.1641 -2.0584
 8029TIP3    H248283   5.833   3.012   1.384 -1.8973 -0.6380  0.3612
 8030TIP3   OH248284   5.875   6.196   0.597  0.3056  0.0608 -0.3171
 8030TIP3    H148285   5.881   6.103   0.621 -0.5712 -0.7838 -2.9692
 8030TIP3    H248286   5.796   6.227   0.640 -1.6530 -1.5904 -2.4931
 8031TIP3   OH248287   3.449   0.529   2.160  0.3484 -0.0402 -0.8555
 8031TIP3    H148288   3.544   0.524   2.173  0.0649 -1.2965  1.0778
 8031TIP3    H248289   3.419   0.439   2.170 -0.9897  0.1985 -2.3244
 8032TIP3   OH248290   4.742   4.471   2.812  0.0820  0.0406  0.5271
 8032TIP3    H148291   4.691   4.390   2.807  0.9615 -0.5582  0.8941
 8032TIP3    H248292   4.831   4.444   2.790 -0.1021  1.4882 -2.4541
 8033TIP3   OH248293   2.449   0.785   2.689  0.2196  1.0758 -0.2947
 8033TIP3    H148294   2.522   0.845   2.675  0.8225  0.3802 -0.1849
 8033TIP3    H248295   2.374   0.842   2.708  0.6812  1.8037 -0.6266
 8034TIP3   OH248296   7.671   5.745   0.365  0.5099  0.2709  0.1913
 8034TIP3    H148297   7.697   5.752   0.274 -0.3627 -2.9771 -0.4315
 8034TIP3    H248298   7.728   5.678   0.402 -1.8106 -1.5316  0.8060
 8035TIP3   OH248299   3.409   1.991   1.534  0.0205  0.6526 -0.1753
 8035TIP3    H148300   3.475   2.025   1.473 -0.5102 -0.3433 -1.3656
 8035TIP3    H248301   3.330   1.982   1.480  0.2982 -3.1018 -0.2453
 8036TIP3   OH248302   2.245   4.249   0.618 -0.0736 -0.0480  0.2752
 8036TIP3    H148303   2.181   4.313   0.647 -0.2130 -0.0707  0.0250
 8036TIP3    H248304   2.211   4.217   0.534  0.5232  0.3226 -0.1178
 8037TIP3   OH248305   5.513   4.274   2.360 -0.1332 -0.5901  0.1795
 8037TIP3    H148306   5.529   4.191   2.406  0.5841  0.4357  1.8568
 8037TIP3    H248307   5.458   4.324   2.419 -3.3911 -1.0221 -2.1907
 8038TIP3   OH248308   5.775   5.883   0.752 -0.0954  0.1621  0.6694
 8038TIP3    H148309   5.684   5.904   0.731  0.0690 -1.3112 -1.8834
 8038TIP3    H248310   5.770   5.796   0.793  0.1857 -0.3453 -0.3309
 8039TIP3   OH248311   6.394   7.508   0.920  0.5902 -0.4578 -0.3551
 8039TIP3    H148312   6.461   7.441   0.902  0.3920 -0.3717 -1.4764
 8039TIP3    H248313   6.413   7.537   1.009  0.1952 -2.5786  0.4837
 8040TIP3   OH248314   0.990   3.324   1.068 -0.2015 -0.1004 -0.1140
 8040TIP3    H148315   1.051   3.367   1.008 -2.2800  1.7690 -1.0310
 8040TIP3    H248316   0.967   3.242   1.023  0.0343  0.1777 -0.7589
 8041TIP3   OH248317   6.979   1.599   2.768 -0.3081  0.0501 -0.1854
 8041TIP3    H148318   6.966   1.620   2.860 -1.7360  2.9059 -0.8947
 8041TIP3    H248319   6.893   1.572   2.736 -0.1933  0.5779 -0.9827
 8042TIP3   OH248320   0.914   4.966   1.340  0.3685  0.0732 -0.2858
 8042TIP3    H148321   0.837   5.019   1.321 -1.3475 -2.3004 -0.3691
 8042TIP3    H248322   0.983   5.005   1.286 -1.1692  1.2448 -1.5140
 8043TIP3   OH248323   5.492   0.138   1.608 -0.1268 -0.9800  0.4683
 8043TIP3    H148324   5.549   0.061   1.614  3.2324  1.2564 -0.0228
 8043TIP3    H248325   5.504   0.183   1.691 -2.8247 -1.3119  1.1533
 8044TIP3   OH248326   3.625   2.713   2.169  0.2703 -1.1485  0.0854
 8044TIP3    H148327   3.661   2.785   2.220  0.2799 -2.0564  1.3988
 8044TIP3    H248328   3.688   2.699   2.098  1.3248 -1.2016  1.0082
 8045TIP3   OH248329   3.593   1.331   1.173 -0.1485 -0.2513 -0.1085
 8045TIP3    H148330   3.665   1.273   1.198  0.4370 -0.4731 -2.1501
 8045TIP3    H248331   3.620   1.417   1.205  1.1464 -0.2951 -0.9785
 8046TIP3   OH248332   7.326   4.285   0.744  0.7541  0.1798  0.1231
 8046TIP3    H148333   7.258   4.238   0.696 -1.0542  1.4435  1.3758
 8046TIP3    H248334   7.334   4.237   0.826 -0.2682  1.3412  0.9187
 8047TIP3   OH248335   2.364   0.001   1.037 -0.0091 -0.6348 -0.0984
 8047TIP3    H148336   2.289   0.057   1.057  0.6935  0.0692  0.6399
 8047TIP3    H248337   2.363  -0.007   0.941 -1.2378 -0.9672 -0.0877
 8048TIP3   OH248338   1.826   5.376   2.946  0.4485 -0.2818 -0.3898
 8048TIP3    H148339   1.768   5.309   2.910 -3.4782  2.1410  0.7618
 8048TIP3    H248340   1.829   5.444   2.879 -3.2138  2.2276  1.6182
 8049TIP3   OH248341   7.052   1.521   2.245 -0.5829  0.6556 -0.1187
 8049TIP3    H148342   7.075   1.432   2.218 -0.6060  0.9837 -1.2377
 8049TIP3    H248343   7.068   1.575   2.168 -1.2448  1.5219  0.3347
 8050TIP3   OH248344   0.856   7.170   0.940 -0.3980  0.3570  0.7699
 8050TIP3    H148345   0.765   7.158   0.968 -1.1407  1.1946 -1.1379
 8050TIP3    H248346   0.863   7.118   0.860  1.0491 -0.2833  1.2815
 8051TIP3   OH248347   0.671   5.282   2.476  0.2879 -0.2215  0.0147
 8051TIP3    H148348   0.621   5.350   2.520 -3.5871 -2.5952 -0.2208
 8051TIP3    H248349   0.693   5.219   2.545  0.6520 -0.4824 -0.3303
 8052TIP3   OH248350   4.970   0.609   3.316  0.1883  0.4835  0.8351
 8052TIP3    H148351   4.960   0.704   3.310  0.6484  0.5198  0.6178
 8052TIP3    H248352   4.881   0.576   3.323 -0.2265  0.7073 -2.1229
 8053TIP3   OH248353   7.432   6.549   2.139  0.8094  1.0392  0.4586
 8053TIP3    H148354   7.350   6.598   2.139 -0.1245 -0.3938 -1.4283
 8053TIP3    H248355   7.428   6.495   2.218 -0.3495  0.6017  0.1285
 8054TIP3   OH248356   6.580   2.891   0.868 -0.2245 -0.9965 -0.0967
 8054TIP3    H148357   6.669   2.901   0.834  0.3709  0.6761  1.7697
 8054TIP3    H248358   6.528   2.862   0.793  1.6047 -0.5795 -1.5815
 8055TIP3   OH248359   7.474   3.474   2.182 -0.2314  0.3272 -0.3171
 8055TIP3    H148360   7.539   3.535   2.215  1.5029 -1.2762 -0.6049
 8055TIP3    H248361   7.501   3.457   2.091  0.7809 -2.5469  0.3871
 8056TIP3   OH248362   3.668   2.929   1.629  0.3186 -0.5370 -0.0890
 8056TIP3    H148363   3.596   2.867   1.626 -1.7889  1.6990  1.1660
 8056TIP3    H248364   3.671   2.959   1.720  1.5858  0.8403 -0.5251
 8057TIP3   OH248365   0.276   5.255   1.931 -0.1265 -0.0297  0.6634
 8057TIP3    H148366   0.304   5.346   1.926  0.3060 -0.1476  0.8796
 8057TIP3    H248367   0.353   5.205   1.906 -0.1499 -0.3619  1.2451
 8058TIP3   OH248368   7.000   5.572   0.789 -0.2615 -0.5210  0.2871
 8058TIP3    H148369   6.915   5.612   0.807  0.7417  1.6467  0.4173
 8058TIP3    H248370   7.054   5.643   0.755  0.9312 -2.2733 -1.7486
 8059TIP3   OH248371   0.911   1.170   3.161  0.2261  0.2510  0.4356
 8059TIP3    H148372   0.892   1.210   3.245  0.0491 -0.9257  0.9810
 8059TIP3    H248373   0.825   1.149   3.124  0.1883  2.6155 -1.0266
 8060TIP3   OH248374   0.262   3.987   1.881 -0.2314  0.4292 -0.1003
 8060TIP3    H148375   0.270   3.947   1.795  1.0987  1.8189 -0.6592
 8060TIP3    H248376   0.338   3.954   1.930 -0.6408  0.1329  0.3522
 8061TIP3   OH248377   1.086   4.558   2.824 -0.0538 -0.5683 -0.3882
 8061TIP3    H148378   1.102   4.621   2.753  0.3389  0.6496  0.7476
 8061TIP3    H248379   1.173   4.530   2.852 -0.1535 -0.0522  0.4620
 8062TIP3   OH248380   1.114   5.030   2.953 -0.4902 -0.1011 -0.0067
 8062TIP3    H148381   1.098   5.100   3.016  0.3523 -1.3534  1.6762
 8062TIP3    H248382   1.029   4.985   2.944 -0.1010 -1.4682  2.2801
 8063TIP3   OH248383   6.899   5.777   2.701 -0.0855  0.0256 -0.3432
 8063TIP3    H148384   6.926   5.695   2.743  0.7922  0.8898  0.8669
 8063TIP3    H248385   6.904   5.842   2.771 -1.6394  0.9695 -1.0460
 8064TIP3   OH248386   2.361   6.913   3.401 -0.7179 -0.2164 -0.0481
 8064TIP3    H148387   2.396   7.001   3.393 -0.4137 -0.4418 -1.4240
 8064TIP3    H248388   2.278   6.916   3.352 -0.3435 -0.8717 -0.7394
 8065TIP3   OH248389   3.846   5.502   1.418 -0.1023  0.1484 -0.0436
 8065TIP3    H148390   3.786   5.559   1.369  0.4934 -0.9356 -2.1216
 8065TIP3    H248391   3.846   5.419   1.370  0.8418 -0.8501  1.5835
 8066TIP3   OH248392   5.495   5.129   1.370  0.3503  0.4713  0.0920
 8066TIP3    H148393   5.457   5.195   1.427 -2.3124 -0.0205 -0.9677
 8066TIP3    H248394   5.584   5.161   1.352  0.2091  2.1575  1.9898
 8067TIP3   OH248395   5.573   2.178   1.143 -0.5843 -0.5320 -0.2373
 8067TIP3    H148396   5.552   2.100   1.195 -0.0026  0.5236  1.6527
 8067TIP3    H248397   5.500   2.237   1.157  0.0161  0.1295  0.1632
 8068TIP3   OH248398   0.404   6.231   2.023 -0.5200 -0.1573 -0.6256
 8068TIP3    H148399   0.340   6.162   2.004 -1.0391  0.7585 -2.4189
 8068TIP3    H248400   0.483   6.205   1.977 -0.1575 -0.3811  0.1042
 8069TIP3   OH248401   5.705   5.521   2.600  0.0161 -0.1988  0.3353
 8069TIP3    H148402   5.787   5.543   2.556  0.2966 -1.6182  0.1058
 8069TIP3    H248403   5.643   5.504   2.529 -0.0002 -0.8166  0.4960
 8070TIP3   OH248404   3.819   6.380   2.589 -0.1695  1.0146  0.0647
 8070TIP3    H148405   3.784   6.291   2.598 -0.3141  0.8849 -1.4859
 8070TIP3    H248406   3.777   6.430   2.658 -1.4990  0.2828 -0.1893
 8071TIP3   OH248407   6.913   3.554   2.368 -0.3723  0.2547  0.1287
 8071TIP3    H148408   6.865   3.636   2.379  0.4867  0.6970  0.7056
 8071TIP3    H248409   7.004   3.581   2.357 -0.2219 -0.5755 -0.7850
 8072TIP3   OH248410   4.308   5.339   3.398  0.7157 -0.0312 -0.4689
 8072TIP3    H148411   4.282   5.248   3.411  3.0809 -0.9498 -1.5496
 8072TIP3    H248412   4.238   5.377   3.345 -0.5373 -1.0777  0.3922
 8073TIP3   OH248413   4.406   5.805   1.648  0.5003 -0.1260  0.1750
 8073TIP3    H148414   4.460   5.779   1.723  1.3440 -0.1850 -0.4390
 8073TIP3    H248415   4.464   5.861   1.595  0.2525 -0.8933 -0.9375
 8074TIP3   OH248416   5.613   0.484   2.202 -0.8153 -0.3415 -0.3554
 8074TIP3    H148417   5.603   0.390   2.217 -2.5322 -0.1859 -0.3885
 8074TIP3    H248418   5.545   0.524   2.255 -1.4660  0.7645 -1.9580
 8075TIP3   OH248419   7.509   5.358   2.719 -0.0343  0.0726  0.2045
 8075TIP3    H148420   7.566   5.298   2.767  2.8068  1.1064 -1.6558
 8075TIP3    H248421   7.452   5.301   2.667 -0.6079 -0.9902  1.9425
 8076TIP3   OH248422   5.676   3.239   2.574  0.5167  0.1330 -0.1098
 8076TIP3    H148423   5.723   3.165   2.613 -0.2552  0.5763  1.7612
 8076TIP3    H248424   5.626   3.201   2.502  1.3106 -0.8749 -0.1474
 8077TIP3   OH248425   3.833   3.613   3.133  0.1683 -0.2732 -0.0148
 8077TIP3    H148426   3.833   3.518   3.141 -1.2797 -0.3404 -0.3815
 8077TIP3    H248427   3.892   3.644   3.201 -0.3180 -1.3959  0.9498
 8078TIP3   OH248428   7.407   1.890   1.923  0.5099  0.5124 -0.0640
 8078TIP3    H148429   7.449   1.877   2.008 -0.1385  0.3294  0.2361
 8078TIP3    H248430   7.391   1.984   1.918 -0.0777  0.4447  0.3340
 8079TIP3   OH248431   4.807   1.017   2.807  0.1001 -0.5054 -0.7634
 8079TIP3    H148432   4.848   0.994   2.890  0.0537 -3.2509 -1.4054
 8079TIP3    H248433   4.879   1.022   2.745  0.2378  2.3209 -0.5354
 8080TIP3   OH248434   5.313   4.722   2.273  0.6274 -0.1670  0.0819
 8080TIP3    H148435   5.394   4.725   2.324  0.7829 -1.2281 -0.0887
 8080TIP3    H248436   5.245   4.749   2.335  1.2100  1.6466 -0.0279
 8081TIP3   OH248437   0.963   3.070   1.075  0.5449 -0.0050  0.2277
 8081TIP3    H148438   1.057   3.087   1.069  0.5281  0.5549  1.2201
 8081TIP3    H248439   0.949   3.047   1.167  0.2927 -3.8812 -0.6074
 8082TIP3   OH248440   4.641   5.267   1.864 -0.0324 -0.0218 -0.1495
 8082TIP3    H148441   4.636   5.226   1.951 -3.4366  0.7910  0.1808
 8082TIP3    H248442   4.582   5.215   1.810  0.9551  0.3413 -1.6419
 8083TIP3   OH248443   6.653   5.506   1.098  0.2251  0.2656 -0.0007
 8083TIP3    H148444   6.672   5.569   1.029  1.1811  0.0294  0.0404
 8083TIP3    H248445   6.640   5.560   1.176  2.1540  0.3963  0.2847
 8084TIP3   OH248446   4.576   5.949   1.484  0.3448 -0.2345 -0.4058
 8084TIP3    H148447   4.630   6.023   1.458  0.1161 -0.1971 -0.7701
 8084TIP3    H248448   4.607   5.876   1.431  1.5676 -0.7743  0.9794
 8085TIP3   OH248449   6.967   6.747   2.392 -0.5501  0.1475 -0.3710
 8085TIP3    H148450   7.020   6.698   2.455  0.3020  0.8166 -0.5602
 8085TIP3    H248451   6.978   6.838   2.416 -2.2644  0.2800  0.0728
 8086TIP3   OH248452   0.866   6.971   0.757  0.4203  0.3487 -0.3173
 8086TIP3    H148453   0.824   6.890   0.731  0.9987 -1.1969  3.0256
 8086TIP3    H248454   0.957   6.946   0.774  0.3671  1.3904  1.7787
 8087TIP3   OH248455   4.481   0.648   1.943 -0.4530  0.0037  0.0862
 8087TIP3    H148456   4.476   0.557   1.974 -0.6230 -0.0168  0.0029
 8087TIP3    H248457   4.544   0.690   2.001  1.3748 -0.7282 -1.2490
 8088TIP3   OH248458   3.082   3.398   3.185  0.1538  0.2359  0.4219
 8088TIP3    H148459   3.164   3.368   3.224 -0.1796  0.5864  1.4242
 8088TIP3    H248460   3.025   3.418   3.259 -1.0365 -0.5105 -0.2549
 8089TIP3   OH248461   6.727   7.328   2.240 -0.2910  0.0503  0.1491
 8089TIP3    H148462   6.688   7.249   2.202 -0.2827  0.4504 -0.7357
 8089TIP3    H248463   6.704   7.325   2.332 -1.2645 -0.4073 -0.0946
 8090TIP3   OH248464   3.014   2.251   0.666 -0.2106  0.0999  0.0486
 8090TIP3    H148465   3.106   2.247   0.692 -0.3631  0.0689  0.5949
 8090TIP3    H248466   3.011   2.317   0.597  0.3272 -0.3670 -0.4324
 8091TIP3   OH248467   4.119   0.272   2.400 -0.1120 -0.5166  0.8230
 8091TIP3    H148468   4.140   0.268   2.307  1.8164  0.3832  1.1765
 8091TIP3    H248469   4.100   0.181   2.424  2.0691 -1.2327  0.0909
 8092TIP3   OH248470   2.995   3.445   1.728 -0.5069 -0.5772 -0.3967
 8092TIP3    H148471   3.055   3.387   1.775 -0.2184 -1.4299 -1.7654
 8092TIP3    H248472   3.037   3.531   1.731 -0.4976 -0.6058  0.8690
 8093TIP3   OH248473   6.748   4.182   1.616 -0.0692 -0.5573 -0.0494
 8093TIP3    H148474   6.695   4.252   1.655  0.3216 -1.0454  1.4144
 8093TIP3    H248475   6.791   4.224   1.541 -1.1220  0.3198 -0.1936
 8094TIP3   OH248476   3.926   1.835   1.903 -0.1954  0.2856 -0.2860
 8094TIP3    H148477   3.840   1.864   1.872  0.9407  2.4033 -1.6453
 8094TIP3    H248478   3.924   1.852   1.997 -1.3008  0.1605 -0.2663
 8095TIP3   OH248479   1.422   6.769   1.708  0.0573 -0.5684 -0.0824
 8095TIP3    H148480   1.396   6.679   1.687  1.8286 -0.7058 -2.0554
 8095TIP3    H248481   1.424   6.814   1.624  3.3514  0.1061  0.2124
 8096TIP3   OH248482   0.575   7.027   3.140 -0.2861  0.5060 -0.2847
 8096TIP3    H148483   0.548   7.008   3.050 -0.7061 -2.4446  0.3622
 8096TIP3    H248484   0.499   7.005   3.194  0.4877  0.6535  0.9206
 8097TIP3   OH248485   6.019   5.983   2.432  0.2508 -0.1445 -0.6154
 8097TIP3    H148486   6.045   6.021   2.516 -1.1366  0.4609 -0.4310
 8097TIP3    H248487   6.101   5.963   2.388  1.0049 -0.1544  0.7448
 8098TIP3   OH248488   5.934   3.352   1.177  0.1486 -0.1039 -0.1771
 8098TIP3    H148489   5.871   3.424   1.177 -1.5887 -1.5507  0.0919
 8098TIP3    H248490   5.981   3.360   1.260 -1.6309 -0.5694  0.9293
 8099TIP3   OH248491   1.453   5.453   1.671 -0.3067  0.0111  0.0766
 8099TIP3    H148492   1.390   5.525   1.675  0.4404  0.7006 -0.2271
 8099TIP3    H248493   1.409   5.386   1.620 -0.8872  0.3919  0.0642
 8100TIP3   OH248494   3.629   1.738   1.959 -0.1382  0.6239 -0.6394
 8100TIP3    H148495   3.577   1.769   2.034 -0.8893  0.3208 -1.0309
 8100TIP3    H248496   3.700   1.687   1.999 -0.5112  0.4936 -0.1306
 8101TIP3   OH248497   5.906   3.346   2.961  0.5928 -0.6183  0.6579
 8101TIP3    H148498   5.933   3.370   2.872  0.3748 -0.3581  0.6612
 8101TIP3    H248499   5.884   3.429   3.003  2.0095 -0.5946  1.3992
 8102TIP3   OH248500   0.454   4.072   0.793 -0.5854 -0.0032 -0.3615
 8102TIP3    H148501   0.473   4.161   0.824 -1.0563 -0.6706  2.0252
 8102TIP3    H248502   0.383   4.083   0.730  1.7919  1.6328 -3.0166
 8103TIP3   OH248503   0.658   1.946   0.932 -0.8042  0.0987  0.5869
 8103TIP3    H148504   0.735   1.919   0.883 -0.8349 -0.1349  0.6670
 8103TIP3    H248505   0.687   1.950   1.023 -0.3411  1.9850  0.4044
 8104TIP3   OH248506   0.546   6.467   2.102  0.4624 -0.4214 -0.0664
 8104TIP3    H148507   0.617   6.478   2.039  0.9357 -1.2722  0.2989
 8104TIP3    H248508   0.483   6.409   2.058  0.8204 -1.0624  0.2546
 8105TIP3   OH248509   3.144   7.442   1.377 -0.0325  0.2353 -0.0598
 8105TIP3    H148510   3.108   7.373   1.322  0.9056 -0.2433 -0.0922
 8105TIP3    H248511   3.084   7.447   1.452 -0.8351  0.3012 -0.6989
 8106TIP3   OH248512   0.519   1.466   3.419  0.1229  0.0564 -0.6119
 8106TIP3    H148513   0.498   1.443   3.328 -0.6162  0.1517 -0.4708
 8106TIP3    H248514   0.483   1.553   3.431 -1.7735 -0.8222  0.4244
 8107TIP3   OH248515   3.823   0.281   2.966  0.1111  0.0576  0.6084
 8107TIP3    H148516   3.773   0.339   3.024 -1.1807  0.0210 -0.4134
 8107TIP3    H248517   3.901   0.257   3.016  0.2315  1.9631  1.3868
 8108TIP3   OH248518   0.895   5.715   0.768  0.1447 -0.1660 -0.1791
 8108TIP3    H148519   0.983   5.750   0.783 -0.2667  0.0744  2.0015
 8108TIP3    H248520   0.846   5.788   0.731  0.0215  0.8317  1.7797
 8109TIP3   OH248521   7.477   4.465   2.187 -0.2363  0.2412  0.2145
 8109TIP3    H148522   7.506   4.469   2.096  0.8077 -1.0665  0.4425
 8109TIP3    H248523   7.559   4.469   2.237 -0.8608  1.9307  1.1570
 8110TIP3   OH248524   7.267   6.721   2.541 -0.8118 -0.1338  0.3529
 8110TIP3    H148525   7.270   6.788   2.609 -1.5510 -0.1852  0.4499
 8110TIP3    H248526   7.353   6.679   2.544 -0.5581  0.4006  0.7049
 8111TIP3   OH248527   0.029   2.255   0.979  0.6801  0.2800 -0.1889
 8111TIP3    H148528   0.052   2.162   0.989  1.1444  0.2965 -1.0323
 8111TIP3    H248529  -0.011   2.261   0.893 -0.3111  0.6935  0.2938
 8112TIP3   OH248530   0.915   2.725   2.471  0.7978  0.0460  0.0515
 8112TIP3    H148531   0.924   2.696   2.562 -0.1882 -0.3235  0.0448
 8112TIP3    H248532   0.911   2.820   2.477 -2.2758 -0.0188  0.7474
 8113TIP3   OH248533   6.371   6.598   2.280  0.4112 -0.1985  0.0995
 8113TIP3    H148534   6.351   6.590   2.186 -1.4969 -0.3097  0.4703
 8113TIP3    H248535   6.441   6.535   2.295  0.3528 -0.5838 -1.1508
 8114TIP3   OH248536   6.721   5.199   1.868 -0.2472 -0.6867 -0.4806
 8114TIP3    H148537   6.740   5.286   1.903 -0.1716 -0.7107 -0.4607
 8114TIP3    H248538   6.629   5.202   1.842 -0.0717 -0.3908 -1.0830
 8115TIP3   OH248539   3.637   4.467   3.246  0.2564  0.0067  0.0656
 8115TIP3    H148540   3.588   4.540   3.209  1.7335 -0.0113 -2.0744
 8115TIP3    H248541   3.722   4.504   3.267  0.4316 -0.7106  0.6456
 8116TIP3   OH248542   2.545   5.014   1.397  0.4204 -0.4308 -0.8519
 8116TIP3    H148543   2.453   5.040   1.388  0.2250  0.6356  2.8360
 8116TIP3    H248544   2.542   4.921   1.421  0.2779 -0.3061 -0.3826
 8117TIP3   OH248545   2.416   4.695   1.983  0.0133  0.2079  0.0483
 8117TIP3    H148546   2.499   4.678   2.028  0.1805  0.9811  0.0465
 8117TIP3    H248547   2.351   4.645   2.032  0.6177 -1.1904 -0.5249
 8118TIP3   OH248548   0.397   3.144   3.704 -1.0054 -0.3856 -0.0137
 8118TIP3    H148549   0.386   3.050   3.689  1.2595 -0.6829 -0.0463
 8118TIP3    H248550   0.332   3.185   3.646 -2.1218 -1.9061  0.1024
 8119TIP3   OH248551   5.443   5.059   1.707 -0.3948  0.2137 -0.2252
 8119TIP3    H148552   5.360   5.098   1.677  0.0241  0.6416 -0.8672
 8119TIP3    H248553   5.434   4.966   1.687 -0.7795  0.2308 -0.1487
 8120TIP3   OH248554   4.760   1.171   0.803  0.6013 -0.4300 -0.1922
 8120TIP3    H148555   4.829   1.238   0.807  0.9211 -0.7869  0.8430
 8120TIP3    H248556   4.681   1.216   0.832  0.6493 -0.3020 -0.2605
 8121TIP3   OH248557   6.372   1.868   1.257 -0.2713  0.2768 -0.0568
 8121TIP3    H148558   6.456   1.857   1.300  0.8709  1.0446 -1.9866
 8121TIP3    H248559   6.315   1.802   1.297  1.4517 -0.7836  0.7283
 8122TIP3   OH248560   3.341   1.531   7.138 -0.0565  0.2615 -0.0242
 8122TIP3    H148561   3.329   1.448   7.093 -0.6402 -0.5930  1.6387
 8122TIP3    H248562   3.436   1.544   7.139 -0.0200  0.1283 -1.1620
 8123TIP3   OH248563   1.499   2.962   1.629 -0.0641 -0.2329 -0.0753
 8123TIP3    H148564   1.424   2.903   1.621 -0.3051 -0.1730  1.4115
 8123TIP3    H248565   1.487   3.004   1.714  1.5603 -0.0810  0.1049
 8124TIP3   OH248566   1.705   0.745   1.777  0.3001  0.1651 -0.7930
 8124TIP3    H148567   1.684   0.672   1.836 -0.5970  0.6120 -0.5242
 8124TIP3    H248568   1.620   0.788   1.762  0.4949  0.0232 -2.4779
 8125TIP3   OH248569   2.971   0.103   2.032  0.2205  0.1238  0.2784
 8125TIP3    H148570   2.974   0.130   2.124  2.1651  3.3299 -0.5652
 8125TIP3    H248571   2.884   0.128   2.002  0.3571  1.2319  0.7501
 8126TIP3   OH248572   2.011   2.928   1.305  0.0350 -0.4484  0.0836
 8126TIP3    H148573   2.061   2.855   1.342  0.4075  0.4595  1.4393
 8126TIP3    H248574   1.949   2.952   1.373 -0.3681  0.2388 -0.5077
 8127TIP3   OH248575   2.813   3.118   2.300 -0.5238  0.1482 -1.2913
 8127TIP3    H148576   2.905   3.144   2.298  0.0478 -1.4755  0.7960
 8127TIP3    H248577   2.814   3.024   2.281 -1.4610 -0.3955  1.0751
 8128TIP3   OH248578   0.969   1.699   2.677  0.2337 -0.0997 -0.3116
 8128TIP3    H148579   1.042   1.646   2.645  1.1542  1.8304 -1.5698
 8128TIP3    H248580   0.901   1.687   2.610  0.0835 -0.4227 -0.1041
 8129TIP3   OH248581   0.847   6.522   3.157  0.0673  0.0755  0.2704
 8129TIP3    H148582   0.812   6.610   3.147 -1.2671 -0.6308 -2.1812
 8129TIP3    H248583   0.771   6.467   3.178  0.5970 -0.7257  0.1609
 8130TIP3   OH248584   2.865   0.965   0.488 -0.2832  0.5330 -0.3347
 8130TIP3    H148585   2.772   0.960   0.510 -0.2026  1.9746  0.5107
 8130TIP3    H248586   2.879   1.058   0.468  0.8809  0.2485 -0.8827
 8131TIP3   OH248587   5.163   6.161   0.878 -0.1376 -0.5013  0.0263
 8131TIP3    H148588   5.097   6.230   0.878  0.3686  0.0313 -1.6475
 8131TIP3    H248589   5.127   6.093   0.821  0.3672 -0.5913 -0.1902
 8132TIP3   OH248590   4.240   3.964   3.676  0.5900  0.0671 -0.0764
 8132TIP3    H148591   4.218   3.925   3.592 -0.7516 -1.5329  0.9501
 8132TIP3    H248592   4.272   3.891   3.729 -0.1529  0.7042  1.3201
 8133TIP3   OH248593   7.171   1.819   2.131 -0.2632 -0.1457  0.0991
 8133TIP3    H148594   7.230   1.894   2.132 -0.8271  0.3666  2.9070
 8133TIP3    H248595   7.086   1.856   2.107 -0.7760  0.4190  2.5262
 8134TIP3   OH248596   3.684   0.878   7.457 -0.0155  0.1231 -0.2339
 8134TIP3    H148597   3.735   0.817   7.404  1.3851  2.1692 -1.3782
 8134TIP3    H248598   3.738   0.892   7.536 -0.0535  0.2888 -0.2360
 8135TIP3   OH248599   2.849   5.257   2.368  0.1016  0.1534 -0.2458
 8135TIP3    H148600   2.789   5.332   2.358 -0.8451 -0.7390 -1.6561
 8135TIP3    H248601   2.846   5.237   2.461  1.1198  2.4383  0.3628
 8136TIP3   OH248602   6.553   5.083   0.937 -0.4886 -0.5185 -0.1931
 8136TIP3    H148603   6.553   4.990   0.917  2.6570 -0.6808 -0.0385
 8136TIP3    H248604   6.578   5.089   1.029  0.1880  0.4343 -0.4093
 8137TIP3   OH248605   0.550   1.229   1.847  0.1137 -0.3585 -0.0803
 8137TIP3    H148606   0.640   1.251   1.827 -0.2802 -0.0451 -1.6107
 8137TIP3    H248607   0.534   1.146   1.802 -1.0347  0.7657 -1.8358
 8138TIP3   OH248608   2.079   4.899   2.203 -0.0839  0.0649  0.2305
 8138TIP3    H148609   2.057   4.870   2.115 -2.4564 -1.4384  1.2334
 8138TIP3    H248610   2.068   4.821   2.258 -0.8395  1.4608  2.1654
 8139TIP3   OH248611   1.836   1.101   0.486  0.0253 -0.4687  0.1753
 8139TIP3    H148612   1.833   1.122   0.393  0.9349 -0.0684  0.2227
 8139TIP3    H248613   1.890   1.171   0.525 -1.9114  0.4734  1.3178
 8140TIP3   OH248614   2.618   4.267   2.894  0.5763  0.1332 -0.2052
 8140TIP3    H148615   2.533   4.288   2.934  1.3845 -0.0884  1.7437
 8140TIP3    H248616   2.662   4.213   2.959  2.0203 -0.2078 -1.4100
 8141TIP3   OH248617   4.025   5.486   2.497 -0.5164  0.1697 -0.2124
 8141TIP3    H148618   4.100   5.541   2.521 -0.0930 -0.7919  0.7004
 8141TIP3    H248619   3.949   5.538   2.523 -0.1414  0.6357 -0.0214
 8142TIP3   OH248620   5.966   6.446   0.559 -0.2390 -0.1366  0.0603
 8142TIP3    H148621   6.048   6.416   0.519 -0.0163  0.0303  0.3901
 8142TIP3    H248622   5.917   6.366   0.576 -0.0631 -0.2492  0.0393
 8143TIP3   OH248623   2.418   1.587   3.466  0.0684  0.0181 -0.9150
 8143TIP3    H148624   2.405   1.682   3.478  0.4365 -0.0349  0.0191
 8143TIP3    H248625   2.459   1.579   3.380 -0.0977  0.7014 -1.0629
 8144TIP3   OH248626   1.592   5.111   1.218 -0.2613  0.7832 -0.5330
 8144TIP3    H148627   1.664   5.048   1.219 -1.3896 -0.5959  1.0655
 8144TIP3    H248628   1.633   5.195   1.242  1.2423  0.6838 -2.5414
 8145TIP3   OH248629   0.925   4.097   0.816 -0.3784 -0.2670 -0.0103
 8145TIP3    H148630   0.867   4.088   0.891  0.9848  0.0844  1.1176
 8145TIP3    H248631   1.012   4.075   0.849  0.3123  0.2634 -1.3854
 8146TIP3   OH248632   2.699   2.020   2.008 -0.2110  0.8291 -0.3321
 8146TIP3    H148633   2.616   1.991   2.046  0.0062 -0.6084 -0.8796
 8146TIP3    H248634   2.748   2.055   2.083 -0.7433  0.3316  0.2715
 8147TIP3   OH248635   0.019   0.540   2.619 -0.0796 -0.4514 -0.7292
 8147TIP3    H148636  -0.064   0.506   2.652 -0.4775  1.2489  0.1035
 8147TIP3    H248637   0.078   0.534   2.694  0.0441  0.0335 -0.7897
 8148TIP3   OH248638   3.182   3.017   1.141 -0.5786 -0.1903 -0.1623
 8148TIP3    H148639   3.163   3.101   1.100  1.3689  0.0069 -0.7855
 8148TIP3    H248640   3.100   2.969   1.137 -1.5119  1.3638 -0.5559
 8149TIP3   OH248641   2.852   0.406   1.767 -0.5109 -0.0510 -0.0011
 8149TIP3    H148642   2.876   0.493   1.735 -0.3892 -0.3188 -0.6568
 8149TIP3    H248643   2.800   0.423   1.845 -0.6936  0.6236 -0.2598
 8150TIP3   OH248644   0.606   6.925   2.360  0.5448 -0.0351 -0.4580
 8150TIP3    H148645   0.571   6.863   2.296  1.6032 -0.3835 -0.7177
 8150TIP3    H248646   0.529   6.974   2.390  0.1047  0.6267 -2.5256
 8151TIP3   OH248647   0.199   4.887   0.556  0.1862 -0.1586  0.4743
 8151TIP3    H148648   0.221   4.822   0.622 -0.0074 -0.7039  0.0137
 8151TIP3    H248649   0.104   4.878   0.544  0.2321 -0.1202  0.0695
 8152TIP3   OH248650   6.965   2.765   3.033 -0.2270 -0.3034 -0.0735
 8152TIP3    H148651   6.902   2.822   3.078 -0.2136 -1.3656  1.3832
 8152TIP3    H248652   7.047   2.778   3.081  0.7226  1.0664 -1.9516
 8153TIP3   OH248653   0.740   3.052   2.014  0.2524  0.6812 -0.2404
 8153TIP3    H148654   0.743   2.994   1.938 -1.3949  0.2837 -0.0448
 8153TIP3    H248655   0.767   2.996   2.087 -1.9307 -0.1001  0.0493
 8154TIP3   OH248656   1.915   5.628   1.530 -0.5361 -0.1896 -0.1448
 8154TIP3    H148657   1.995   5.675   1.508  0.5096 -1.1206  1.4942
 8154TIP3    H248658   1.845   5.692   1.515  0.4679  0.6046 -1.6971
 8155TIP3   OH248659   0.269   3.687   2.793 -0.1718  0.7040 -0.1316
 8155TIP3    H148660   0.244   3.735   2.714 -0.0000  1.1876  0.1051
 8155TIP3    H248661   0.212   3.721   2.861  1.4454  2.2079  0.5394
 8156TIP3   OH248662   6.498   7.111   1.139  0.6737  0.4031 -0.3886
 8156TIP3    H148663   6.509   7.202   1.168  1.0536  0.4529 -0.6797
 8156TIP3    H248664   6.575   7.066   1.174 -0.1603 -0.0934  0.8566
 8157TIP3   OH248665   7.440   6.187   1.581  0.1476  0.2250  0.3510
 8157TIP3    H148666   7.385   6.254   1.539  0.3506 -0.0870 -0.4264
 8157TIP3    H248667   7.400   6.104   1.556  1.0061 -0.0114 -0.3053
 8158TIP3   OH248668   0.640   2.814   1.307 -0.1042 -0.2348  0.3318
 8158TIP3    H148669   0.651   2.730   1.352 -1.0554  0.5512  2.1507
 8158TIP3    H248670   0.631   2.791   1.215  1.8638 -1.9425  0.4832
 8159TIP3   OH248671   1.593   0.020   0.896 -0.5139 -0.4270 -0.3446
 8159TIP3    H148672   1.537   0.072   0.839 -0.6751  1.3284  1.3150
 8159TIP3    H248673   1.534  -0.016   0.962  0.1395  0.9254  1.0508
 8160TIP3   OH248674   7.569   4.005   0.523 -0.1870 -0.1952 -0.6721
 8160TIP3    H148675   7.557   3.963   0.438  1.2806  0.0935 -1.0469
 8160TIP3    H248676   7.581   3.932   0.584  0.2891 -0.3814 -0.9792
 8161TIP3   OH248677   5.454   0.936   3.103 -0.3126 -0.1115 -0.5204
 8161TIP3    H148678   5.489   0.970   3.021  1.0461  1.9165  0.8111
 8161TIP3    H248679   5.527   0.889   3.143 -0.7328 -0.4414 -0.1335
 8162TIP3   OH248680   0.731   3.267   2.349  0.6125 -0.1230 -0.2834
 8162TIP3    H148681   0.778   3.246   2.269 -0.1249 -1.3973 -0.4099
 8162TIP3    H248682   0.647   3.222   2.341  0.4754 -0.1931  1.1404
 8163TIP3   OH248683   6.124   4.200   1.427 -0.6775 -0.3842 -0.2658
 8163TIP3    H148684   6.033   4.222   1.449 -0.0524  1.0837  1.0673
 8163TIP3    H248685   6.172   4.280   1.446  0.8849 -1.0831 -1.1414
 8164TIP3   OH248686   1.991   4.355   1.720 -0.1377 -0.8250  0.2894
 8164TIP3    H148687   1.916   4.411   1.698  0.8735  0.2442 -0.5398
 8164TIP3    H248688   2.013   4.379   1.810  0.4165  0.3030 -0.1270
 8165TIP3   OH248689   3.047   4.634   0.829 -0.2336  0.6471 -0.2786
 8165TIP3    H148690   3.116   4.696   0.854 -1.2636  1.3985  0.7915
 8165TIP3    H248691   3.040   4.643   0.734  1.1231  0.5531 -0.4153
 8166TIP3   OH248692   5.277   1.597   3.120 -0.1231 -0.0778  0.2186
 8166TIP3    H148693   5.252   1.671   3.065 -1.7256  0.1181  1.1352
 8166TIP3    H248694   5.266   1.521   3.063  0.3040  0.2768 -0.3514
 8167TIP3   OH248695   0.748   3.122   3.285 -0.0041 -0.4462 -0.5722
 8167TIP3    H148696   0.670   3.158   3.326 -0.1105 -1.1833 -0.1013
 8167TIP3    H248697   0.781   3.057   3.348 -0.1849 -1.6263 -1.6411
 8168TIP3   OH248698   3.352   4.394   1.674  0.7317  0.6695  0.0956
 8168TIP3    H148699   3.399   4.467   1.713  0.2628  0.3113  1.3932
 8168TIP3    H248700   3.313   4.430   1.595  1.5713  1.4752  0.0352
 8169TIP3   OH248701   0.042   7.237   3.091  0.1263 -0.0876 -0.4448
 8169TIP3    H148702   0.089   7.318   3.070 -0.5760  0.3311 -0.4466
 8169TIP3    H248703  -0.049   7.256   3.070  0.1036 -1.2713 -1.5376
 8170TIP3   OH248704   4.412   6.448   1.343 -0.0440  0.0364 -0.2435
 8170TIP3    H148705   4.487   6.500   1.312  1.1393 -2.0761 -1.1122
 8170TIP3    H248706   4.432   6.359   1.316 -2.2262 -0.8316  0.7977
 8171TIP3   OH248707   7.031   5.672   2.932  0.0136 -0.1699  0.3469
 8171TIP3    H148708   7.086   5.597   2.909  1.3183 -0.5002  3.9506
 8171TIP3    H248709   7.093   5.745   2.940 -0.7733  0.5435  0.0621
 8172TIP3   OH248710   0.220   5.059   1.632 -0.3014  0.2395  0.5168
 8172TIP3    H148711   0.289   5.100   1.581  0.3532 -0.4260  0.8493
 8172TIP3    H248712   0.239   4.965   1.628 -2.5644 -0.2476 -1.4284
 8173TIP3   OH248713   7.132   0.544   1.522  0.3589 -0.1404 -0.3063
 8173TIP3    H148714   7.198   0.535   1.590  0.2667  0.1835 -0.1743
 8173TIP3    H248715   7.173   0.601   1.456 -0.7095  2.2231  0.9652
 8174TIP3   OH248716   1.112   7.450   0.761 -0.0119 -0.6914 -0.0690
 8174TIP3    H148717   1.059   7.374   0.736 -0.9677  0.0297 -0.3279
 8174TIP3    H248718   1.052   7.504   0.813  0.0920  0.7082 -1.3546
 8175TIP3   OH248719   4.724   6.213   2.105 -0.0726  0.0722 -0.1843
 8175TIP3    H148720   4.770   6.237   2.185 -0.9032 -0.7062  0.5471
 8175TIP3    H248721   4.719   6.295   2.055  0.0555  0.6682  0.7557
 8176TIP3   OH248722   4.234   3.919   1.637 -0.1373  0.0649 -0.0328
 8176TIP3    H148723   4.328   3.910   1.622 -0.0720  0.5385  0.0888
 8176TIP3    H248724   4.201   3.829   1.637  0.3692 -0.1255  0.2551
 8177TIP3   OH248725   1.264   5.409   2.659 -0.1047 -0.0949 -0.1582
 8177TIP3    H148726   1.280   5.364   2.576  1.5113  0.2628 -0.0667
 8177TIP3    H248727   1.279   5.343   2.726 -1.5800 -0.4299 -0.1264
 8178TIP3   OH248728   3.995   0.056   1.948  0.1210 -0.3211  0.1694
 8178TIP3    H148729   4.060  -0.007   1.980  0.6107 -0.3918 -0.9053
 8178TIP3    H248730   3.912   0.011   1.956  0.3497 -0.7073  0.3973
 8179TIP3   OH248731   5.525   1.568   2.183 -0.1937  0.2113 -0.1176
 8179TIP3    H148732   5.568   1.603   2.261 -1.6068 -0.8626  1.2069
 8179TIP3    H248733   5.596   1.536   2.128  0.9043  2.0770  0.1329
 8180TIP3   OH248734   1.511   5.968   1.683 -0.0220  0.3284  0.2965
 8180TIP3    H148735   1.429   5.964   1.634 -0.6610 -1.3488  1.3967
 8180TIP3    H248736   1.498   6.039   1.745 -1.0110 -0.4650  1.0287
 8181TIP3   OH248737   2.524   2.539   1.838  0.1941 -0.3036  0.2348
 8181TIP3    H148738   2.540   2.633   1.851 -0.2506 -0.3004  0.7956
 8181TIP3    H248739   2.433   2.526   1.868 -0.2960 -0.6210 -1.3170
 8182TIP3   OH248740   3.710   5.234   1.026  0.1759 -0.4340  0.4899
 8182TIP3    H148741   3.784   5.286   1.057 -1.2197  2.8048 -1.1105
 8182TIP3    H248742   3.640   5.253   1.089 -1.0686  1.7814 -1.4367
 8183TIP3   OH248743   2.849   1.239   2.403  0.2287  0.1155 -0.0480
 8183TIP3    H148744   2.768   1.289   2.406 -1.0584 -1.8847  0.6728
 8183TIP3    H248745   2.827   1.160   2.354  1.5213 -0.7953  0.7532
 8184TIP3   OH248746   7.166   7.617   1.658 -0.0164  0.0024  0.4829
 8184TIP3    H148747   7.162   7.594   1.751  0.6730 -1.0079  0.2766
 8184TIP3    H248748   7.203   7.539   1.616  1.7386  1.2186 -0.3438
 8185TIP3   OH248749   5.031   5.679   3.058  0.5678 -0.4960  0.0047
 8185TIP3    H148750   5.003   5.684   3.149  0.6689  0.4058 -0.0065
 8185TIP3    H248751   5.065   5.766   3.038  0.1368 -0.5517 -1.0298
 8186TIP3   OH248752   0.560   0.352   0.867  0.8609 -0.2941  0.1288
 8186TIP3    H148753   0.641   0.362   0.918  0.5573 -1.1420  0.7978
 8186TIP3    H248754   0.534   0.262   0.881  0.0202 -0.1520 -0.4468
 8187TIP3   OH248755   0.125   3.360   0.971  0.6653 -0.4022  0.0072
 8187TIP3    H148756   0.191   3.358   0.901 -0.5405 -1.0080 -1.1529
 8187TIP3    H248757   0.172   3.396   1.047  1.3721  2.7944 -1.7665
 8188TIP3   OH248758   4.762   5.564   1.948  0.7963 -0.0465  0.1154
 8188TIP3    H148759   4.820   5.584   2.022  2.1609  1.7964 -1.3447
 8188TIP3    H248760   4.821   5.554   1.873 -0.6970  0.9175 -1.2565
 8189TIP3   OH248761   2.870   3.703   2.557  1.2192 -0.3344  0.2391
 8189TIP3    H148762   2.811   3.746   2.495 -0.5084 -2.7507  0.0612
 8189TIP3    H248763   2.827   3.716   2.642  0.7274 -1.5467  0.1938
 8190TIP3   OH248764   2.457   4.356   2.517 -0.6094  0.2638  0.2394
 8190TIP3    H148765   2.467   4.309   2.599 -1.1474 -0.5237 -0.1305
 8190TIP3    H248766   2.544   4.353   2.476 -0.6789 -0.5906  0.1345
 8191TIP3   OH248767   1.278   5.679   1.662  0.0118 -0.8310 -0.1130
 8191TIP3    H148768   1.290   5.774   1.657  1.2058 -0.9581 -0.0084
 8191TIP3    H248769   1.211   5.660   1.597 -0.3383  0.1022 -0.0390
 8192TIP3   OH248770   7.671   3.899   1.406 -0.2243  0.1155  0.2928
 8192TIP3    H148771   7.699   3.861   1.489 -0.6849 -1.8892 -0.4135
 8192TIP3    H248772   7.714   3.846   1.339 -1.3495  0.4588 -0.7561
 8193TIP3   OH248773   1.920   1.653   0.459 -0.1755 -0.1793 -0.1760
 8193TIP3    H148774   1.997   1.679   0.508 -1.3945  2.2148  0.6336
 8193TIP3    H248775   1.939   1.678   0.369 -0.1089  0.7098  0.0759
 8194TIP3   OH248776   4.587   7.215   0.934  0.2610 -0.2832  0.0148
 8194TIP3    H148777   4.525   7.144   0.946  0.9616 -0.8665  0.2250
 8194TIP3    H248778   4.562   7.281   0.999  0.4818 -0.9421  0.7684
 8195TIP3   OH248779   0.857   5.053   2.306 -0.0906  0.1629  0.3251
 8195TIP3    H148780   0.868   5.064   2.401 -2.7515  0.6915  0.6415
 8195TIP3    H248781   0.845   4.959   2.295 -0.6977  0.1955  0.6532
 8196TIP3   OH248782   1.228   0.731   0.959 -0.1250  0.6712 -0.1890
 8196TIP3    H148783   1.322   0.743   0.945 -0.2952  0.9835 -1.1390
 8196TIP3    H248784   1.200   0.813   0.999 -0.1321  0.9123 -0.6749
 8197TIP3   OH248785   6.159   6.921   2.120  0.1289 -0.0326  0.2904
 8197TIP3    H148786   6.100   6.994   2.099  0.5636  0.3737  0.4719
 8197TIP3    H248787   6.247   6.959   2.114  0.5327 -1.1631 -2.2271
 8198TIP3   OH248788   3.811   4.323   3.718 -0.4796  0.4887  0.0544
 8198TIP3    H148789   3.851   4.267   3.651  1.0350  1.5768 -0.0054
 8198TIP3    H248790   3.738   4.365   3.674 -0.5034 -0.0534 -0.4295
 8199TIP3   OH248791   0.500   3.032   1.007 -0.2327  0.3349 -0.6489
 8199TIP3    H148792   0.477   3.045   0.915  2.6454  0.6080 -1.4370
 8199TIP3    H248793   0.579   3.085   1.020  1.0176 -1.8035  1.2143
 8200TIP3   OH248794   2.686   2.811   1.140  0.0791  0.5116 -0.0762
 8200TIP3    H148795   2.663   2.753   1.212  2.1484 -0.2968 -0.0126
 8200TIP3    H248796   2.746   2.875   1.179 -1.3182  2.0877 -0.3887
 8201TIP3   OH248797   0.107   4.931   1.129 -0.7744 -0.1023  0.3204
 8201TIP3    H148798   0.095   4.954   1.037 -3.5786  0.1559  0.6604
 8201TIP3    H248799   0.193   4.966   1.151 -0.5319  0.8830 -1.8819
 8202TIP3   OH248800   0.992   6.769   2.837 -0.0147 -0.2498  0.3026
 8202TIP3    H148801   1.033   6.740   2.918 -0.5989  1.0134  1.0999
 8202TIP3    H248802   0.958   6.856   2.858 -1.8475 -0.6657 -0.7243
 8203TIP3   OH248803   3.545   6.445   1.312 -0.5666 -0.4270  0.0849
 8203TIP3    H148804   3.620   6.394   1.345  0.6487  0.8549 -0.5796
 8203TIP3    H248805   3.512   6.393   1.239 -0.1701 -0.9153  0.2454
 8204TIP3   OH248806   5.322   2.639   2.712 -0.0172  0.2165  0.2791
 8204TIP3    H148807   5.408   2.674   2.688  0.5260 -1.8962 -1.0973
 8204TIP3    H248808   5.340   2.574   2.779 -0.3851 -0.9318 -0.6979
 8205TIP3   OH248809   7.349   3.621   0.795 -0.6314  0.2759 -0.2873
 8205TIP3    H148810   7.299   3.576   0.727 -2.5430  1.3371  0.3378
 8205TIP3    H248811   7.283   3.659   0.853  0.9219  1.0591  1.0748
 8206TIP3   OH248812   5.544   6.696   2.009 -0.3053  0.3483 -0.1881
 8206TIP3    H148813   5.628   6.656   2.031  0.0625  1.4874  0.5523
 8206TIP3    H248814   5.479   6.636   2.046  0.1427 -0.6340 -0.9162
 8207TIP3   OH248815   4.896   5.551   3.390  0.5846  0.2309  0.4173
 8207TIP3    H148816   4.979   5.544   3.438  0.6754 -0.4904  0.1619
 8207TIP3    H248817   4.891   5.643   3.363  2.0315 -0.0467 -0.8780
 8208TIP3   OH248818   0.075   0.306   2.453 -0.1727  0.3828  0.0978
 8208TIP3    H148819  -0.018   0.291   2.438 -0.0417  0.6457 -1.0370
 8208TIP3    H248820   0.077   0.372   2.523 -0.8133 -0.1775  0.6591
 8209TIP3   OH248821   1.816   3.029   1.481  0.1023  0.5293 -0.0608
 8209TIP3    H148822   1.732   2.991   1.456 -0.6871  2.1442  0.0197
 8209TIP3    H248823   1.793   3.102   1.539  1.6421  0.0957  1.1691
 8210TIP3   OH248824   2.590   5.982   2.565  0.3043  0.1666 -0.2037
 8210TIP3    H148825   2.519   6.021   2.513  0.6168 -1.3534 -1.8816
 8210TIP3    H248826   2.560   5.988   2.655 -1.1829  1.1150 -0.7263
 8211TIP3   OH248827   6.836   5.185   0.871 -0.0560 -0.1006 -0.3314
 8211TIP3    H148828   6.818   5.211   0.961  1.9712 -0.6569  0.2771
 8211TIP3    H248829   6.780   5.109   0.856  2.2753 -2.3982  1.8164
 8212TIP3   OH248830   6.776   4.397   1.409 -0.1456 -0.0940  0.9281
 8212TIP3    H148831   6.699   4.378   1.356 -0.0386  1.2664  0.2507
 8212TIP3    H248832   6.741   4.436   1.489 -0.2449 -1.1479  1.4130
 8213TIP3   OH248833   1.328   1.953   1.405 -0.1475 -0.6706 -0.6114
 8213TIP3    H148834   1.283   1.870   1.419 -0.1110 -0.2269  3.1354
 8213TIP3    H248835   1.397   1.955   1.471  1.1290  1.5397 -1.8591
 8214TIP3   OH248836   2.872   5.268   1.464  0.1262  0.1738 -0.5386
 8214TIP3    H148837   2.915   5.353   1.475  0.1633 -0.0239  1.1751
 8214TIP3    H248838   2.821   5.276   1.384  0.0504  1.8623 -0.3468
 8215TIP3   OH248839   4.109   3.852   2.470 -0.2747  0.5682  0.1185
 8215TIP3    H148840   4.126   3.891   2.384 -1.4799  0.2542 -0.2777
 8215TIP3    H248841   4.031   3.798   2.457 -0.9638  1.1425  1.5981
 8216TIP3   OH248842   1.579   5.263   1.888  0.1177 -0.1516 -0.3615
 8216TIP3    H148843   1.490   5.270   1.923 -0.3038  0.8708 -1.5389
 8216TIP3    H248844   1.601   5.353   1.862  0.7235 -0.7060 -1.8701
 8217TIP3   OH248845   3.997   4.432   1.288  0.2139 -0.0424  1.2456
 8217TIP3    H148846   4.091   4.421   1.275  0.1653 -0.5862  1.3420
 8217TIP3    H248847   3.965   4.344   1.308 -0.4733 -0.0489  0.1983
 8218TIP3   OH248848   2.151   3.561   0.675 -0.8137  0.0829 -0.9362
 8218TIP3    H148849   2.150   3.472   0.640  0.3197 -0.1585 -0.4021
 8218TIP3    H248850   2.235   3.597   0.645 -0.5660  0.4311  0.1394
 8219TIP3   OH248851   4.162   7.004   1.600 -0.5799  0.6900 -0.1440
 8219TIP3    H148852   4.225   6.980   1.532 -1.1288 -0.4657 -0.2663
 8219TIP3    H248853   4.141   6.921   1.643 -1.4186  1.1792  0.4106
 8220TIP3   OH248854   0.553   2.766   1.064 -0.3460  0.0587  0.7985
 8220TIP3    H148855   0.551   2.858   1.040  0.5562  0.2943  1.5828
 8220TIP3    H248856   0.630   2.730   1.020  1.1897  0.4424  3.0034
 8221TIP3   OH248857   1.708   6.803   1.582  0.1970 -0.2884  0.3831
 8221TIP3    H148858   1.694   6.866   1.652 -1.1601  0.1011 -0.1952
 8221TIP3    H248859   1.750   6.729   1.624  0.6340  0.4766  1.3347
 8222TIP3   OH248860   1.550   5.234   2.438  0.3766  0.0953  0.2037
 8222TIP3    H148861   1.621   5.231   2.374  0.1294 -1.7768 -0.0451
 8222TIP3    H248862   1.478   5.278   2.392  0.0296 -1.6800 -1.0497
 8223TIP3   OH248863   3.890   5.176   2.190 -0.0434 -0.2675 -0.1546
 8223TIP3    H148864   3.840   5.152   2.268  1.6432 -1.0748  0.7522
 8223TIP3    H248865   3.946   5.248   2.220  0.2253 -0.2163 -0.7732
 8224TIP3   OH248866   1.484   7.283   2.323 -0.0056 -0.0245 -0.0333
 8224TIP3    H148867   1.408   7.341   2.329  0.0017 -0.1786  2.6182
 8224TIP3    H248868   1.553   7.328   2.372  0.5099 -1.4746  0.6342
 8225TIP3   OH248869   1.335   6.981   1.035  0.2909  0.1926  0.5161
 8225TIP3    H148870   1.313   7.056   1.090  1.4635  1.0933 -0.1774
 8225TIP3    H248871   1.431   6.985   1.026  0.3556 -1.2574  0.2636
 8226TIP3   OH248872   3.035   3.194   3.016  0.3717 -0.1665 -0.2938
 8226TIP3    H148873   3.053   3.262   3.081 -1.2601  0.3062 -0.2881
 8226TIP3    H248874   3.079   3.116   3.049  0.7858  0.4366  0.6224
 8227TIP3   OH248875   5.921   1.415   1.701 -0.1414  0.5531 -0.4705
 8227TIP3    H148876   5.852   1.379   1.646 -0.0915  2.4732 -1.8960
 8227TIP3    H248877   5.956   1.488   1.650  1.5794  0.8855  1.0933
 8228TIP3   OH248878   3.538   5.388   3.379  0.0384 -0.0351  0.1461
 8228TIP3    H148879   3.594   5.348   3.446 -2.2462 -0.6554  1.7864
 8228TIP3    H248880   3.581   5.472   3.359  1.8686 -0.7516  0.8180
 8229TIP3   OH248881   3.352   6.753   3.733 -0.2885 -0.1687  0.0019
 8229TIP3    H148882   3.436   6.783   3.768 -0.7076 -1.0490  1.9003
 8229TIP3    H248883   3.348   6.660   3.756 -2.2742  0.1300  1.0233
 8230TIP3   OH248884   3.286   3.221   0.761 -0.1753 -0.3587 -0.5937
 8230TIP3    H148885   3.364   3.229   0.815 -0.9630 -1.5380  0.7925
 8230TIP3    H248886   3.268   3.311   0.732  0.6578  0.2144  0.5711
 8231TIP3   OH248887   0.273   1.315   1.503  0.2478  0.0740  0.0073
 8231TIP3    H148888   0.250   1.267   1.423 -0.1277  1.6895 -0.9043
 8231TIP3    H248889   0.191   1.353   1.533  0.6769  0.8975  0.1807
 8232TIP3   OH248890   4.021   5.396   2.251 -0.0569  0.6325 -0.4620
 8232TIP3    H148891   4.108   5.424   2.222  0.5102 -1.2519 -0.7295
 8232TIP3    H248892   4.014   5.430   2.340  2.4560 -1.9666  0.9048
 8233TIP3   OH248893   2.114   4.334   2.233  0.4278  0.4609  0.3513
 8233TIP3    H148894   2.155   4.342   2.319 -1.3351  0.4766  1.2359
 8233TIP3    H248895   2.118   4.241   2.213 -2.3029 -0.1606  2.1620
 8234TIP3   OH248896   2.606   1.325   1.296 -0.4231 -0.5508 -0.2973
 8234TIP3    H148897   2.630   1.328   1.389 -3.1023  0.9397  0.4437
 8234TIP3    H248898   2.638   1.408   1.261  0.0155 -0.8302 -0.5676
 8235TIP3   OH248899   7.124   5.600   1.960  0.2400  0.2022  0.0825
 8235TIP3    H148900   7.042   5.603   2.010  0.5298  1.2777  0.5257
 8235TIP3    H248901   7.184   5.552   2.017  0.3227  0.6702  0.3945
 8236TIP3   OH248902   0.529   7.501   0.680 -0.2701 -0.0357  0.1230
 8236TIP3    H148903   0.556   7.518   0.590  1.2255 -0.0808  0.5374
 8236TIP3    H248904   0.591   7.552   0.734  0.8830 -2.4569  1.2197
 8237TIP3   OH248905   6.077   5.635   0.927  0.0140  0.1142  0.2874
 8237TIP3    H148906   6.041   5.708   0.977  0.5913  1.1427 -0.7806
 8237TIP3    H248907   6.000   5.591   0.891 -0.2700  1.2502 -0.5267
 8238TIP3   OH248908   5.258   1.762   1.167 -0.0016  0.4211 -0.2937
 8238TIP3    H148909   5.181   1.780   1.220 -0.0128 -0.9575  0.2106
 8238TIP3    H248910   5.332   1.779   1.225  0.0727  1.1247 -0.5783
 8239TIP3   OH248911   0.190   4.704   0.787  0.0435  0.4251 -0.0934
 8239TIP3    H148912   0.115   4.645   0.783  1.2521 -1.1733 -0.0417
 8239TIP3    H248913   0.230   4.686   0.872  0.8429  0.8147 -0.3802
 8240TIP3   OH248914   1.111   5.398   2.199  0.1271 -0.1928  0.0760
 8240TIP3    H148915   1.090   5.319   2.150  0.5366  0.2546 -0.8425
 8240TIP3    H248916   1.064   5.388   2.282 -0.8209 -0.8134 -0.5257
 8241TIP3   OH248917   0.383   2.972   1.262  0.2876  0.0332 -0.3270
 8241TIP3    H148918   0.363   2.879   1.264 -0.7806  0.1955 -1.7681
 8241TIP3    H248919   0.383   2.995   1.168 -0.2628  1.6162  0.0178
 8242TIP3   OH248920   1.886   0.897   2.141 -0.1551 -0.2773 -0.0819
 8242TIP3    H148921   1.845   0.967   2.091 -0.6112  0.6468  1.5129
 8242TIP3    H248922   1.936   0.847   2.076 -1.2068  0.4836 -1.5300
 8243TIP3   OH248923   1.493   0.180   2.656 -0.0480 -0.2095  0.2412
 8243TIP3    H148924   1.504   0.144   2.568  0.4161 -0.7938  0.5286
 8243TIP3    H248925   1.418   0.238   2.650  0.6394  0.5982 -0.8073
 8244TIP3   OH248926   6.628   6.156   1.463  0.3601 -0.2567 -0.3088
 8244TIP3    H148927   6.662   6.161   1.552 -0.3741 -0.2326 -0.0224
 8244TIP3    H248928   6.554   6.095   1.468  0.0523  0.0595 -0.8128
 8245TIP3   OH248929   3.806   0.928   2.076 -0.1559 -0.1034  0.2397
 8245TIP3    H148930   3.808   0.842   2.035 -0.8670 -0.2902  0.5703
 8245TIP3    H248931   3.891   0.936   2.119  0.3434 -0.1663 -0.7276
 8246TIP3   OH248932   0.512   1.157   0.647  0.4176  0.4355 -0.3169
 8246TIP3    H148933   0.599   1.169   0.687  0.5744 -2.1167  0.2939
 8246TIP3    H248934   0.477   1.245   0.640  1.6720  1.3104  2.6303
 8247TIP3   OH248935   0.227   1.569   2.058 -0.3039  0.2885  0.5503
 8247TIP3    H148936   0.297   1.633   2.050 -0.8845  0.7267 -2.2039
 8247TIP3    H248937   0.252   1.498   1.998 -2.0171  0.3037 -0.2397
 8248TIP3   OH248938   3.893   1.389   2.657  0.2936 -0.1690 -0.2093
 8248TIP3    H148939   3.820   1.340   2.619  0.0695 -0.3171  0.3954
 8248TIP3    H248940   3.851   1.460   2.705  0.6681  1.5899 -2.3466
 8249TIP3   OH248941   6.211   6.710   1.925 -0.8809  0.2947 -0.6727
 8249TIP3    H148942   6.253   6.769   1.862 -0.1434 -0.0282 -0.4968
 8249TIP3    H248943   6.197   6.765   2.002  2.4879 -0.3755  0.5983
 8250TIP3   OH248944   6.770   0.168   1.014  0.3240  0.6360 -0.0390
 8250TIP3    H148945   6.793   0.100   0.950 -1.7179  1.9884 -2.3855
 8250TIP3    H248946   6.792   0.250   0.971  0.4427  1.5575  1.7167
 8251TIP3   OH248947   6.334   1.174   2.277 -0.2422 -0.0107 -0.5389
 8251TIP3    H148948   6.398   1.176   2.206  0.1378 -0.8032 -0.2278
 8251TIP3    H248949   6.281   1.096   2.259 -0.5434  0.1355 -0.2930
 8252TIP3   OH248950   5.079   2.473   1.106 -0.7495 -0.1219 -0.0359
 8252TIP3    H148951   5.149   2.533   1.131 -1.0563  0.4655 -0.5570
 8252TIP3    H248952   5.124   2.397   1.071 -0.3580 -0.0546  0.3230
 8253TIP3   OH248953   3.334   2.734   2.529  0.4725  0.3016  0.5854
 8253TIP3    H148954   3.376   2.652   2.504  0.9690  0.2235  1.5999
 8253TIP3    H248955   3.401   2.781   2.579  0.5866  1.8498 -0.9432
 8254TIP3   OH248956   3.331   0.671   0.791 -0.0631 -0.1960  0.4447
 8254TIP3    H148957   3.253   0.620   0.812  0.8397 -1.7801  0.1816
 8254TIP3    H248958   3.364   0.699   0.876  0.0452 -1.0726  0.7104
 8255TIP3   OH248959   6.299   0.796   2.437 -0.5895  0.1919 -0.2206
 8255TIP3    H148960   6.394   0.800   2.447 -0.6527 -0.1602  0.6084
 8255TIP3    H248961   6.280   0.705   2.415 -0.8387 -0.0618  0.9751
 8256TIP3   OH248962   0.248   1.576   1.245  0.6091 -0.1865  0.1717
 8256TIP3    H148963   0.260   1.508   1.179 -0.5685  0.0996 -0.3651
 8256TIP3    H248964   0.330   1.576   1.294  0.9467 -1.4239 -0.3402
 8257TIP3   OH248965   4.112   0.326   1.122  0.5448  0.3171 -0.3588
 8257TIP3    H148966   4.055   0.338   1.046 -0.4925 -1.1223  0.1557
 8257TIP3    H248967   4.055   0.344   1.197  0.7508 -1.0737  0.1602
 8258TIP3   OH248968   4.699   2.498   0.658  0.0718  0.0893  0.0951
 8258TIP3    H148969   4.697   2.592   0.679 -0.3343  0.7848 -2.6588
 8258TIP3    H248970   4.621   2.462   0.700 -0.0993  1.1025  0.6760
 8259TIP3   OH248971   5.681   0.437   1.582  0.4183  0.3469 -0.1019
 8259TIP3    H148972   5.681   0.520   1.629 -0.3039  0.3052 -0.0217
 8259TIP3    H248973   5.761   0.393   1.610  0.0053  0.3196  1.0976
 8260TIP3   OH248974   2.445   3.520   1.152 -0.6594  0.4806 -0.7995
 8260TIP3    H148975   2.462   3.429   1.178  0.1971  1.0422  0.7841
 8260TIP3    H248976   2.474   3.572   1.227  0.0365  2.1455 -2.1367
 8261TIP3   OH248977   2.807   2.849   0.894  0.8750  0.0046 -0.3157
 8261TIP3    H148978   2.775   2.931   0.857 -0.9435 -0.8127 -0.6774
 8261TIP3    H248979   2.756   2.838   0.974  2.8444  0.4027  1.0459
 8262TIP3   OH248980   1.345   0.716   2.659 -0.3822  0.4345  0.9578
 8262TIP3    H148981   1.433   0.682   2.643 -0.7368  0.0872 -0.3755
 8262TIP3    H248982   1.345   0.803   2.620 -1.5877 -0.8396 -2.2281
 8263TIP3   OH248983   0.193   5.691   0.694 -0.4481  0.0603 -0.1552
 8263TIP3    H148984   0.167   5.646   0.614 -1.5854  1.3305 -0.5359
 8263TIP3    H248985   0.172   5.629   0.764 -0.4672 -0.6342 -0.7648
 8264TIP3   OH248986   5.343   6.068   3.447 -0.0987 -0.0462  0.4135
 8264TIP3    H148987   5.426   6.039   3.484 -1.6462 -3.0108  1.8845
 8264TIP3    H248988   5.345   6.036   3.357  1.7001  3.0274 -0.7798
 8265TIP3   OH248989   6.171   2.643   1.543  0.3899  0.1812  0.4306
 8265TIP3    H148990   6.086   2.612   1.574 -0.5117  1.0724 -1.0275
 8265TIP3    H248991   6.171   2.737   1.563  2.5477 -0.3470  3.6468
 8266TIP3   OH248992   6.852   2.891   0.807 -0.1020 -0.1880 -0.4452
 8266TIP3    H148993   6.921   2.860   0.866 -0.8713  0.1630  0.6872
 8266TIP3    H248994   6.879   2.862   0.720  1.6182  0.1942 -0.0760
 8267TIP3   OH248995   1.720   6.247   2.570  0.3119  0.5266 -0.0562
 8267TIP3    H148996   1.657   6.248   2.642  0.3446  1.6959 -0.0216
 8267TIP3    H248997   1.784   6.180   2.595 -0.4019 -0.0201  0.3515
 8268TIP3   OH248998   5.263   3.878   2.586 -0.6000 -0.0805 -0.3354
 8268TIP3    H148999   5.260   3.938   2.660 -2.3990  0.5913 -0.9050
 8268TIP3    H249000   5.210   3.803   2.615 -2.0570  0.5756 -1.2412
 8269TIP3   OH249001   2.803   0.923   2.132 -0.4557  0.2733  0.3534
 8269TIP3    H149002   2.831   0.843   2.176 -0.6245  0.2911  0.4958
 8269TIP3    H249003   2.862   0.933   2.057 -0.8731 -0.3641 -0.0693
 8270TIP3   OH249004   1.704   3.943   0.920 -0.1395 -0.0983  0.2741
 8270TIP3    H149005   1.691   4.037   0.923  1.0836  0.0717  0.8340
 8270TIP3    H249006   1.790   3.932   0.878 -0.3907 -0.9740 -0.0405
 8271TIP3   OH249007   6.062   6.564   1.030 -0.5428  0.0763 -0.4853
 8271TIP3    H149008   6.049   6.649   1.073 -0.0903  0.3415 -0.8677
 8271TIP3    H249009   6.089   6.505   1.101 -2.1769 -0.0933  0.0353
 8272TIP3   OH249010   3.969   6.033   1.321 -0.6951 -0.4383  0.2261
 8272TIP3    H149011   4.031   6.001   1.387  2.6191  2.2595 -1.2614
 8272TIP3    H249012   3.982   5.976   1.246  1.9884  1.4352 -0.9023
 8273TIP3   OH249013   5.660   7.271   1.514 -0.4583  0.0753 -0.1970
 8273TIP3    H149014   5.736   7.238   1.466 -1.2384 -1.0284 -0.7007
 8273TIP3    H249015   5.636   7.201   1.575 -2.5618 -0.6628 -1.7604
 8274TIP3   OH249016   5.980   1.681   1.238 -0.9014 -0.5190  0.0870
 8274TIP3    H149017   5.988   1.775   1.253  0.6591 -0.4623 -0.8405
 8274TIP3    H249018   5.935   1.674   1.153  0.4164 -0.5296 -0.6444
 8275TIP3   OH249019   5.761   4.468   2.442 -0.8952 -0.2338 -0.0574
 8275TIP3    H149020   5.740   4.402   2.376  0.5079 -3.0253  2.1041
 8275TIP3    H249021   5.707   4.446   2.517 -0.5119  1.2166  0.6825
 8276TIP3   OH249022   6.481   3.532   1.758 -0.6012 -0.3385  0.0496
 8276TIP3    H149023   6.541   3.466   1.792 -0.0270  0.0541 -0.1855
 8276TIP3    H249024   6.396   3.510   1.797 -0.2389 -0.7026  0.6527
 8277TIP3   OH249025   7.087   4.846   2.334 -0.0699  0.0631  0.0907
 8277TIP3    H149026   7.149   4.849   2.407  1.3549  1.8689 -1.0905
 8277TIP3    H249027   7.126   4.904   2.268 -1.9937 -0.4241 -1.5538
 8278TIP3   OH249028   1.392   6.906   1.446  0.2220 -0.2417  0.2584
 8278TIP3    H149029   1.485   6.885   1.435  0.1931  0.6136 -2.4954
 8278TIP3    H249030   1.391   6.983   1.503  1.4729  1.3012 -1.6661
 8279TIP3   OH249031   2.666   1.593   1.661 -0.5325  0.3442 -0.1229
 8279TIP3    H149032   2.593   1.646   1.694 -0.0895 -0.3083  2.0773
 8279TIP3    H249033   2.742   1.622   1.711  0.2751 -0.4580 -0.8434
 8280TIP3   OH249034   1.378   0.883   1.329 -0.2901 -0.2247  0.2678
 8280TIP3    H149035   1.473   0.870   1.329 -0.1928  0.3345 -0.7565
 8280TIP3    H249036   1.343   0.808   1.376  0.4579 -2.2325 -2.1673
 8281TIP3   OH249037   4.995   3.985   2.920 -0.5850  0.4016 -0.3500
 8281TIP3    H149038   4.906   3.974   2.887 -0.0344 -2.3718 -1.2430
 8281TIP3    H249039   4.990   3.957   3.012 -0.6918  0.5286 -0.3170
 8282TIP3   OH249040   3.528   5.128   3.263  0.1380  0.0146 -0.0369
 8282TIP3    H149041   3.617   5.114   3.231 -0.5409  0.4914 -2.3494
 8282TIP3    H249042   3.534   5.208   3.316  1.3548 -0.9080  1.2800
 8283TIP3   OH249043   4.743   6.144   1.404 -0.2272  0.5022 -0.4556
 8283TIP3    H149044   4.816   6.096   1.443  0.1347  0.3079 -1.3321
 8283TIP3    H249045   4.729   6.218   1.462  0.3664  0.2908 -0.0301
 8284TIP3   OH249046   7.402   4.523   0.897 -0.0800  0.3449 -0.6657
 8284TIP3    H149047   7.371   4.471   0.823 -0.0151 -0.1134 -0.3723
 8284TIP3    H249048   7.362   4.482   0.973  3.1909 -1.9125  0.0553
 8285TIP3   OH249049   2.275   0.683   1.188 -0.1331 -0.2452 -0.3042
 8285TIP3    H149050   2.351   0.740   1.197 -1.0606  0.8004  1.7744
 8285TIP3    H249051   2.232   0.712   1.108  1.3057 -0.4606 -1.1912
 8286TIP3   OH249052   7.321   6.522   3.047 -0.3056 -0.0016  0.4702
 8286TIP3    H149053   7.409   6.490   3.067  0.1027  0.7110 -0.1384
 8286TIP3    H249054   7.335   6.592   2.983 -1.4876 -1.9828 -2.2049
 8287TIP3   OH249055   2.226   2.782   1.784 -0.0104  0.4299 -0.1151
 8287TIP3    H149056   2.295   2.831   1.827  2.0764 -0.4363 -2.2618
 8287TIP3    H249057   2.227   2.696   1.826  1.2329 -0.0446 -1.0851
 8288TIP3   OH249058   0.599   3.169   3.510 -0.3967  0.4633  0.2956
 8288TIP3    H149059   0.535   3.190   3.578 -0.5452 -1.4355  0.8082
 8288TIP3    H249060   0.679   3.147   3.558 -0.4680 -0.7715 -0.0959
 8289TIP3   OH249061   7.026   0.316   2.376 -0.1154  0.2443 -0.1668
 8289TIP3    H149062   6.966   0.387   2.398 -1.2769 -0.6226 -0.4401
 8289TIP3    H249063   6.970   0.246   2.344  0.9625 -0.9271  0.4021
 8290TIP3   OH249064   5.228   3.240   1.192 -0.0883 -0.2909  0.0552
 8290TIP3    H149065   5.146   3.288   1.176 -1.3727 -1.5872  2.1403
 8290TIP3    H249066   5.199   3.152   1.214  1.9421 -0.9245  0.3622
 8291TIP3   OH249067   0.233   2.882   1.728 -0.1240  0.3516 -0.4823
 8291TIP3    H149068   0.263   2.973   1.736  0.6259  0.2882 -2.0960
 8291TIP3    H249069   0.140   2.886   1.748  0.1256  1.2597  0.6545
 8292TIP3   OH249070   0.987   4.725   3.605  0.1035  0.0963 -0.3753
 8292TIP3    H149071   1.007   4.818   3.611  1.1030 -0.0848 -0.7136
 8292TIP3    H249072   0.914   4.712   3.665 -0.1579  1.1253 -0.4536
 8293TIP3   OH249073   5.888   6.595   2.737 -0.0803  0.2320  0.9637
 8293TIP3    H149074   5.915   6.671   2.789 -0.3285  1.0277 -0.0335
 8293TIP3    H249075   5.929   6.608   2.652  0.3392 -1.0648  0.9509
 8294TIP3   OH249076   3.055   4.961   2.021  0.4804 -0.4445 -0.5225
 8294TIP3    H149077   2.987   4.983   2.084  0.7790  1.0760 -0.7139
 8294TIP3    H249078   3.011   4.903   1.958 -0.4279 -0.0796 -0.2350
 8295TIP3   OH249079   4.153   3.916   2.843  0.2947  0.6190  0.0225
 8295TIP3    H149080   4.110   3.833   2.823 -0.7608  1.2374 -0.3713
 8295TIP3    H249081   4.112   3.979   2.784  0.5254  1.5707  0.8536
 8296TIP3   OH249082   5.715   2.380   2.596 -0.7297  0.2143  0.9008
 8296TIP3    H149083   5.666   2.336   2.526 -0.0565 -0.1763  0.6686
 8296TIP3    H249084   5.780   2.316   2.624 -0.0300  0.9028  0.8723
 8297TIP3   OH249085   4.554   2.622   0.971  0.5300 -0.4305 -0.2609
 8297TIP3    H149086   4.488   2.589   0.911  0.9255 -0.4791 -0.6766
 8297TIP3    H249087   4.506   2.677   1.032  0.1055 -0.4766 -0.5536
 8298TIP3   OH249088   1.340   5.635   2.440  0.4796 -0.1361  0.4165
 8298TIP3    H149089   1.278   5.588   2.494 -0.7797  0.5777 -0.3446
 8298TIP3    H249090   1.417   5.648   2.496 -0.3446 -0.3872  1.6372
 8299TIP3   OH249091   2.392   5.810   0.795 -0.0834  0.0621  0.4795
 8299TIP3    H149092   2.313   5.850   0.830  0.1508  0.4670  0.5554
 8299TIP3    H249093   2.419   5.868   0.724 -1.9595 -2.0291 -2.1557
 8300TIP3   OH249094   0.323   2.591   1.758 -0.4133 -0.4719 -0.3286
 8300TIP3    H149095   0.366   2.634   1.832  1.9986 -1.1052 -1.2616
 8300TIP3    H249096   0.283   2.663   1.709  1.4436  0.4696 -0.5524
 8301TIP3   OH249097   4.788   2.995   2.232 -0.0326 -0.5192 -0.4304
 8301TIP3    H149098   4.829   2.919   2.273  0.0291 -0.6638 -0.7589
 8301TIP3    H249099   4.696   2.972   2.224 -0.7077  0.7239  2.5022
 8302TIP3   OH249100   6.675   5.632   1.358 -0.4732  0.0717 -0.5229
 8302TIP3    H149101   6.769   5.629   1.375 -0.5380  0.0906 -0.1438
 8302TIP3    H249102   6.636   5.596   1.438 -0.7215 -1.3756 -1.2573
 8303TIP3   OH249103   0.640   3.389   1.186 -0.4524  0.2126  0.0766
 8303TIP3    H149104   0.550   3.398   1.217 -0.9791 -0.5646 -1.1433
 8303TIP3    H249105   0.653   3.295   1.178  0.3566  0.3316 -0.0971
 8304TIP3   OH249106   1.616   1.551   1.213 -0.1097  0.8372 -0.2583
 8304TIP3    H149107   1.678   1.624   1.213  0.5408  0.3379 -1.5912
 8304TIP3    H249108   1.621   1.516   1.123 -0.3430 -0.8636  0.3517
 8305TIP3   OH249109   6.813   4.900   2.367  0.2486 -0.4146  0.0813
 8305TIP3    H149110   6.903   4.881   2.396 -0.1676  0.1190  1.8444
 8305TIP3    H249111   6.792   4.827   2.309  1.7758 -0.6175 -0.2782
 8306TIP3   OH249112   4.429   4.311   1.505 -0.1596 -0.3507 -0.2257
 8306TIP3    H149113   4.466   4.223   1.500 -0.3720 -0.4564  0.0388
 8306TIP3    H249114   4.410   4.324   1.598  1.5782  0.6749  0.0268
 8307TIP3   OH249115   6.688   4.150   2.172 -0.0229  0.3886  0.2903
 8307TIP3    H149116   6.683   4.091   2.097 -0.9680 -0.1457  0.7651
 8307TIP3    H249117   6.652   4.233   2.140 -0.8147  0.0415  0.2567
 8308TIP3   OH249118   4.130   2.748   1.252  0.6191  0.7335  0.1736
 8308TIP3    H149119   4.219   2.781   1.239  0.5620  1.1743  0.8554
 8308TIP3    H249120   4.082   2.778   1.175  1.3009 -0.4356 -0.7521
 8309TIP3   OH249121   1.348   0.044   1.484  0.1554 -0.4420 -0.0660
 8309TIP3    H149122   1.296   0.014   1.409  2.0238 -0.4813 -1.4372
 8309TIP3    H249123   1.411  -0.027   1.499 -0.0305 -0.3193  1.4199
 8310TIP3   OH249124   0.328   4.398   3.183  0.4892 -0.6243 -0.2208
 8310TIP3    H149125   0.394   4.350   3.133 -0.4081 -1.4354 -0.6524
 8310TIP3    H249126   0.282   4.331   3.232 -0.2776 -0.1153 -0.2298
 8311TIP3   OH249127   3.490   5.331   1.156  0.1493 -0.1909  0.4476
 8311TIP3    H149128   3.520   5.384   1.230  0.1164  0.7509 -0.1922
 8311TIP3    H249129   3.456   5.251   1.196  1.6964 -0.4430  1.3161
 8312TIP3   OH249130   3.736   7.291   2.403 -0.2800  0.5862 -0.0154
 8312TIP3    H149131   3.763   7.212   2.356  0.6195  1.5000 -1.0909
 8312TIP3    H249132   3.642   7.297   2.387 -0.4014 -0.4046  0.2913
 8313TIP3   OH249133   5.189   3.906   2.329 -0.2713 -0.4253 -0.3154
 8313TIP3    H149134   5.236   3.890   2.411  0.8990 -0.4746 -0.9785
 8313TIP3    H249135   5.127   3.976   2.350  1.2175  0.8033  0.1854
 8314TIP3   OH249136   2.078   1.603   2.098  0.1904 -0.3080 -0.2323
 8314TIP3    H149137   2.083   1.569   2.008  0.2806 -1.3033  0.1372
 8314TIP3    H249138   2.063   1.525   2.152 -0.4072  0.3425  0.5685
 8315TIP3   OH249139   1.128   1.440   1.644  0.1131  0.0060  0.5801
 8315TIP3    H149140   1.142   1.512   1.705  0.1847 -1.4881  2.4286
 8315TIP3    H249141   1.212   1.394   1.640  0.2255  0.2807 -0.9857
 8316TIP3   OH249142   2.965   7.410   1.609 -0.0198 -0.3439 -0.2830
 8316TIP3    H149143   3.042   7.359   1.636  0.3486  0.5140  0.3477
 8316TIP3    H249144   2.892   7.349   1.615  0.2152 -0.4962  1.6639
 8317TIP3   OH249145   4.271   2.661   1.944  0.0109  0.7150  0.1411
 8317TIP3    H149146   4.254   2.593   1.879  0.1027  0.8359 -0.0125
 8317TIP3    H249147   4.357   2.697   1.920  0.1768  0.5660  0.5046
 8318TIP3   OH249148   6.493   2.179   2.221 -0.1152 -0.1537 -0.0781
 8318TIP3    H149149   6.438   2.218   2.153  2.0599 -0.1853 -2.0001
 8318TIP3    H249150   6.448   2.099   2.246 -0.8246 -0.3347 -1.7957
 8319TIP3   OH249151   0.502   6.895   2.890  0.0518 -0.1894 -0.4293
 8319TIP3    H149152   0.535   6.836   2.821 -1.5852  0.9374 -2.2859
 8319TIP3    H249153   0.414   6.862   2.909 -0.5288  1.0644 -0.8280
 8320TIP3   OH249154   6.273   3.985   1.337 -0.4126 -0.2700 -0.1369
 8320TIP3    H149155   6.363   4.016   1.342 -0.3309 -0.6542  1.1953
 8320TIP3    H249156   6.220   4.058   1.370 -0.3824 -0.8018  1.1557
 8321TIP3   OH249157   6.248   1.432   0.854 -0.0439  0.2062 -0.6787
 8321TIP3    H149158   6.239   1.499   0.921 -0.0556 -0.7229  0.2756
 8321TIP3    H249159   6.311   1.469   0.791 -0.2229  1.1842 -0.2920
 8322TIP3   OH249160   6.074   5.209   2.004 -0.4027  0.2120  0.2328
 8322TIP3    H149161   6.047   5.171   1.921  1.4759  0.6518 -0.6532
 8322TIP3    H249162   6.060   5.140   2.069 -0.9754 -0.4813 -0.6110
 8323TIP3   OH249163   0.650   3.356   0.620 -0.0930 -0.0165  0.1888
 8323TIP3    H149164   0.741   3.356   0.591  0.7256 -1.3266  2.5283
 8323TIP3    H249165   0.646   3.424   0.686 -1.3024  1.2211 -1.0949
 8324TIP3   OH249166   6.816   4.527   1.896 -0.4067 -0.1134 -0.1618
 8324TIP3    H149167   6.818   4.623   1.893  1.7815 -0.0916  0.3082
 8324TIP3    H249168   6.893   4.499   1.848 -0.9744 -1.6576 -0.2423
 8325TIP3   OH249169   2.801   5.657   1.818 -0.4766 -0.3196 -0.0238
 8325TIP3    H149170   2.746   5.653   1.896 -0.2213  1.1445  0.2692
 8325TIP3    H249171   2.834   5.568   1.807 -0.7910 -0.6282  1.3429
 8326TIP3   OH249172   5.416   7.546   1.353  0.3028  0.0232 -0.3847
 8326TIP3    H149173   5.378   7.477   1.298  1.2639  0.8056 -2.1173
 8326TIP3    H249174   5.403   7.626   1.303  1.2691  0.7641  0.5165
 8327TIP3   OH249175   3.675   4.085   0.775 -0.4230 -0.0400  0.2231
 8327TIP3    H149176   3.710   4.135   0.701 -0.8350 -0.3002 -0.1502
 8327TIP3    H249177   3.752   4.065   0.829 -0.2821  1.2280  0.5292
 8328TIP3   OH249178   4.751   7.667   1.561  1.2343  0.3136  0.0122
 8328TIP3    H149179   4.669   7.635   1.598  1.2826 -0.2145 -0.3182
 8328TIP3    H249180   4.808   7.590   1.561  1.5981  0.5822 -0.1196
 8329TIP3   OH249181   3.045   0.759   0.437 -0.1099 -0.0229  0.3250
 8329TIP3    H149182   2.967   0.792   0.482  0.1233  0.3306  0.4764
 8329TIP3    H249183   3.084   0.836   0.396  0.5780 -0.0580  0.8880
 8330TIP3   OH249184   4.418   7.045   2.125 -0.0995  0.7054  0.3085
 8330TIP3    H149185   4.498   7.096   2.141 -0.4268  1.7214 -1.0674
 8330TIP3    H249186   4.351   7.091   2.175 -0.6216  2.3974 -1.7831
 8331TIP3   OH249187   3.064   4.973   1.045 -0.5302 -0.0225  0.0964
 8331TIP3    H149188   3.008   4.904   1.080  0.4701 -1.0659 -0.2716
 8331TIP3    H249189   3.005   5.029   0.995 -1.6693  0.4644  1.9302
 8332TIP3   OH249190   0.297   2.185   0.724  0.8860  0.0766 -0.1518
 8332TIP3    H149191   0.366   2.210   0.662  0.7615 -0.4339 -0.4986
 8332TIP3    H249192   0.338   2.117   0.778  0.9899  0.5118  0.3139
 8333TIP3   OH249193   3.263   2.145   1.191  0.5428  0.3615 -0.3015
 8333TIP3    H149194   3.243   2.222   1.244 -0.1519  1.6537 -2.3263
 8333TIP3    H249195   3.209   2.076   1.228 -1.0436  1.5986 -0.2262
 8334TIP3   OH249196   7.128   0.249   1.397  0.2026 -0.4151 -0.1438
 8334TIP3    H149197   7.066   0.299   1.345  0.4259 -0.0069 -0.0186
 8334TIP3    H249198   7.098   0.259   1.487 -0.6767 -1.8080 -0.2438
 8335TIP3   OH249199   0.128   4.997   0.839  0.9971 -0.1356  0.1617
 8335TIP3    H149200   0.122   4.906   0.811  1.5943 -0.0742 -0.2116
 8335TIP3    H249201   0.165   5.042   0.763  2.1061  0.1465  0.8351
 8336TIP3   OH249202   5.092   6.907   9.224  0.3283  0.1769  0.2068
 8336TIP3    H149203   5.032   6.888   9.151 -1.3446  0.3503  1.4779
 8336TIP3    H249204   5.069   6.996   9.251  1.1414  0.2246  0.7826
 8337TIP3   OH249205   0.414   2.181   2.057 -0.4514  0.2146 -0.1598
 8337TIP3    H149206   0.405   2.248   1.989 -0.9134  1.0587  0.7171
 8337TIP3    H249207   0.504   2.149   2.047  0.0434  1.5176 -0.1002
 8338TIP3   OH249208   0.322   4.418   2.404  0.3341  0.1014 -0.0690
 8338TIP3    H149209   0.228   4.436   2.408 -0.3959 -1.8793 -3.7407
 8338TIP3    H249210   0.337   4.354   2.472 -0.7814  0.9830  1.0556
 8339TIP3   OH249211   0.148   0.779   1.032  0.3054  0.1663 -0.1104
 8339TIP3    H149212   0.222   0.761   0.975 -0.3116 -0.9971 -0.5772
 8339TIP3    H249213   0.171   0.739   1.116 -0.1806 -1.0598 -0.5398
 8340TIP3   OH249214   2.800   1.022   2.926 -0.4608  0.5373 -0.2060
 8340TIP3    H149215   2.877   1.056   2.880 -2.1167  1.9286 -2.1132
 8340TIP3    H249216   2.796   0.930   2.899  0.5114  0.4431 -0.0778
 8341TIP3   OH249217   2.182   1.473   2.936 -0.0088  0.0647  0.1324
 8341TIP3    H149218   2.156   1.401   2.879  0.0452 -0.3348  0.6025
 8341TIP3    H249219   2.100   1.505   2.974  0.0027 -0.0007  0.2138
 8342TIP3   OH249220   5.021   3.724   1.402  0.1616 -0.5035  0.0237
 8342TIP3    H149221   4.997   3.726   1.495 -0.9325  1.1315 -0.2453
 8342TIP3    H249222   4.950   3.674   1.360  0.0746 -0.3089 -0.0637
 8343TIP3   OH249223   0.328   6.377   3.609  0.0373 -0.6417  0.0670
 8343TIP3    H149224   0.270   6.450   3.632  0.1657 -0.5243  0.0166
 8343TIP3    H249225   0.274   6.299   3.622 -0.0508 -0.5468  0.2766
 8344TIP3   OH249226   5.176   5.013   1.896  0.5240 -0.1395 -0.6316
 8344TIP3    H149227   5.194   4.924   1.924  0.8046  0.0497 -0.1977
 8344TIP3    H249228   5.088   5.009   1.856 -0.3285 -0.2397  1.1713
 8345TIP3   OH249229   1.245   5.282   2.421  0.0133 -0.4108 -0.6819
 8345TIP3    H149230   1.279   5.276   2.331  0.2750 -0.9290 -0.5528
 8345TIP3    H249231   1.150   5.287   2.410  0.0090 -0.9478 -0.9802
 8346TIP3   OH249232   0.145   5.398   1.675 -0.0093  0.7380 -0.0895
 8346TIP3    H149233   0.232   5.359   1.688 -0.0171  1.1385  1.2847
 8346TIP3    H249234   0.162   5.478   1.625  0.1245 -0.3589 -1.9181
 8347TIP3   OH249235   4.628   2.067   0.945 -0.3231 -0.2034  0.1997
 8347TIP3    H149236   4.673   2.118   1.013  0.5468  0.2505 -0.6889
 8347TIP3    H249237   4.654   1.977   0.961 -0.4599 -0.1515  0.7214
 8348TIP3   OH249238   1.706   1.760   9.212 -0.5149 -0.1097 -0.0196
 8348TIP3    H149239   1.737   1.850   9.208  2.8086 -1.1034  0.2694
 8348TIP3    H249240   1.670   1.743   9.125  0.5121  0.9698 -0.6760
 8349TIP3   OH249241   1.289   3.107   2.066 -0.5821  0.3592 -0.2022
 8349TIP3    H149242   1.269   3.135   2.155  0.8061 -1.5649  0.7575
 8349TIP3    H249243   1.235   3.029   2.052  1.6838 -1.4040  0.2913
 8350TIP3   OH249244   5.161   6.941   1.861  0.7462 -0.2122 -0.0701
 8350TIP3    H149245   5.070   6.953   1.833  0.9722  0.0516 -0.7074
 8350TIP3    H249246   5.172   6.846   1.866  0.5104 -0.2502 -0.2414
 8351TIP3   OH249247   6.031   1.579   2.216 -0.7265  0.1464  0.0666
 8351TIP3    H149248   6.079   1.496   2.229 -0.1469  0.5805  0.8283
 8351TIP3    H249249   6.046   1.601   2.125 -0.3286 -0.2600  0.0253
 8352TIP3   OH249250   2.356   0.870   3.018  0.1899 -0.3598  0.3430
 8352TIP3    H149251   2.335   0.912   2.934  0.5621  0.8295  0.8256
 8352TIP3    H249252   2.328   0.779   3.007  0.1786 -0.2069 -1.0495
 8353TIP3   OH249253   7.466   2.693   1.943  0.2231 -0.1343 -0.1273
 8353TIP3    H149254   7.519   2.768   1.968  0.2180 -0.1376 -0.1068
 8353TIP3    H249255   7.497   2.622   1.999  0.9118 -0.4040 -0.8316
 8354TIP3   OH249256   6.514   5.761   1.060 -0.3329  0.0040  0.1506
 8354TIP3    H149257   6.555   5.811   1.130  0.1641 -1.8172  1.2195
 8354TIP3    H249258   6.524   5.816   0.982  0.0206  1.6086  1.2849
 8355TIP3   OH249259   1.598   5.548   2.242  0.0640 -0.2597  0.1480
 8355TIP3    H149260   1.642   5.632   2.231 -0.5214  0.1678  0.9716
 8355TIP3    H249261   1.642   5.509   2.318 -1.1436  0.3013  1.1672
 8356TIP3   OH249262   0.433   3.668   1.865 -0.9521  0.1406 -0.1680
 8356TIP3    H149263   0.415   3.578   1.838  0.7440  0.1777 -1.6092
 8356TIP3    H249264   0.396   3.722   1.794 -1.7955  0.5894  0.5933
 8357TIP3   OH249265   2.953   4.313   2.616  0.1882  0.5851  0.2702
 8357TIP3    H149266   2.917   4.348   2.698 -1.6722  0.2079 -0.3361
 8357TIP3    H249267   3.011   4.243   2.644  0.4126  1.1528  1.3043
 8358TIP3   OH249268   3.230   4.608   2.814 -0.2550 -0.6645  0.2610
 8358TIP3    H149269   3.306   4.550   2.826  2.0035  1.9702 -0.1609
 8358TIP3    H249270   3.195   4.619   2.903  0.4366 -1.1955  0.6138
 8359TIP3   OH249271   0.541   3.581   2.546  0.2489 -0.3987 -0.0346
 8359TIP3    H149272   0.604   3.513   2.570  0.7308 -0.6376 -1.8086
 8359TIP3    H249273   0.533   3.635   2.624  0.6609 -1.8799  1.0696
 8360TIP3   OH249274   3.909   6.538   3.033  0.0154  0.1875 -0.2890
 8360TIP3    H149275   4.003   6.549   3.026 -0.0037  0.5078 -0.1027
 8360TIP3    H249276   3.895   6.513   3.125  0.0885 -1.8429 -0.7787
 8361TIP3   OH249277   6.254   0.123   3.351 -0.1091  0.0386  0.7042
 8361TIP3    H149278   6.207   0.189   3.300  1.3695 -0.4716 -1.4740
 8361TIP3    H249279   6.332   0.170   3.383  0.2161 -0.2735  0.3757
 8362TIP3   OH249280   6.139   3.616   2.274 -0.2320 -0.0433 -0.0584
 8362TIP3    H149281   6.221   3.619   2.226 -0.1028  1.6801  0.1790
 8362TIP3    H249282   6.146   3.540   2.332  0.5708 -0.7610 -1.0748
 8363TIP3   OH249283   6.126   0.816   1.227  0.3077 -0.3356  0.0018
 8363TIP3    H149284   6.113   0.773   1.142  2.0174 -1.1186  0.0908
 8363TIP3    H249285   6.195   0.880   1.210  0.2741 -0.1184  0.6838
 8364TIP3   OH249286   5.721   1.509   2.024  0.2285  1.0405  0.4474
 8364TIP3    H149287   5.784   1.438   2.037 -0.4138  0.3365 -0.1918
 8364TIP3    H249288   5.772   1.580   1.984  1.2547  1.6009  2.5917
 8365TIP3   OH249289   0.736   3.160   0.940  0.4016  0.4208 -0.8907
 8365TIP3    H149290   0.807   3.120   0.990  0.1855  0.6935 -0.3532
 8365TIP3    H249291   0.758   3.253   0.937 -1.4691  1.1190  2.0672
 8366TIP3   OH249292   1.077   4.766   2.094  0.3339 -0.2021 -0.1387
 8366TIP3    H149293   1.030   4.691   2.131  0.5168 -0.6452 -0.7789
 8366TIP3    H249294   1.148   4.783   2.155  0.4816 -0.7562 -0.1540
 8367TIP3   OH249295   6.072   5.041   1.558  0.3689  0.0858  0.3034
 8367TIP3    H149296   6.046   5.130   1.536  0.4300 -0.0311 -0.2561
 8367TIP3    H249297   6.044   5.029   1.648 -2.2126 -0.2893 -0.4831
 8368TIP3   OH249298   6.433   4.030   2.047 -0.2053 -0.1055  0.0564
 8368TIP3    H149299   6.351   4.070   2.019 -1.4711 -3.4420 -1.4843
 8368TIP3    H249300   6.496   4.055   1.978 -0.0930  1.6199  0.7207
 8369TIP3   OH249301   6.204   0.355   2.517 -0.1269  0.5838 -1.1566
 8369TIP3    H149302   6.261   0.297   2.466  0.1783 -2.1043  1.9426
 8369TIP3    H249303   6.264   0.405   2.572 -0.5501 -0.9215  0.7827
 8370TIP3   OH249304   0.557   6.460   3.456 -0.2863  0.5312  0.1703
 8370TIP3    H149305   0.476   6.433   3.498  0.1387 -0.6094  0.2860
 8370TIP3    H249306   0.621   6.393   3.480  0.0529  0.0052 -1.9995
 8371TIP3   OH249307   5.219   4.142   0.944  0.1487 -0.2369 -0.0545
 8371TIP3    H149308   5.291   4.204   0.933  0.3075 -0.3153  0.5422
 8371TIP3    H249309   5.189   4.125   0.854  2.2312 -1.8287 -0.5300
 8372TIP3   OH249310   4.136   5.798   2.287  0.4817 -1.3234  0.2967
 8372TIP3    H149311   4.123   5.770   2.378 -2.6164  0.0855  0.4072
 8372TIP3    H249312   4.223   5.838   2.287  0.8791 -2.0158  2.4404
 8373TIP3   OH249313   0.575   4.644   0.960 -0.4300  0.6801  0.1656
 8373TIP3    H149314   0.527   4.670   1.039 -1.2534 -1.5335  0.4897
 8373TIP3    H249315   0.519   4.671   0.888 -2.3124 -1.8300  0.5399
 8374TIP3   OH249316   2.635   6.565   1.287 -0.1249  0.2201 -0.3814
 8374TIP3    H149317   2.676   6.527   1.210  0.8654  1.5057 -0.5291
 8374TIP3    H249318   2.648   6.500   1.356 -2.0477 -1.4701 -1.5047
 8375TIP3   OH249319   3.820   1.745   2.627 -0.3242  0.2314  0.3969
 8375TIP3    H149320   3.760   1.715   2.559 -0.3216 -1.3601  1.0612
 8375TIP3    H249321   3.768   1.807   2.678 -1.5311 -1.3106  1.1206
 8376TIP3   OH249322   1.186   0.794   1.537 -0.0368  0.4377  0.0501
 8376TIP3    H149323   1.177   0.889   1.532 -4.0784  0.4091  2.1767
 8376TIP3    H249324   1.099   0.761   1.514  1.0180 -2.7240  0.1451
 8377TIP3   OH249325   4.074   2.774   2.518  0.0290  0.4205 -1.0433
 8377TIP3    H149326   4.002   2.838   2.522  0.3338  0.7047  0.5031
 8377TIP3    H249327   4.038   2.695   2.558  1.1132  1.1657  1.6073
 8378TIP3   OH249328   6.728   7.220   0.613 -0.1647 -0.3979 -0.1355
 8378TIP3    H149329   6.761   7.300   0.571  0.2628 -0.0904  0.7614
 8378TIP3    H249330   6.779   7.149   0.572  0.0065 -0.1383 -0.3750
 8379TIP3   OH249331   1.060   3.538   1.829 -0.3934 -0.2274  0.8526
 8379TIP3    H149332   1.084   3.583   1.910  0.5141  0.4382  0.2224
 8379TIP3    H249333   0.978   3.579   1.802  0.9207  1.8370 -0.2561
 8380TIP3   OH249334   4.428   7.553   1.065  0.2172  0.3067  0.1013
 8380TIP3    H149335   4.395   7.632   1.108 -1.7424 -0.4449  0.0938
 8380TIP3    H249336   4.520   7.571   1.050  0.4132  1.6002  2.3550
 8381TIP3   OH249337   5.878   0.900   1.013  0.1151 -0.3168  0.2337
 8381TIP3    H149338   5.962   0.855   1.006  0.2600  0.0619 -0.4908
 8381TIP3    H249339   5.848   0.880   1.102  0.5000 -1.2700  0.1610
 8382TIP3   OH249340   1.156   1.015   2.416  0.2506  0.4283  0.7972
 8382TIP3    H149341   1.180   0.928   2.448  1.5834  0.1079 -0.9313
 8382TIP3    H249342   1.172   1.074   2.490  0.0161 -0.6833  1.7609
 8383TIP3   OH249343   0.245   5.034   2.364  0.3633  0.0469 -0.0381
 8383TIP3    H149344   0.216   5.107   2.310  0.2373  0.7130  0.9161
 8383TIP3    H249345   0.340   5.038   2.360  0.3795 -0.7535 -1.3057
 8384TIP3   OH249346   6.819   0.894   1.370  0.1393 -0.1199 -0.1572
 8384TIP3    H149347   6.910   0.892   1.399  0.1870  0.7836 -0.2049
 8384TIP3    H249348   6.769   0.917   1.449 -0.2900 -2.5263  0.3488
 8385TIP3   OH249349   4.057   5.865   3.525 -0.1176  0.5237 -0.1310
 8385TIP3    H149350   3.989   5.801   3.547  1.4894 -0.7525  1.3921
 8385TIP3    H249351   4.120   5.816   3.472  0.7456  1.0470  0.3849
 8386TIP3   OH249352   5.974   2.338   1.723 -0.4309 -0.4317 -0.0244
 8386TIP3    H149353   5.953   2.423   1.762 -0.3800  0.4365 -1.8131
 8386TIP3    H249354   5.901   2.320   1.665  0.1158 -1.0703 -0.5250
 8387TIP3   OH249355   5.389   2.071   1.327  0.3865  0.2109  0.4022
 8387TIP3    H149356   5.358   1.990   1.368 -2.9377  1.7797  1.3092
 8387TIP3    H249357   5.400   2.132   1.400 -1.0000  1.6814 -0.5705
 8388TIP3   OH249358   3.011   6.549   0.478  0.3070 -0.3199  0.5318
 8388TIP3    H149359   3.039   6.569   0.389  1.3802 -2.5398  0.2883
 8388TIP3    H249360   2.992   6.634   0.517 -1.7611  0.6629 -2.2589
 8389TIP3   OH249361   4.167   2.222   0.776 -0.1136  0.4241  0.0131
 8389TIP3    H149362   4.088   2.170   0.786  0.3713 -0.0288  1.7258
 8389TIP3    H249363   4.238   2.165   0.808  0.9032  0.8910 -1.2838
 8390TIP3   OH249364   4.198   5.097   3.389 -0.4654 -0.1650 -0.4127
 8390TIP3    H149365   4.114   5.110   3.433  0.2356 -1.5691  1.4487
 8390TIP3    H249366   4.192   5.009   3.351 -0.4710  0.4265 -1.8597
 8391TIP3   OH249367   1.214   2.497   1.594  0.2839 -0.4110 -0.1364
 8391TIP3    H149368   1.305   2.499   1.565 -0.2148  0.4068 -1.7892
 8391TIP3    H249369   1.175   2.577   1.557 -1.6702 -1.9021 -1.5691
 8392TIP3   OH249370   3.457   7.489   2.128 -0.0628  0.3725  0.2379
 8392TIP3    H149371   3.514   7.565   2.125 -2.4148  2.2671  0.5217
 8392TIP3    H249372   3.425   7.480   2.038  1.3449 -1.2934 -0.1503
 8393TIP3   OH249373   1.374   7.658   1.095 -0.0078 -0.8854  0.3038
 8393TIP3    H149374   1.433   7.648   1.170 -0.0127 -1.6520  0.2157
 8393TIP3    H249375   1.289   7.629   1.127 -0.2784 -0.0988  0.3331
 8394TIP3   OH249376   2.840   2.177   2.177  0.6298 -0.2538  0.0763
 8394TIP3    H149377   2.862   2.193   2.269  1.3746 -0.5544 -0.0407
 8394TIP3    H249378   2.922   2.194   2.129 -0.1285  1.3824 -0.7124
 8395TIP3   OH249379   0.822   0.201   2.283  0.2019 -0.2157  0.2706
 8395TIP3    H149380   0.733   0.228   2.262 -0.0270 -0.0130  1.4512
 8395TIP3    H249381   0.846   0.140   2.213 -0.3222  0.8215 -0.8562
 8396TIP3   OH249382   4.831   1.452   1.891 -0.0340 -0.5782 -0.1086
 8396TIP3    H149383   4.777   1.373   1.884  0.6601 -0.9804 -1.0577
 8396TIP3    H249384   4.869   1.462   1.804 -0.6554  1.2049 -0.2088
 8397TIP3   OH249385   7.078   4.770   1.885  0.2996 -0.6863 -0.2161
 8397TIP3    H149386   7.146   4.817   1.836  1.4597 -0.8717  1.1424
 8397TIP3    H249387   7.013   4.837   1.906  1.2140  0.0167  0.4391
 8398TIP3   OH249388   0.631   3.113   1.249  0.1731  0.2931  0.2820
 8398TIP3    H149389   0.669   3.040   1.298  1.1960  1.3195  1.0898
 8398TIP3    H249390   0.543   3.083   1.225  0.4169 -1.0316  0.9507
 8399TIP3   OH249391   6.111   4.680   1.319 -0.2670 -0.0318  0.5765
 8399TIP3    H149392   6.143   4.616   1.255  0.6386 -0.1879  1.1677
 8399TIP3    H249393   6.017   4.687   1.301  0.0082  0.1156 -0.9348
 8400TIP3   OH249394   0.176   2.805   3.091  0.0170 -0.5147  0.2138
 8400TIP3    H149395   0.218   2.880   3.133 -1.8545  0.2944  0.7509
 8400TIP3    H249396   0.246   2.740   3.083  1.8427  1.4430 -0.7619
 8401TIP3   OH249397   3.269   3.456   2.855  0.2636 -0.1118 -0.3385
 8401TIP3    H149398   3.277   3.362   2.837  0.0213 -0.0402 -0.8337
 8401TIP3    H249399   3.244   3.495   2.771 -1.9991  0.0977  0.3583
 8402TIP3   OH249400   7.484   2.452   3.088  0.4401 -0.1715 -0.2239
 8402TIP3    H149401   7.575   2.473   3.111  0.3177 -0.4461  0.5297
 8402TIP3    H249402   7.491   2.381   3.026  0.7475 -0.0946 -0.2788
 8403TIP3   OH249403   6.163   3.347   3.103 -0.4480  0.0158  0.0528
 8403TIP3    H149404   6.078   3.351   3.060 -0.4447  1.7529  0.1538
 8403TIP3    H249405   6.173   3.254   3.127 -1.6485 -0.4886 -1.2380
 8404TIP3   OH249406   1.615   2.629   1.300  0.3289 -0.6531 -0.2372
 8404TIP3    H149407   1.573   2.570   1.237  0.0517 -0.1245 -0.5569
 8404TIP3    H249408   1.705   2.636   1.269  0.2137 -0.4552 -0.5434
 8405TIP3   OH249409   7.293   1.659   0.805 -0.1964 -0.2187 -0.4971
 8405TIP3    H149410   7.300   1.749   0.772  0.2764 -0.4670 -1.0908
 8405TIP3    H249411   7.285   1.669   0.900 -2.1865  0.5275 -0.7029
 8406TIP3   OH249412   1.210   6.174   2.080  0.1432 -0.1030  0.7375
 8406TIP3    H149413   1.203   6.269   2.074 -2.3466 -0.2403  0.4245
 8406TIP3    H249414   1.158   6.151   2.157  0.1272 -1.2678  0.3982
 8407TIP3   OH249415   1.246   1.491   2.059  0.6620  0.0791 -0.2356
 8407TIP3    H149416   1.255   1.568   2.003  0.7723  0.0244 -0.2918
 8407TIP3    H249417   1.151   1.479   2.067  0.6472 -0.0191 -0.5555
 8408TIP3   OH249418   7.081   7.330   0.470 -0.3902 -0.0301  0.1469
 8408TIP3    H149419   7.003   7.347   0.418 -0.4050  0.8945  0.4519
 8408TIP3    H249420   7.067   7.242   0.506 -0.3503 -0.7119 -1.4152
 8409TIP3   OH249421   0.209   2.290   1.247 -0.1420 -0.3430 -0.0594
 8409TIP3    H149422   0.173   2.313   1.162  1.6753  2.6768 -0.1581
 8409TIP3    H249423   0.159   2.343   1.309  0.4264 -0.3499  0.4168
 8410TIP3   OH249424   4.833   6.289   3.334  0.1191  0.0786  0.1060
 8410TIP3    H149425   4.782   6.350   3.387  0.2053  0.9985 -0.8344
 8410TIP3    H249426   4.787   6.286   3.250  1.1883  0.3849 -0.5207
 8411TIP3   OH249427   4.464   7.037   1.843  0.0755  0.3024  0.2251
 8411TIP3    H149428   4.440   7.024   1.934  0.0049 -1.5303 -0.0069
 8411TIP3    H249429   4.553   7.071   1.846  0.0612  0.2761  0.9844
 8412TIP3   OH249430   1.978   3.027   2.667  0.4842  0.1840  0.6566
 8412TIP3    H149431   2.046   3.094   2.673  0.5898  0.1787 -0.2381
 8412TIP3    H249432   1.896   3.075   2.685  0.7006  0.2368  1.5007
 8413TIP3   OH249433   7.058   2.063   1.191 -0.5117 -0.3246 -0.2219
 8413TIP3    H149434   7.121   2.041   1.260 -0.3173 -1.0118 -0.6106
 8413TIP3    H249435   6.973   2.037   1.225 -0.4789 -0.2000 -0.0450
 8414TIP3   OH249436   3.323   5.478   2.799 -0.2874 -0.1625 -0.6077
 8414TIP3    H149437   3.314   5.543   2.868 -2.9155 -3.2919  2.4261
 8414TIP3    H249438   3.381   5.411   2.837  1.9314  0.0210 -3.3809
 8415TIP3   OH249439   3.202   1.181   2.118 -0.4360  0.1285  0.5049
 8415TIP3    H149440   3.259   1.158   2.045 -2.0135 -2.1962 -0.1170
 8415TIP3    H249441   3.186   1.098   2.164 -2.5852  0.8151  1.1418
 8416TIP3   OH249442   0.086   5.932   1.501  0.4892  0.3303 -0.4209
 8416TIP3    H149443   0.131   5.999   1.450  1.7202 -0.2729 -0.1651
 8416TIP3    H249444  -0.005   5.961   1.504  0.6718  1.1178 -1.7290
 8417TIP3   OH249445   1.047   4.019   0.313  0.4166  0.2989 -0.2327
 8417TIP3    H149446   1.057   3.927   0.288 -1.4270 -0.6753  2.1558
 8417TIP3    H249447   0.957   4.040   0.289 -0.2507  0.3890  2.0356
 8418TIP3   OH249448   0.154   5.315   3.400  0.3258 -0.0138  0.4001
 8418TIP3    H149449   0.095   5.333   3.327 -0.1213 -1.5875  0.3389
 8418TIP3    H249450   0.224   5.263   3.361  0.0556 -0.9157  1.0896
 8419TIP3   OH249451   1.120   0.734   3.300  0.3023 -0.2856 -0.5859
 8419TIP3    H149452   1.104   0.828   3.296  0.8277 -0.1887 -0.4660
 8419TIP3    H249453   1.057   0.701   3.365  0.3609  0.0370 -0.3656
 8420TIP3   OH249454   0.914   1.918   0.697 -0.7460  0.3154  0.4273
 8420TIP3    H149455   0.867   1.836   0.711 -0.3165 -0.3359 -1.6278
 8420TIP3    H249456   0.879   1.953   0.615 -0.1427  1.6360  0.6954
 8421TIP3   OH249457   6.417   2.958   2.226  0.2581 -0.3854  0.3781
 8421TIP3    H149458   6.408   2.890   2.160 -0.5839  1.0741 -1.0742
 8421TIP3    H249459   6.339   2.950   2.280  0.4344 -0.8989  0.5681
 8422TIP3   OH249460   3.258   7.614   1.170 -0.3959 -0.5196  0.2261
 8422TIP3    H149461   3.285   7.689   1.223  0.5218 -0.6427 -0.0574
 8422TIP3    H249462   3.236   7.546   1.234  0.9157 -0.7436  0.4675
 8423TIP3   OH249463   6.651   2.906   2.386  0.1845 -0.0456 -0.5045
 8423TIP3    H149464   6.561   2.902   2.353 -0.0616 -0.1939  0.1657
 8423TIP3    H249465   6.666   2.819   2.422  0.6353 -0.0490 -0.6992
 8424TIP3   OH249466   4.556   2.069   2.618  0.4825 -0.3812  0.8959
 8424TIP3    H149467   4.651   2.062   2.611  0.4419  0.9108 -2.8004
 8424TIP3    H249468   4.523   1.989   2.578  0.0564  0.3850 -0.3242
 8425TIP3   OH249469   2.592   1.941   2.268 -0.1469 -0.0271  0.0266
 8425TIP3    H149470   2.605   2.002   2.340  0.8063 -1.9402  1.5773
 8425TIP3    H249471   2.537   1.872   2.305 -0.5732 -0.5133 -1.4341
 8426TIP3   OH249472   4.966   4.539   1.786  0.2249  0.1485  0.0903
 8426TIP3    H149473   5.047   4.510   1.744 -0.5528 -1.8930 -0.1120
 8426TIP3    H249474   4.929   4.604   1.726  0.6438 -0.4922 -0.8846
 8427TIP3   OH249475   0.778   7.583   1.599  0.3769  0.1729 -0.4994
 8427TIP3    H149476   0.730   7.609   1.520 -0.2201  1.5140  0.2643
 8427TIP3    H249477   0.843   7.652   1.612 -0.4676  0.7440  0.9381
 8428TIP3   OH249478   2.747   1.108   1.195 -0.4991 -0.5458  0.0952
 8428TIP3    H149479   2.727   1.191   1.239  0.9687 -0.0849 -0.0434
 8428TIP3    H249480   2.843   1.105   1.193 -0.5332 -1.4819 -1.3286
 8429TIP3   OH249481   3.399   5.435   0.911 -0.1109 -0.0196  0.0091
 8429TIP3    H149482   3.357   5.520   0.924  0.4550  0.1154  1.0897
 8429TIP3    H249483   3.423   5.407   0.999  1.0997 -0.5747 -0.4757
 8430TIP3   OH249484   2.676   3.808   2.381 -0.1965 -0.4184 -0.2340
 8430TIP3    H149485   2.617   3.744   2.421 -0.0702 -2.6205 -3.2527
 8430TIP3    H249486   2.641   3.821   2.293  3.3554 -1.3183 -1.9597
 8431TIP3   OH249487   5.689   6.967   2.249  0.2411  0.0192  0.1256
 8431TIP3    H149488   5.683   6.917   2.330 -1.0244  1.0218  0.6964
 8431TIP3    H249489   5.727   6.907   2.186  1.2641 -0.7874  1.4590
 8432TIP3   OH249490   1.454   4.791   1.471  0.2932 -0.3541 -0.0537
 8432TIP3    H149491   1.472   4.831   1.556 -1.8930 -0.7531  0.6557
 8432TIP3    H249492   1.383   4.728   1.488  0.2085 -0.8750 -2.0566
 8433TIP3   OH249493   1.435   2.686   2.030  0.0783 -0.2524  0.0153
 8433TIP3    H149494   1.384   2.610   2.057  1.0306 -1.9190 -2.5605
 8433TIP3    H249495   1.526   2.660   2.043  0.4873 -0.3078 -2.4454
 8434TIP3   OH249496   6.279   1.356   1.925 -0.2002 -0.1322  0.0527
 8434TIP3    H149497   6.249   1.437   1.884 -2.2298 -1.4796 -1.2806
 8434TIP3    H249498   6.279   1.292   1.855 -0.8297 -1.8231  1.5130
 8435TIP3   OH249499   7.514   6.167   1.286 -0.1236 -0.2025 -0.0496
 8435TIP3    H149500   7.558   6.247   1.254  1.8602 -0.8271  0.9579
 8435TIP3    H249501   7.548   6.155   1.374 -1.5395 -1.3725  0.3652
 8436TIP3   OH249502   4.857   7.171   0.983 -0.0326  0.1029 -0.4816
 8436TIP3    H149503   4.763   7.173   0.969  0.2617  1.3080 -2.6267
 8436TIP3    H249504   4.884   7.263   0.984  1.1951 -0.2298 -0.4985
 8437TIP3   OH249505   1.427   0.855   2.174 -0.1013 -0.0542 -0.1818
 8437TIP3    H149506   1.506   0.826   2.218 -1.1677 -0.9563  1.1921
 8437TIP3    H249507   1.355   0.816   2.223 -1.4336  1.0339 -1.1660
 8438TIP3   OH249508   6.533   6.676   2.533  0.1515  0.8533 -0.2334
 8438TIP3    H149509   6.493   6.649   2.616  2.6023  0.2448  0.8559
 8438TIP3    H249510   6.543   6.771   2.541 -1.6653  1.1420 -0.8631
 8439TIP3   OH249511   0.621   4.580   3.010  0.2486 -0.3071 -0.2871
 8439TIP3    H149512   0.573   4.504   2.978  0.8116 -0.7725 -0.0329
 8439TIP3    H249513   0.669   4.613   2.933  0.2202 -0.3734 -0.3324
 8440TIP3   OH249514   2.943   6.857   1.124  0.1162  0.2570  0.1729
 8440TIP3    H149515   2.893   6.798   1.068  1.4967 -2.8802  1.9760
 8440TIP3    H249516   2.900   6.851   1.210  1.0989  0.7879  0.7253
 8441TIP3   OH249517   6.026   0.367   2.093 -0.5151 -0.8974  0.2299
 8441TIP3    H149518   5.981   0.409   2.019  0.9495  0.2295 -0.0668
 8441TIP3    H249519   5.970   0.387   2.168 -0.5591  0.4861 -0.1304
 8442TIP3   OH249520   1.715   0.381   2.471 -0.1652  0.3038  0.4404
 8442TIP3    H149521   1.684   0.293   2.496 -0.8086  0.8208  1.5442
 8442TIP3    H249522   1.731   0.425   2.554  0.2824  1.2045 -0.1055
 8443TIP3   OH249523   2.923   1.394   0.530  0.6490  0.0197 -0.2627
 8443TIP3    H149524   2.970   1.316   0.559  1.2426 -0.0265 -1.3073
 8443TIP3    H249525   2.959   1.465   0.583  0.4640 -0.3177  0.3354
 8444TIP3   OH249526   6.342   1.276   1.076  0.0033  0.2871  0.0631
 8444TIP3    H149527   6.392   1.349   1.111 -1.5887  1.2210  0.4993
 8444TIP3    H249528   6.322   1.302   0.986 -0.2400  0.2159  0.0961
 8445TIP3   OH249529   2.563   3.260   2.001 -0.2472 -0.1004  0.4507
 8445TIP3    H149530   2.652   3.242   1.971 -0.8353  0.1883 -1.5693
 8445TIP3    H249531   2.535   3.178   2.042  0.0533 -1.0524 -1.1960
 8446TIP3   OH249532   5.911   5.417   2.006  0.1593 -0.2396  0.3606
 8446TIP3    H149533   5.826   5.398   1.965 -0.7717  0.4250  1.8792
 8446TIP3    H249534   5.961   5.336   1.996 -0.6332 -0.6266 -0.6233
 8447TIP3   OH249535   4.176   6.418   2.646  0.2817 -0.1123  0.0248
 8447TIP3    H149536   4.093   6.466   2.649  0.3045 -0.1283  1.5036
 8447TIP3    H249537   4.153   6.331   2.613  0.0480  0.4782 -1.4649
 8448TIP3   OH249538   5.834   2.561   1.845 -0.3116  0.7637  0.2644
 8448TIP3    H149539   5.871   2.563   1.933 -0.3691  0.3585  0.2998
 8448TIP3    H249540   5.739   2.551   1.859 -0.2723  0.2398  0.1475
 8449TIP3   OH249541   3.460   4.082   0.922  0.1338 -0.4431  0.2094
 8449TIP3    H149542   3.491   4.156   0.973 -1.2729  0.0616  0.3816
 8449TIP3    H249543   3.512   4.084   0.842 -0.4987  1.3065 -0.2019
 8450TIP3   OH249544   4.125   2.425   2.416 -0.1633  0.0232 -0.2354
 8450TIP3    H149545   4.202   2.388   2.459 -1.1934  0.6892  2.4074
 8450TIP3    H249546   4.160   2.484   2.350  1.5345 -1.4382 -0.7023
 8451TIP3   OH249547   5.634   6.205   1.707 -0.4256  0.3522 -0.1337
 8451TIP3    H149548   5.638   6.278   1.645 -2.3619  0.4514 -0.1918
 8451TIP3    H249549   5.594   6.133   1.657  0.2099 -0.3277  0.3195
 8452TIP3   OH249550   2.457   7.671   2.403 -0.3888  0.2811  0.2668
 8452TIP3    H149551   2.472   7.579   2.425 -0.1119  0.1058 -0.6172
 8452TIP3    H249552   2.478   7.677   2.310  1.9237  1.7370  0.8118
 8453TIP3   OH249553   3.087   5.407   0.851  0.2631  0.1449 -0.2700
 8453TIP3    H149554   3.181   5.393   0.835  0.1560 -0.2723 -0.5529
 8453TIP3    H249555   3.082   5.495   0.888  0.8379 -0.0827  0.3865
 8454TIP3   OH249556   1.338   0.500   1.590 -1.2150  0.0149 -0.4907
 8454TIP3    H149557   1.286   0.421   1.575 -1.8166  0.3854 -0.3590
 8454TIP3    H249558   1.421   0.483   1.544 -1.1854 -0.8518 -0.1322
 8455TIP3   OH249559   2.217   2.646   2.446  0.0545 -0.5530  0.1943
 8455TIP3    H149560   2.266   2.678   2.521 -0.5480 -2.3976  1.4645
 8455TIP3    H249561   2.282   2.599   2.394 -0.0805 -2.1248  1.3495
 8456TIP3   OH249562   0.778   4.880   0.916  0.3699  0.1144 -0.1530
 8456TIP3    H149563   0.725   4.808   0.881 -0.0427  1.1407 -1.7283
 8456TIP3    H249564   0.850   4.837   0.961  1.1067 -1.3178 -2.5588
 8457TIP3   OH249565   5.242   5.496   1.568  0.2570  0.1165 -0.6843
 8457TIP3    H149566   5.173   5.550   1.530  0.6200  1.5720  0.6051
 8457TIP3    H249567   5.323   5.539   1.540  0.5613  0.1587  0.2270
 8458TIP3   OH249568   6.857   2.717   1.621  0.0992  0.2081 -0.0030
 8458TIP3    H149569   6.828   2.650   1.682 -0.7264 -0.1595 -0.7803
 8458TIP3    H249570   6.880   2.669   1.541 -0.3062  0.8169 -0.4962
 8459TIP3   OH249571   4.534   3.885   3.347 -0.1757 -0.2784 -0.6375
 8459TIP3    H149572   4.536   3.812   3.408 -0.7625  2.8151  3.4707
 8459TIP3    H249573   4.620   3.885   3.305  1.0705 -1.4007  1.7832
 8460TIP3   OH249574   2.644   2.126   1.601 -0.4373 -0.6250 -0.4761
 8460TIP3    H149575   2.692   2.209   1.608  0.2052 -1.0968  1.0372
 8460TIP3    H249576   2.576   2.131   1.668  0.4266 -1.8200  0.5305
 8461TIP3   OH249577   2.241   0.942   2.491  1.0817  0.1230 -0.7142
 8461TIP3    H149578   2.171   1.001   2.463  1.6293  1.3349  0.3944
 8461TIP3    H249579   2.225   0.862   2.441 -0.8197  0.5228 -0.8535
 8462TIP3   OH249580   2.434   4.078   1.259  0.1151  0.1569 -0.2305
 8462TIP3    H149581   2.441   4.086   1.164 -0.9207  1.3955 -0.2367
 8462TIP3    H249582   2.511   4.123   1.293 -0.1698  0.8407 -0.4756
 8463TIP3   OH249583   4.179   3.530   2.556 -0.2479 -0.1001 -0.8731
 8463TIP3    H149584   4.210   3.562   2.471 -0.1637 -0.2980 -0.9177
 8463TIP3    H249585   4.169   3.436   2.545  0.3687 -0.2186 -0.4820
 8464TIP3   OH249586   2.071   6.397   2.089  0.2677  0.8427  0.4609
 8464TIP3    H149587   2.054   6.303   2.090 -0.3001  0.8022 -2.5352
 8464TIP3    H249588   2.048   6.427   2.177  1.6915 -1.9525  1.9188
 8465TIP3   OH249589   4.723   3.346   1.999  0.0221  0.6460  0.1724
 8465TIP3    H149590   4.687   3.310   1.918 -0.1360 -0.4054  0.6989
 8465TIP3    H249591   4.817   3.354   1.982  0.1610 -0.6273  0.2594
 8466TIP3   OH249592   4.397   2.376   1.193 -0.2230  0.2943 -0.0900
 8466TIP3    H149593   4.387   2.318   1.117  1.1732 -0.8976  0.5770
 8466TIP3    H249594   4.440   2.454   1.159 -0.8563  0.3681 -0.7538
 8467TIP3   OH249595   5.648   6.126   1.990 -0.2661 -0.0580 -0.3253
 8467TIP3    H149596   5.649   6.031   1.977 -0.0164 -0.1684  0.4546
 8467TIP3    H249597   5.638   6.162   1.902 -0.6703 -0.8135 -0.5960
 8468TIP3   OH249598   7.437   1.708   0.480  0.2963  0.2208 -0.4192
 8468TIP3    H149599   7.360   1.765   0.475  0.2236  0.0866 -0.9052
 8468TIP3    H249600   7.406   1.623   0.446  0.9527  0.4898 -1.7584
 8469TIP3   OH249601   5.068   7.150   2.944 -0.4423 -0.6591  0.0572
 8469TIP3    H149602   5.026   7.104   3.017  1.1831  0.2678  1.6318
 8469TIP3    H249603   4.996   7.167   2.883 -1.8850 -1.3155  1.4927
 8470TIP3   OH249604   2.103   6.728   2.172  0.7645 -0.0136  0.2489
 8470TIP3    H149605   2.170   6.795   2.179  1.6226 -0.9211  1.0571
 8470TIP3    H249606   2.151   6.645   2.182 -0.1995 -0.7716 -1.1148
 8471TIP3   OH249607   1.397   0.971   2.575  0.0494  0.8368 -0.5455
 8471TIP3    H149608   1.419   0.970   2.668  1.9081 -3.2436 -0.8254
 8471TIP3    H249609   1.456   1.035   2.536 -1.5863  3.5162  1.0986
 8472TIP3   OH249610   4.401   0.722   2.868  0.3650  0.3856  0.2113
 8472TIP3    H149611   4.445   0.646   2.906  0.3625  0.6117  0.6803
 8472TIP3    H249612   4.309   0.695   2.863  0.2475  0.6050  1.0368
 8473TIP3   OH249613   0.398   1.970   0.880 -0.5789  0.1915  0.5521
 8473TIP3    H149614   0.387   1.882   0.844  0.9454  1.3099 -3.0764
 8473TIP3    H249615   0.488   1.972   0.911  0.0460  0.9664 -1.1928
 8474TIP3   OH249616   4.060   3.669   2.787 -0.1279  0.3522  0.3543
 8474TIP3    H149617   4.085   3.620   2.709  1.9175 -1.3835  1.9600
 8474TIP3    H249618   4.011   3.606   2.841 -1.6214  1.5515  0.4651
 8475TIP3   OH249619   2.529   3.728   1.721 -0.4233  0.1015 -0.2968
 8475TIP3    H149620   2.488   3.766   1.643 -0.9716 -0.2118 -0.1623
 8475TIP3    H249621   2.531   3.800   1.784  1.9510  1.0056 -1.2695
 8476TIP3   OH249622   1.574   5.774   1.904 -0.2274 -0.3053  0.0493
 8476TIP3    H149623   1.564   5.845   1.840  0.4260  0.3465  0.6455
 8476TIP3    H249624   1.638   5.715   1.864 -0.5052 -0.3727 -0.2950
 8477TIP3   OH249625   2.972   3.052   0.463  0.0136  0.1071 -0.1571
 8477TIP3    H149626   2.907   2.989   0.430  0.3250 -0.6806  0.6806
 8477TIP3    H249627   2.922   3.132   0.478 -1.6869 -1.3887  3.7600
 8478TIP3   OH249628   4.829   6.734   1.991 -0.1015  0.1198 -0.0383
 8478TIP3    H149629   4.759   6.669   1.993  0.3079 -0.3222 -0.1423
 8478TIP3    H249630   4.792   6.809   2.039 -0.8536  0.1054 -0.5649
 8479TIP3   OH249631   6.913   3.188   1.998  0.5491  0.5622 -0.8973
 8479TIP3    H149632   6.903   3.275   1.960 -0.8312  0.7474 -0.1671
 8479TIP3    H249633   6.938   3.205   2.089  0.1927  0.1993 -0.7290
 8480TIP3   OH249634   6.981   2.162   1.578  0.0908  0.3476 -0.7056
 8480TIP3    H149635   6.981   2.078   1.624 -0.0031  2.6369  4.1194
 8480TIP3    H249636   6.888   2.183   1.567  0.1090  0.3554 -0.8466
 8481TIP3   OH249637   6.275   0.136   1.320  0.9255  0.2785  0.0123
 8481TIP3    H149638   6.198   0.179   1.281  1.6278 -0.2980 -2.1920
 8481TIP3    H249639   6.348   0.168   1.268  1.8812 -0.9518  0.5630
 8482TIP3   OH249640   6.433   3.213   2.126 -0.2496 -0.3477 -0.4897
 8482TIP3    H149641   6.433   3.126   2.164  1.0986 -1.3999 -2.7322
 8482TIP3    H249642   6.375   3.207   2.050 -0.0418  0.6659 -0.7520
 8483TIP3   OH249643   2.842   6.283   0.726  0.0581  0.0879  0.0917
 8483TIP3    H149644   2.860   6.307   0.817 -1.0241  0.5928  0.1863
 8483TIP3    H249645   2.928   6.282   0.684  0.4482  1.0482  0.8361
 8484TIP3   OH249646   2.610   1.178   2.815 -0.4447  0.2700 -0.2109
 8484TIP3    H149647   2.587   1.123   2.740  0.2674 -2.7473  1.5938
 8484TIP3    H249648   2.673   1.126   2.865 -1.8370  1.4900  3.1560
 8485TIP3   OH249649   3.859   6.308   2.005  0.0792 -0.6019 -0.1095
 8485TIP3    H149650   3.861   6.237   1.940  1.0081 -2.4195  1.8041
 8485TIP3    H249651   3.779   6.291   2.055  0.3342 -0.3158  0.3897
 8486TIP3   OH249652   0.161   1.663   2.761  0.2314  0.0683  0.1621
 8486TIP3    H149653   0.087   1.719   2.737  1.4624  0.8607 -2.0705
 8486TIP3    H249654   0.121   1.577   2.778 -1.3592  0.8759  0.7604
 8487TIP3   OH249655   3.604   5.359   1.791 -0.3327  0.2112 -0.2558
 8487TIP3    H149656   3.660   5.304   1.737 -1.4161 -0.9990 -0.2034
 8487TIP3    H249657   3.591   5.439   1.739  2.3433  1.0880  0.2401
 8488TIP3   OH249658   2.592   7.598   0.653 -0.0644 -0.1560 -0.2022
 8488TIP3    H149659   2.643   7.587   0.733  0.2552 -1.0021 -0.5137
 8488TIP3    H249660   2.503   7.577   0.678  0.0388 -0.4403 -0.0749
 8489TIP3   OH249661   7.562   2.635   0.492 -0.3301 -0.3293  0.0136
 8489TIP3    H149662   7.621   2.662   0.422  0.0276 -0.3963  0.2873
 8489TIP3    H249663   7.615   2.639   0.572 -1.1670  1.3972  0.5421
 8490TIP3   OH249664   7.665   4.520   0.829  0.3157  0.7874 -0.1550
 8490TIP3    H149665   7.676   4.426   0.813  0.8481  0.7821  0.2395
 8490TIP3    H249666   7.574   4.527   0.861  0.2835  0.4025 -0.1474
 8491TIP3   OH249667   4.004   1.674   2.408 -0.1721  0.1471  0.0922
 8491TIP3    H149668   4.062   1.639   2.475  0.2536  0.5347 -0.0715
 8491TIP3    H249669   3.940   1.726   2.457 -1.3664 -1.5429  0.4361
 8492TIP3   OH249670   6.507   7.566   2.288  0.4509  0.1283 -0.8984
 8492TIP3    H149671   6.555   7.540   2.209 -0.5712  1.9376 -2.1665
 8492TIP3    H249672   6.423   7.598   2.256 -0.8547 -1.0208  1.1163
 8493TIP3   OH249673   3.834   5.231   1.353 -0.4154 -0.1286  0.5406
 8493TIP3    H149674   3.807   5.247   1.444  1.4204 -1.9460  1.4936
 8493TIP3    H249675   3.817   5.138   1.339 -2.0739  0.4200 -1.5637
 8494TIP3   OH249676   2.554   2.810   1.900  0.0167 -0.4961 -0.1454
 8494TIP3    H149677   2.515   2.892   1.871  0.3518 -0.6776 -1.1198
 8494TIP3    H249678   2.528   2.802   1.992  1.6380  1.7085  0.5932
 8495TIP3   OH249679   7.582   5.208   2.258 -0.1498  0.3603 -0.0306
 8495TIP3    H149680   7.557   5.131   2.207 -2.8469  0.5182  0.8961
 8495TIP3    H249681   7.596   5.175   2.347 -0.3222  0.7827  0.1592
 8496TIP3   OH249682   0.402   2.288   1.797 -0.1051 -0.1166  0.2548
 8496TIP3    H149683   0.398   2.248   1.710 -2.2606  0.1142  0.1908
 8496TIP3    H249684   0.366   2.376   1.784  0.7180  0.3660  1.1657
 8497TIP3   OH249685   2.086   0.529   2.115 -0.2092  0.4433 -0.1410
 8497TIP3    H149686   2.050   0.449   2.153  0.1772 -0.4378 -1.5257
 8497TIP3    H249687   2.014   0.563   2.061 -0.1430  0.6316 -0.1084
 8498TIP3   OH249688   0.940   1.712   1.259 -0.6951  0.1535 -0.0565
 8498TIP3    H149689   0.930   1.640   1.323 -0.3327 -0.8324 -1.0755
 8498TIP3    H249690   1.035   1.726   1.255 -0.7601  0.6432  0.0667
 8499TIP3   OH249691   3.269   2.959   0.718  0.1443 -0.7190  0.0219
 8499TIP3    H149692   3.304   2.922   0.800  1.1543  0.1901  0.0137
 8499TIP3    H249693   3.242   3.048   0.741  0.8417 -0.3072 -0.7344
 8500TIP3   OH249694   5.729   7.007   2.709  0.2402 -0.0722 -0.1158
 8500TIP3    H149695   5.668   7.080   2.700  0.7392  0.4611  0.6886
 8500TIP3    H249696   5.691   6.954   2.780  0.8790  0.4553  0.6404
 8501TIP3   OH249697   1.278   6.374   0.863  0.4487 -0.0006  0.5493
 8501TIP3    H149698   1.220   6.450   0.853  0.3486 -0.1008  0.3602
 8501TIP3    H249699   1.365   6.412   0.876  0.2710  0.1571  1.3090
 8502TIP3   OH249700   3.478   7.355   2.365  0.3085 -0.9018  0.0735
 8502TIP3    H149701   3.471   7.441   2.407  2.9128 -0.8829  0.6123
 8502TIP3    H249702   3.447   7.369   2.275 -0.0783  0.3845  0.3914
 8503TIP3   OH249703   0.473   6.046   1.154 -0.1120  0.0399 -0.6493
 8503TIP3    H149704   0.533   6.024   1.226 -0.8024 -1.6383 -0.5445
 8503TIP3    H249705   0.389   6.063   1.197 -0.8515 -2.2087 -1.0782
 8504TIP3   OH249706   5.112   5.323   1.883  0.3624  0.0115 -0.0382
 8504TIP3    H149707   5.045   5.349   1.821  2.0265  1.0977 -1.4908
 8504TIP3    H249708   5.152   5.245   1.844 -0.1416 -0.7226  0.8884
 8505TIP3   OH249709   6.125   3.063   1.281 -0.7700 -0.0907 -0.1619
 8505TIP3    H149710   6.034   3.059   1.308 -0.1645  0.3707  2.0911
 8505TIP3    H249711   6.127   3.127   1.210 -1.9935  0.9690  0.7290
 8506TIP3   OH249712   5.496   5.562   2.850 -0.1822  0.2349  0.0392
 8506TIP3    H149713   5.564   5.499   2.873  1.2945  2.0273  0.8875
 8506TIP3    H249714   5.513   5.637   2.907 -1.9103  1.3911 -0.8743
 8507TIP3   OH249715   5.695   3.540   1.754 -0.0380 -0.2706 -0.0783
 8507TIP3    H149716   5.739   3.538   1.839  1.7317 -0.4403 -0.9411
 8507TIP3    H249717   5.648   3.457   1.748 -1.5888  0.4422  1.3918
 8508TIP3   OH249718   1.051   2.328   3.108 -0.3122  0.7539  0.2386
 8508TIP3    H149719   1.115   2.263   3.138  0.2357  1.3995  0.4859
 8508TIP3    H249720   1.014   2.364   3.188  0.2250  1.5628  0.1398
 8509TIP3   OH249721   3.263   1.712   1.601 -0.2744 -0.2233  0.7501
 8509TIP3    H149722   3.295   1.787   1.551 -2.2571 -0.5708 -1.1931
 8509TIP3    H249723   3.342   1.670   1.636  1.2731  0.0298 -2.1517
 8510TIP3   OH249724   2.814   5.152   2.944  0.7744  0.4838  0.4994
 8510TIP3    H149725   2.906   5.136   2.924  0.9885  2.8678 -0.7895
 8510TIP3    H249726   2.793   5.235   2.900 -1.8554  0.2931  1.1767
 8511TIP3   OH249727   3.362   4.413   1.100  0.1750  0.0369  0.8005
 8511TIP3    H149728   3.449   4.394   1.135  1.9184  1.2068 -2.4644
 8511TIP3    H249729   3.376   4.481   1.034 -3.0219 -0.6040 -0.7964
 8512TIP3   OH249730   1.257   4.190   0.372  0.4615  0.5471 -0.3225
 8512TIP3    H149731   1.220   4.276   0.391  1.0614  0.8311 -0.4340
 8512TIP3    H249732   1.182   4.137   0.346 -0.6488 -0.1618  3.6383
 8513TIP3   OH249733   6.782   7.045   1.975 -0.4038  0.3236  0.3826
 8513TIP3    H149734   6.701   7.064   2.023 -0.0612  1.4315  0.5668
 8513TIP3    H249735   6.786   6.950   1.970 -2.4205  0.2467 -0.8404
 8514TIP3   OH249736   2.857   2.521   2.990  0.2088  0.0928  0.2771
 8514TIP3    H149737   2.811   2.556   3.067 -0.9369 -0.2512 -0.2357
 8514TIP3    H249738   2.838   2.583   2.920 -1.9260 -1.4798 -0.6678
 8515TIP3   OH249739   4.591   4.238   2.843  0.1383  0.2466  0.2681
 8515TIP3    H149740   4.562   4.241   2.934  0.2079  2.6422  0.2967
 8515TIP3    H249741   4.518   4.199   2.795 -0.9648  1.2949  1.0402
 8516TIP3   OH249742   1.925   6.587   1.912  0.1085  0.6523  0.4352
 8516TIP3    H149743   1.840   6.554   1.939  0.6360 -1.3171 -0.1268
 8516TIP3    H249744   1.988   6.524   1.949  1.3684  2.2670  1.1708
 8517TIP3   OH249745   4.358   5.323   1.236 -0.0371  0.6116  0.1341
 8517TIP3    H149746   4.307   5.330   1.155  1.1255  1.8720 -0.5345
 8517TIP3    H249747   4.305   5.368   1.301 -0.0643  1.4197 -0.4241
 8518TIP3   OH249748   4.536   1.759   1.411 -0.9592 -0.0747 -0.1839
 8518TIP3    H149749   4.452   1.718   1.391  0.2341 -2.8959  0.2366
 8518TIP3    H249750   4.596   1.725   1.346 -0.0327  1.7133 -0.3270
 8519TIP3   OH249751   0.068   6.187   0.803  0.3049  0.1336 -0.2770
 8519TIP3    H149752   0.109   6.101   0.795 -0.7591 -0.5756  1.2951
 8519TIP3    H249753  -0.026   6.167   0.812 -0.3171  1.6171 -2.5007
 8520TIP3   OH249754   7.464   7.673   2.806 -0.0557 -0.1021  0.1093
 8520TIP3    H149755   7.450   7.734   2.734 -0.4227  0.4211  0.6153
 8520TIP3    H249756   7.560   7.669   2.815 -0.0302  0.3656  0.0483
 8521TIP3   OH249757   0.162   4.902   2.593  0.3753 -0.2256  0.3728
 8521TIP3    H149758   0.216   4.918   2.516  1.7255 -1.4037  1.0151
 8521TIP3    H249759   0.217   4.930   2.667  0.5483 -2.3655  1.1107
 8522TIP3   OH249760   6.550   0.132   2.515  0.5120  0.0171  0.4134
 8522TIP3    H149761   6.465   0.124   2.471  0.6123  1.8827 -0.2022
 8522TIP3    H249762   6.531   0.112   2.607 -0.1168 -1.8253 -0.0745
 8523TIP3   OH249763   1.469   0.506   2.447  0.7538 -0.1161  0.0325
 8523TIP3    H149764   1.427   0.439   2.501 -1.1621  0.0371 -1.2015
 8523TIP3    H249765   1.553   0.522   2.490  0.5627 -2.1362  1.2594
 8524TIP3   OH249766   0.679   6.632   2.881  0.5788  0.0476 -0.0320
 8524TIP3    H149767   0.653   6.542   2.902  0.0457  0.5327  1.5317
 8524TIP3    H249768   0.774   6.632   2.890  0.8817 -0.9238 -2.4919
 8525TIP3   OH249769   7.342   1.832   1.321 -0.0334  0.4055  0.6254
 8525TIP3    H149770   7.339   1.860   1.412  0.9033 -0.0113  0.7964
 8525TIP3    H249771   7.251   1.815   1.298 -0.4008  1.5352  1.1476
 8526TIP3   OH249772   1.181   2.661   1.854 -0.7558  0.1422 -0.1432
 8526TIP3    H149773   1.188   2.618   1.769 -0.0742 -0.5969  0.2741
 8526TIP3    H249774   1.269   2.659   1.890 -1.3123 -1.1103  1.3009
 8527TIP3   OH249775   5.880   3.636   1.581 -0.8408 -0.2287 -0.4874
 8527TIP3    H149776   5.809   3.623   1.643 -0.1080 -0.3053  0.3633
 8527TIP3    H249777   5.957   3.598   1.624 -0.5323 -1.3095 -1.9256
 8528TIP3   OH249778   2.921   2.246   3.050 -0.7643 -0.4487  0.5202
 8528TIP3    H149779   2.876   2.322   3.011 -2.0449 -0.8698  1.1024
 8528TIP3    H249780   2.980   2.215   2.981 -1.0973  0.3641 -0.1513
 8529TIP3   OH249781   5.721   5.161   1.631 -0.1292 -0.0159 -0.1432
 8529TIP3    H149782   5.723   5.197   1.542  1.8449  2.0677  0.6295
 8529TIP3    H249783   5.632   5.128   1.642 -1.1156  1.7536 -2.1166
 8530TIP3   OH249784   4.318   6.270   2.834 -0.4757  0.5877 -0.0678
 8530TIP3    H149785   4.309   6.327   2.910  1.7494  2.4579 -1.0558
 8530TIP3    H249786   4.270   6.314   2.764 -0.1821  0.3539 -0.4255
 8531TIP3   OH249787   7.481   4.901   2.223 -0.0952 -0.1690 -0.1645
 8531TIP3    H149788   7.457   4.861   2.307 -0.6871 -0.6944 -0.5732
 8531TIP3    H249789   7.404   4.951   2.198  0.0687 -0.0418 -0.4099
 8532TIP3   OH249790   7.581   4.125   2.274 -0.1285  0.7326 -0.3340
 8532TIP3    H149791   7.595   4.199   2.333  0.3903  0.7706 -0.5042
 8532TIP3    H249792   7.667   4.083   2.268 -0.3562  0.2762 -0.4552
 8533TIP3   OH249793   6.550   1.784   2.373 -0.3156 -0.6511  0.2127
 8533TIP3    H149794   6.643   1.805   2.361 -0.8490  1.5171 -0.7292
 8533TIP3    H249795   6.543   1.751   2.463  1.3982 -1.1875  0.1724
 8534TIP3   OH249796   6.172   5.704   0.683  0.0940  0.0751 -0.0394
 8534TIP3    H149797   6.152   5.664   0.768  0.3540  2.3741  1.1832
 8534TIP3    H249798   6.231   5.642   0.640  0.4058 -0.8875  1.6908
 8535TIP3   OH249799   4.550   4.856   2.823 -0.4821 -0.5647  0.3819
 8535TIP3    H149800   4.562   4.886   2.913  0.6464 -1.0251  0.3924
 8535TIP3    H249801   4.533   4.762   2.830 -2.8872 -0.2056  0.2627
 8536TIP3   OH249802   6.412   6.634   1.535  0.5982  0.1296  0.0689
 8536TIP3    H149803   6.375   6.583   1.463 -1.6765  0.1509  1.1172
 8536TIP3    H249804   6.427   6.721   1.499 -1.4702  0.4285 -0.1919
 8537TIP3   OH249805   3.955   3.125   2.423 -0.1170 -0.5181 -0.3769
 8537TIP3    H149806   3.913   3.039   2.427 -2.2564  0.5057  0.3811
 8537TIP3    H249807   3.965   3.143   2.329 -2.0828 -0.5124 -0.6268
 8538TIP3   OH249808   6.668   4.073   1.871  0.3172 -0.1162 -0.2306
 8538TIP3    H149809   6.644   4.164   1.856 -3.9359 -1.3605 -2.6255
 8538TIP3    H249810   6.708   4.044   1.789  0.0613 -0.7998 -0.1228
 8539TIP3   OH249811   2.828   4.032   3.020  0.0607 -0.6205 -0.9600
 8539TIP3    H149812   2.750   3.979   3.029  0.3913 -1.0260 -0.4547
 8539TIP3    H249813   2.843   4.069   3.107 -1.1364  1.7109 -1.6530
 8540TIP3   OH249814   5.106   0.110   1.003 -0.5088 -0.0289  0.4629
 8540TIP3    H149815   5.016   0.131   0.979 -0.1042  1.9271  0.5286
 8540TIP3    H249816   5.160   0.157   0.940  0.4945  0.6549  1.7850
 8541TIP3   OH249817   0.146   0.066   2.136  0.4484 -0.3158 -0.2584
 8541TIP3    H149818   0.099   0.127   2.079  0.1605 -1.0738 -0.8529
 8541TIP3    H249819   0.217   0.033   2.081  0.7747 -0.2941  0.1528
 8542TIP3   OH249820   2.391   4.000   2.346  0.8428  0.3776 -0.0613
 8542TIP3    H149821   2.392   3.905   2.342 -0.2165  0.3668 -0.2443
 8542TIP3    H249822   2.398   4.020   2.439  0.7792  0.1151  0.0005
 8543TIP3   OH249823   6.877   5.686   2.372  0.1435 -0.0445 -0.4523
 8543TIP3    H149824   6.956   5.717   2.416  1.3837 -2.1745 -1.0149
 8543TIP3    H249825   6.866   5.596   2.403 -2.2795  0.2736 -0.1618
 8544TIP3   OH249826   3.552   7.268   1.673  0.3311  0.4679 -0.2060
 8544TIP3    H149827   3.518   7.215   1.601  0.0577  1.6862 -1.0085
 8544TIP3    H249828   3.512   7.232   1.752  1.5534 -1.6644 -0.4920
 8545TIP3   OH249829   2.585   1.262   0.603  0.2408  0.1750 -0.0117
 8545TIP3    H149830   2.614   1.186   0.653 -1.3904  0.5822  1.6893
 8545TIP3    H249831   2.664   1.292   0.557  1.6303 -0.7875  1.6087
 8546TIP3   OH249832   0.889   0.767   1.539 -0.2680 -0.3268  0.7487
 8546TIP3    H149833   0.854   0.774   1.629  0.6709 -0.9265  1.1708
 8546TIP3    H249834   0.904   0.857   1.513  2.8936 -0.1832  2.6017
 8547TIP3   OH249835   7.466   1.745   1.087  0.2125  0.0916  0.5851
 8547TIP3    H149836   7.414   1.759   1.166 -2.7078 -2.5109 -0.6311
 8547TIP3    H249837   7.488   1.652   1.090 -0.1144 -0.1122 -1.6685
 8548TIP3   OH249838   1.538   2.496   2.574 -0.0786 -0.2005 -0.0909
 8548TIP3    H149839   1.545   2.423   2.635 -0.8551  1.0937  1.6157
 8548TIP3    H249840   1.561   2.573   2.625 -2.2391  1.1199 -0.9585
 8549TIP3   OH249841   1.469   1.853   0.831 -0.4208  0.5801 -0.3567
 8549TIP3    H149842   1.492   1.764   0.806 -1.3959  0.2720 -0.2157
 8549TIP3    H249843   1.477   1.904   0.751 -0.2952  0.2773 -0.5378
 8550TIP3   OH249844   4.884   5.341   9.175  0.0224 -0.1391 -0.1032
 8550TIP3    H149845   4.852   5.267   9.225  1.3478 -0.1287  0.8311
 8550TIP3    H249846   4.947   5.303   9.113  0.6143  0.1632  0.2961
 8551TIP3   OH249847   5.744   3.810   1.911  0.4839 -0.3721  0.5024
 8551TIP3    H149848   5.709   3.803   2.000  3.3058 -1.6326  1.6029
 8551TIP3    H249849   5.709   3.733   1.866 -1.4528  0.5839  0.2427
 8552TIP3   OH249850   1.668   3.055   3.377  0.3026  0.0002  0.1883
 8552TIP3    H149851   1.635   2.979   3.328  2.7561 -1.5677  0.8127
 8552TIP3    H249852   1.606   3.065   3.449 -1.3659  0.1044 -1.1867
 8553TIP3   OH249853   1.594   2.329   2.244 -0.4065  0.1239 -0.0843
 8553TIP3    H149854   1.615   2.348   2.152 -0.2036  1.2793  0.1822
 8553TIP3    H249855   1.518   2.271   2.240 -0.1769 -0.1267 -0.9912
 8554TIP3   OH249856   3.190   6.058   3.285  0.1787  0.0489 -0.2493
 8554TIP3    H149857   3.174   6.087   3.196 -0.3369  0.9319  0.1174
 8554TIP3    H249858   3.123   6.103   3.338  1.6702  1.1161  0.8448
 8555TIP3   OH249859   0.587   5.760   0.783  0.0585 -0.5461  0.1898
 8555TIP3    H149860   0.541   5.829   0.736 -3.3948 -3.4553 -1.1706
 8555TIP3    H249861   0.547   5.758   0.869 -0.8497 -1.6160 -0.2281
 8556TIP3   OH249862   2.463   1.009   0.963  0.1200  0.1831  0.3613
 8556TIP3    H149863   2.534   0.980   0.906 -0.2043 -0.7075  0.3893
 8556TIP3    H249864   2.390   1.026   0.903 -0.4564 -1.4709  0.5277
 8557TIP3   OH249865   2.515   6.818   1.570  0.4218  0.1192 -0.1609
 8557TIP3    H149866   2.433   6.804   1.522 -0.6333  1.0090  1.3157
 8557TIP3    H249867   2.548   6.902   1.537  0.3355  0.1355 -0.2064
 8558TIP3   OH249868   7.415   6.782   1.341  0.1450 -0.6377  0.3258
 8558TIP3    H149869   7.335   6.793   1.290  0.3104 -1.9210 -0.2501
 8558TIP3    H249870   7.383   6.773   1.432 -0.1099  2.1512  0.5879
 8559TIP3   OH249871   6.760   3.499   3.078  0.6164 -0.4263  0.1430
 8559TIP3    H149872   6.750   3.536   3.166  0.1405 -0.3627  0.0663
 8559TIP3    H249873   6.773   3.405   3.093  0.5531 -0.4132  0.2812
 8560TIP3   OH249874   2.788   1.576   2.684 -0.4575  0.1744 -0.5230
 8560TIP3    H149875   2.832   1.638   2.743  0.0534  0.1207 -0.8405
 8560TIP3    H249876   2.743   1.632   2.620 -1.2206  0.2367  0.0586
 8561TIP3   OH249877   0.159   4.365   2.753 -0.2222 -1.1132 -0.0999
 8561TIP3    H149878   0.210   4.445   2.759  0.0338 -1.2926  0.1494
 8561TIP3    H249879   0.224   4.297   2.731 -0.3956 -1.2934 -0.0568
 8562TIP3   OH249880   4.279   2.217   7.405  0.0832 -0.1051 -0.1505
 8562TIP3    H149881   4.352   2.155   7.404 -1.1491 -1.6443  0.5831
 8562TIP3    H249882   4.202   2.163   7.389 -0.8673  1.5843 -1.6876
 8563TIP3   OH249883   7.346   5.458   1.061  0.2246  0.8533 -0.5383
 8563TIP3    H149884   7.251   5.442   1.068  0.4930 -0.1462  2.3494
 8563TIP3    H249885   7.368   5.505   1.142  2.4187 -0.4416 -0.3087
 8564TIP3   OH249886   3.688   4.983   1.789  0.4982 -0.2114  0.2906
 8564TIP3    H149887   3.605   4.967   1.745  0.3234  1.3784  0.0130
 8564TIP3    H249888   3.687   4.922   1.864 -0.0967 -1.4690 -0.7064
 8565TIP3   OH249889   0.164   5.535   2.759 -0.0591  0.9395 -0.1967
 8565TIP3    H149890   0.232   5.472   2.736  1.0938  2.1344 -0.1465
 8565TIP3    H249891   0.094   5.481   2.796 -0.0369 -0.5319 -2.1328
 8566TIP3   OH249892   3.031   0.978   3.717  0.0480  0.0409 -0.3212
 8566TIP3    H149893   2.942   0.951   3.740 -0.1014  1.8142  1.4706
 8566TIP3    H249894   3.068   0.902   3.672 -1.6133 -1.6093  0.9241
 8567TIP3   OH249895   0.245   5.520   1.141  0.1373  0.3446 -0.0075
 8567TIP3    H149896   0.234   5.516   1.046  0.0849 -1.5165  0.0328
 8567TIP3    H249897   0.340   5.510   1.154 -0.0400 -1.6436  0.1488
 8568TIP3   OH249898   6.317   5.686   2.679  0.1101  0.1141  0.5621
 8568TIP3    H149899   6.311   5.775   2.711 -0.0950 -0.1680  1.3326
 8568TIP3    H249900   6.360   5.638   2.750  2.2341  0.0210 -0.6996
 8569TIP3   OH249901   5.112   1.114   2.961  0.6231  0.1850 -0.2929
 8569TIP3    H149902   5.162   1.137   3.039 -0.8936  0.2639  0.7129
 8569TIP3    H249903   5.051   1.046   2.991 -0.2065  0.4454 -1.3115
 8570TIP3   OH249904   1.430   3.312   1.964  0.8634  0.2736 -0.0158
 8570TIP3    H149905   1.374   3.257   2.018 -0.3631  1.5523  0.0788
 8570TIP3    H249906   1.418   3.400   2.000  1.8165  0.7975 -0.9208
 8571TIP3   OH249907   4.474   4.862   1.248  0.3428 -0.3150 -0.3656
 8571TIP3    H149908   4.444   4.882   1.159  0.3518 -0.0325 -0.3053
 8571TIP3    H249909   4.567   4.883   1.247 -0.0595  1.6481  0.2799
 8572TIP3   OH249910   4.861   2.814   2.635  0.7293 -0.4556 -0.1321
 8572TIP3    H149911   4.851   2.834   2.728 -0.0841 -0.2338 -0.2557
 8572TIP3    H249912   4.944   2.767   2.629  1.0096 -0.0781  0.6426
 8573TIP3   OH249913   2.773   6.790   1.334  0.3845  0.7351 -0.0314
 8573TIP3    H149914   2.852   6.748   1.368  0.9814  1.0500 -1.0118
 8573TIP3    H249915   2.715   6.717   1.313 -0.3652  0.5232  2.4044
 8574TIP3   OH249916   7.662   4.539   3.171  0.5283 -0.6139 -0.8652
 8574TIP3    H149917   7.676   4.446   3.187  0.0958 -0.6511 -0.6893
 8574TIP3    H249918   7.593   4.564   3.232  1.9120  0.2472  0.4152
 8575TIP3   OH249919   0.318   5.167   2.991  0.0529  0.4509 -0.0380
 8575TIP3    H149920   0.330   5.179   3.085 -1.4247  0.5887  0.1568
 8575TIP3    H249921   0.224   5.173   2.978  0.0837 -1.1752 -1.3139
 8576TIP3   OH249922   5.556   7.495   2.026 -0.3985  0.8206 -0.1574
 8576TIP3    H149923   5.479   7.442   2.004 -0.5312  1.3054 -0.9074
 8576TIP3    H249924   5.628   7.451   1.981 -0.5235  1.3123 -0.8552
 8577TIP3   OH249925   5.551   4.837   1.294 -0.1456  0.3121 -0.3065
 8577TIP3    H149926   5.456   4.829   1.300 -0.1569  0.7576  0.1975
 8577TIP3    H249927   5.569   4.929   1.314  0.4239  0.1364  0.0339
 8578TIP3   OH249928   1.624   0.531   1.940  0.2836  0.2262 -0.7006
 8578TIP3    H149929   1.563   0.511   2.010 -0.1384  1.1069 -0.8032
 8578TIP3    H249930   1.702   0.480   1.960 -0.6857 -1.4211 -0.9014
 8579TIP3   OH249931   3.631   6.694   1.445 -0.1824 -0.0935 -0.0168
 8579TIP3    H149932   3.582   6.632   1.391  2.2531 -0.6129 -1.8407
 8579TIP3    H249933   3.723   6.676   1.424  0.6949  3.0734  0.6099
 8580TIP3   OH249934   5.133   3.428   2.553 -0.4056  0.3970 -0.2035
 8580TIP3    H149935   5.040   3.408   2.562 -0.5036  0.6861 -0.5406
 8580TIP3    H249936   5.138   3.482   2.474 -0.1614  1.7096  0.6694
 8581TIP3   OH249937   6.624   6.531   1.681 -0.3266  0.1404 -0.7315
 8581TIP3    H149938   6.559   6.570   1.622  1.0441  1.0115 -1.7083
 8581TIP3    H249939   6.691   6.598   1.693  1.2389 -1.2720 -1.0844
 8582TIP3   OH249940   2.500   7.208   1.971 -0.0537 -0.6092 -0.2701
 8582TIP3    H149941   2.424   7.155   1.948 -0.1966 -0.0624 -1.1037
 8582TIP3    H249942   2.556   7.149   2.021 -1.2096 -0.9029  0.7408
 8583TIP3   OH249943   3.034   6.570   2.365 -0.9835 -0.2977 -0.8836
 8583TIP3    H149944   3.003   6.641   2.421  0.6916 -0.6281  0.5494
 8583TIP3    H249945   3.108   6.608   2.318 -0.1016 -1.0479 -0.1347
 8584TIP3   OH249946   3.667   3.763   1.579  0.6862 -0.2931  0.0231
 8584TIP3    H149947   3.620   3.844   1.598  2.4175  0.9598 -0.7596
 8584TIP3    H249948   3.745   3.767   1.635  0.4026 -1.8504  0.5889
 8585TIP3   OH249949   1.755   4.570   1.756 -0.0535  0.2876  0.3686
 8585TIP3    H149950   1.808   4.644   1.725 -2.2224  1.4325 -0.8097
 8585TIP3    H249951   1.746   4.585   1.850 -1.0397  1.9370  0.0316
 8586TIP3   OH249952   0.579   7.363   2.413  0.4113  0.0246  0.3158
 8586TIP3    H149953   0.520   7.404   2.350  0.7253 -1.5683 -1.0610
 8586TIP3    H249954   0.638   7.309   2.360  0.9551 -1.0414  1.9432
 8587TIP3   OH249955   6.772   0.200   1.461 -0.0894 -0.4661  0.0982
 8587TIP3    H149956   6.776   0.121   1.514 -2.8247 -1.3410 -0.8074
 8587TIP3    H249957   6.812   0.268   1.516 -0.0232 -1.9444  1.9755
 8588TIP3   OH249958   0.380   3.867   3.490  0.4086 -0.4661 -0.2952
 8588TIP3    H149959   0.367   3.785   3.537  0.4677 -0.2685  0.0682
 8588TIP3    H249960   0.348   3.850   3.402  2.2827 -1.5194 -0.8285
 8589TIP3   OH249961   7.511   4.432   1.473 -0.2186 -0.1127  0.4898
 8589TIP3    H149962   7.422   4.453   1.502 -0.4500 -0.2560 -0.0976
 8589TIP3    H249963   7.554   4.396   1.550 -0.8379 -0.5407  0.6434
 8590TIP3   OH249964   6.481   0.424   0.958  0.3758 -0.6048 -0.0326
 8590TIP3    H149965   6.475   0.460   1.046  0.4786 -1.2889  0.2602
 8590TIP3    H249966   6.434   0.341   0.963  0.2037 -0.5544 -0.6783
 8591TIP3   OH249967   6.401   0.845   2.794  0.0643  0.0970  0.0044
 8591TIP3    H149968   6.431   0.837   2.703  1.3217 -0.4609  0.4396
 8591TIP3    H249969   6.329   0.784   2.800  0.9185 -0.9751 -0.2578
 8592TIP3   OH249970   2.657   4.215   1.892 -0.1129  0.0072 -0.3431
 8592TIP3    H149971   2.734   4.166   1.862 -1.7996 -2.0981 -1.4966
 8592TIP3    H249972   2.662   4.212   1.987  0.7624 -0.8488 -0.4066
 8593TIP3   OH249973   5.087   6.702   1.222  0.0092  0.6149 -0.3712
 8593TIP3    H149974   5.116   6.647   1.149  0.7087  0.6033 -0.0935
 8593TIP3    H249975   5.123   6.788   1.203 -0.9701  0.9557 -0.7344
 8594TIP3   OH249976   4.280   5.803   1.052  0.3664  0.3602  0.2427
 8594TIP3    H149977   4.301   5.872   1.114  2.2951  0.8201 -0.8125
 8594TIP3    H249978   4.360   5.794   0.999  0.4558 -3.0835  0.7006
 8595TIP3   OH249979   0.780   5.595   2.940  0.1771 -0.2394 -0.1157
 8595TIP3    H149980   0.842   5.656   2.900  1.8282 -1.1114  0.9819
 8595TIP3    H249981   0.694   5.625   2.911  1.0425  1.5846 -0.9360
 8596TIP3   OH249982   6.822   2.014   0.910 -0.4386 -0.4148  0.0836
 8596TIP3    H149983   6.813   1.925   0.946  0.6642 -1.4164 -1.9169
 8596TIP3    H249984   6.732   2.042   0.893 -0.7726 -2.1443 -1.3733
 8597TIP3   OH249985   2.543   7.040   2.796 -0.1278  0.2225  0.4997
 8597TIP3    H149986   2.501   6.983   2.861 -0.8120 -1.6827 -1.5050
 8597TIP3    H249987   2.488   7.033   2.718  0.9891  1.9682 -0.5201
 8598TIP3   OH249988   1.170   7.045   2.600  0.3800  0.1494 -0.2925
 8598TIP3    H149989   1.162   7.110   2.670 -1.5507  0.4264 -0.7237
 8598TIP3    H249990   1.092   7.058   2.546  1.0295 -1.1222 -1.6021
 8599TIP3   OH249991   2.139   7.199   1.663 -0.3955  0.9783  0.0953
 8599TIP3    H149992   2.083   7.130   1.627  0.5613 -0.5012  1.3279
 8599TIP3    H249993   2.090   7.279   1.646 -2.1419 -0.0932 -0.2901
 8600TIP3   OH249994   7.439   4.794   2.490 -0.5142 -0.1928 -0.1794
 8600TIP3    H149995   7.524   4.749   2.488 -0.8380 -0.8017 -0.5411
 8600TIP3    H249996   7.395   4.757   2.566 -0.6096 -0.1716 -0.2246
 8601TIP3   OH249997   7.426   7.493   0.779 -0.5021 -0.5288 -0.0426
 8601TIP3    H149998   7.415   7.473   0.872  0.5116  2.4999  0.8523
 8601TIP3    H249999   7.414   7.588   0.773 -0.0671 -0.5526 -2.9536
 8602TIP3   OH250000   4.402   3.762   2.500  0.0283  0.0560 -0.2162
 8602TIP3    H150001   4.311   3.780   2.523 -0.0748 -1.6323  0.9222
 8602TIP3    H250002   4.432   3.702   2.569  1.4399 -0.8628 -1.5729
 8603TIP3   OH250003   3.210   6.415   2.096  0.0910  0.2663  0.0130
 8603TIP3    H150004   3.255   6.378   2.171 -2.7296  0.2728  1.8659
 8603TIP3    H250005   3.201   6.508   2.117 -1.5151  0.1012  0.1607
 8604TIP3   OH250006   0.752   1.459   2.492  0.3144  0.2443  0.2770
 8604TIP3    H150007   0.744   1.524   2.561  0.4854 -0.1464  0.6647
 8604TIP3    H250008   0.831   1.483   2.444 -1.2862  2.2471 -1.6091
 8605TIP3   OH250009   5.474   0.611   1.778  0.3637 -0.4797 -0.2252
 8605TIP3    H150010   5.450   0.703   1.789  3.1272  0.2921 -0.0358
 8605TIP3    H250011   5.430   0.585   1.697  0.5239  1.3890 -0.9731
 8606TIP3   OH250012   6.343   2.274   0.724  0.4530 -0.0753  0.3128
 8606TIP3    H150013   6.314   2.186   0.749  0.1431  0.7938  3.3770
 8606TIP3    H250014   6.437   2.265   0.710  0.1338 -1.2365 -1.4167
 8607TIP3   OH250015   0.572   6.158   2.652 -0.5185  0.4626  0.1358
 8607TIP3    H150016   0.578   6.080   2.708  0.3510  2.2741  2.7814
 8607TIP3    H250017   0.647   6.151   2.594  1.7957  0.9814  2.8175
 8608TIP3   OH250018   5.935   3.948   1.730  0.2718 -0.2777 -0.1502
 8608TIP3    H150019   5.866   3.930   1.794  0.1885 -3.1432 -0.9106
 8608TIP3    H250020   5.916   4.036   1.697 -2.4289 -0.5960  0.3851
 8609TIP3   OH250021   6.425   5.065   0.647  0.3942 -0.1680  0.2210
 8609TIP3    H150022   6.497   5.002   0.636  1.3322  0.9483 -0.1861
 8609TIP3    H250023   6.423   5.082   0.741  0.2979 -0.6207  0.3027
 8610TIP3   OH250024   5.381   2.207   2.895 -0.0511  0.1106 -0.0043
 8610TIP3    H150025   5.300   2.195   2.944  0.8811 -0.7645  1.3742
 8610TIP3    H250026   5.403   2.300   2.906 -1.4079  0.6270 -1.3153
 8611TIP3   OH250027   6.866   0.271   0.586  0.5065 -0.1823 -0.0840
 8611TIP3    H150028   6.782   0.285   0.630  0.0310  0.0785 -1.0438
 8611TIP3    H250029   6.904   0.359   0.581 -0.1370  0.0559 -1.5079
 8612TIP3   OH250030   5.374   1.239   1.694 -0.1761  0.6511  0.3962
 8612TIP3    H150031   5.433   1.310   1.719 -1.2317  1.9476 -0.6318
 8612TIP3    H250032   5.384   1.174   1.763  2.6364  0.6730  0.1383
 8613TIP3   OH250033   2.750   1.522   1.116  0.0154 -0.3983 -0.2143
 8613TIP3    H150034   2.753   1.486   1.027  0.4499  0.0147 -0.3691
 8613TIP3    H250035   2.719   1.612   1.105  1.3362  0.0892 -0.0924
 8614TIP3   OH250036   4.812   1.643   1.508 -0.2339 -0.5954 -0.3251
 8614TIP3    H150037   4.748   1.692   1.559  0.1023 -0.6901  0.1918
 8614TIP3    H250038   4.792   1.666   1.417  0.4236  1.1164 -0.0677
 8615TIP3   OH250039   0.816   2.686   1.491 -0.0881 -0.3549 -0.2107
 8615TIP3    H150040   0.736   2.667   1.541  1.4876  1.0680  3.1531
 8615TIP3    H250041   0.837   2.603   1.447 -0.9949 -2.1569  2.5090
 8616TIP3   OH250042   2.974   1.146   0.899  0.2357  0.2915 -0.5545
 8616TIP3    H150043   2.930   1.168   0.981 -0.8882  0.5413 -1.2022
 8616TIP3    H250044   3.067   1.157   0.917  0.0171  0.0532  0.7657
 8617TIP3   OH250045   2.485   4.025   2.945  0.4130  0.2341 -0.1496
 8617TIP3    H150046   2.409   4.084   2.950  0.2152 -0.0725  0.5339
 8617TIP3    H250047   2.526   4.046   2.861  0.0327  0.9681 -0.1581
 8618TIP3   OH250048   1.011   2.658   3.376  0.5967  1.0685  0.5344
 8618TIP3    H150049   1.042   2.694   3.293  0.2179  0.3909  0.0854
 8618TIP3    H250050   0.972   2.732   3.422  1.5577  1.6184  0.4706
 8619TIP3   OH250051   0.218   5.797   3.348  0.2872  0.4276 -0.2020
 8619TIP3    H150052   0.217   5.726   3.412  0.4755  0.5117 -0.1052
 8619TIP3    H250053   0.204   5.876   3.400 -1.7560  0.3190 -0.5017
 8620TIP3   OH250054   7.127   3.314   2.261 -0.7603 -0.0866 -0.0516
 8620TIP3    H150055   7.102   3.315   2.353  3.1914 -1.0487  1.2534
 8620TIP3    H250056   7.156   3.404   2.242 -0.5566 -0.1377  0.0095
 8621TIP3   OH250057   6.703   7.397   1.768 -0.4305  0.3588  0.2062
 8621TIP3    H150058   6.631   7.334   1.767 -0.4854  0.3854  1.1063
 8621TIP3    H250059   6.748   7.384   1.685 -1.1580 -0.0263 -0.1358
 8622TIP3   OH250060   7.628   3.125   0.660  0.7195 -0.4288  0.6539
 8622TIP3    H150061   7.691   3.176   0.710  0.7785  0.8300 -0.6608
 8622TIP3    H250062   7.679   3.087   0.588  0.5757 -1.9591  1.3144
 8623TIP3   OH250063   1.486   4.535   1.633 -0.1740  0.5009 -0.0544
 8623TIP3    H150064   1.576   4.541   1.666 -0.5945 -0.9018  1.4891
 8623TIP3    H250065   1.496   4.507   1.542  0.9750  2.4047 -0.5820
 8624TIP3   OH250066   7.326   3.297   3.650 -0.1551  0.2652  0.0162
 8624TIP3    H150067   7.324   3.205   3.622  0.0393  0.0375  0.7188
 8624TIP3    H250068   7.240   3.331   3.624 -0.4545 -0.2794  0.2626
 8625TIP3   OH250069   6.815   3.637   1.505 -0.5328 -0.2717  0.0551
 8625TIP3    H150070   6.862   3.553   1.508  0.8773  0.5084  0.3651
 8625TIP3    H250071   6.749   3.624   1.436 -0.2425 -1.5792 -0.0155
 8626TIP3   OH250072   0.037   2.721   2.219  1.0744  0.0217 -0.5547
 8626TIP3    H150073   0.116   2.775   2.225  0.4773  0.8712 -0.2607
 8626TIP3    H250074   0.031   2.678   2.304 -0.0148  1.7170  0.2647
 8627TIP3   OH250075   5.616   1.555   3.042 -0.3614  0.1690  0.1055
 8627TIP3    H150076   5.695   1.561   3.096  0.3700 -1.5966 -0.6831
 8627TIP3    H250077   5.596   1.645   3.019  1.8418  0.6421 -0.2283
 8628TIP3   OH250078   7.653   2.191   2.948  0.3023  0.2850 -0.7654
 8628TIP3    H150079   7.671   2.111   2.899  1.2250 -2.1525  3.0564
 8628TIP3    H250080   7.558   2.197   2.951  0.2091 -1.0284 -0.6487
 8629TIP3   OH250081   1.353   2.363   0.903 -0.5317  0.0825  0.3310
 8629TIP3    H150082   1.277   2.365   0.845 -0.0543 -1.9241 -0.4490
 8629TIP3    H250083   1.427   2.381   0.846  0.1303 -3.4585 -0.1806
 8630TIP3   OH250084   6.850   6.209   1.262 -0.1966 -0.1138  0.0511
 8630TIP3    H150085   6.791   6.189   1.335 -0.8854 -1.1174 -0.7408
 8630TIP3    H250086   6.818   6.292   1.226 -0.4753 -0.1234  0.2799
 8631TIP3   OH250087   7.148   4.223   2.358  0.2430  0.0147 -0.0013
 8631TIP3    H150088   7.121   4.284   2.289 -1.1548 -0.4611  0.0881
 8631TIP3    H250089   7.071   4.216   2.415  0.8247 -0.8461  0.6942
 8632TIP3   OH250090   6.655   5.486   0.642  0.1413  0.1103 -0.1356
 8632TIP3    H150091   6.737   5.439   0.634  0.5440  0.5531  1.0932
 8632TIP3    H250092   6.599   5.429   0.695  0.2703  0.5537  0.4852
 8633TIP3   OH250093   6.764   5.420   2.278  0.0745 -0.2799 -0.0816
 8633TIP3    H150094   6.815   5.356   2.228 -0.4833 -0.6229 -0.2194
 8633TIP3    H250095   6.737   5.485   2.212  0.3082 -0.1135 -0.0137
 8634TIP3   OH250096   3.160   1.297   3.829 -0.2155  0.0817 -0.4492
 8634TIP3    H150097   3.131   1.338   3.910 -0.8533 -1.1373 -0.0274
 8634TIP3    H250098   3.181   1.370   3.770  2.5173  1.0843  1.5323
 8635TIP3   OH250099   0.309   4.004   2.806 -0.2530 -0.1951 -0.3802
 8635TIP3    H150100   0.372   4.069   2.773  1.9436 -1.5848  0.8077
 8635TIP3    H250101   0.337   3.988   2.896 -2.9644 -0.2007  0.5313
 8636TIP3   OH250102   6.193   2.933   1.514  0.6546 -0.0333 -0.5065
 8636TIP3    H150103   6.288   2.942   1.517  0.8373 -1.7185 -0.1825
 8636TIP3    H250104   6.168   2.966   1.428  1.3997  1.4098 -0.1885
 8637TIP3   OH250105   3.401   0.377   1.571 -0.3482 -0.1209  0.4032
 8637TIP3    H150106   3.421   0.349   1.660 -1.4836  0.3356  0.8207
 8637TIP3    H250107   3.329   0.439   1.581  0.3947  0.9828 -0.7169
 8638TIP3   OH250108   3.930   7.454   0.956 -0.4597  0.0416 -0.9152
 8638TIP3    H150109   3.919   7.542   0.992 -0.5160  0.7233 -2.5231
 8638TIP3    H250110   3.993   7.465   0.886  0.3620 -1.4231 -0.4364
 8639TIP3   OH250111   3.864   1.124   2.295  0.1280 -0.4878  0.5305
 8639TIP3    H150112   3.885   1.206   2.340 -2.6735  0.4869  0.2492
 8639TIP3    H250113   3.779   1.098   2.331  0.8756 -3.2148  0.4849
 8640TIP3   OH250114   0.889   3.958   0.597  0.5705  0.7724  1.0076
 8640TIP3    H150115   0.968   3.955   0.543  0.0956  2.5236  0.1435
 8640TIP3    H250116   0.903   4.033   0.655 -1.2513  2.4668 -0.5730
 8641TIP3   OH250117   2.052   7.557   2.047  0.1021 -0.2788 -0.2895
 8641TIP3    H150118   2.078   7.637   2.093 -0.4406 -0.8985  1.1635
 8641TIP3    H250119   2.125   7.538   1.989  0.9559  0.3786  0.5437
 8642TIP3   OH250120   2.633   0.663   1.601  0.2721  0.4106 -0.3183
 8642TIP3    H150121   2.608   0.612   1.678  0.5809  1.7141  0.6790
 8642TIP3    H250122   2.654   0.597   1.534 -2.6489 -0.8017 -0.2328
 8643TIP3   OH250123   2.961   4.209   3.229  0.1462 -0.4948 -0.3174
 8643TIP3    H150124   2.984   4.208   3.322 -0.4093 -0.5118 -0.1773
 8643TIP3    H250125   3.020   4.274   3.191  0.0476 -0.1251  0.1371
 8644TIP3   OH250126   5.990   6.302   2.478 -0.1974  0.3221  0.1018
 8644TIP3    H150127   6.061   6.367   2.475  0.3300 -0.2657 -0.4627
 8644TIP3    H250128   6.009   6.243   2.405  0.5244 -1.6992  1.8188
 8645TIP3   OH250129   0.875   4.680   1.308  1.0560 -0.2953 -0.2622
 8645TIP3    H150130   0.886   4.657   1.216  0.5065 -0.9393 -0.1814
 8645TIP3    H250131   0.866   4.775   1.309 -0.0193 -0.3749 -1.0027
 8646TIP3   OH250132   5.886   1.042   2.004  0.5554 -0.0971 -0.0342
 8646TIP3    H150133   5.937   1.076   1.931  0.0824 -1.5095 -1.0490
 8646TIP3    H250134   5.822   0.984   1.964  0.8947 -1.6460  1.5629
 8647TIP3   OH250135   0.988   5.378   1.650 -0.5864 -0.0389  0.2729
 8647TIP3    H150136   0.970   5.284   1.660 -2.8653  0.3899  1.0037
 8647TIP3    H250137   1.019   5.405   1.736  2.2184 -0.4492 -0.5210
 8648TIP3   OH250138   6.588   4.404   1.609 -0.0503 -0.2943  0.0684
 8648TIP3    H150139   6.578   4.483   1.664 -0.7588  1.2813 -2.1907
 8648TIP3    H250140   6.514   4.349   1.634 -1.0733  0.9444 -0.1393
 8649TIP3   OH250141   1.719   2.708   1.972  0.0766  0.3992  0.1405
 8649TIP3    H150142   1.776   2.756   1.912  0.6836 -0.3479  0.1080
 8649TIP3    H250143   1.729   2.616   1.947  2.5371 -0.3072  3.1237
 8650TIP3   OH250144   0.190   1.181   1.287  0.3557  0.7684  0.3804
 8650TIP3    H150145   0.095   1.171   1.288  0.3910 -0.3622 -1.4471
 8650TIP3    H250146   0.224   1.093   1.304  1.0086  0.7566 -0.8187
 8651TIP3   OH250147   7.428   6.067   3.598 -0.3116 -0.9675 -0.5410
 8651TIP3    H150148   7.398   5.976   3.603  0.9142 -1.4092 -0.8683
 8651TIP3    H250149   7.358   6.117   3.639  0.3559 -2.3763  2.6155
 8652TIP3   OH250150   7.591   5.728   3.415  0.4903 -0.3255  0.0837
 8652TIP3    H150151   7.522   5.673   3.451 -0.4084 -0.2362 -1.3933
 8652TIP3    H250152   7.664   5.668   3.399  0.7782 -0.4231  1.6496
 8653TIP3   OH250153   6.697   5.038   0.508 -0.2349  0.1702  0.0769
 8653TIP3    H150154   6.782   5.082   0.510 -0.7216  1.1570  0.0159
 8653TIP3    H250155   6.638   5.104   0.472 -1.2575 -0.0889  1.2265
 8654TIP3   OH250156   5.862   2.020   2.751  0.0475 -0.2996 -0.0888
 8654TIP3    H150157   5.785   1.975   2.787 -0.0492  0.4612  0.6832
 8654TIP3    H250158   5.932   1.956   2.758 -0.5437 -1.0632 -0.9559
 8655TIP3   OH250159   6.090   3.711   1.934  0.9867  0.0693  0.0957
 8655TIP3    H150160   6.079   3.723   1.840  1.4213 -2.6540 -0.3982
 8655TIP3    H250161   6.182   3.688   1.944  0.3143 -2.7381  0.6893
 8656TIP3   OH250162   6.626   2.396   1.414  0.1140  0.1196 -0.0713
 8656TIP3    H150163   6.595   2.425   1.328  0.5978  1.5750  0.2081
 8656TIP3    H250164   6.571   2.444   1.476 -0.3278 -1.0280  0.4401
 8657TIP3   OH250165   5.554   2.546   2.229 -0.7661 -0.5841 -0.3125
 8657TIP3    H150166   5.627   2.502   2.187  0.4183  0.2415  0.8163
 8657TIP3    H250167   5.486   2.479   2.235  0.0056 -1.4652 -1.0686
 8658TIP3   OH250168   2.206   1.588   0.934  0.2663 -0.1699  0.4825
 8658TIP3    H150169   2.268   1.620   0.870 -0.6710 -1.6676 -1.2673
 8658TIP3    H250170   2.257   1.529   0.990  1.0141  0.8648  0.9059
 8659TIP3   OH250171   2.658   2.028   2.525  0.5151 -0.3030  0.2241
 8659TIP3    H150172   2.653   2.123   2.512  2.1100 -0.3463 -1.1365
 8659TIP3    H250173   2.637   2.015   2.617  0.3117  1.3705  0.4549
 8660TIP3   OH250174   5.020   2.348   1.383 -0.4025  0.0372 -0.3260
 8660TIP3    H150175   4.933   2.383   1.368 -0.0085  0.3525 -2.0036
 8660TIP3    H250176   5.066   2.359   1.300  0.4918 -2.2782 -0.2222
 8661TIP3   OH250177   6.215   0.465   1.193 -0.2088 -0.1935 -0.1908
 8661TIP3    H150178   6.138   0.502   1.236  0.4597  2.3625 -0.9635
 8661TIP3    H250179   6.285   0.475   1.258 -0.2881 -1.4859  0.1083
 8662TIP3   OH250180   0.796   3.684   0.541 -0.5599  0.0029  0.2217
 8662TIP3    H150181   0.705   3.657   0.549 -0.4399 -0.3543  0.3801
 8662TIP3    H250182   0.798   3.773   0.576 -1.2120  0.7441 -1.5454
 8663TIP3   OH250183   6.871   5.428   2.550 -0.5720 -0.0343 -0.2203
 8663TIP3    H150184   6.844   5.402   2.638  0.0919  1.4634  0.4560
 8663TIP3    H250185   6.811   5.382   2.492  0.1393 -2.5259  0.8921
 8664TIP3   OH250186   7.147   4.498   2.897  0.3222  0.7398  0.0876
 8664TIP3    H150187   7.114   4.408   2.892 -0.2432  0.9393  0.0941
 8664TIP3    H250188   7.241   4.491   2.879  0.5782 -0.0260  1.6404
 8665TIP3   OH250189   3.318   2.739   3.571  0.4404  0.2259 -0.3112
 8665TIP3    H150190   3.356   2.789   3.643 -1.5075  0.5843  0.5439
 8665TIP3    H250191   3.284   2.660   3.613 -0.0228  0.0683 -0.9738
 8666TIP3   OH250192   4.953   3.209   1.592 -0.1891  0.0796  0.2419
 8666TIP3    H150193   5.016   3.157   1.642 -0.8441 -0.9141  0.0543
 8666TIP3    H250194   5.005   3.279   1.553  0.5513  0.1157  1.2497
 8667TIP3   OH250195   2.974   5.339   1.172  0.8223  0.8768 -0.3946
 8667TIP3    H150196   2.922   5.414   1.143  0.1742  0.3445 -0.6454
 8667TIP3    H250197   3.056   5.377   1.203  1.2410  1.5308 -2.2063
 8668TIP3   OH250198   2.793   4.053   2.444 -0.5668 -0.2245 -0.3541
 8668TIP3    H150199   2.735   3.981   2.420  0.7503 -1.1755 -0.8381
 8668TIP3    H250200   2.876   4.010   2.468 -0.0734  1.0673  0.3903
 8669TIP3   OH250201   2.058   3.031   1.658  0.0685 -0.2451  0.5955
 8669TIP3    H150202   1.973   3.058   1.625  0.6578 -0.6673 -1.4250
 8669TIP3    H250203   2.112   3.110   1.656 -0.2628  0.0395  1.9457
 8670TIP3   OH250204   3.094   4.415   3.081  0.6138  0.1112 -0.4203
 8670TIP3    H150205   3.076   4.509   3.091  2.1958  0.5924 -1.6521
 8670TIP3    H250206   3.153   4.410   3.006  1.4662 -1.7782  0.3143
 8671TIP3   OH250207   4.852   4.706   3.005 -0.3489  0.0861 -0.4085
 8671TIP3    H150208   4.912   4.764   3.051  1.0766 -2.8373  1.7500
 8671TIP3    H250209   4.882   4.707   2.914  0.8666  1.1727 -0.0262
 8672TIP3   OH250210   3.467   5.364   2.247  0.2032 -0.3262 -0.1721
 8672TIP3    H150211   3.523   5.330   2.178  1.3905 -1.4920  1.2779
 8672TIP3    H250212   3.379   5.368   2.208  1.0257  0.1602 -2.0551
 8673TIP3   OH250213   2.328   2.225   2.517  0.5468 -0.0644 -0.0052
 8673TIP3    H150214   2.414   2.228   2.476  0.0895  0.6743 -0.9334
 8673TIP3    H250215   2.281   2.157   2.469 -0.0802  0.9901 -0.9020
 8674TIP3   OH250216   2.414   3.652   0.657  0.0993 -0.1469  0.7124
 8674TIP3    H150217   2.404   3.683   0.747  0.1740  0.6309  0.4594
 8674TIP3    H250218   2.505   3.670   0.635 -0.6007  2.4629 -0.5019
 8675TIP3   OH250219   0.116   2.229   2.626 -0.2872 -0.4205  0.2891
 8675TIP3    H150220   0.137   2.188   2.542 -0.4105 -0.4172  0.2573
 8675TIP3    H250221   0.041   2.286   2.607 -0.6304 -0.7990  0.5090
 8676TIP3   OH250222   0.965   3.052   2.820 -0.2682 -0.1725  0.9101
 8676TIP3    H150223   0.980   3.035   2.913 -3.3489 -0.1127  1.5561
 8676TIP3    H250224   1.007   3.136   2.803  2.4254 -1.2923  1.5478
 8677TIP3   OH250225   7.031   0.693   1.772 -0.4847 -0.3440 -0.2455
 8677TIP3    H150226   7.083   0.737   1.840 -0.3781  0.0559 -0.5797
 8677TIP3    H250227   7.096   0.657   1.711 -0.5077 -2.2952  0.8051
 8678TIP3   OH250228   4.651   6.550   1.205 -0.0663  0.0095  0.6586
 8678TIP3    H150229   4.611   6.525   1.121  0.4516  0.1026  0.3814
 8678TIP3    H250230   4.708   6.477   1.227  1.1946  0.7550  0.0131
 8679TIP3   OH250231   3.083   1.015   3.322 -0.2391  0.1839 -0.4399
 8679TIP3    H150232   3.009   1.008   3.261 -0.9605  0.7790  0.3486
 8679TIP3    H250233   3.111   0.924   3.336  1.3618  0.0951 -3.3082
 8680TIP3   OH250234   6.194   6.442   0.807 -0.1486  0.2323 -0.1415
 8680TIP3    H150235   6.153   6.471   0.889 -0.2255  0.6257 -0.3165
 8680TIP3    H250236   6.229   6.523   0.768 -0.1301  0.0481 -0.5072
 8681TIP3   OH250237   3.178   5.595   2.292  0.3744  0.0748  0.4170
 8681TIP3    H150238   3.247   5.602   2.359  0.8113  0.7649 -0.0906
 8681TIP3    H250239   3.191   5.509   2.253  1.4098  0.4751 -0.1550
 8682TIP3   OH250240   2.917   5.851   1.409 -0.1143  0.2424  0.2313
 8682TIP3    H150241   2.968   5.854   1.490 -0.5807  0.8389  0.5192
 8682TIP3    H250242   2.935   5.765   1.371  1.4595  0.6233  0.0757
 8683TIP3   OH250243   1.796   1.237   2.724  0.6021 -0.6330 -0.2275
 8683TIP3    H150244   1.837   1.323   2.723 -0.6576 -0.0124 -0.3883
 8683TIP3    H250245   1.866   1.177   2.698  1.1215  0.5104 -1.5635
 8684TIP3   OH250246   6.858   3.335   1.496  0.2374 -0.4786  0.1053
 8684TIP3    H150247   6.841   3.313   1.587 -2.0357  2.2905  0.4893
 8684TIP3    H250248   6.839   3.255   1.447  1.0090 -1.8555  1.9547
 8685TIP3   OH250249   2.960   1.979   1.616  0.3719  0.3542  0.4210
 8685TIP3    H150250   3.035   1.953   1.669  0.8009 -0.7257 -0.6780
 8685TIP3    H250251   2.884   1.942   1.661  0.6905 -0.2282  0.4800
 8686TIP3   OH250252   0.686   1.727   2.587  0.1829  0.2851 -0.2854
 8686TIP3    H150253   0.595   1.704   2.572  0.1043 -0.8371  1.5821
 8686TIP3    H250254   0.685   1.780   2.668  1.0563  1.4816 -1.0124
 8687TIP3   OH250255   2.230   5.988   2.127  0.1526  0.2006 -0.0605
 8687TIP3    H150256   2.159   5.924   2.121 -0.2774  0.3319  2.5118
 8687TIP3    H250257   2.217   6.030   2.212  2.7661  0.9091  0.0603
 8688TIP3   OH250258   4.558   6.832   1.039  0.6289 -0.1909 -0.2173
 8688TIP3    H150259   4.484   6.868   0.990  0.1668  0.1063  0.6715
 8688TIP3    H250260   4.519   6.800   1.120  1.4764 -0.0267  0.2639
 8689TIP3   OH250261   0.652   5.837   1.732 -0.4492  0.4559  0.1748
 8689TIP3    H150262   0.567   5.814   1.694  0.6150 -0.9471 -1.5175
 8689TIP3    H250263   0.645   5.812   1.824 -1.2170 -1.6438 -0.3838
 8690TIP3   OH250264   3.664   0.618   2.424 -0.4146 -0.1633 -0.2603
 8690TIP3    H150265   3.721   0.662   2.488 -0.8035  1.8881 -1.2234
 8690TIP3    H250266   3.633   0.689   2.368 -0.0134 -1.8797 -2.8132
 8691TIP3   OH250267   5.613   1.568   1.225  0.3604  0.1332 -0.3456
 8691TIP3    H150268   5.620   1.646   1.280  0.6273  0.6833 -1.1436
 8691TIP3    H250269   5.695   1.521   1.238  0.1844 -0.0481  0.1627
 8692TIP3   OH250270   1.625   0.176   1.552 -0.3836  0.0201  0.1820
 8692TIP3    H150271   1.651   0.267   1.536  0.3853 -0.2708 -0.2493
 8692TIP3    H250272   1.544   0.166   1.501 -1.6166  1.0377  1.8392
 8693TIP3   OH250273   5.921   2.082   1.847 -0.1688 -0.6614  0.6037
 8693TIP3    H150274   5.953   2.167   1.816 -0.3378 -0.2722  1.4849
 8693TIP3    H250275   5.842   2.065   1.795  0.3263 -0.6898 -0.1684
 8694TIP3   OH250276   1.438   3.410   1.305 -0.4508 -0.3844  0.2311
 8694TIP3    H150277   1.390   3.391   1.385  0.4690 -0.4948  0.7740
 8694TIP3    H250278   1.440   3.506   1.299 -3.0171 -0.3450 -1.2311
 8695TIP3   OH250279   3.740   4.997   2.338  0.3839  0.1126 -0.2754
 8695TIP3    H150280   3.663   4.992   2.395  1.6619 -0.6133  1.4856
 8695TIP3    H250281   3.759   4.906   2.315  0.2814  0.3475 -1.3184
 8696TIP3   OH250282   2.755   1.451   0.836 -0.0726  0.4385  0.4056
 8696TIP3    H150283   2.726   1.484   0.751  0.8430 -0.9486 -0.4732
 8696TIP3    H250284   2.742   1.357   0.832  0.0239  0.3469  1.7922
 8697TIP3   OH250285   0.342   0.800   0.618 -0.0443  0.1878  0.2167
 8697TIP3    H150286   0.372   0.790   0.528 -3.0381 -1.1618 -0.7612
 8697TIP3    H250287   0.367   0.718   0.660  0.1038  0.2462  0.2468
 8698TIP3   OH250288   3.143   3.398   1.395 -0.1352 -0.6111 -0.2245
 8698TIP3    H150289   3.229   3.384   1.434 -0.0637 -2.2365 -0.8636
 8698TIP3    H250290   3.085   3.413   1.469  0.1566 -2.6774  0.4821
 8699TIP3   OH250291   1.992   3.467   1.639 -0.3202  0.2287  0.4646
 8699TIP3    H150292   1.908   3.440   1.603  0.2701  0.7462 -1.4040
 8699TIP3    H250293   1.984   3.561   1.653 -0.1552  0.2234  0.6066
 8700TIP3   OH250294   1.845   1.719   1.264 -0.3572  0.2214 -0.4297
 8700TIP3    H150295   1.904   1.664   1.213 -1.3791 -0.4970 -0.8762
 8700TIP3    H250296   1.828   1.668   1.343  0.9384  1.1746  0.4987
 8701TIP3   OH250297   5.447   3.826   2.849 -0.0090 -0.4367  0.5862
 8701TIP3    H150298   5.447   3.787   2.937  0.7541  0.4135  0.9763
 8701TIP3    H250299   5.387   3.900   2.855  3.6276  2.7533  1.9050
 8702TIP3   OH250300   6.900   2.574   2.289  0.0633  0.2327  0.1916
 8702TIP3    H150301   6.843   2.619   2.352 -0.2295 -0.1036  0.1717
 8702TIP3    H250302   6.932   2.643   2.232 -2.3195  0.1481 -1.3842
 8703TIP3   OH250303   2.754   6.444   0.497  0.2178 -0.4433  0.1148
 8703TIP3    H150304   2.842   6.481   0.489  0.5233 -0.9953  0.8443
 8703TIP3    H250305   2.755   6.395   0.579 -0.9965  0.1447  0.5143
 8704TIP3   OH250306   1.466   2.957   1.934 -0.5371  0.1998 -0.0243
 8704TIP3    H150307   1.488   2.881   1.988 -0.5629  0.4729  0.3756
 8704TIP3    H250308   1.394   2.999   1.981 -1.4814 -0.3128 -0.9659
 8705TIP3   OH250309   7.351   2.620   2.411 -0.2162 -0.4225 -0.5200
 8705TIP3    H150310   7.341   2.695   2.353 -1.7135 -0.9470 -1.0065
 8705TIP3    H250311   7.328   2.544   2.357 -0.8797 -0.9970  0.5218
 8706TIP3   OH250312   5.588   2.340   1.825  0.6626  0.0502  0.1077
 8706TIP3    H150313   5.525   2.269   1.810  0.7185  0.2005 -0.9133
 8706TIP3    H250314   5.534   2.416   1.844  0.5660 -0.0436  0.2087
 8707TIP3   OH250315   2.047   6.922   2.849  0.0961  0.5337 -0.3117
 8707TIP3    H150316   2.107   6.931   2.923 -0.8652 -0.0252  0.5488
 8707TIP3    H250317   1.990   6.849   2.872 -0.5380  0.6652 -1.3884
 8708TIP3   OH250318   3.572   0.992   0.832 -0.1261 -0.2541  0.0582
 8708TIP3    H150319   3.583   0.904   0.798 -3.6985 -0.9180  0.2346
 8708TIP3    H250320   3.514   0.983   0.907 -0.4437  2.2091  0.2207
 8709TIP3   OH250321   4.862   6.047   0.999  0.1567  0.0626  0.2232
 8709TIP3    H150322   4.916   6.117   0.962  0.6853 -1.2987 -1.7571
 8709TIP3    H250323   4.888   6.042   1.091 -0.4776  2.9556  0.6556
 8710TIP3   OH250324   4.948   0.865   0.906 -0.2444  0.0194 -0.0725
 8710TIP3    H150325   4.897   0.907   0.837 -0.2988 -0.0944 -0.1015
 8710TIP3    H250326   4.888   0.858   0.980  0.6251  2.8449  1.0371
 8711TIP3   OH250327   4.860   5.830   3.358  0.2289  0.3521  0.0898
 8711TIP3    H150328   4.934   5.890   3.367  0.1371  0.5738 -0.5789
 8711TIP3    H250329   4.790   5.884   3.320 -1.3086  0.9662  3.4193
 8712TIP3   OH250330   6.633   4.333   1.959  0.2538  0.0274 -0.0760
 8712TIP3    H150331   6.704   4.393   1.978  0.0250  0.0030  0.8920
 8712TIP3    H250332   6.553   4.382   1.981  0.0952 -0.8639  1.4424
 8713TIP3   OH250333   0.856   3.108   1.632  0.1337 -0.0463 -0.2071
 8713TIP3    H150334   0.922   3.044   1.659  0.0148 -0.7538 -1.5058
 8713TIP3    H250335   0.853   3.171   1.703  0.2854 -1.4621  1.1037
 8714TIP3   OH250336   2.218   0.090   2.704  0.1932  0.4214  0.3493
 8714TIP3    H150337   2.306   0.055   2.717  0.4959 -0.3320 -2.9446
 8714TIP3    H250338   2.231   0.167   2.649 -1.2795 -0.7069 -1.6869
 8715TIP3   OH250339   0.717   3.967   1.605  0.5443 -0.0887 -0.1340
 8715TIP3    H150340   0.746   3.955   1.696  0.8440 -0.3017 -0.2555
 8715TIP3    H250341   0.793   4.003   1.561  0.4839 -0.2391 -0.3612
 8716TIP3   OH250342   0.772   2.526   3.137 -0.2614 -0.1664  0.1378
 8716TIP3    H150343   0.689   2.509   3.181 -0.8850 -1.1591 -1.3385
 8716TIP3    H250344   0.837   2.481   3.191 -0.8120 -0.1896  0.7930
 8717TIP3   OH250345   0.537   3.614   3.892  0.0739  0.1080  0.1856
 8717TIP3    H150346   0.592   3.684   3.856  0.2165  0.9464  1.9586
 8717TIP3    H250347   0.457   3.659   3.920  1.0267  0.0171  3.3448
 8718TIP3   OH250348   3.795   2.976   0.545  0.6480 -0.4666  0.4675
 8718TIP3    H150349   3.704   2.981   0.574  0.3111 -0.4497 -0.5529
 8718TIP3    H250350   3.811   2.882   0.537  0.8115 -0.4793  0.8860
 8719TIP3   OH250351   7.525   5.884   1.779 -0.1575 -0.4743 -0.0708
 8719TIP3    H150352   7.507   5.873   1.686  0.5421 -0.6725 -0.1925
 8719TIP3    H250353   7.460   5.830   1.824 -1.2533  0.5371 -0.3891
 8720TIP3   OH250354   4.781   0.703   1.457  0.1258  0.4677 -0.3919
 8720TIP3    H150355   4.749   0.728   1.544 -0.0340 -0.3610 -0.2070
 8720TIP3    H250356   4.703   0.708   1.401  0.1397  0.5876 -0.4011
 8721TIP3   OH250357   3.103   6.431   3.331  0.0324  0.3049 -0.8540
 8721TIP3    H150358   3.035   6.370   3.302 -0.1448  0.6720 -1.2131
 8721TIP3    H250359   3.184   6.380   3.326 -0.1477  0.0191 -0.9067
 8722TIP3   OH250360   4.933   3.848   2.611 -0.0598 -0.3187  0.2889
 8722TIP3    H150361   4.868   3.784   2.581  0.9971 -1.1036 -0.3936
 8722TIP3    H250362   4.929   3.843   2.707 -2.8209  1.5398  0.3881
 8723TIP3   OH250363   6.845   3.126   2.287 -0.1339  0.0300 -0.1020
 8723TIP3    H150364   6.761   3.089   2.316 -0.1844 -1.0836 -1.5108
 8723TIP3    H250365   6.825   3.217   2.266 -1.6091 -0.7194 -2.4720
 8724TIP3   OH250366   6.497   6.940   1.814 -0.1364  0.2554  0.4910
 8724TIP3    H150367   6.527   6.923   1.903 -1.0110 -0.2277  0.7073
 8724TIP3    H250368   6.575   6.932   1.760  0.2972  0.0050  1.1461
 8725TIP3   OH250369   2.439   5.242   1.704  0.2133 -0.0533  0.0182
 8725TIP3    H150370   2.506   5.307   1.685 -0.6033  0.3270 -1.7433
 8725TIP3    H250371   2.471   5.162   1.662 -0.6960  0.2959 -1.4062
 8726TIP3   OH250372   4.724   4.717   1.081  0.3950  0.3026  0.0579
 8726TIP3    H150373   4.813   4.689   1.103  0.3428 -0.8273 -1.0842
 8726TIP3    H250374   4.735   4.798   1.031  0.6760  1.0316  1.2539
 8727TIP3   OH250375   0.200   7.185   0.972 -0.4794  0.1859 -0.2486
 8727TIP3    H150376   0.134   7.253   0.959 -0.3659  0.0846 -1.5211
 8727TIP3    H250377   0.280   7.222   0.936 -0.1523 -0.2005  0.0731
 8728TIP3   OH250378   7.004   1.661   1.859  0.1748 -0.4647  0.2531
 8728TIP3    H150379   6.950   1.693   1.931  1.0219 -1.5846  1.4459
 8728TIP3    H250380   6.942   1.623   1.797 -0.5739  0.6268  0.3137
 8729TIP3   OH250381   5.725   7.392   1.819 -0.1094 -0.0494 -0.1985
 8729TIP3    H150382   5.766   7.306   1.826 -1.1720 -0.5700 -0.3051
 8729TIP3    H250383   5.788   7.444   1.768  0.8054 -0.5738  0.3590
 8730TIP3   OH250384   5.875   7.172   2.412 -0.2015  0.4878  0.1778
 8730TIP3    H150385   5.837   7.107   2.354  0.8916  0.3787 -0.4390
 8730TIP3    H250386   5.804   7.197   2.471 -1.1973  0.2489 -0.8978
 8731TIP3   OH250387   0.511   6.314   1.488  0.1346 -0.9000 -0.1636
 8731TIP3    H150388   0.446   6.284   1.552  0.2993 -0.5784  0.1566
 8731TIP3    H250389   0.473   6.394   1.452  0.4393 -0.6101  0.1594
 8732TIP3   OH250390   3.869   0.030   1.045  0.0835  0.7057  0.5521
 8732TIP3    H150391   3.889   0.119   1.015 -0.4947  0.9711  0.9304
 8732TIP3    H250392   3.775   0.032   1.064  0.3311  0.4206  1.8922
 8733TIP3   OH250393   3.070   6.443   1.619 -0.5724  0.5934 -0.1943
 8733TIP3    H150394   3.024   6.492   1.687 -0.9879  0.8508 -0.6590
 8733TIP3    H250395   3.005   6.383   1.583 -0.1811 -0.0118  0.0787
 8734TIP3   OH250396   5.154   4.277   2.445  0.7769  0.8209  0.2503
 8734TIP3    H150397   5.101   4.356   2.433  0.3998  0.5529  0.1371
 8734TIP3    H250398   5.090   4.206   2.452  1.1406  0.2838 -1.3505
 8735TIP3   OH250399   2.247   7.440   1.425  0.2439 -0.6135 -0.5842
 8735TIP3    H150400   2.323   7.480   1.467 -0.2256 -0.9733  0.6537
 8735TIP3    H250401   2.190   7.514   1.403  0.7283 -0.3831 -1.0632
 8736TIP3   OH250402   3.729   6.539   2.820  0.5407  0.0221 -0.0127
 8736TIP3    H150403   3.788   6.561   2.892  0.7396  1.2132 -0.5183
 8736TIP3    H250404   3.709   6.623   2.778 -0.7967 -0.4606 -0.4132
 8737TIP3   OH250405   6.148   5.789   0.348 -0.1604 -0.5927  0.2781
 8737TIP3    H150406   6.117   5.750   0.266  1.9732 -1.0191 -0.3830
 8737TIP3    H250407   6.171   5.715   0.403  3.9438 -0.4964 -0.9946
 8738TIP3   OH250408   6.115   2.988   2.692  0.6129  0.5253  0.1721
 8738TIP3    H150409   6.196   3.037   2.677  0.4788  0.8538  0.4903
 8738TIP3    H250410   6.121   2.959   2.783  0.4417  0.4182  0.1497
 8739TIP3   OH250411   3.551   3.475   1.299 -0.7075  0.0150  0.3838
 8739TIP3    H150412   3.584   3.498   1.213  0.9429 -1.6977  0.5034
 8739TIP3    H250413   3.501   3.395   1.285  0.1595 -0.6689  1.1010
 8740TIP3   OH250414   0.349   4.443   1.894 -0.2283 -0.4875 -0.1370
 8740TIP3    H150415   0.411   4.381   1.933  0.1241 -0.5589 -0.8005
 8740TIP3    H250416   0.364   4.436   1.800 -2.2901 -1.6334 -0.4495
 8741TIP3   OH250417   2.239   4.306   1.459  0.1099  0.4754 -0.0627
 8741TIP3    H150418   2.249   4.242   1.529 -2.8829 -0.0134  0.0426
 8741TIP3    H250419   2.205   4.256   1.385 -0.8942  1.6527 -0.4373
 8742TIP3   OH250420   2.789   1.718   2.250 -0.4221  0.5238  0.3335
 8742TIP3    H150421   2.714   1.778   2.257 -0.9199 -0.2637  2.6965
 8742TIP3    H250422   2.761   1.640   2.298  2.2613  0.5927  2.2304
 8743TIP3   OH250423   0.182   5.927   0.829 -0.5438  0.6553 -0.0606
 8743TIP3    H150424   0.141   5.904   0.912 -2.2168  1.9118 -0.4681
 8743TIP3    H250425   0.169   5.850   0.773 -0.3860  0.2228  0.4887
 8744TIP3   OH250426   6.394   3.548   3.081  0.1897 -0.0815 -0.5340
 8744TIP3    H150427   6.426   3.560   3.170 -0.0987  1.0973 -0.5726
 8744TIP3    H250428   6.428   3.462   3.054  0.6453 -0.2498  0.5413
 8745TIP3   OH250429   3.941   2.520   1.174  0.3617 -0.1495 -0.7403
 8745TIP3    H150430   3.993   2.592   1.140 -0.9127  2.2067  1.8352
 8745TIP3    H250431   3.963   2.516   1.267 -2.1181 -0.7146 -0.0901
 8746TIP3   OH250432   3.023   6.482   2.647 -0.3464 -1.0078  0.0650
 8746TIP3    H150433   3.074   6.484   2.566 -0.6815  0.3207 -0.1317
 8746TIP3    H250434   2.938   6.519   2.623  0.1908  1.2777  1.4194
 8747TIP3   OH250435   7.432   0.099   0.790 -0.1418  0.2213  0.2681
 8747TIP3    H150436   7.396   0.180   0.825 -1.9717 -0.1335 -0.7060
 8747TIP3    H250437   7.520   0.123   0.761  0.5617  1.0853  2.8033
 8748TIP3   OH250438   6.084   6.044   3.038 -0.4834 -0.2497 -0.3630
 8748TIP3    H150439   6.163   5.989   3.044  0.0877  0.5995  0.1992
 8748TIP3    H250440   6.017   5.985   3.004  0.1241 -1.2838  0.1566
 8749TIP3   OH250441   2.432   6.916   3.007  0.1804 -0.3003  0.4386
 8749TIP3    H150442   2.342   6.932   3.036  0.7012  0.4578  1.7749
 8749TIP3    H250443   2.476   6.883   3.085  1.9043  2.7819  0.9345
 8750TIP3   OH250444   0.070   4.789   1.351 -0.1199  0.0378  0.6047
 8750TIP3    H150445   0.049   4.699   1.329 -0.6210  0.2476  0.2075
 8750TIP3    H250446   0.082   4.833   1.267  0.9478  0.1627  0.8011
 8751TIP3   OH250447   0.615   3.956   2.612 -0.2613  0.1810  0.1754
 8751TIP3    H150448   0.556   3.899   2.661 -0.2790  0.4544  0.4676
 8751TIP3    H250449   0.569   4.039   2.604 -1.6160 -0.7365 -2.9629
 8752TIP3   OH250450   0.931   5.665   1.847 -0.1614  0.0278 -0.0224
 8752TIP3    H150451   0.986   5.586   1.839  1.1997  0.9873 -0.4083
 8752TIP3    H250452   0.869   5.643   1.917 -0.0389 -1.5055 -0.3476
 8753TIP3   OH250453   1.346   2.324   0.577  0.2904  0.0719  0.1713
 8753TIP3    H150454   1.340   2.384   0.502  0.2144  0.0934  0.1938
 8753TIP3    H250455   1.267   2.343   0.628  0.5106  0.2908  0.4320
 8754TIP3   OH250456   6.569   4.596   2.462  0.0507 -0.3648 -0.2128
 8754TIP3    H150457   6.639   4.562   2.406  0.6294 -0.8582  0.7911
 8754TIP3    H250458   6.614   4.650   2.526 -0.5034 -0.5647  0.3541
 8755TIP3   OH250459   7.183   2.701   1.913  0.3225  0.0416 -0.6165
 8755TIP3    H150460   7.189   2.647   1.835  1.5559  0.3986 -0.7852
 8755TIP3    H250461   7.274   2.718   1.938 -0.0409  0.1502  0.7470
 8756TIP3   OH250462   0.149   5.680   1.592  0.4947 -0.1243  0.4556
 8756TIP3    H150463   0.132   5.613   1.526  0.2649 -0.0294  0.4178
 8756TIP3    H250464   0.130   5.763   1.547  0.3613 -0.0574  0.6331
 8757TIP3   OH250465   1.115   5.918   0.759 -0.2062  0.2184 -0.1900
 8757TIP3    H150466   1.190   5.924   0.700  0.7112 -1.5929  0.7331
 8757TIP3    H250467   1.126   5.992   0.819  0.8744 -0.0510 -0.0386
 8758TIP3   OH250468   0.829   1.087   1.141  0.5205 -0.0963 -0.3581
 8758TIP3    H150469   0.828   1.075   1.236  0.3532 -0.2029 -0.3732
 8758TIP3    H250470   0.811   1.180   1.128  1.0962  0.0316 -0.2664
 8759TIP3   OH250471   6.986   7.426   2.255 -0.5024 -0.0256 -0.3045
 8759TIP3    H150472   6.917   7.386   2.308 -0.6990  0.2220 -0.3769
 8759TIP3    H250473   6.974   7.387   2.168 -0.1532 -0.4643 -0.1633
 8760TIP3   OH250474   2.606   6.395   0.807  0.2168 -0.0704 -0.2104
 8760TIP3    H150475   2.605   6.467   0.744  0.4146  0.3368  0.2391
 8760TIP3    H250476   2.667   6.332   0.770  1.0042  0.5582 -0.0154
 8761TIP3   OH250477   5.192   0.381   2.439 -0.3947  0.1231 -0.3177
 8761TIP3    H150478   5.099   0.358   2.436 -0.5674  0.4096  1.7239
 8761TIP3    H250479   5.228   0.325   2.507  1.7281 -2.4069 -3.2491
 8762TIP3   OH250480   3.129   3.960   1.044  0.3805 -0.4578 -0.3074
 8762TIP3    H150481   3.206   3.930   0.996  0.8397 -3.1368  1.8624
 8762TIP3    H250482   3.163   4.021   1.110  0.2983  0.0821 -0.7542
 8763TIP3   OH250483   4.830   2.999   1.417  0.1865 -0.6185 -0.3687
 8763TIP3    H150484   4.862   3.065   1.479  0.0081  0.4043 -1.3339
 8763TIP3    H250485   4.763   3.045   1.366  1.2014 -1.0318 -2.1528
 8764TIP3   OH250486   5.707   7.622   9.233 -0.9126 -0.2283 -0.0672
 8764TIP3    H150487   5.728   7.704   9.190 -0.8647  0.5470  1.3558
 8764TIP3    H250488   5.625   7.594   9.192 -1.3401  0.9365 -0.0573
 8765TIP3   OH250489   7.652   5.091   2.509  0.4424  1.0981 -0.0879
 8765TIP3    H150490   7.706   5.014   2.490  0.2533  0.3131  2.1840
 8765TIP3    H250491   7.707   5.144   2.568 -1.2164  0.2047  2.4175
 8766TIP3   OH250492   6.764   7.543   2.081  0.5204  0.3402  0.7482
 8766TIP3    H150493   6.732   7.477   2.020  1.7864 -0.3327  0.7855
 8766TIP3    H250494   6.779   7.496   2.163  1.3571  0.6859  0.7992
 8767TIP3   OH250495   5.605   3.820   1.631 -0.1078 -0.3899 -0.2538
 8767TIP3    H150496   5.538   3.755   1.608  0.7369 -0.9288 -1.2839
 8767TIP3    H250497   5.687   3.783   1.598  0.7407  0.1909  1.1128
 8768TIP3   OH250498   3.786   1.612   3.072  0.8810  0.0854 -0.4671
 8768TIP3    H150499   3.777   1.565   3.155 -0.3970  0.7326 -0.2063
 8768TIP3    H250500   3.791   1.705   3.097 -2.5737  0.5999 -1.1527
 8769TIP3   OH250501   3.386   6.661   2.695  0.0972 -0.1175  0.2386
 8769TIP3    H150502   3.469   6.689   2.657 -0.1072 -1.8965 -1.6165
 8769TIP3    H250503   3.322   6.724   2.662  0.2034 -0.6394 -0.9915
 8770TIP3   OH250504   5.132   5.929   3.005 -0.2424 -0.5459  0.4978
 8770TIP3    H150505   5.203   5.945   3.068 -0.0343 -1.0473  0.3975
 8770TIP3    H250506   5.177   5.918   2.921 -0.6158  1.6842 -0.0555
 8771TIP3   OH250507   5.690   7.600   1.356 -0.2276 -0.0891 -0.3372
 8771TIP3    H150508   5.601   7.564   1.353  0.8932 -3.3046  0.5715
 8771TIP3    H250509   5.707   7.616   1.449 -0.1857  1.5752 -0.6028
 8772TIP3   OH250510   6.149   1.308   3.015  0.1751 -0.0404  0.1602
 8772TIP3    H150511   6.079   1.258   2.973 -0.0420 -0.1734  0.6804
 8772TIP3    H250512   6.221   1.246   3.024 -0.8962 -1.0141  3.0030
 8773TIP3   OH250513   2.348   1.855   3.498  0.0131  0.1359  0.1184
 8773TIP3    H150514   2.372   1.874   3.589 -0.4190  1.9429 -0.1102
 8773TIP3    H250515   2.264   1.809   3.505 -0.3148  0.7926  0.6143
 8774TIP3   OH250516   3.246   1.758   0.699 -0.3628  0.2857 -0.0228
 8774TIP3    H150517   3.305   1.812   0.645  0.2671 -1.4472 -1.1384
 8774TIP3    H250518   3.305   1.707   0.755 -0.8654 -0.4089 -0.1140
 8775TIP3   OH250519   6.415   1.677   1.906 -0.2780  0.3754 -0.3739
 8775TIP3    H150520   6.372   1.743   1.960  0.8358  0.7675  0.0500
 8775TIP3    H250521   6.439   1.607   1.967  1.3961  1.0248 -0.2483
 8776TIP3   OH250522   1.283   1.445   7.705 -0.2933  0.2703 -0.0913
 8776TIP3    H150523   1.365   1.400   7.725  1.1207  2.5846 -0.2802
 8776TIP3    H250524   1.223   1.376   7.679  2.3750 -1.3457 -2.5359
 8777TIP3   OH250525   3.737   4.420   1.555  0.0705  0.1002  0.2324
 8777TIP3    H150526   3.794   4.451   1.626  0.3513  0.1676 -0.0200
 8777TIP3    H250527   3.770   4.464   1.477 -0.1285 -0.1065  0.0319
 8778TIP3   OH250528   4.489   4.939   2.069 -0.2982 -0.0940  0.9313
 8778TIP3    H150529   4.558   5.001   2.044 -1.2329  0.6284  0.0020
 8778TIP3    H250530   4.487   4.876   1.997  0.0868 -0.7207  1.4669
 8779TIP3   OH250531   7.604   0.464   1.834  0.2641  0.2874 -0.2450
 8779TIP3    H150532   7.577   0.453   1.925 -1.8102 -1.3000 -0.9617
 8779TIP3    H250533   7.647   0.549   1.832  1.4333 -0.1333  2.4168
 8780TIP3   OH250534   2.095   0.395   1.825  0.4719 -0.2821  0.5432
 8780TIP3    H150535   2.128   0.356   1.744 -2.7010 -0.3545 -0.8750
 8780TIP3    H250536   2.095   0.489   1.808 -1.4116 -0.3682 -0.1347
 8781TIP3   OH250537   5.245   0.196   1.446  0.5905 -0.2679 -0.5054
 8781TIP3    H150538   5.262   0.287   1.420 -0.5488 -0.2155 -1.1167
 8781TIP3    H250539   5.325   0.170   1.492  0.8525  1.1157 -0.1074
 8782TIP3   OH250540   5.457   7.116   2.178 -0.0750 -0.9011 -0.1968
 8782TIP3    H150541   5.474   7.031   2.219 -0.8487 -0.2263  1.6119
 8782TIP3    H250542   5.538   7.165   2.189 -0.2040 -0.8037  0.3224
 8783TIP3   OH250543   1.497   1.042   1.543  0.0732  0.1749  0.5733
 8783TIP3    H150544   1.583   1.005   1.522  0.4120  1.8484 -1.2913
 8783TIP3    H250545   1.454   1.052   1.458 -1.8662 -0.3158  1.4437
 8784TIP3   OH250546   2.081   5.125   0.848  0.1041 -0.0309  0.5016
 8784TIP3    H150547   2.175   5.130   0.830  0.5160 -0.4112  2.3482
 8784TIP3    H250548   2.040   5.147   0.764  1.8232  0.3625 -0.2956
 8785TIP3   OH250549   7.208   0.156   1.968 -0.0203 -0.1771  0.2303
 8785TIP3    H150550   7.273   0.100   2.012  0.2179 -0.4975 -0.5148
 8785TIP3    H250551   7.129   0.101   1.964  0.3467 -0.6477 -0.9080
 8786TIP3   OH250552   6.318   7.112   2.251  0.1626 -0.3884 -0.4554
 8786TIP3    H150553   6.356   7.165   2.320  1.7046 -0.3108 -1.3079
 8786TIP3    H250554   6.240   7.159   2.223 -0.2167 -0.1942  0.8939
 8787TIP3   OH250555   6.186   0.628   2.755  0.0360  0.5119 -0.4937
 8787TIP3    H150556   6.255   0.576   2.713  0.8006  1.2853 -0.2220
 8787TIP3    H250557   6.115   0.630   2.691  0.0196 -0.7867 -0.5475
 8788TIP3   OH250558   1.120   4.894   1.665 -0.1627 -0.1415  0.0883
 8788TIP3    H150559   1.139   4.812   1.619  1.8372 -0.6797  1.7401
 8788TIP3    H250560   1.205   4.939   1.670 -1.2545  2.1894 -0.9955
 8789TIP3   OH250561   1.818   5.290   1.301 -0.0429  0.1678  0.4156
 8789TIP3    H150562   1.884   5.299   1.370  0.7461 -2.2497  0.0838
 8789TIP3    H250563   1.866   5.248   1.229 -2.0201 -2.2408  0.3773
 8790TIP3   OH250564   6.427   7.576   1.579  0.0438 -0.2187  0.3470
 8790TIP3    H150565   6.500   7.549   1.523 -1.7709  0.1256 -2.3566
 8790TIP3    H250566   6.377   7.496   1.594 -1.3909  0.2423 -1.6007
 8791TIP3   OH250567   2.699   0.718   1.024 -0.0250  0.5099  0.1013
 8791TIP3    H150568   2.652   0.640   0.994  0.6115  0.8263 -1.8399
 8791TIP3    H250569   2.731   0.760   0.944  4.0943  0.0038  1.2576
 8792TIP3   OH250570   1.702   1.323   1.729 -0.3593  0.1364 -0.4689
 8792TIP3    H150571   1.688   1.414   1.704 -1.7339 -0.2317 -1.1585
 8792TIP3    H250572   1.707   1.325   1.825 -2.1401  0.7637 -0.3392
 8793TIP3   OH250573   2.925   0.904   1.461  0.1610  0.8741 -0.1295
 8793TIP3    H150574   2.844   0.955   1.464 -0.8359 -0.6629  0.5242
 8793TIP3    H250575   2.902   0.827   1.409  1.5160  0.8862 -0.7785
 8794TIP3   OH250576   7.416   5.427   1.495 -0.0200 -0.6256  0.8734
 8794TIP3    H150577   7.433   5.339   1.463  0.6876 -0.0405 -0.4318
 8794TIP3    H250578   7.450   5.485   1.427 -0.7909  0.6635  1.5314
 8795TIP3   OH250579   1.344   2.049   2.571 -0.5638 -0.2301 -0.2261
 8795TIP3    H150580   1.339   1.954   2.564 -1.7401 -0.1597 -0.5277
 8795TIP3    H250581   1.434   2.066   2.599 -0.5723 -1.4722  0.6238
 8796TIP3   OH250582   3.449   4.611   1.788 -0.0850  0.1582 -0.2184
 8796TIP3    H150583   3.415   4.699   1.775  0.4186  0.6087  1.3450
 8796TIP3    H250584   3.533   4.623   1.833  0.4007 -1.0826 -0.7346
 8797TIP3   OH250585   1.462   6.468   2.832  0.0904 -0.0114  0.0323
 8797TIP3    H150586   1.382   6.513   2.860  0.5408 -0.1618  1.6051
 8797TIP3    H250587   1.517   6.538   2.796  0.7215  0.7492  2.3150
 8798TIP3   OH250588   4.859   4.136   1.536  0.1461 -0.1845  0.1586
 8798TIP3    H150589   4.936   4.141   1.592 -0.2438 -0.6092  0.7472
 8798TIP3    H250590   4.834   4.043   1.537  0.9895 -0.4912 -1.9115
 8799TIP3   OH250591   4.633   0.354   1.351  0.1659 -0.1565  0.8282
 8799TIP3    H150592   4.547   0.313   1.363 -0.6964  1.7328  1.3671
 8799TIP3    H250593   4.664   0.372   1.439  1.0793 -0.6657  0.6329
 8800TIP3   OH250594   0.910   2.384   3.330 -0.2200  0.0050  0.2362
 8800TIP3    H150595   0.835   2.347   3.377 -0.3567 -2.1816 -1.5361
 8800TIP3    H250596   0.929   2.465   3.377 -1.7848 -0.8539  2.5831
 8801TIP3   OH250597   2.453   0.900   3.269  0.1288  0.7363 -0.5582
 8801TIP3    H150598   2.474   0.993   3.265 -3.9451  1.8534 -0.3438
 8801TIP3    H250599   2.412   0.880   3.185  0.0074 -0.6059 -0.2138
 8802TIP3   OH250600   5.480   5.823   0.995 -0.0130  0.5350  0.1605
 8802TIP3    H150601   5.472   5.912   1.029  1.4456  0.7046  0.1138
 8802TIP3    H250602   5.392   5.802   0.961 -1.5911  0.3611  3.8897
 8803TIP3   OH250603   5.388   7.444   0.917  0.7089  0.1535  1.0782
 8803TIP3    H150604   5.443   7.508   0.961  2.2721 -0.2006 -0.2522
 8803TIP3    H250605   5.435   7.424   0.836 -0.8057 -1.0682  0.4552
 8804TIP3   OH250606   0.897   5.273   2.764 -0.3949 -0.3464  0.0463
 8804TIP3    H150607   0.957   5.266   2.838  0.3311  1.5994 -0.3141
 8804TIP3    H250608   0.918   5.357   2.723 -2.1068 -0.4783 -1.2155
 8805TIP3   OH250609   2.169   5.324   2.853 -0.3633 -0.2179  0.2795
 8805TIP3    H150610   2.225   5.330   2.776  0.7196  2.9205  1.1496
 8805TIP3    H250611   2.220   5.274   2.917  1.7896  2.8078  1.1531
 8806TIP3   OH250612   3.104   7.267   0.755  0.5132 -0.4624 -0.8144
 8806TIP3    H150613   3.061   7.184   0.738 -1.1881 -0.1025  1.2673
 8806TIP3    H250614   3.050   7.332   0.711 -0.0383 -0.1796  0.2512
 8807TIP3   OH250615   1.868   7.312   2.380  0.1003  0.0796  0.3967
 8807TIP3    H150616   1.838   7.222   2.392  0.0136  0.2004  1.1047
 8807TIP3    H250617   1.925   7.308   2.303 -3.2197  0.1878 -2.3036
 8808TIP3   OH250618   5.636   6.434   1.557  0.2045 -0.2467  0.4516
 8808TIP3    H150619   5.698   6.485   1.505 -1.9192  1.1535 -0.8978
 8808TIP3    H250620   5.633   6.479   1.642  1.4309 -0.6875  0.7428
 8809TIP3   OH250621   7.110   1.271   2.438 -0.4212  0.3507 -0.4182
 8809TIP3    H150622   7.076   1.269   2.527  0.6477 -1.1126 -0.0011
 8809TIP3    H250623   7.104   1.180   2.408  0.8192  0.5080 -1.2065
 8810TIP3   OH250624   2.802   1.804   3.130 -0.3698  0.1341  0.1596
 8810TIP3    H150625   2.725   1.801   3.074 -1.4812  1.4313  1.5361
 8810TIP3    H250626   2.767   1.812   3.219  1.3484 -0.1573  0.9139
 8811TIP3   OH250627   1.355   5.076   3.172  0.6787  0.2882 -0.1058
 8811TIP3    H150628   1.376   5.008   3.107 -0.2622  0.0571 -0.1835
 8811TIP3    H250629   1.267   5.053   3.203 -0.2846  2.2702 -1.1675
 8812TIP3   OH250630   4.909   3.272   2.811  0.2142 -0.1194  0.0202
 8812TIP3    H150631   4.923   3.366   2.803 -0.2290 -0.1271 -0.9068
 8812TIP3    H250632   4.881   3.244   2.724  4.0418 -1.7795 -0.9039
 8813TIP3   OH250633   3.610   1.105   1.522  0.2504 -0.5381 -0.0878
 8813TIP3    H150634   3.575   1.190   1.547 -1.8361 -1.1962 -0.5544
 8813TIP3    H250635   3.615   1.056   1.604 -1.9680 -1.0859 -0.2017
 8814TIP3   OH250636   5.186   4.173   1.983  0.2966  0.4208  0.4916
 8814TIP3    H150637   5.177   4.077   1.982  0.6255  0.3844  0.7129
 8814TIP3    H250638   5.218   4.192   2.071  1.6368  0.6049 -0.0083
 8815TIP3   OH250639   7.456   5.194   0.955 -0.3330  0.6588  0.4997
 8815TIP3    H150640   7.532   5.245   0.930 -0.0856  0.4639  0.8552
 8815TIP3    H250641   7.411   5.247   1.021 -0.5630  0.8160  0.2249
 8816TIP3   OH250642   0.201   6.684   0.719 -0.2879  0.9053  0.0409
 8816TIP3    H150643   0.207   6.594   0.688 -0.6246  1.2740 -1.1397
 8816TIP3    H250644   0.198   6.677   0.814  3.2596 -0.1270  0.1903
 8817TIP3   OH250645   1.019   7.318   2.520  0.6527  0.1615 -0.0803
 8817TIP3    H150646   0.987   7.370   2.446 -0.3605  0.0056  0.2437
 8817TIP3    H250647   0.956   7.333   2.590  1.5588  0.2407  0.7447
 8818TIP3   OH250648   6.807   2.899   2.737 -0.2559  0.0552  0.2408
 8818TIP3    H150649   6.757   2.941   2.808  0.4834  1.8537 -0.2329
 8818TIP3    H250650   6.754   2.824   2.712 -0.5039 -0.7243  2.7488
 8819TIP3   OH250651   5.437   3.690   2.092 -0.5041 -0.5706  0.0101
 8819TIP3    H150652   5.426   3.632   2.016  0.7717 -1.7535  0.6833
 8819TIP3    H250653   5.391   3.645   2.163 -1.1533  0.2164  0.1007
 8820TIP3   OH250654   6.143   4.761   2.906  0.3563  0.3031  0.3004
 8820TIP3    H150655   6.117   4.808   2.827 -1.0587  3.6070  2.5039
 8820TIP3    H250656   6.068   4.706   2.926 -0.4143  1.4360  0.6622
 8821TIP3   OH250657   3.996   0.460   2.823  0.3283 -1.0325  0.0985
 8821TIP3    H150658   4.049   0.517   2.879 -1.2179 -0.3339  0.9194
 8821TIP3    H250659   3.965   0.391   2.882 -0.2843 -0.9875 -0.1596
 8822TIP3   OH250660   7.257   3.545   3.396  0.4853 -0.3736  0.2282
 8822TIP3    H150661   7.195   3.606   3.357  1.4501  1.0127  0.7683
 8822TIP3    H250662   7.203   3.490   3.454 -0.1646  1.3941  1.4004
 8823TIP3   OH250663   0.417   3.047   2.878 -0.4085  0.0896  0.1814
 8823TIP3    H150664   0.472   3.031   2.955 -0.9190 -0.5467  0.4221
 8823TIP3    H250665   0.379   2.962   2.858 -2.0843  0.6841  0.6251
 8824TIP3   OH250666   0.975   7.538   2.353 -0.2248  0.0435  0.2039
 8824TIP3    H150667   0.891   7.576   2.381  0.0893  0.3428  0.7476
 8824TIP3    H250668   0.956   7.500   2.267 -0.7326  0.7899 -0.0272
 8825TIP3   OH250669   6.015   7.651   3.416 -0.1509 -0.4308  0.1986
 8825TIP3    H150670   6.034   7.562   3.386  0.4559  0.2190 -1.4318
 8825TIP3    H250671   6.086   7.704   3.381 -1.9179  1.1417 -1.2113
 8826TIP3   OH250672   1.686   6.054   3.014 -0.2040 -0.1401 -0.0326
 8826TIP3    H150673   1.631   6.123   2.976  1.9307  1.4439 -0.4413
 8826TIP3    H250674   1.656   6.045   3.104 -0.9470  0.8712 -0.1656
 8827TIP3   OH250675   3.140   1.157   0.595 -0.4037  0.2472  0.7188
 8827TIP3    H150676   3.130   1.134   0.688 -0.2156  0.0067  0.6805
 8827TIP3    H250677   3.216   1.107   0.566  1.3644  2.5243  1.1585
 8828TIP3   OH250678   3.408   7.674   1.859  0.7378  0.2198 -0.3335
 8828TIP3    H150679   3.373   7.585   1.850  0.5684  0.3461 -0.9558
 8828TIP3    H250680   3.331   7.730   1.852  0.8121  0.4132  0.3047
 8829TIP3   OH250681   3.326   3.946   1.721 -0.2497 -0.1269 -0.0288
 8829TIP3    H150682   3.255   3.979   1.777  0.1677 -1.0342  1.0818
 8829TIP3    H250683   3.285   3.878   1.669 -0.1396 -0.8965  0.8661
 8830TIP3   OH250684   3.328   2.996   1.681  0.1040  0.5438 -0.2450
 8830TIP3    H150685   3.413   3.014   1.722 -0.5593  2.5588  0.3578
 8830TIP3    H250686   3.347   2.997   1.587  0.9411 -0.2442 -0.1039
 8831TIP3   OH250687   2.674   6.563   2.410  0.2392  0.1070  0.2776
 8831TIP3    H150688   2.760   6.522   2.396  0.5638  1.4578 -2.1988
 8831TIP3    H250689   2.617   6.490   2.435  1.6412 -1.1761 -0.0915
 8832TIP3   OH250690   6.230   3.736   2.954 -0.5393  0.0446 -0.0374
 8832TIP3    H150691   6.218   3.818   3.002  1.5718  0.6983 -0.5054
 8832TIP3    H250692   6.277   3.680   3.015 -1.2391 -0.5383 -0.0198
 8833TIP3   OH250693   1.742   0.142   1.802 -0.1562  0.1070  0.3740
 8833TIP3    H150694   1.751   0.157   1.707  0.3193  2.0305  0.6785
 8833TIP3    H250695   1.775   0.054   1.815  1.3522  0.4061 -1.0437
 8834TIP3   OH250696   2.732   6.466   1.056  0.1387  0.5006 -0.1342
 8834TIP3    H150697   2.792   6.393   1.045 -0.1426  0.3384 -0.6511
 8834TIP3    H250698   2.662   6.450   0.992 -0.1561  0.9851  0.0543
 8835TIP3   OH250699   3.684   4.791   1.175 -0.5594  0.6989  0.0588
 8835TIP3    H150700   3.657   4.829   1.092 -0.8799  1.6283  0.5735
 8835TIP3    H250701   3.778   4.811   1.180 -0.5108  0.5243 -0.1376
 8836TIP3   OH250702   3.831   4.945   1.378  0.1794 -0.1227 -0.5011
 8836TIP3    H150703   3.862   4.858   1.353  0.7597 -0.0259 -0.1342
 8836TIP3    H250704   3.736   4.935   1.388  0.4548 -1.2595  1.6687
 8837TIP3   OH250705   2.007   0.878   0.620  0.3833 -0.8673 -0.1121
 8837TIP3    H150706   1.954   0.942   0.574  1.5522  0.0730 -0.1991
 8837TIP3    H250707   1.966   0.869   0.705  1.0938  1.2502  0.5188
 8838TIP3   OH250708   3.896   7.077   2.069  0.3347 -0.4992  0.4114
 8838TIP3    H150709   3.864   7.067   2.159 -0.1882 -0.2717  0.2544
 8838TIP3    H250710   3.829   7.129   2.026  1.1039  0.3029  0.1688
 8839TIP3   OH250711   0.834   3.664   1.185  0.3605 -0.2282 -0.1110
 8839TIP3    H150712   0.848   3.670   1.090  0.9416 -0.5590 -0.0538
 8839TIP3    H250713   0.787   3.581   1.197 -1.7617  0.8820 -0.3019
 8840TIP3   OH250714   2.740   1.273   2.036 -0.2908  0.0005  0.2865
 8840TIP3    H150715   2.826   1.296   2.073 -0.2731 -1.5439  1.2630
 8840TIP3    H250716   2.758   1.253   1.944  0.5313 -0.9633  0.6397
 8841TIP3   OH250717   5.478   6.686   2.700  0.3186 -0.1609  0.4804
 8841TIP3    H150718   5.465   6.644   2.785 -1.3708  2.5034  1.6700
 8841TIP3    H250719   5.532   6.763   2.719  0.0013  0.4287 -0.8753
 8842TIP3   OH250720   0.074   7.172   1.600  0.2226  0.1532 -0.3102
 8842TIP3    H150721   0.142   7.146   1.662 -2.0091 -0.9312  1.8615
 8842TIP3    H250722   0.039   7.089   1.568 -0.6249  0.6639 -0.7207
 8843TIP3   OH250723   4.645   4.447   2.516  0.6785 -0.0779 -0.1596
 8843TIP3    H150724   4.722   4.504   2.517  1.0121 -0.4952 -1.1233
 8843TIP3    H250725   4.576   4.500   2.477  0.5483  0.1928  0.4227
 8844TIP3   OH250726   1.990   3.754   2.050 -0.5294  0.3058  0.0614
 8844TIP3    H150727   1.951   3.705   2.122  1.4655  0.0387  1.0429
 8844TIP3    H250728   2.078   3.778   2.082 -0.9601  3.5303 -0.8075
 8845TIP3   OH250729   2.078   0.614   3.237 -0.1789  0.3235  0.0464
 8845TIP3    H150730   2.012   0.612   3.306  0.2667  1.6183  0.5463
 8845TIP3    H250731   2.156   0.577   3.277 -0.2273  0.0381 -0.1206
 8846TIP3   OH250732   6.810   5.328   0.389  0.0863 -0.3278 -0.0060
 8846TIP3    H150733   6.844   5.311   0.476  2.1629  1.0054 -0.4917
 8846TIP3    H250734   6.885   5.363   0.340 -1.4516  0.6643 -1.7962
 8847TIP3   OH250735   3.021   3.296   0.813  0.3287  0.0637  0.2214
 8847TIP3    H150736   3.104   3.249   0.799 -0.1438  0.1619 -3.9747
 8847TIP3    H250737   3.047   3.387   0.821  0.7057 -0.0708  0.5972
 8848TIP3   OH250738   5.813   2.811   2.909 -0.1107  0.6399 -0.1595
 8848TIP3    H150739   5.834   2.738   2.851 -0.4979 -1.2894  1.9740
 8848TIP3    H250740   5.761   2.771   2.979  2.2526  2.3509  2.7630
 8849TIP3   OH250741   2.753   2.037   1.095 -0.5883 -0.1662  1.0042
 8849TIP3    H150742   2.837   2.070   1.065 -1.0132 -0.2050 -0.2633
 8849TIP3    H250743   2.735   2.086   1.175 -0.5988  1.7818 -0.1324
 8850TIP3   OH250744   4.996   6.055   1.255 -0.4415 -0.6802  0.4907
 8850TIP3    H150745   5.044   6.138   1.263 -2.0827  0.1932  1.8104
 8850TIP3    H250746   5.058   5.989   1.285  0.9951  0.0005 -0.8233
 8851TIP3   OH250747   7.528   6.282   1.998  0.0523  0.3562 -0.0449
 8851TIP3    H150748   7.512   6.227   2.074 -1.3997  0.0734 -0.5356
 8851TIP3    H250749   7.503   6.370   2.027 -1.6650  0.0651 -0.5166
 8852TIP3   OH250750   3.565   1.056   2.944  0.2008 -0.0572  0.6548
 8852TIP3    H150751   3.616   1.134   2.968 -0.8199  0.8141  0.0644
 8852TIP3    H250752   3.481   1.067   2.989  0.0257 -0.7957  0.5261
 8853TIP3   OH250753   4.155   5.683   1.717 -0.1173 -0.4365 -0.1948
 8853TIP3    H150754   4.244   5.703   1.688 -0.5653 -0.3681 -1.6304
 8853TIP3    H250755   4.158   5.590   1.741  0.2951 -0.4964 -0.4723
 8854TIP3   OH250756   1.250   4.103   2.819 -0.4894 -0.3228  0.1042
 8854TIP3    H150757   1.210   4.153   2.891 -0.4257 -2.0592  1.4027
 8854TIP3    H250758   1.343   4.097   2.843 -0.0345  0.8646 -1.2244
 8855TIP3   OH250759   7.125   6.158   2.903  0.2269  0.0786  0.4437
 8855TIP3    H150760   7.179   6.126   2.975  2.0065  0.4071 -0.6927
 8855TIP3    H250761   7.149   6.250   2.893 -2.7695  1.1429  1.8197
 8856TIP3   OH250762   6.624   6.251   1.752 -0.2030 -0.2681 -0.2504
 8856TIP3    H150763   6.630   6.341   1.722  1.9536 -0.4341 -0.4931
 8856TIP3    H250764   6.568   6.255   1.830  0.6922  1.4437  0.3499
 8857TIP3   OH250765   0.802   4.311   2.892 -0.1741 -0.2625 -0.1807
 8857TIP3    H150766   0.876   4.338   2.947  0.0342 -0.3555 -0.4087
 8857TIP3    H250767   0.781   4.223   2.921  0.4900 -0.6435 -0.8085
 8858TIP3   OH250768   0.118   1.477   1.804  0.7453  0.0464 -0.4966
 8858TIP3    H150769   0.036   1.522   1.823 -0.0297 -1.4743 -0.0790
 8858TIP3    H250770   0.157   1.528   1.733 -1.8035 -0.5780 -2.5117
 8859TIP3   OH250771   4.927   5.896   2.470 -0.0119  0.4633  0.5984
 8859TIP3    H150772   4.935   5.832   2.541  0.1680  1.0498  1.1045
 8859TIP3    H250773   4.875   5.967   2.506 -2.2844 -0.4377 -0.6950
 8860TIP3   OH250774   4.965   2.543   0.593  0.0601 -0.4250  0.4585
 8860TIP3    H150775   5.009   2.461   0.616 -0.3389 -0.1807  2.1916
 8860TIP3    H250776   4.872   2.520   0.591  0.0251 -0.2452 -0.1302
 8861TIP3   OH250777   5.121   3.615   1.000  0.3521  0.4983  0.1654
 8861TIP3    H150778   5.076   3.622   0.915  0.7459  0.6017 -0.0341
 8861TIP3    H250779   5.073   3.676   1.056 -0.5145 -0.2621  0.2877
 8862TIP3   OH250780   4.281   4.287   1.967 -0.0169 -0.1157 -0.4316
 8862TIP3    H150781   4.320   4.233   2.035  0.0028 -0.6266 -0.8441
 8862TIP3    H250782   4.354   4.309   1.909 -0.2817 -0.8860 -1.0805
 8863TIP3   OH250783   1.498   6.239   3.124 -0.0641 -0.0756  0.0156
 8863TIP3    H150784   1.408   6.222   3.096 -0.0149  0.3765 -0.4181
 8863TIP3    H250785   1.492   6.319   3.176  0.3205  0.9104 -1.3898
 8864TIP3   OH250786   5.784   0.536   1.095  0.3145 -0.1086 -0.0262
 8864TIP3    H150787   5.690   0.553   1.088  0.2890 -0.3014 -0.1334
 8864TIP3    H250788   5.816   0.543   1.006  0.7310  1.9143  0.2245
 8865TIP3   OH250789   5.722   4.318   1.878 -0.2092 -0.4286 -0.0280
 8865TIP3    H150790   5.640   4.278   1.907 -0.3191  0.5626  1.1290
 8865TIP3    H250791   5.738   4.281   1.792 -0.4572 -2.6977  0.8361
 8866TIP3   OH250792   3.029   7.661   2.385 -0.0508  0.0691  0.5036
 8866TIP3    H150793   3.026   7.747   2.343 -0.5422  0.2304  0.8551
 8866TIP3    H250794   3.100   7.614   2.340 -0.3533  0.3485 -0.2807
 8867TIP3   OH250795   2.596   1.449   2.831 -0.0007  0.9126 -0.5380
 8867TIP3    H150796   2.662   1.496   2.780  0.1561  1.5238  0.2166
 8867TIP3    H250797   2.624   1.358   2.829  0.2533  1.0029 -1.1561
 8868TIP3   OH250798   2.835   7.198   2.547  0.1626 -0.0012 -0.0999
 8868TIP3    H150799   2.905   7.252   2.511  0.1827  0.0011 -0.0580
 8868TIP3    H250800   2.874   7.156   2.624 -0.6399  2.0393  1.5067
 8869TIP3   OH250801   3.230   7.676   1.492  0.2399 -0.0219 -0.1047
 8869TIP3    H150802   3.190   7.632   1.567 -2.8311  1.4457 -0.7094
 8869TIP3    H250803   3.223   7.613   1.421  1.7643 -0.8475  0.4346
 8870TIP3   OH250804   3.560   3.979   2.151  0.3054 -0.1549 -0.7715
 8870TIP3    H150805   3.626   3.980   2.082  0.1286  2.3292 -0.9905
 8870TIP3    H250806   3.477   3.990   2.106 -0.0074 -0.4413 -0.2790
 8871TIP3   OH250807   0.825   3.544   3.350  0.3782 -0.7584 -0.3300
 8871TIP3    H150808   0.749   3.595   3.320  1.5897  1.9242  0.8581
 8871TIP3    H250809   0.813   3.536   3.444  1.8193  0.2537 -0.0252
 8872TIP3   OH250810   3.047   1.738   1.057  0.2127  0.0355 -0.1227
 8872TIP3    H150811   3.114   1.677   1.088 -1.0712  0.0319  2.9794
 8872TIP3    H250812   2.988   1.749   1.131 -2.6175  0.9511 -2.3477
 8873TIP3   OH250813   0.489   6.780   1.019 -0.3013  0.2526  0.8377
 8873TIP3    H150814   0.556   6.751   1.081  1.1830  0.7147 -0.4851
 8873TIP3    H250815   0.442   6.850   1.065  1.0452  0.8847  1.3023
 8874TIP3   OH250816   7.383   5.062   0.639 -0.1005 -0.5419 -0.3050
 8874TIP3    H150817   7.380   4.987   0.699  0.1154 -0.3931 -0.1044
 8874TIP3    H250818   7.301   5.108   0.653 -0.1335 -0.6137 -0.2636
 8875TIP3   OH250819   7.272   0.267   2.499  0.0592  0.1367  0.0356
 8875TIP3    H150820   7.266   0.272   2.594 -0.0521 -0.0071  0.0353
 8875TIP3    H250821   7.189   0.303   2.468 -0.3796 -0.8596  0.0137
 8876TIP3   OH250822   1.422   0.479   2.902 -0.1322 -0.0568 -0.0300
 8876TIP3    H150823   1.479   0.414   2.944  0.7677  1.5299  1.3588
 8876TIP3    H250824   1.477   0.519   2.835  0.0723  0.7267  0.5824
 8877TIP3   OH250825   6.731   0.370   2.037  0.2544  0.0184  0.0738
 8877TIP3    H150826   6.809   0.426   2.039  0.9525 -0.9638  1.0979
 8877TIP3    H250827   6.751   0.298   2.095 -1.5463 -0.1165  0.5991
 8878TIP3   OH250828   4.352   1.477   1.822  0.1854 -0.0980  0.1192
 8878TIP3    H150829   4.422   1.489   1.886  0.4315 -1.6956  0.1833
 8878TIP3    H250830   4.297   1.555   1.832  0.6061  0.0203  1.7850
 8879TIP3   OH250831   2.898   1.410   1.321  0.4650 -0.2292 -0.1995
 8879TIP3    H150832   2.849   1.454   1.252  0.6516 -0.0648 -0.2266
 8879TIP3    H250833   2.950   1.479   1.362  0.2850 -0.3077  0.1674
 8880TIP3   OH250834   4.872   3.161   0.912 -0.0527 -0.3553  0.2220
 8880TIP3    H150835   4.785   3.123   0.895 -0.9616  2.0220 -0.9517
 8880TIP3    H250836   4.916   3.159   0.827 -0.2252  1.2668  0.0509
 8881TIP3   OH250837   2.959   5.971   3.561 -0.0046 -0.5019 -0.4178
 8881TIP3    H150838   3.002   5.896   3.519  1.0987 -0.2984  0.3168
 8881TIP3    H250839   2.882   5.987   3.507  0.8344 -0.8887 -1.7838
 8882TIP3   OH250840   1.107   2.070   2.763 -0.2858  0.2691 -0.1940
 8882TIP3    H150841   1.143   2.074   2.674  0.0107  0.8495 -0.0485
 8882TIP3    H250842   1.160   2.131   2.814 -0.9882  0.5665  0.1970
 8883TIP3   OH250843   0.322   5.342   2.446 -0.0412  0.0019  0.0122
 8883TIP3    H150844   0.309   5.436   2.444 -1.0519 -0.1371 -0.2005
 8883TIP3    H250845   0.354   5.321   2.358 -0.8693  0.0064 -0.2969
 8884TIP3   OH250846   4.463   5.743   3.473  0.3162  0.2812 -0.0002
 8884TIP3    H150847   4.518   5.673   3.438  0.4980  0.4832 -0.1220
 8884TIP3    H250848   4.418   5.703   3.548  1.6268  0.4653  0.9282
 8885TIP3   OH250849   2.216   4.652   1.794 -0.5169  0.0500  0.2403
 8885TIP3    H150850   2.180   4.739   1.811  0.8695  0.7478 -0.2157
 8885TIP3    H250851   2.301   4.652   1.840 -0.2964 -0.8959 -0.1417
 8886TIP3   OH250852   0.163   5.494   0.868  0.1900 -0.7237  0.3778
 8886TIP3    H150853   0.208   5.426   0.819 -0.0223 -1.1893  0.8156
 8886TIP3    H250854   0.079   5.455   0.892  0.6290 -0.8306  1.8366
 8887TIP3   OH250855   6.924   5.858   1.667  0.2380 -0.0896  1.0394
 8887TIP3    H150856   7.002   5.847   1.720  0.5599 -1.6585  0.2831
 8887TIP3    H250857   6.863   5.904   1.724  1.3758  0.3310  1.9565
 8888TIP3   OH250858   2.154   6.385   2.854 -0.2535  0.1086 -0.3359
 8888TIP3    H150859   2.165   6.330   2.777 -1.3261 -0.5692 -0.0316
 8888TIP3    H250860   2.121   6.325   2.922 -0.3008  0.8863  0.3481
 8889TIP3   OH250861   6.541   1.097   2.069 -0.4106  0.4038 -0.5668
 8889TIP3    H150862   6.625   1.051   2.063 -0.3503  0.1090  1.7400
 8889TIP3    H250863   6.478   1.038   2.029 -0.2983 -1.7259  2.1564
 8890TIP3   OH250864   7.248   3.982   0.980  0.2986 -0.1092 -0.5184
 8890TIP3    H150865   7.162   4.023   0.968  0.7705  1.3054  0.7107
 8890TIP3    H250866   7.228   3.890   0.999 -0.9009  0.0456 -0.9471
 8891TIP3   OH250867   6.288   0.610   1.656  0.0883 -0.0476 -0.2026
 8891TIP3    H150868   6.377   0.577   1.671  0.8160  1.7670 -0.2089
 8891TIP3    H250869   6.296   0.665   1.578 -0.8358  0.8687  0.3311
 8892TIP3   OH250870   2.399   5.535   2.368 -0.5084 -0.1701  0.1727
 8892TIP3    H150871   2.395   5.567   2.458 -0.5297 -0.4338  0.2663
 8892TIP3    H250872   2.476   5.478   2.366  0.1138  0.6433 -0.2403
 8893TIP3   OH250873   0.758   1.197   0.782 -0.8836 -0.9062 -0.1878
 8893TIP3    H150874   0.833   1.138   0.778  0.4575  0.7077 -0.2084
 8893TIP3    H250875   0.767   1.242   0.866 -2.0669 -0.9604 -0.0126
 8894TIP3   OH250876   2.659   1.755   2.527  0.4279  0.3280 -0.5302
 8894TIP3    H150877   2.569   1.749   2.496  1.0826  1.6764 -2.9333
 8894TIP3    H250878   2.682   1.847   2.516  1.9404  0.1223  0.5925
 8895TIP3   OH250879   4.322   2.884   3.081 -0.0473  0.3128  0.1138
 8895TIP3    H150880   4.313   2.793   3.110 -0.7065 -0.4919 -2.3915
 8895TIP3    H250881   4.417   2.896   3.070  0.0788  0.1091  0.8833
 8896TIP3   OH250882   1.504   1.367   2.211 -0.0425  0.1330 -0.0911
 8896TIP3    H150883   1.464   1.436   2.158 -1.3711 -0.9758 -0.6088
 8896TIP3    H250884   1.468   1.286   2.174  1.2183 -0.8210  0.7057
 8897TIP3   OH250885   2.179   0.475   2.503  0.0902  0.0242  0.1875
 8897TIP3    H150886   2.232   0.464   2.582 -1.0354 -0.7252  0.8841
 8897TIP3    H250887   2.094   0.438   2.527 -0.2475 -0.3234 -1.4212
 8898TIP3   OH250888   6.386   6.554   1.256  0.2661 -0.5276 -0.3072
 8898TIP3    H150889   6.443   6.491   1.211 -1.0654 -0.8983 -1.5414
 8898TIP3    H250890   6.298   6.518   1.246 -0.1566 -0.4430  2.3287
 8899TIP3   OH250891   5.066   6.305   2.019 -0.1942 -0.3129 -1.3250
 8899TIP3    H150892   5.106   6.226   2.055 -0.0492  0.6156  0.6610
 8899TIP3    H250893   5.029   6.277   1.935 -0.8892 -2.6685 -0.3047
 8900TIP3   OH250894   4.295   7.168   2.355  0.0571  0.4656  0.2787
 8900TIP3    H150895   4.215   7.206   2.391 -0.0450 -1.3507  2.1574
 8900TIP3    H250896   4.364   7.229   2.382 -0.5252  1.4620 -0.4032
 8901TIP3   OH250897   5.282   1.859   2.295  0.1368 -0.3945 -0.2358
 8901TIP3    H150898   5.227   1.836   2.370 -0.1391 -0.8264 -0.5651
 8901TIP3    H250899   5.366   1.882   2.333  0.6051 -2.4732  0.1003
 8902TIP3   OH250900   2.435   1.782   0.434  0.5788  0.1569 -0.4657
 8902TIP3    H150901   2.430   1.771   0.339 -0.3051  0.7604 -0.5070
 8902TIP3    H250902   2.495   1.856   0.446  0.0784  0.5878 -0.5977
 8903TIP3   OH250903   6.090   1.780   0.567 -0.0876 -0.4698 -0.0811
 8903TIP3    H150904   6.050   1.770   0.480 -1.7225 -0.5015  0.6466
 8903TIP3    H250905   6.170   1.831   0.550 -0.4871 -0.2737 -1.5659
 8904TIP3   OH250906   2.981   0.559   2.665 -0.2767 -0.0961 -0.4075
 8904TIP3    H150907   2.958   0.539   2.755 -0.9033 -1.9120 -0.9329
 8904TIP3    H250908   3.021   0.646   2.669  0.3040 -0.4134  1.6938
 8905TIP3   OH250909   4.664   1.990   1.497 -0.2402  0.3842 -0.3058
 8905TIP3    H150910   4.612   2.062   1.460  0.1471  0.5914 -0.4517
 8905TIP3    H250911   4.621   1.911   1.465 -0.8504  0.5441  0.1017
 8906TIP3   OH250912   1.177   5.761   1.308  0.9091  0.5643 -0.0796
 8906TIP3    H150913   1.176   5.832   1.372  2.4363 -1.5109  2.4515
 8906TIP3    H250914   1.137   5.687   1.353  1.7747 -0.9262 -1.6216
 8907TIP3   OH250915   5.954   1.333   0.869 -0.2012 -0.6933  0.3846
 8907TIP3    H150916   5.936   1.252   0.822 -1.4153  0.0427 -0.4738
 8907TIP3    H250917   6.045   1.324   0.898  0.0106 -1.9183 -0.5677
 8908TIP3   OH250918   3.684   3.796   0.899  0.2923 -0.3444  0.5398
 8908TIP3    H150919   3.779   3.787   0.907  0.4554 -0.2185 -0.9015
 8908TIP3    H250920   3.669   3.890   0.902  0.7927  0.0669 -3.7507
 8909TIP3   OH250921   2.471   4.868   3.199 -0.2978 -0.0797 -0.3408
 8909TIP3    H150922   2.560   4.901   3.208 -0.9614  1.4970  1.2489
 8909TIP3    H250923   2.468   4.790   3.254  0.0168  0.0484 -0.1433
 8910TIP3   OH250924   0.431   7.315   0.865 -0.0544  0.0373 -0.3688
 8910TIP3    H150925   0.465   7.375   0.799 -0.0614  0.6939  0.2062
 8910TIP3    H250926   0.491   7.241   0.864  1.4780  1.1980  0.6698
 8911TIP3   OH250927   3.276   0.407   1.157  0.0412  0.3079  0.1460
 8911TIP3    H150928   3.312   0.360   1.082  1.3068  0.7430  0.4551
 8911TIP3    H250929   3.287   0.347   1.231 -2.2158 -0.5760 -0.1474
 8912TIP3   OH250930   1.877   4.633   0.779  0.6026  0.0451 -0.3309
 8912TIP3    H150931   1.888   4.713   0.728  1.3002 -0.8372 -1.5991
 8912TIP3    H250932   1.783   4.632   0.801  0.4320  0.8028 -0.9842
 8913TIP3   OH250933   6.569   1.219   1.807 -0.0917  0.1302 -0.0641
 8913TIP3    H150934   6.588   1.209   1.900  0.1366  2.1461  0.1445
 8913TIP3    H250935   6.475   1.205   1.800  0.1484 -1.8908  0.1427
 8914TIP3   OH250936   6.676   3.015   2.056  0.6415 -0.2732  0.3602
 8914TIP3    H150937   6.745   3.082   2.057  1.0418 -0.6542  2.2417
 8914TIP3    H250938   6.662   2.994   2.148  0.0544 -2.3214 -0.1408
 8915TIP3   OH250939   4.333   2.233   2.587  0.9522  0.7479  0.2254
 8915TIP3    H150940   4.404   2.177   2.618 -1.3078 -3.4920 -1.4364
 8915TIP3    H250941   4.361   2.261   2.500  0.7588 -0.6659 -0.3095
 8916TIP3   OH250942   1.569   3.795   2.530 -0.7231  0.6749 -0.0578
 8916TIP3    H150943   1.492   3.804   2.587  0.4103  1.2617  1.4659
 8916TIP3    H250944   1.586   3.883   2.498  0.2043  0.8678  0.8923
 8917TIP3   OH250945   4.252   7.394   1.452  0.0835 -0.2873 -0.3699
 8917TIP3    H150946   4.336   7.364   1.418  1.4225  1.3885  1.2927
 8917TIP3    H250947   4.224   7.325   1.512  0.6287 -0.5219 -0.3821
 8918TIP3   OH250948   2.080   2.221   1.097  0.2111 -0.5406 -0.3130
 8918TIP3    H150949   2.161   2.242   1.049 -0.8644  0.2454 -1.8759
 8918TIP3    H250950   2.084   2.276   1.175  1.1369 -0.4275 -0.4277
 8919TIP3   OH250951   3.761   5.817   1.841 -0.2090 -0.1078 -0.9765
 8919TIP3    H150952   3.820   5.853   1.907 -0.4728  0.3850 -1.0039
 8919TIP3    H250953   3.818   5.764   1.785 -0.0614 -0.8928 -0.0981
 8920TIP3   OH250954   1.852   2.340   1.383 -0.2441  0.6247  0.0483
 8920TIP3    H150955   1.817   2.364   1.469 -1.8153 -0.2268 -0.3004
 8920TIP3    H250956   1.946   2.358   1.389 -0.4977  1.6909  1.5350
 8921TIP3   OH250957   2.413   0.182   3.360 -0.1815  0.1348 -0.3494
 8921TIP3    H150958   2.499   0.140   3.363 -0.0246  0.3772 -1.2399
 8921TIP3    H250959   2.410   0.238   3.437 -0.3199 -1.3551  0.7591
 8922TIP3   OH250960   4.613   4.393   1.292 -0.0071  0.3056 -0.2164
 8922TIP3    H150961   4.699   4.359   1.268 -0.3049  0.1927 -1.1698
 8922TIP3    H250962   4.575   4.326   1.349  0.0164 -0.2655 -0.8611
 8923TIP3   OH250963   1.062   1.058   1.962 -0.1592  0.0863  0.1585
 8923TIP3    H150964   0.977   1.031   1.927  0.8595 -0.3678 -2.1505
 8923TIP3    H250965   1.065   1.153   1.950  0.0667 -0.0324 -0.7887
 8924TIP3   OH250966   3.010   6.656   1.791 -0.2644  0.5091 -0.4600
 8924TIP3    H150967   3.079   6.685   1.732  0.7795 -0.4125  0.2623
 8924TIP3    H250968   3.009   6.721   1.861 -1.2523  1.4028 -1.2863
 8925TIP3   OH250969   4.748   3.669   2.547 -0.0255  0.0308  0.4912
 8925TIP3    H150970   4.712   3.582   2.568  0.9841 -0.3767  0.5648
 8925TIP3    H250971   4.690   3.703   2.479  0.0121 -1.0156 -0.0767
 8926TIP3   OH250972   0.364   2.347   2.522 -1.0750 -0.3707 -0.8131
 8926TIP3    H150973   0.287   2.298   2.551 -0.0631 -2.3747 -1.3280
 8926TIP3    H250974   0.432   2.280   2.509  0.7147  1.3012 -0.5470
 8927TIP3   OH250975   4.057   1.394   0.505 -0.4597 -0.2123 -0.5926
 8927TIP3    H150976   4.033   1.316   0.555  0.4747 -0.2626 -0.2000
 8927TIP3    H250977   4.103   1.360   0.429 -1.0386 -0.0877 -1.0036
 8928TIP3   OH250978   2.566   0.571   1.265 -0.3964 -0.0330  0.2459
 8928TIP3    H150979   2.553   0.653   1.218 -1.5709  0.5621  1.4938
 8928TIP3    H250980   2.511   0.507   1.219  0.0589  0.0267 -0.3802
 8929TIP3   OH250981   6.102   2.879   2.949  0.4247  0.3814 -0.2283
 8929TIP3    H150982   6.170   2.891   3.015  0.3698  1.2542 -0.3204
 8929TIP3    H250983   6.021   2.869   3.000  0.7556 -2.0335 -0.0570
 8930TIP3   OH250984   2.511   0.699   2.047  0.7003  0.0886  0.3280
 8930TIP3    H150985   2.524   0.687   2.141 -2.1481  0.2742  0.8271
 8930TIP3    H250986   2.453   0.627   2.021  2.0151 -0.3900 -1.4763
 8931TIP3   OH250987   6.542   0.830   2.542  0.1184 -0.0936 -0.1798
 8931TIP3    H150988   6.568   0.921   2.530 -0.3565  0.4227  2.2178
 8931TIP3    H250989   6.601   0.797   2.610 -0.1327 -1.3763 -0.5684
 8932TIP3   OH250990   4.953   2.768   1.339 -0.0022 -0.2783 -0.1173
 8932TIP3    H150991   4.917   2.844   1.386  0.4684 -0.3198  0.3334
 8932TIP3    H250992   4.921   2.777   1.250 -0.2597  0.2507  0.0228
 8933TIP3   OH250993   7.242   5.016   2.145 -0.3463  0.1106 -0.4058
 8933TIP3    H150994   7.190   5.072   2.204  0.4049  0.8849 -0.4653
 8933TIP3    H250995   7.241   5.062   2.061 -0.2707 -0.3009 -0.6334
 8934TIP3   OH250996   2.915   5.465   2.041 -0.6126  0.0509 -0.2886
 8934TIP3    H150997   2.849   5.397   2.055  1.1211 -1.6298  0.1641
 8934TIP3    H250998   2.948   5.449   1.952 -1.2006  1.2620 -0.7443
 8935TIP3   OH250999   2.715   1.303   1.749 -0.1684 -0.1247 -0.4782
 8935TIP3    H151000   2.796   1.345   1.721  0.2338 -0.5871 -0.0287
 8935TIP3    H251001   2.659   1.375   1.778  0.2467  0.1607 -0.3829
 8936TIP3   OH251002   1.948   0.815   0.892  0.5456 -0.3016 -0.1067
 8936TIP3    H151003   1.905   0.732   0.869  0.3879 -0.4880  0.8226
 8936TIP3    H251004   1.876   0.876   0.906  0.6255 -0.2727  0.1802
 8937TIP3   OH251005   3.637   3.973   1.776  0.3145  0.1718 -0.2552
 8937TIP3    H151006   3.547   3.953   1.803  0.3134 -0.6359 -0.8157
 8937TIP3    H251007   3.633   4.064   1.745 -0.6655 -0.3254 -1.7224
 8938TIP3   OH251008   3.378   5.957   0.657 -0.0167  0.3769  0.4683
 8938TIP3    H151009   3.410   5.930   0.571 -0.6595 -0.1918  0.3996
 8938TIP3    H251010   3.284   5.972   0.644  0.3424  3.0348  0.4114
 8939TIP3   OH251011   7.659   1.857   0.882  0.1772 -0.3962 -0.0148
 8939TIP3    H151012   7.655   1.787   0.946 -1.7171 -0.9129 -0.6246
 8939TIP3    H251013   7.714   1.924   0.922 -0.3669 -1.0041  1.8473
 8940TIP3   OH251014   1.480   4.840   0.956  0.2888  0.5351  0.0208
 8940TIP3    H151015   1.508   4.790   0.880  0.3974 -1.5261  1.3443
 8940TIP3    H251016   1.517   4.928   0.942  2.2465 -0.4076 -1.2101
 8941TIP3   OH251017   1.498   6.546   0.918 -0.7014 -0.8194  0.4770
 8941TIP3    H151018   1.471   6.631   0.953  0.5943 -0.4250  0.5609
 8941TIP3    H251019   1.544   6.504   0.991 -0.6239 -1.2500  0.1813
 8942TIP3   OH251020   2.165   1.808   2.926  0.8290  0.1971  0.1968
 8942TIP3    H151021   2.094   1.872   2.937  0.7406  0.4800 -1.6822
 8942TIP3    H251022   2.213   1.810   3.009 -1.7985 -0.5929  1.8488
 8943TIP3   OH251023   1.475   3.316   3.193 -0.0056 -0.1305  0.1317
 8943TIP3    H151024   1.386   3.335   3.222 -0.5387  0.6719 -1.8687
 8943TIP3    H251025   1.505   3.397   3.152  0.8226 -1.0355 -1.1374
 8944TIP3   OH251026   5.264   4.366   1.784  0.5083 -0.1453  0.1917
 8944TIP3    H151027   5.239   4.304   1.852  2.6038 -0.5222  0.7158
 8944TIP3    H251028   5.295   4.443   1.832  1.0820 -0.0286 -0.3495
 8945TIP3   OH251029   7.633   3.793   1.823 -0.2678  0.0840 -0.2453
 8945TIP3    H151030   7.657   3.875   1.866 -0.1404 -0.1099  0.0559
 8945TIP3    H251031   7.649   3.725   1.889 -1.8064 -0.0478  0.0445
 8946TIP3   OH251032   3.025   6.791   0.581 -0.4206 -0.0955  0.1989
 8946TIP3    H151033   3.109   6.773   0.623 -0.8298  1.1134  1.5886
 8946TIP3    H251034   2.996   6.874   0.619 -2.1972 -0.4327 -0.3345
 8947TIP3   OH251035   6.495   0.908   3.072 -0.4114  0.3925 -0.2465
 8947TIP3    H151036   6.481   0.867   2.987  1.1246  0.9505 -0.8033
 8947TIP3    H251037   6.590   0.902   3.086 -0.7508 -0.6007  1.9114
 8948TIP3   OH251038   0.625   0.040   1.422 -0.0699 -0.2062  0.4907
 8948TIP3    H151039   0.654   0.130   1.432 -0.6046  0.1805 -1.1318
 8948TIP3    H251040   0.536   0.039   1.456 -0.6638  0.2916 -0.9982
 8949TIP3   OH251041   4.851   4.721   1.961  0.1468  0.0062 -0.3504
 8949TIP3    H151042   4.884   4.671   2.036 -0.8375 -1.0239 -0.5863
 8949TIP3    H251043   4.888   4.676   1.885 -0.6485 -0.3100 -0.5596
 8950TIP3   OH251044   1.834   4.398   2.304 -0.1234  0.0738  0.1342
 8950TIP3    H151045   1.811   4.342   2.230  2.0201  0.0970 -0.6371
 8950TIP3    H251046   1.871   4.337   2.369 -2.8061 -0.0849  1.6800
 8951TIP3   OH251047   0.822   7.221   1.328 -0.4009  0.6465  0.2036
 8951TIP3    H151048   0.868   7.215   1.244  0.9334 -0.6322  0.9603
 8951TIP3    H251049   0.767   7.299   1.321  0.4623  1.1422 -1.4704
 8952TIP3   OH251050   3.127   3.991   3.057  0.2503 -0.1505 -0.0675
 8952TIP3    H151051   3.037   4.022   3.066  0.5078  0.3610  0.8637
 8952TIP3    H251052   3.154   3.969   3.147  1.0542 -0.3094 -0.3368
 8953TIP3   OH251053   5.676   5.845   2.000  0.1458 -0.0612 -0.9576
 8953TIP3    H151054   5.611   5.791   1.955 -1.2744  0.8744 -0.1176
 8953TIP3    H251055   5.760   5.805   1.978 -0.5468 -0.3002 -3.4828
 8954TIP3   OH251056   0.962   1.604   2.357  0.0451 -0.2810  0.4162
 8954TIP3    H151057   0.972   1.598   2.261 -0.0755 -1.4909  0.4639
 8954TIP3    H251058   1.016   1.679   2.381 -1.1405  1.0006 -0.7690
 8955TIP3   OH251059   1.204   3.943   0.612  0.4716 -0.1827  0.0285
 8955TIP3    H151060   1.272   3.944   0.679  0.4854  1.8483  0.0274
 8955TIP3    H251061   1.237   4.001   0.543 -0.5483 -0.4384 -0.6979
 8956TIP3   OH251062   1.468   1.510   3.110  0.2210  0.1036 -0.0514
 8956TIP3    H151063   1.521   1.578   3.070 -0.5835  1.1937  0.6973
 8956TIP3    H251064   1.525   1.433   3.112  1.6083  1.1200  0.3243
 8957TIP3   OH251065   3.233   2.487   2.406  0.3067  0.2463  0.0938
 8957TIP3    H151066   3.317   2.494   2.359  0.2669  3.6291  0.2729
 8957TIP3    H251067   3.167   2.498   2.337 -0.1059 -2.2083 -0.0139
 8958TIP3   OH251068   6.262   3.477   1.917 -0.0006 -0.2483  0.5485
 8958TIP3    H151069   6.257   3.504   2.009 -0.4343  0.3485  0.3593
 8958TIP3    H251070   6.284   3.384   1.921 -0.0981 -0.2525  1.2618
 8959TIP3   OH251071   7.132   0.967   1.412 -0.2116 -0.8606 -0.5722
 8959TIP3    H151072   7.161   0.994   1.324 -0.5530  0.9633 -0.1643
 8959TIP3    H251073   7.211   0.934   1.454  0.6372  1.0339 -0.5771
 8960TIP3   OH251074   6.945   2.149   1.970 -1.1609  0.5298  0.4439
 8960TIP3    H151075   6.960   2.119   2.060  0.8165  0.0295  0.0018
 8960TIP3    H251076   6.882   2.220   1.979 -0.2727  1.1558  2.3658
 8961TIP3   OH251077   7.558   2.460   2.107  0.4267 -0.9075  0.1237
 8961TIP3    H151078   7.631   2.463   2.045  0.6237 -0.9011  0.3548
 8961TIP3    H251079   7.596   2.421   2.186 -0.3948 -3.2481 -0.5495
 8962TIP3   OH251080   4.919   6.326   0.919  0.3207  0.6303  0.5742
 8962TIP3    H151081   4.860   6.346   0.991  0.1315  0.7146  0.3970
 8962TIP3    H251082   4.881   6.371   0.844 -0.1990 -0.5117  0.1248
 8963TIP3   OH251083   1.321   4.401   2.038  0.0565 -0.2399  0.3070
 8963TIP3    H151084   1.259   4.329   2.024  0.3969 -0.2157 -1.7041
 8963TIP3    H251085   1.282   4.475   1.991  1.1625  0.0205 -0.2336
 8964TIP3   OH251086   2.932   5.420   1.772 -0.4536  0.0880  0.8979
 8964TIP3    H151087   2.877   5.344   1.754 -0.5894  0.4522 -0.3414
 8964TIP3    H251088   2.992   5.425   1.697  1.0777 -0.1148  2.0606
 8965TIP3   OH251089   2.922   4.963   2.696 -0.8698 -0.5483  0.2410
 8965TIP3    H151090   2.880   4.894   2.645  1.8901 -2.3612  0.2164
 8965TIP3    H251091   2.952   4.919   2.776  1.0743  0.5330  0.1798
 8966TIP3   OH251092   3.004   6.110   3.056  0.1615  0.4349 -0.0512
 8966TIP3    H151093   2.940   6.056   3.102 -0.3482  1.0657 -0.0165
 8966TIP3    H251094   2.988   6.094   2.964 -0.7886  1.4228 -0.0755
 8967TIP3   OH251095   4.704   5.746   3.015  0.6522 -0.0081 -0.1923
 8967TIP3    H151096   4.726   5.659   3.048 -0.4551 -0.3495 -0.2940
 8967TIP3    H251097   4.704   5.802   3.093 -2.9315 -0.9982  0.7453
 8968TIP3   OH251098   7.015   1.122   2.674  0.0235  0.4402  0.6228
 8968TIP3    H151099   7.093   1.071   2.651  0.0014  0.8048 -0.2941
 8968TIP3    H251100   6.942   1.062   2.658 -0.0457  0.9582 -1.1050
 8969TIP3   OH251101   2.133   4.950   1.079  0.1764 -0.1141 -0.4705
 8969TIP3    H151102   2.098   4.892   1.011 -1.4165 -2.0316  1.8436
 8969TIP3    H251103   2.109   5.038   1.050  1.1664 -0.6638 -3.2485
 8970TIP3   OH251104   4.201   6.349   1.514  0.2432  0.0251  0.7900
 8970TIP3    H151105   4.255   6.390   1.581  1.1991  0.1628 -0.0416
 8970TIP3    H251106   4.239   6.379   1.431 -0.1492 -1.1135  0.1762
 8971TIP3   OH251107   6.629   2.071   2.883  0.1508 -0.1393 -0.0180
 8971TIP3    H151108   6.643   2.074   2.789  0.3271  1.0929  0.0375
 8971TIP3    H251109   6.695   2.010   2.916 -0.0045 -0.6842 -0.6975
 8972TIP3   OH251110   0.128   2.953   2.810 -0.1303  0.1958 -0.2237
 8972TIP3    H151111   0.161   2.863   2.816 -1.5514 -0.3537 -0.2937
 8972TIP3    H251112   0.124   2.984   2.900 -2.6097 -0.9722  0.1539
 8973TIP3   OH251113   3.585   7.544   2.728  0.3259  0.6867  0.0646
 8973TIP3    H151114   3.552   7.582   2.810  2.0299  2.2229  0.0973
 8973TIP3    H251115   3.517   7.565   2.663 -0.9016 -0.2865  0.9637
 8974TIP3   OH251116   6.833   4.402   3.363  0.5560 -0.2839  0.0446
 8974TIP3    H151117   6.867   4.426   3.449 -0.4526 -0.5959  0.5578
 8974TIP3    H251118   6.740   4.427   3.366  0.7633  0.7897 -1.3833
 8975TIP3   OH251119   5.362   7.403   1.836 -0.6101  0.4182 -0.4726
 8975TIP3    H151120   5.402   7.412   1.749 -2.4117  0.6271 -1.3199
 8975TIP3    H251121   5.355   7.308   1.849 -2.7774  0.3265 -1.7976
 8976TIP3   OH251122   0.851   5.884   2.030  0.3123  0.3088  0.5570
 8976TIP3    H151123   0.895   5.932   1.960 -0.0279 -2.0777 -1.4385
 8976TIP3    H251124   0.921   5.843   2.080  0.4909  0.1696  0.1903
 8977TIP3   OH251125   3.020   2.496   2.196 -0.0361  0.1810  0.1958
 8977TIP3    H151126   2.950   2.481   2.134  0.5217  0.2701 -0.4652
 8977TIP3    H251127   3.096   2.452   2.159  0.9133  2.1839 -0.3939
 8978TIP3   OH251128   5.613   7.171   0.897  0.1402  0.0167 -0.1683
 8978TIP3    H151129   5.681   7.226   0.858  0.7534  0.4081  1.4139
 8978TIP3    H251130   5.639   7.159   0.988 -1.1375 -1.0733  0.0942
 8979TIP3   OH251131   2.056   4.820   1.336 -0.1275 -0.1050 -0.2671
 8979TIP3    H151132   2.072   4.810   1.242  0.7909  0.0387 -0.1304
 8979TIP3    H251133   2.068   4.732   1.371 -0.3237 -0.1297 -0.2624
 8980TIP3   OH251134   6.113   6.022   1.266 -0.0206  0.0019  0.0303
 8980TIP3    H151135   6.184   5.971   1.305 -1.0273 -0.7029  1.0476
 8980TIP3    H251136   6.109   6.102   1.319 -1.5918 -1.0939  1.7149
 8981TIP3   OH251137   6.832   1.094   2.057  0.1830  0.0366  0.1355
 8981TIP3    H151138   6.866   1.005   2.046  0.7592  0.4196 -1.5674
 8981TIP3    H251139   6.861   1.140   1.978 -1.0159  1.4489  0.4791
 8982TIP3   OH251140   0.829   2.223   1.862 -0.4408  0.3379  0.0250
 8982TIP3    H151141   0.859   2.289   1.800  0.9344 -2.9426 -3.2164
 8982TIP3    H251142   0.745   2.194   1.828 -1.6772  1.1681  2.1593
 8983TIP3   OH251143   4.463   5.137   1.704 -0.1821 -0.4507 -0.0827
 8983TIP3    H151144   4.395   5.120   1.768  0.3738  1.4886  1.0990
 8983TIP3    H251145   4.418   5.137   1.620 -1.5308  0.1817  0.6151
 8984TIP3   OH251146   2.840   4.904   1.626 -0.4714 -0.4842 -0.6245
 8984TIP3    H151147   2.852   4.845   1.701 -1.2638 -2.8252 -2.2360
 8984TIP3    H251148   2.746   4.916   1.620 -0.4288 -0.4580 -1.3142
 8985TIP3   OH251149   1.337   3.781   2.677  0.7466  0.0685 -0.5805
 8985TIP3    H151150   1.303   3.870   2.673  0.7372  0.2530  1.9152
 8985TIP3    H251151   1.268   3.731   2.720  1.4210 -0.7721 -0.4419
 8986TIP3   OH251152   5.989   2.670   0.925  0.1595 -0.4682 -0.5471
 8986TIP3    H151153   6.018   2.722   0.999 -0.8586 -2.0329  1.0253
 8986TIP3    H251154   6.069   2.631   0.890  0.8360  1.4688 -1.2870
 8987TIP3   OH251155   5.144   1.085   1.951 -0.0209 -0.5511 -0.3867
 8987TIP3    H151156   5.170   1.005   1.905 -0.0085 -1.4128  1.0449
 8987TIP3    H251157   5.109   1.142   1.883 -0.1450 -1.8279 -1.4283
 8988TIP3   OH251158   0.585   1.691   1.567 -0.0488 -0.2767  0.3213
 8988TIP3    H151159   0.589   1.764   1.506  1.1316  1.8967  2.7923
 8988TIP3    H251160   0.495   1.692   1.600 -0.1900 -0.3096 -0.0576
 8989TIP3   OH251161   5.008   1.165   2.420 -0.3410  0.1096  0.3661
 8989TIP3    H151162   4.985   1.209   2.501 -0.2321  0.6706  0.0948
 8989TIP3    H251163   5.053   1.231   2.368  0.6371 -0.5684  0.3202
 8990TIP3   OH251164   1.229   3.661   0.461 -0.1081  0.2774  0.4679
 8990TIP3    H151165   1.160   3.698   0.405 -0.5485 -1.2581 -0.0648
 8990TIP3    H251166   1.270   3.737   0.503 -1.7356  1.2759  0.3382
 8991TIP3   OH251167   1.844   0.583   0.999  0.2340 -0.1629  0.2381
 8991TIP3    H151168   1.813   0.494   0.982  1.0560 -0.5265  0.5541
 8991TIP3    H251169   1.772   0.626   1.045 -1.0835  0.0715 -1.8872
 8992TIP3   OH251170   0.484   7.196   2.898  0.1508  0.4909 -0.3707
 8992TIP3    H151171   0.408   7.183   2.955  0.6376  0.7676  0.3620
 8992TIP3    H251172   0.485   7.120   2.841 -1.6459  1.2828 -1.5480
 8993TIP3   OH251173   2.057   0.830   3.476  0.3123  0.2299 -0.3085
 8993TIP3    H151174   2.012   0.757   3.432  1.6149  0.5903 -2.3447
 8993TIP3    H251175   1.985   0.886   3.507 -0.7259 -1.7887  1.2345
 8994TIP3   OH251176   3.036   6.756   3.774  0.2192  0.0135 -0.5056
 8994TIP3    H151177   2.987   6.689   3.727 -0.4825  1.2239 -1.5958
 8994TIP3    H251178   3.119   6.762   3.726  0.2545 -0.0325 -0.4502
 8995TIP3   OH251179   0.803   0.563   3.109 -0.0387 -0.2967 -0.1715
 8995TIP3    H151180   0.772   0.540   3.196  0.7343  0.1757  0.2401
 8995TIP3    H251181   0.835   0.481   3.072 -0.7474 -0.5761 -0.1810
 8996TIP3   OH251182   5.471   4.029   2.496 -0.3629 -0.2466  0.5120
 8996TIP3    H151183   5.541   3.967   2.518  0.8781  0.9234  0.0392
 8996TIP3    H251184   5.391   3.989   2.530  0.4569 -1.8861  0.5992
 8997TIP3   OH251185   0.549   1.344   1.466  0.3855  0.3475 -0.4663
 8997TIP3    H151186   0.456   1.348   1.488  0.4471  1.2542 -0.3727
 8997TIP3    H251187   0.590   1.309   1.545  0.2723  1.0713 -0.0829
 8998TIP3   OH251188   4.882   5.051   1.483  0.3598 -0.3614  0.2309
 8998TIP3    H151189   4.867   5.127   1.427  0.3202  0.8896  1.8425
 8998TIP3    H251190   4.795   5.020   1.505  0.3712 -0.7287 -0.2486
 8999TIP3   OH251191   0.472   2.569   0.497 -0.0199  0.3988  0.1519
 8999TIP3    H151192   0.502   2.479   0.505  0.6856  0.6634  0.5848
 8999TIP3    H251193   0.463   2.599   0.588 -2.0580  0.1974  0.0821
 9000TIP3   OH251194   0.109   0.891   1.635 -0.1833  0.4257  0.0333
 9000TIP3    H151195   0.017   0.879   1.657  0.5168 -0.7507  2.8463
 9000TIP3    H251196   0.128   0.982   1.657 -0.4127  0.3358  0.6076
 9001TIP3   OH251197   4.398   2.985   0.968  0.2293  0.9043  0.3570
 9001TIP3    H151198   4.348   2.905   0.976  3.2406 -1.3730 -1.3951
 9001TIP3    H251199   4.345   3.041   0.911 -0.8502 -0.9002 -0.5011
 9002TIP3   OH251200   6.291   1.137   1.774  0.1404  0.8895  0.0246
 9002TIP3    H151201   6.275   1.076   1.846 -2.1691  1.4290  0.0135
 9002TIP3    H251202   6.282   1.083   1.695 -0.8127  0.9955  0.0505
 9003TIP3   OH251203   2.370   0.214   2.539  0.0931 -0.2081  0.2797
 9003TIP3    H151204   2.442   0.260   2.582  1.0172 -0.6392 -0.7429
 9003TIP3    H251205   2.410   0.132   2.507 -1.1706 -1.0669  0.8218
 9004TIP3   OH251206   2.863   5.213   2.628  0.3184  0.4541 -0.1182
 9004TIP3    H151207   2.910   5.132   2.648 -1.6760 -0.5908  0.5863
 9004TIP3    H251208   2.854   5.258   2.712 -0.7467  0.1802 -0.0782
 9005TIP3   OH251209   0.957   5.788   2.836  0.1058  0.4583 -0.1153
 9005TIP3    H151210   0.997   5.832   2.760 -0.7595  1.4090 -0.0347
 9005TIP3    H251211   1.018   5.804   2.908  1.7973 -1.8628 -0.9084
 9006TIP3   OH251212   4.457   5.203   2.467  0.2906  0.0070  0.3180
 9006TIP3    H151213   4.469   5.256   2.545 -0.7531 -1.0211  1.2339
 9006TIP3    H251214   4.486   5.115   2.493  0.8766 -0.1376 -0.7718
 9007TIP3   OH251215   1.376   0.516   1.186 -0.2655 -0.4055 -0.6360
 9007TIP3    H151216   1.284   0.544   1.188  0.4673  2.2750 -0.0806
 9007TIP3    H251217   1.373   0.425   1.157 -3.1835 -0.9196  0.9118
 9008TIP3   OH251218   1.762   5.057   1.883  0.2542  0.0485 -0.0804
 9008TIP3    H151219   1.803   5.087   1.801 -1.0839  1.7476 -0.1771
 9008TIP3    H251220   1.694   5.122   1.901 -0.7669 -1.3583  1.3734
 9009TIP3   OH251221   2.662   6.673   2.118 -0.2230 -0.1636 -0.5212
 9009TIP3    H151222   2.654   6.624   2.199 -1.2784  0.4132 -0.2608
 9009TIP3    H251223   2.593   6.739   2.122 -1.3281 -1.0771 -2.5427
 9010TIP3   OH251224   4.158   5.028   2.436 -0.3512  0.3785 -0.0576
 9010TIP3    H151225   4.244   5.010   2.475 -0.5838  0.0582  0.3189
 9010TIP3    H251226   4.151   4.966   2.364  0.0220  0.8757 -0.5248
 9011TIP3   OH251227   7.379   1.316   2.485 -0.2751  0.6059  0.1515
 9011TIP3    H151228   7.291   1.294   2.453  0.6735 -1.9585 -0.8783
 9011TIP3    H251229   7.391   1.263   2.563  0.1492  1.4326  0.6653
 9012TIP3   OH251230   5.997   6.298   2.151 -0.2643  0.0866 -0.0784
 9012TIP3    H151231   6.088   6.281   2.174 -0.5905 -1.8809 -0.0540
 9012TIP3    H251232   5.986   6.259   2.064 -1.3832 -0.9118  0.4706
 9013TIP3   OH251233   4.757   2.175   1.891 -0.1952 -0.0525 -0.3307
 9013TIP3    H151234   4.755   2.087   1.854 -1.6649 -0.7222  1.2027
 9013TIP3    H251235   4.667   2.193   1.918 -0.0511  2.1803 -1.1060
 9014TIP3   OH251236   2.927   1.789   1.310 -0.0509  0.5790  0.0404
 9014TIP3    H151237   2.961   1.725   1.373  0.0424 -0.0890 -0.6681
 9014TIP3    H251238   2.852   1.828   1.353 -0.7189 -0.7314  0.1078
 9015TIP3   OH251239   6.609   7.679   1.857  0.2688  0.3174 -0.9311
 9015TIP3    H151240   6.668   7.626   1.912  2.0350  1.1805 -1.9074
 9015TIP3    H251241   6.601   7.629   1.776 -1.8585 -0.6672 -0.1759
 9016TIP3   OH251242   0.345   3.672   1.027  0.5494 -0.4076 -0.2179
 9016TIP3    H151243   0.407   3.683   0.955 -0.8906 -0.1926 -1.4943
 9016TIP3    H251244   0.301   3.756   1.034  0.5069 -0.5041  0.7725
 9017TIP3   OH251245   0.297   2.373   2.202  0.0223  0.3790 -0.3247
 9017TIP3    H151246   0.348   2.299   2.168  0.2078 -0.2128  1.1621
 9017TIP3    H251247   0.362   2.443   2.215  0.2917 -0.0447  0.6406
 9018TIP3   OH251248   1.364   4.901   2.932  0.3868  0.1400  0.7369
 9018TIP3    H151249   1.289   4.961   2.927 -0.0153 -0.3765  0.5287
 9018TIP3    H251250   1.428   4.939   2.872  0.2866  0.5665  0.8912
 9019TIP3   OH251251   6.597   2.274   1.034 -0.2512  0.5772  0.5059
 9019TIP3    H151252   6.570   2.353   1.081  1.6901  0.7251  1.4601
 9019TIP3    H251253   6.693   2.274   1.040 -0.1672 -1.4671 -0.1028
 9020TIP3   OH251254   1.568   2.016   3.450  0.2158 -0.2906  0.0812
 9020TIP3    H151255   1.490   2.002   3.503  0.6647  0.0822  0.8650
 9020TIP3    H251256   1.565   1.948   3.383 -0.7401 -0.3199  0.1457
 9021TIP3   OH251257   2.200   3.420   2.254 -0.3640 -0.2389 -0.1435
 9021TIP3    H151258   2.146   3.342   2.264  0.4894 -0.5503  3.2463
 9021TIP3    H251259   2.287   3.392   2.285  0.0785  1.8883  0.6705
 9022TIP3   OH251260   3.021   7.464   2.008  0.3335 -0.1703 -0.4958
 9022TIP3    H151261   2.957   7.473   2.078 -0.8394 -2.5150 -1.1713
 9022TIP3    H251262   3.022   7.549   1.965  2.4558  2.0134  3.3443
 9023TIP3   OH251263   0.855   0.730   2.246  0.0352  0.0067 -0.7854
 9023TIP3    H151264   0.830   0.693   2.330  1.7445 -1.1083 -0.7142
 9023TIP3    H251265   0.875   0.822   2.265  0.0379 -0.1422 -0.0564
 9024TIP3   OH251266   7.466   5.601   1.278 -0.0020  0.0941  0.0915
 9024TIP3    H151267   7.447   5.661   1.206  0.6436  0.9929  0.6448
 9024TIP3    H251268   7.551   5.629   1.311 -0.1160 -0.5328  0.9657
 9025TIP3   OH251269   5.284   1.310   2.488  0.1417 -0.0306 -0.0766
 9025TIP3    H151270   5.299   1.222   2.453  0.3848 -0.0006 -0.0547
 9025TIP3    H251271   5.220   1.298   2.557 -0.5388 -0.0579 -0.7003
 9026TIP3   OH251272   4.552   6.424   0.986 -1.1940 -0.2964 -0.1281
 9026TIP3    H151273   4.587   6.450   0.901 -0.9890 -1.6024 -0.4626
 9026TIP3    H251274   4.560   6.329   0.987  0.9206 -0.1843  2.2832
 9027TIP3   OH251275   2.619   4.896   0.852  0.3520  0.2838 -0.4352
 9027TIP3    H151276   2.630   4.991   0.852 -0.4685  0.4290  1.7324
 9027TIP3    H251277   2.699   4.863   0.893 -0.4803  0.2695  1.2549
 9028TIP3   OH251278   2.699   5.768   0.876 -0.1257  0.1302 -0.1442
 9028TIP3    H151279   2.643   5.747   0.801 -1.0295  2.0145 -0.0528
 9028TIP3    H251280   2.648   5.739   0.952  0.5213 -1.2198 -0.2112
 9029TIP3   OH251281   0.643   3.879   0.740  0.1135 -0.3627  0.1533
 9029TIP3    H151282   0.596   3.958   0.767 -0.7664 -0.9931  0.4866
 9029TIP3    H251283   0.722   3.913   0.697 -0.0001  0.6924  0.7261
 9030TIP3   OH251284   0.364   0.017   1.488 -0.0954 -0.6305 -0.3928
 9030TIP3    H151285   0.315   0.039   1.567 -0.1239 -0.4368 -0.4634
 9030TIP3    H251286   0.297  -0.018   1.428 -0.1309 -0.4579 -0.4540
 9031TIP3   OH251287   1.829   0.485   2.911  0.0225 -0.3435 -0.0540
 9031TIP3    H151288   1.760   0.420   2.900 -1.4731  1.0583  0.5604
 9031TIP3    H251289   1.815   0.546   2.838 -0.6175  0.9772  1.1359
 9032TIP3   OH251290   7.419   7.069   1.976 -0.3211 -0.8052  0.2165
 9032TIP3    H151291   7.410   7.056   2.071 -0.8904  1.4592  0.5209
 9032TIP3    H251292   7.514   7.069   1.961 -0.0432  2.1936  1.3930
 9033TIP3   OH251293   0.542   1.189   2.858 -0.1681 -0.1865  0.2229
 9033TIP3    H151294   0.610   1.255   2.851 -0.1581 -0.3148 -1.2639
 9033TIP3    H251295   0.481   1.209   2.787 -0.9383 -0.9108  0.6492
 9034TIP3   OH251296   0.904   6.042   2.979  0.6189 -0.0584  0.0304
 9034TIP3    H151297   0.929   6.131   3.003  1.0138  0.1052 -0.9748
 9034TIP3    H251298   0.968   5.987   3.024  1.0723  0.2185 -0.2793
 9035TIP3   OH251299   5.011   4.598   2.147  0.0710  0.1822  0.2093
 9035TIP3    H151300   5.077   4.657   2.111 -0.7961 -0.2515 -2.2669
 9035TIP3    H251301   5.058   4.515   2.160  0.2393  0.1295 -0.6840
 9036TIP3   OH251302   4.274   1.262   2.501 -0.0524  0.0666 -0.0418
 9036TIP3    H151303   4.194   1.259   2.553 -0.4832  0.6006 -0.6662
 9036TIP3    H251304   4.343   1.281   2.565 -0.2857 -1.2517  0.6374
 9037TIP3   OH251305   5.359   2.477   1.981 -0.9708  0.3202  0.1242
 9037TIP3    H151306   5.274   2.502   1.944 -1.4850  0.0288  1.0820
 9037TIP3    H251307   5.339   2.406   2.042 -0.3832  1.8435  2.1977
 9038TIP3   OH251308   6.855   1.163   0.580  0.2210  0.4995  0.1874
 9038TIP3    H151309   6.806   1.230   0.532  0.3171 -2.1225 -4.0017
 9038TIP3    H251310   6.947   1.187   0.566  0.2725  1.1548  1.4617
 9039TIP3   OH251311   4.338   6.044   1.227  0.1489  0.0222  0.0016
 9039TIP3    H151312   4.298   6.055   1.313  0.5062 -0.0686  0.1826
 9039TIP3    H251313   4.385   6.126   1.212 -1.7368  0.9577 -1.0972
 9040TIP3   OH251314   7.609   4.542   1.222 -0.0127 -0.0595  0.0795
 9040TIP3    H151315   7.625   4.452   1.192 -3.1020 -0.7009  0.0032
 9040TIP3    H251316   7.583   4.533   1.313  1.9228  1.0750  0.7883
 9041TIP3   OH251317   6.977   3.128   2.676  0.4883 -0.2183  0.0694
 9041TIP3    H151318   7.045   3.097   2.735 -0.3940  0.5387  1.5463
 9041TIP3    H251319   6.911   3.059   2.676  1.1715 -0.9033 -1.2753
 9042TIP3   OH251320   2.179   3.680   1.044  0.0993 -0.0996 -0.0620
 9042TIP3    H151321   2.236   3.736   0.990  0.3133 -0.7033 -0.4650
 9042TIP3    H251322   2.224   3.676   1.128  0.3538 -0.0914 -0.1959
 9043TIP3   OH251323   7.445   3.858   2.724  0.1273  0.0572  0.4602
 9043TIP3    H151324   7.493   3.786   2.766  0.6941 -1.5193 -2.6132
 9043TIP3    H251325   7.505   3.890   2.657 -0.8041  2.3210  0.6271
 9044TIP3   OH251326   6.214   7.092   1.111  0.0003  0.0220  0.1968
 9044TIP3    H151327   6.308   7.089   1.129  0.0428  1.7719  0.3931
 9044TIP3    H251328   6.198   7.181   1.079 -1.1805 -0.9644 -2.2306
 9045TIP3   OH251329   1.308   7.521   2.133 -0.0916  0.1606  0.2893
 9045TIP3    H151330   1.302   7.546   2.042  1.5199  0.5777  0.2575
 9045TIP3    H251331   1.225   7.479   2.153 -0.6915  0.6086 -1.1919
 9046TIP3   OH251332   2.098   4.733   0.906 -0.1180 -0.4411 -0.6109
 9046TIP3    H151333   2.150   4.687   0.841 -0.3946 -1.8434  0.1104
 9046TIP3    H251334   2.008   4.706   0.888 -1.0029  3.4898 -3.1159
 9047TIP3   OH251335   1.531   1.162   2.452 -0.6507  0.3838 -0.3659
 9047TIP3    H151336   1.545   1.150   2.358  0.8174  0.0661 -0.1306
 9047TIP3    H251337   1.601   1.221   2.480 -1.0582  0.4633  0.5347
 9048TIP3   OH251338   7.417   2.163   0.951  0.2983 -0.5441  0.1459
 9048TIP3    H151339   7.494   2.130   0.996  0.6458  0.9737  0.7284
 9048TIP3    H251340   7.374   2.220   1.015 -2.9454 -3.4862  0.9127
 9049TIP3   OH251341   5.641   3.830   2.190  0.1814 -0.0113 -0.1714
 9049TIP3    H151342   5.553   3.814   2.156  0.3108 -0.4524 -0.2962
 9049TIP3    H251343   5.682   3.744   2.194  0.9799  0.3001 -1.1406
 9050TIP3   OH251344   7.489   1.152   1.100  0.3534  0.0128  0.2065
 9050TIP3    H151345   7.538   1.071   1.088 -1.2243 -1.3931  2.4270
 9050TIP3    H251346   7.499   1.173   1.193 -0.8843  1.2596  0.1010
 9051TIP3   OH251347   1.574   3.404   2.566  0.1523 -0.1227  0.0863
 9051TIP3    H151348   1.498   3.349   2.584  0.3206 -0.0305  1.1478
 9051TIP3    H251349   1.635   3.347   2.519  0.4492 -0.9658  1.4383
 9052TIP3   OH251350   2.446   6.466   2.026  0.1288 -0.4856 -0.3498
 9052TIP3    H151351   2.427   6.372   2.032  1.1230 -0.7424 -1.0392
 9052TIP3    H251352   2.523   6.472   1.969  0.4561  0.7072  0.1834
 9053TIP3   OH251353   3.989   0.978   3.250 -0.6154  0.0194  0.3378
 9053TIP3    H151354   4.008   1.027   3.170  0.0060 -1.3650 -0.3906
 9053TIP3    H251355   3.894   0.965   3.247 -0.4281 -1.3119 -0.9777
 9054TIP3   OH251356   3.187   1.495   2.856 -0.1077 -0.1413 -0.9993
 9054TIP3    H151357   3.225   1.495   2.944  0.9207  0.8342 -1.4178
 9054TIP3    H251358   3.121   1.564   2.858 -0.7316 -0.7350 -0.7431
 9055TIP3   OH251359   2.170   1.456   2.515 -0.8605  0.0538  0.0897
 9055TIP3    H151360   2.264   1.474   2.510 -0.9378  0.2808 -0.6119
 9055TIP3    H251361   2.136   1.520   2.578 -0.5480 -0.0510  0.3730
 9056TIP3   OH251362   6.346   5.867   1.338  0.5358 -0.3886  0.0098
 9056TIP3    H151363   6.431   5.886   1.298  0.9499 -1.9827  0.0541
 9056TIP3    H251364   6.344   5.920   1.417  0.3971  1.5766 -1.2554
 9057TIP3   OH251365   4.733   6.490   0.762  0.0476  0.0325  0.3176
 9057TIP3    H151366   4.690   6.474   0.678  1.6674 -1.1244 -0.3489
 9057TIP3    H251367   4.721   6.583   0.779 -1.1073  0.0899 -0.7338
 9058TIP3   OH251368   6.307   1.722   1.663  0.2882  0.1724  0.1600
 9058TIP3    H151369   6.366   1.747   1.733 -0.0927  1.1567  0.1433
 9058TIP3    H251370   6.303   1.626   1.667 -1.1474  0.2571  2.6684
 9059TIP3   OH251371   7.240   7.030   3.393 -0.1096  0.2283  0.0851
 9059TIP3    H151372   7.317   6.981   3.363  0.0253  0.5487 -0.0939
 9059TIP3    H251373   7.179   6.962   3.422  0.0934 -0.0467 -0.1200
 9060TIP3   OH251374   0.447   3.366   1.687  0.3517 -0.2718  0.0128
 9060TIP3    H151375   0.537   3.339   1.668  0.3463 -0.8128  0.7392
 9060TIP3    H251376   0.425   3.425   1.615  1.2198 -0.2805 -0.2770
 9061TIP3   OH251377   1.208   6.094   1.191 -0.2221  0.2897  0.0003
 9061TIP3    H151378   1.202   6.076   1.285  0.5219 -1.1594 -0.1867
 9061TIP3    H251379   1.300   6.117   1.178 -0.1362 -0.3088 -0.4797
 9062TIP3   OH251380   1.826   4.914   0.800 -0.0372  0.3099 -0.4435
 9062TIP3    H151381   1.740   4.873   0.788  0.4829 -0.6100 -1.2359
 9062TIP3    H251382   1.809   5.008   0.800 -0.8619  0.2166 -2.5010
 9063TIP3   OH251383   3.472   5.182   0.820  0.0209  0.7391  0.5496
 9063TIP3    H151384   3.443   5.271   0.800 -0.6047  0.5867  0.7617
 9063TIP3    H251385   3.560   5.193   0.857 -1.0256  1.5035  2.9654
 9064TIP3   OH251386   1.537   3.832   1.221  0.2572 -0.3100 -0.5554
 9064TIP3    H151387   1.604   3.774   1.257  0.4768 -0.5955 -1.4101
 9064TIP3    H251388   1.579   3.873   1.145 -0.3702 -0.1123 -0.8017
 9065TIP3   OH251389   2.812   5.179   1.797 -0.2375 -0.0827 -0.4014
 9065TIP3    H151390   2.896   5.153   1.760  0.2365 -0.7486  1.0758
 9065TIP3    H251391   2.748   5.127   1.748  0.0950  0.8887 -1.9714
 9066TIP3   OH251392   7.145   6.776   0.932  0.7656 -0.0647 -0.0762
 9066TIP3    H151393   7.205   6.721   0.882  0.7950 -0.5084  0.4376
 9066TIP3    H251394   7.127   6.851   0.875 -0.0071 -1.0493 -1.1755
 9067TIP3   OH251395   1.571   2.970   1.375  0.2061  0.1416 -0.0544
 9067TIP3    H151396   1.490   2.966   1.324 -1.0634 -2.7211  1.9321
 9067TIP3    H251397   1.543   2.971   1.466  2.3178 -2.0342  0.7406
 9068TIP3   OH251398   3.902   3.344   2.594 -0.1260 -0.4958  0.0869
 9068TIP3    H151399   3.826   3.400   2.580  0.5663  0.3319 -0.4933
 9068TIP3    H251400   3.891   3.272   2.532 -0.4879 -0.4285  0.0735
 9069TIP3   OH251401   6.419   0.852   0.915  0.3547  0.3253 -0.3969
 9069TIP3    H151402   6.430   0.800   0.994  0.8803  1.7313  0.4984
 9069TIP3    H251403   6.506   0.853   0.875  0.2415  0.1663 -0.6529
 9070TIP3   OH251404   4.397   1.832   2.532  0.1923  0.2113  0.1133
 9070TIP3    H151405   4.377   1.851   2.440 -0.5301  4.8646  0.9534
 9070TIP3    H251406   4.314   1.800   2.568 -0.6252  1.8259 -0.2164
 9071TIP3   OH251407   4.384   0.595   1.607 -0.1958  0.2023 -0.4732
 9071TIP3    H151408   4.345   0.667   1.655 -1.2382 -0.3605 -0.4457
 9071TIP3    H251409   4.321   0.523   1.616  0.9876 -0.8256 -0.1861
 9072TIP3   OH251410   0.666   2.024   2.103 -0.0299 -0.0567  0.3118
 9072TIP3    H151411   0.723   1.972   2.047 -0.9855  0.5821 -1.3152
 9072TIP3    H251412   0.658   1.972   2.183  2.3230 -0.4363  0.3791
 9073TIP3   OH251413   2.256   1.165   3.355  0.3252  0.0040  0.4091
 9073TIP3    H151414   2.261   1.223   3.278  1.0851 -0.3565  0.1806
 9073TIP3    H251415   2.310   1.208   3.421  0.6087 -0.2605  0.3538
 9074TIP3   OH251416   7.072   3.400   0.979  0.2177  0.2413  0.2317
 9074TIP3    H151417   7.010   3.388   0.907 -0.5506  0.6231  0.8113
 9074TIP3    H251418   7.122   3.478   0.954 -0.9637  1.1876  0.7185
 9075TIP3   OH251419   3.548   5.456   1.407 -0.2254  0.5379 -0.6309
 9075TIP3    H151420   3.598   5.504   1.473  0.4667 -0.2580 -0.5564
 9075TIP3    H251421   3.462   5.444   1.447  0.1354  0.2121  0.0636
 9076TIP3   OH251422   5.162   2.398   0.723  0.1698  0.2872 -0.4693
 9076TIP3    H151423   5.198   2.325   0.773 -0.4333 -0.8797 -1.7045
 9076TIP3    H251424   5.202   2.390   0.637  0.8859  2.0367 -0.3391
 9077TIP3   OH251425   0.671   5.510   3.633  0.1586 -0.0125 -0.0182
 9077TIP3    H151426   0.759   5.550   3.635 -0.0682  0.4743  0.6622
 9077TIP3    H251427   0.683   5.427   3.587  0.8760  0.2974 -0.4046
 9078TIP3   OH251428   3.466   7.565   0.887 -0.2787 -0.3867  0.5519
 9078TIP3    H151429   3.457   7.472   0.865  0.3721  0.1604 -2.4109
 9078TIP3    H251430   3.386   7.585   0.936 -1.3218 -2.1357 -0.3180
 9079TIP3   OH251431   3.553   1.583   1.260  0.2104 -0.4810  0.4894
 9079TIP3    H151432   3.597   1.653   1.211 -0.7224 -1.1823 -1.4470
 9079TIP3    H251433   3.469   1.621   1.284 -0.3887 -0.9673 -0.7585
 9080TIP3   OH251434   0.958   5.365   2.444 -0.3436  0.0330 -0.2617
 9080TIP3    H151435   0.864   5.350   2.435 -0.3960  1.2535 -2.5031
 9080TIP3    H251436   0.965   5.460   2.460  0.5183 -0.0232 -0.2633
 9081TIP3   OH251437   7.304   0.533   1.734  0.2674 -0.1469  0.0508
 9081TIP3    H151438   7.358   0.592   1.787 -0.0853 -0.2989  0.5834
 9081TIP3    H251439   7.311   0.449   1.778 -1.0017 -0.0073  0.5610
 9082TIP3   OH251440   5.263   2.730   0.785 -0.1590  0.8414 -0.4233
 9082TIP3    H151441   5.332   2.664   0.787 -1.9531 -1.1713  2.4823
 9082TIP3    H251442   5.283   2.787   0.859 -1.1642  0.6863 -0.0171
 9083TIP3   OH251443   4.707   7.354   1.617  0.0290  0.0184 -0.5181
 9083TIP3    H151444   4.779   7.399   1.573  0.8198 -0.5104  0.1922
 9083TIP3    H251445   4.743   7.268   1.638 -1.0267 -0.4813 -0.7018
 9084TIP3   OH251446   0.185   7.135   2.787 -0.0628  0.0230  0.0629
 9084TIP3    H151447   0.226   7.209   2.742 -1.7461  2.0647  1.7460
 9084TIP3    H251448   0.231   7.129   2.870 -0.0872 -0.7277  0.0315
 9085TIP3   OH251449   3.149   1.887   1.872  0.1490  0.0403 -0.1841
 9085TIP3    H151450   3.244   1.886   1.860  0.2370 -0.7628  0.5110
 9085TIP3    H251451   3.136   1.859   1.962 -0.6978  1.4329  0.1652
 9086TIP3   OH251452   5.903   0.816   1.384  0.2943  0.3358 -0.6547
 9086TIP3    H151453   5.958   0.844   1.311 -0.2650  0.5003 -1.0191
 9086TIP3    H251454   5.828   0.876   1.382  0.7102  0.9478  0.6251
 9087TIP3   OH251455   0.882   6.723   2.026 -0.2149  0.2935  0.1275
 9087TIP3    H151456   0.910   6.706   1.937  0.1496  0.3260  0.2345
 9087TIP3    H251457   0.963   6.727   2.077 -0.4938 -1.5141  0.7819
 9088TIP3   OH251458   4.218   2.252   1.887 -0.4990  0.1166  0.3489
 9088TIP3    H151459   4.250   2.334   1.851 -1.6051  0.3496 -0.1398
 9088TIP3    H251460   4.223   2.190   1.814  0.6030 -0.3430  0.7924
 9089TIP3   OH251461   5.956   2.544   2.106 -0.3423  0.3766  0.5481
 9089TIP3    H151462   5.877   2.500   2.139  0.2162 -0.9503  0.2124
 9089TIP3    H251463   6.028   2.486   2.131  0.2913  0.3445 -1.1725
 9090TIP3   OH251464   3.369   0.284   2.161 -0.4490  0.5668 -0.0037
 9090TIP3    H151465   3.343   0.237   2.239 -0.3527 -1.2160 -0.9932
 9090TIP3    H251466   3.319   0.243   2.090  1.3944  0.3180 -1.2426
 9091TIP3   OH251467   2.814   4.955   1.290 -0.0458 -0.6956  0.1535
 9091TIP3    H151468   2.807   4.889   1.221  0.0684 -0.2540 -0.2790
 9091TIP3    H251469   2.726   4.990   1.300  0.4816  1.4445 -1.9451
 9092TIP3   OH251470   6.012   7.176   1.618  0.3188  0.3513  0.0847
 9092TIP3    H151471   6.011   7.092   1.664  0.4868 -0.5106 -1.4142
 9092TIP3    H251472   5.925   7.184   1.580  0.5649  0.4347 -0.4756
 9093TIP3   OH251473   7.375   3.580   1.180 -0.1668 -0.4078  0.2976
 9093TIP3    H151474   7.401   3.614   1.265  0.8629 -1.9398  0.6250
 9093TIP3    H251475   7.363   3.486   1.194 -1.3476 -0.4677 -0.9389
 9094TIP3   OH251476   0.346   3.952   2.474 -0.1243 -0.2752  0.1123
 9094TIP3    H151477   0.349   4.038   2.517  1.7999 -1.3778  2.4602
 9094TIP3    H251478   0.430   3.945   2.430 -1.0175 -0.2762 -1.6800
 9095TIP3   OH251479   2.007   3.994   0.944 -0.6252 -0.6381  0.5713
 9095TIP3    H151480   2.030   3.949   1.026 -0.3763 -0.4319  0.6139
 9095TIP3    H251481   2.081   3.976   0.886 -0.2089  0.2756  0.8065
 9096TIP3   OH251482   5.762   0.256   0.665  0.3811  0.5567  0.7010
 9096TIP3    H151483   5.719   0.242   0.581  0.4295 -0.2886  0.8090
 9096TIP3    H251484   5.703   0.218   0.730  1.0374 -0.1902  0.8928
 9097TIP3   OH251485   2.335   0.500   1.985 -0.7204 -0.2542 -0.3693
 9097TIP3    H151486   2.318   0.409   1.960  0.1433 -0.9037  1.2514
 9097TIP3    H251487   2.259   0.525   2.038 -0.3941 -0.4505  0.1968
 9098TIP3   OH251488   0.345   5.973   2.616 -0.0636 -0.2545  0.1063
 9098TIP3    H151489   0.351   6.059   2.657 -0.9267  0.0035 -0.2694
 9098TIP3    H251490   0.259   5.973   2.573  0.9234 -0.3591 -2.0075
 9099TIP3   OH251491   7.538   2.016   1.135  0.0341 -0.4250 -0.3497
 9099TIP3    H151492   7.522   1.933   1.091  0.8081 -0.9743  0.3760
 9099TIP3    H251493   7.536   1.995   1.229 -1.2740  0.6618 -0.1070
 9100TIP3   OH251494   5.697   2.223   0.613  0.3506 -0.0339  0.3049
 9100TIP3    H151495   5.784   2.236   0.574  0.7886 -2.5544  0.2507
 9100TIP3    H251496   5.712   2.231   0.707  0.7333 -0.6767  0.3124
 9101TIP3   OH251497   2.272   4.978   1.484 -0.1811 -0.1873  0.6203
 9101TIP3    H151498   2.248   5.070   1.474  2.2138  0.3659 -0.7466
 9101TIP3    H251499   2.225   4.933   1.413  0.0600  0.2867  0.1555
 9102TIP3   OH251500   0.023   3.920   0.876  0.1821 -0.0233  0.0008
 9102TIP3    H151501  -0.012   3.867   0.805  0.8813  1.7851 -1.7971
 9102TIP3    H251502  -0.040   3.911   0.947 -0.0340 -2.6892 -0.4249
 9103TIP3   OH251503   0.505   3.311   3.175  0.0338  0.2408 -0.0644
 9103TIP3    H151504   0.415   3.306   3.142 -0.1016  0.5129  0.2557
 9103TIP3    H251505   0.497   3.299   3.269  0.1889  1.5668  0.1371
 9104TIP3   OH251506   5.026   3.315   1.916  0.0255  0.3029 -0.3542
 9104TIP3    H151507   5.021   3.251   1.987  2.4568 -0.0254 -0.4067
 9104TIP3    H251508   5.036   3.263   1.836 -2.9854  0.6511 -1.1234
 9105TIP3   OH251509   4.260   5.495   2.137 -0.2504  0.2778 -0.3779
 9105TIP3    H151510   4.255   5.421   2.076 -0.1950  0.2388 -0.3363
 9105TIP3    H251511   4.272   5.572   2.081  1.6047  0.0531 -0.3479
 9106TIP3   OH251512   1.277   0.043   2.311  0.2204 -0.2432 -0.4351
 9106TIP3    H151513   1.259   0.121   2.259  1.7131  0.5476  0.1632
 9106TIP3    H251514   1.298  -0.025   2.247  0.3210  0.2421 -0.9264
 9107TIP3   OH251515   2.203   5.835   2.543  0.0353 -0.0379  0.2980
 9107TIP3    H151516   2.283   5.786   2.565 -0.2253 -0.6148 -0.0400
 9107TIP3    H251517   2.235   5.913   2.498  0.3567 -0.8828 -0.9802
 9108TIP3   OH251518   4.400   3.402   2.356  0.3297 -0.2151  0.2999
 9108TIP3    H151519   4.344   3.448   2.293  0.8760  1.8837  1.2706
 9108TIP3    H251520   4.338   3.363   2.418 -0.1777  2.2867  1.5102
 9109TIP3   OH251521   5.758   6.712   0.655 -0.1025  0.9837 -0.3929
 9109TIP3    H151522   5.821   6.672   0.714  0.7426  1.6765 -0.7872
 9109TIP3    H251523   5.717   6.639   0.610 -2.5646  0.2485  2.7140
 9110TIP3   OH251524   5.469   4.307   1.623  0.3200 -0.3555 -0.4559
 9110TIP3    H151525   5.525   4.242   1.665 -1.1631 -1.9617 -0.8402
 9110TIP3    H251526   5.394   4.316   1.682  0.0334  0.2726 -0.8983
 9111TIP3   OH251527   0.668   2.024   1.628 -0.6519 -0.1443 -0.3963
 9111TIP3    H151528   0.734   1.968   1.669  0.4919  1.3348 -0.0848
 9111TIP3    H251529   0.655   1.986   1.541  1.0220 -0.2059 -0.6549
 9112TIP3   OH251530   4.519   1.665   0.960  0.5945 -0.1573 -0.3181
 9112TIP3    H151531   4.554   1.579   0.984 -0.9578 -1.1913 -1.5232
 9112TIP3    H251532   4.456   1.685   1.029  3.8745  2.1017  2.3273
 9113TIP3   OH251533   2.190   0.729   0.903  0.1317 -0.2250 -0.3788
 9113TIP3    H151534   2.240   0.780   0.839  0.2359 -0.6356 -0.6279
 9113TIP3    H251535   2.102   0.767   0.900  0.2094 -0.0528 -0.5517
 9114TIP3   OH251536   4.516   7.541   1.660  0.4244  0.1721 -0.1303
 9114TIP3    H151537   4.571   7.463   1.650  0.9163  0.3560  0.9521
 9114TIP3    H251538   4.427   7.510   1.647  0.6425 -0.5298  0.0256
 9115TIP3   OH251539   1.265   6.818   1.954 -0.1157 -0.1436  0.1367
 9115TIP3    H151540   1.318   6.879   2.006  1.0310 -1.7186  0.8802
 9115TIP3    H251541   1.323   6.788   1.884 -0.3496 -1.0806  0.3298
 9116TIP3   OH251542   1.159   6.136   0.921  0.1469  0.0079  0.1528
 9116TIP3    H151543   1.163   6.227   0.891 -0.7026  0.3622  1.0987
 9116TIP3    H251544   1.169   6.141   1.016  0.9822 -0.9682  0.1349
 9117TIP3   OH251545   6.828   1.909   2.971  0.3771  0.1952 -0.1898
 9117TIP3    H151546   6.878   1.831   2.994 -0.6676  0.0276  1.6931
 9117TIP3    H251547   6.856   1.975   3.035 -1.3395  0.2617  0.5485
 9118TIP3   OH251548   6.794   7.243   1.018 -0.1115 -0.0933  0.3881
 9118TIP3    H151549   6.724   7.249   0.953 -2.1372  0.8635  2.5106
 9118TIP3    H251550   6.866   7.293   0.981 -0.8407 -0.3812 -1.5113
 9119TIP3   OH251551   5.164   0.453   1.119  0.7372  0.0782 -0.0406
 9119TIP3    H151552   5.079   0.474   1.156  0.2635  0.0265 -1.0737
 9119TIP3    H251553   5.148   0.378   1.062  1.5429 -0.1577  0.0228
 9120TIP3   OH251554   2.839   1.846   1.851  0.2240  0.4700 -0.0482
 9120TIP3    H151555   2.894   1.803   1.917  0.3734  0.6040 -0.0832
 9120TIP3    H251556   2.781   1.902   1.903 -0.7582 -0.6264  0.0783
 9121TIP3   OH251557   5.030   4.447   2.732  0.1339 -0.0218 -0.6781
 9121TIP3    H151558   5.069   4.428   2.647  2.2794 -0.7199  0.3846
 9121TIP3    H251559   5.025   4.542   2.736 -0.1845  0.0049 -1.6612
 9122TIP3   OH251560   2.286   1.349   1.884  0.5873 -0.6542  0.1151
 9122TIP3    H151561   2.335   1.275   1.849  0.7822 -1.2603  1.6058
 9122TIP3    H251562   2.222   1.309   1.944  0.4702  0.3565  0.6878
 9123TIP3   OH251563   6.617   6.071   2.600  0.0966  0.0293  0.0048
 9123TIP3    H151564   6.555   6.143   2.589 -0.4668 -0.4568 -0.0476
 9123TIP3    H251565   6.570   5.994   2.570 -0.2122 -0.7680  2.3731
 9124TIP3   OH251566   3.584   4.230   1.670 -0.1517 -0.2655  0.0421
 9124TIP3    H151567   3.515   4.292   1.695 -0.1036  0.1153 -0.7646
 9124TIP3    H251568   3.655   4.285   1.637  0.6678 -0.6340  1.1168
 9125TIP3   OH251569   5.356   2.028   2.708 -0.4741  0.4540  0.1285
 9125TIP3    H151570   5.364   2.095   2.776 -2.1930  0.1199  0.7247
 9125TIP3    H251571   5.286   1.970   2.740  1.3760 -2.0387 -0.0412
 9126TIP3   OH251572   2.076   1.446   1.464  0.1932  0.0794 -0.3147
 9126TIP3    H151573   2.162   1.468   1.429  0.3298 -1.9395 -1.4176
 9126TIP3    H251574   2.016   1.455   1.390  0.0120 -1.4905 -0.4036
 9127TIP3   OH251575   0.101   1.939   3.112  0.0544  0.1558  0.0849
 9127TIP3    H151576   0.109   1.850   3.147  2.9593  0.1808 -0.2719
 9127TIP3    H251577   0.054   1.927   3.029 -2.1468 -0.5910  1.3635
 9128TIP3   OH251578   2.445   2.254   2.775  0.4893  0.1506 -0.0532
 9128TIP3    H151579   2.474   2.164   2.789 -0.7827 -0.2528  0.1746
 9128TIP3    H251580   2.405   2.252   2.687  2.5653  1.0847 -1.0775
 9129TIP3   OH251581   6.965   4.117   1.945 -0.5573  0.1847  0.4027
 9129TIP3    H151582   6.987   4.027   1.919 -0.9055  0.2778 -0.2336
 9129TIP3    H251583   6.870   4.122   1.934 -0.6656  0.3632  1.2990
 9130TIP3   OH251584   6.205   3.522   3.321 -0.1596 -0.2425  0.0276
 9130TIP3    H151585   6.175   3.499   3.233  1.8459  1.3529 -1.1592
 9130TIP3    H251586   6.299   3.539   3.311 -0.0259  0.7714  2.3124
 9131TIP3   OH251587   1.162   5.447   3.472 -0.7334 -0.6991 -0.4768
 9131TIP3    H151588   1.243   5.422   3.428 -0.6023 -0.9921 -0.0658
 9131TIP3    H251589   1.096   5.446   3.402 -0.6639 -1.8568 -0.5361
 9132TIP3   OH251590   3.071   3.574   0.856  0.6650  0.2849 -0.5589
 9132TIP3    H151591   3.093   3.564   0.948  0.2931  0.0399 -0.4948
 9132TIP3    H251592   3.029   3.660   0.850 -0.3803 -0.1961 -0.2905
 9133TIP3   OH251593   3.257   3.617   3.524  0.4472 -0.2543 -0.2760
 9133TIP3    H151594   3.313   3.551   3.566 -0.8622 -0.1257  1.8213
 9133TIP3    H251595   3.306   3.643   3.445  1.2831 -3.2439 -0.8706
 9134TIP3   OH251596   3.218   3.329   1.867  0.0503 -0.0217 -0.4041
 9134TIP3    H151597   3.303   3.373   1.875 -0.5294  1.3517 -1.4156
 9134TIP3    H251598   3.237   3.237   1.889  1.8236  0.2136 -0.7509
 9135TIP3   OH251599   4.692   0.512   2.156  0.3846 -0.6151 -0.2585
 9135TIP3    H151600   4.607   0.475   2.132 -0.2032  0.2172  0.5112
 9135TIP3    H251601   4.755   0.456   2.111 -0.5780 -0.9537 -1.2245
 9136TIP3   OH251602   4.243   1.358   0.762 -0.1118 -0.0656  0.3751
 9136TIP3    H151603   4.228   1.285   0.821  1.1613  0.2709  1.1733
 9136TIP3    H251604   4.186   1.342   0.687 -1.8484 -0.4534  1.7287
 9137TIP3   OH251605   5.719   1.224   1.513  0.2542  0.2067  0.2009
 9137TIP3    H151606   5.640   1.278   1.504 -0.3302 -0.7677 -0.8397
 9137TIP3    H251607   5.705   1.174   1.594  1.2191  2.2152  1.6868
 9138TIP3   OH251608   1.793   1.859   3.515  0.1169 -0.2112  0.1499
 9138TIP3    H151609   1.735   1.935   3.509  0.5630  0.0715 -0.7701
 9138TIP3    H251610   1.735   1.784   3.508 -0.4639 -0.0108  2.1830
 9139TIP3   OH251611   5.070   4.097   1.687 -0.8595 -0.3860 -0.0206
 9139TIP3    H151612   5.117   4.095   1.770  1.1938  0.1722 -1.1014
 9139TIP3    H251613   5.081   4.010   1.650 -0.7098 -0.2757 -0.2436
 9140TIP3   OH251614   1.622   1.718   2.950 -0.0166  0.2209  0.1641
 9140TIP3    H151615   1.607   1.800   2.904 -0.3272  1.4462  2.2871
 9140TIP3    H251616   1.707   1.730   2.993 -0.4433 -0.2281  1.1588
 9141TIP3   OH251617   2.200   3.685   2.232 -0.0005  0.0488 -0.7780
 9141TIP3    H151618   2.196   3.590   2.239  1.9453  0.0152  0.9088
 9141TIP3    H251619   2.293   3.704   2.217 -0.2312  1.7002 -0.3298
 9142TIP3   OH251620   2.711   5.944   1.245 -0.5692  0.0134 -0.1133
 9142TIP3    H151621   2.765   5.983   1.176 -0.3522 -0.0237  0.0336
 9142TIP3    H251622   2.774   5.911   1.309 -0.7485 -0.7455 -0.3251
 9143TIP3   OH251623   3.864   3.701   2.416  0.0744  0.2352  0.4640
 9143TIP3    H151624   3.873   3.623   2.362  1.3870  1.1764 -0.7727
 9143TIP3    H251625   3.772   3.726   2.407  0.2015  0.2095 -1.1406
 9144TIP3   OH251626   4.799   6.834   1.209  0.1465  0.0384 -0.1415
 9144TIP3    H151627   4.753   6.802   1.131  1.1973  0.5777 -1.0032
 9144TIP3    H251628   4.816   6.756   1.261  0.4682 -0.4850 -1.0154
 9145TIP3   OH251629   3.353   5.549   1.750 -0.1954 -0.2002  0.3203
 9145TIP3    H151630   3.429   5.583   1.796 -0.6923 -0.8811  1.6793
 9145TIP3    H251631   3.278   5.583   1.798 -0.8923  2.2693 -2.2343
 9146TIP3   OH251632   5.729   6.508   2.939  0.3391  0.1252 -0.7955
 9146TIP3    H151633   5.710   6.596   2.972  0.1977  0.2563 -1.2169
 9146TIP3    H251634   5.775   6.523   2.857 -0.0297 -0.1946 -1.0630
 9147TIP3   OH251635   3.379   4.996   1.016  0.0541 -0.0176  0.1970
 9147TIP3    H151636   3.404   5.056   0.945  1.4366 -1.5459 -0.6691
 9147TIP3    H251637   3.284   5.006   1.023  0.0518  1.0953 -0.9972
 9148TIP3   OH251638   0.809   1.958   1.203  0.3019 -0.1956  0.1851
 9148TIP3    H151639   0.852   1.872   1.208 -1.2662 -0.9709  0.8986
 9148TIP3    H251640   0.880   2.021   1.219  1.4232 -1.3519 -0.0336
 9149TIP3   OH251641   3.459   3.237   2.151  0.1508 -0.4630 -0.0936
 9149TIP3    H151642   3.456   3.303   2.082  0.9082  0.6830  0.9348
 9149TIP3    H251643   3.544   3.248   2.192 -1.1164  0.4835  2.5025
 9150TIP3   OH251644   2.957   4.630   2.646  0.8062  0.1260  0.4977
 9150TIP3    H151645   2.911   4.562   2.696 -0.5495  0.9452  0.3967
 9150TIP3    H251646   2.978   4.697   2.711  0.9883  0.2030  0.3593
 9151TIP3   OH251647   3.871   1.864   2.210 -0.6244  0.0906 -0.0485
 9151TIP3    H151648   3.843   1.955   2.200  1.2497  0.7048 -0.1109
 9151TIP3    H251649   3.950   1.869   2.264  1.2856 -1.1613 -2.5332
 9152TIP3   OH251650   1.495   0.295   3.346 -0.2963  0.3179  0.1789
 9152TIP3    H151651   1.483   0.262   3.257  1.1450  0.3575 -0.0437
 9152TIP3    H251652   1.550   0.372   3.336  0.4331 -0.0552  1.1657
 9153TIP3   OH251653   2.444   3.001   1.301 -0.1201  0.0394  0.3288
 9153TIP3    H151654   2.531   2.962   1.310 -0.0027  0.3656  0.6617
 9153TIP3    H251655   2.384   2.926   1.296  0.1827 -0.1849  0.0860
 9154TIP3   OH251656   0.905   6.401   1.915  0.3452 -0.5396  0.0724
 9154TIP3    H151657   0.817   6.432   1.893 -1.1960 -3.3886  1.6552
 9154TIP3    H251658   0.921   6.331   1.851  1.3892 -0.2222 -0.0278
 9155TIP3   OH251659   2.420   4.847   1.045 -0.0387 -0.3845 -0.0902
 9155TIP3    H151660   2.355   4.917   1.032  0.2781 -0.0188  0.2449
 9155TIP3    H251661   2.481   4.857   0.972 -1.1514 -1.6513 -1.2312
 9156TIP3   OH251662   6.619   4.727   3.187  0.6486  0.0004 -0.3808
 9156TIP3    H151663   6.590   4.667   3.256  1.2689 -1.3313 -1.2245
 9156TIP3    H251664   6.541   4.744   3.134  0.8457 -1.7573 -1.3258
 9157TIP3   OH251665   6.467   3.001   1.826 -0.3074 -0.0833  0.6870
 9157TIP3    H151666   6.500   2.953   1.750 -0.2646 -0.8044  1.1535
 9157TIP3    H251667   6.531   2.983   1.895 -0.6837  0.0518  1.0743
 9158TIP3   OH251668   3.997   0.901   2.928  0.0742  0.2891  0.0332
 9158TIP3    H151669   3.990   0.989   2.965  1.4656  1.3885 -2.0758
 9158TIP3    H251670   3.917   0.890   2.877 -0.0521  0.3673  0.2139
 9159TIP3   OH251671   3.923   4.962   2.668 -0.0448 -0.1547  0.0690
 9159TIP3    H151672   3.963   4.881   2.635 -0.2948 -0.8585  1.4260
 9159TIP3    H251673   3.974   5.032   2.628  1.5668 -1.0110  0.5577
 9160TIP3   OH251674   1.895   0.712   2.527 -0.0329  0.1748  0.4599
 9160TIP3    H151675   1.896   0.687   2.435  0.6561 -0.0902  0.5313
 9160TIP3    H251676   1.829   0.656   2.567 -1.7553  1.6409 -0.2247
 9161TIP3   OH251677   4.821   0.313   2.661 -0.1629  0.0414 -0.3514
 9161TIP3    H151678   4.910   0.304   2.696 -0.1109 -2.1869 -0.9177
 9161TIP3    H251679   4.767   0.333   2.738  0.8579  2.1847 -0.0998
 9162TIP3   OH251680   4.667   1.739   2.488 -0.1431 -0.2571 -0.0138
 9162TIP3    H151681   4.689   1.750   2.581  0.4695  2.2805 -0.3864
 9162TIP3    H251682   4.573   1.752   2.485 -0.2538 -0.9020  0.2881
 9163TIP3   OH251683   2.368   5.014   2.240  0.4005  0.2848 -0.5545
 9163TIP3    H151684   2.292   4.958   2.259  0.2424  0.2684 -1.2202
 9163TIP3    H251685   2.342   5.066   2.165  0.1669  2.0162  0.6745
 9164TIP3   OH251686   3.146   6.168   3.563 -0.0212 -0.1109 -0.0995
 9164TIP3    H151687   3.120   6.255   3.592  0.0236 -0.1431  0.0381
 9164TIP3    H251688   3.069   6.113   3.577 -0.9465  0.4403 -2.6265
 9165TIP3   OH251689   3.327   5.695   2.993  0.8485 -0.1724 -0.2082
 9165TIP3    H151690   3.235   5.721   3.001  0.8631  0.1364 -0.9244
 9165TIP3    H251691   3.373   5.777   2.974  1.3617 -0.2286  0.7228
 9166TIP3   OH251692   0.669   2.459   2.615 -0.4553  0.3343  0.4054
 9166TIP3    H151693   0.633   2.545   2.638 -1.0800  0.0085  0.6817
 9166TIP3    H251694   0.760   2.462   2.646  0.7924  2.2468 -2.9447
 9167TIP3   OH251695   0.885   6.395   2.753  0.4044 -0.1806  0.4331
 9167TIP3    H151696   0.839   6.455   2.694  2.0050  2.7694  1.9677
 9167TIP3    H251697   0.829   6.390   2.831  0.7446  0.1072  0.6973
 9168TIP3   OH251698   0.700   3.361   1.550  0.5427  0.2743  0.1567
 9168TIP3    H151699   0.622   3.356   1.495  0.5535 -0.8033  0.2176
 9168TIP3    H251700   0.772   3.377   1.488  0.5473 -0.8839 -0.1534
 9169TIP3   OH251701   1.888   1.443   3.352 -0.3678  0.0058 -0.0120
 9169TIP3    H151702   1.854   1.503   3.286 -0.8020  0.6606  0.7796
 9169TIP3    H251703   1.887   1.357   3.310 -2.2076  0.1393 -0.3301
 9170TIP3   OH251704   4.990   7.017   2.356 -0.7527  0.1639 -0.4873
 9170TIP3    H151705   4.933   6.994   2.429 -1.7326  0.5318 -1.1268
 9170TIP3    H251706   5.007   6.935   2.311 -0.6952  0.0389 -0.2401
 9171TIP3   OH251707   2.430   2.538   1.560  0.2822 -0.1019  0.2661
 9171TIP3    H151708   2.360   2.473   1.561  0.3726 -0.2273  2.3951
 9171TIP3    H251709   2.489   2.511   1.630  0.4878  2.0559  0.9968
 9172TIP3   OH251710   0.803   0.531   1.647  0.0062 -0.4806 -0.5616
 9172TIP3    H151711   0.856   0.583   1.586 -0.5773  1.1899  0.2941
 9172TIP3    H251712   0.843   0.548   1.732 -0.8370 -0.6183 -0.1396
 9173TIP3   OH251713   3.679   3.246   2.316 -0.1633 -0.0459  0.1884
 9173TIP3    H151714   3.721   3.223   2.399  3.7426  1.5530 -1.0897
 9173TIP3    H251715   3.676   3.341   2.316 -0.3674 -0.0233 -1.3658
 9174TIP3   OH251716   2.925   6.797   2.537 -0.5748  0.4904  0.3047
 9174TIP3    H151717   3.018   6.818   2.544 -0.2659 -1.1870  1.8023
 9174TIP3    H251718   2.887   6.830   2.618 -0.8415 -0.7711  0.7193
 9175TIP3   OH251719   1.384   3.550   2.106  0.1989 -0.1488 -0.4115
 9175TIP3    H151720   1.318   3.618   2.092 -0.0138 -0.5690 -1.4867
 9175TIP3    H251721   1.387   3.539   2.201 -0.9673  0.1757 -0.3279
 9176TIP3   OH251722   4.290   0.756   0.939  0.4942 -0.0759 -0.5915
 9176TIP3    H151723   4.330   0.840   0.960  0.1144  0.1024 -0.5701
 9176TIP3    H251724   4.279   0.713   1.024  0.1580  0.0954 -0.5488
 9177TIP3   OH251725   2.913   4.601   1.474 -0.1752 -0.0117 -0.3016
 9177TIP3    H151726   2.867   4.547   1.538  0.7058 -0.5034 -0.0618
 9177TIP3    H251727   2.901   4.554   1.391 -0.4214  0.0602 -0.3068
 9178TIP3   OH251728   1.004   3.747   0.343 -0.3348  0.1961  0.2289
 9178TIP3    H151729   0.934   3.738   0.408 -0.3688 -1.8566 -0.0231
 9178TIP3    H251730   0.979   3.687   0.273  1.7100 -0.7153  0.1941
 9179TIP3   OH251731   3.278   1.171   1.691  0.1662 -0.5383  0.1734
 9179TIP3    H151732   3.276   1.265   1.710  1.8189 -0.6504  1.1132
 9179TIP3    H251733   3.200   1.155   1.638  0.4605  1.5562 -0.9735
 9180TIP3   OH251734   2.595   0.358   2.694  0.1384  0.1240 -0.0036
 9180TIP3    H151735   2.644   0.399   2.765  0.6134 -0.8333  0.2483
 9180TIP3    H251736   2.566   0.274   2.731  1.0594 -0.7435 -1.1822
 9181TIP3   OH251737   5.214   5.817   0.853 -0.5867  0.1719  0.0318
 9181TIP3    H151738   5.205   5.755   0.780  0.6751 -0.2042  0.1693
 9181TIP3    H251739   5.139   5.799   0.910  0.2702 -1.9318  0.5698
 9182TIP3   OH251740   0.823   4.412   1.343  0.0219 -0.2425 -0.4720
 9182TIP3    H151741   0.828   4.506   1.329  0.3090 -0.1934 -0.0447
 9182TIP3    H251742   0.866   4.374   1.266  0.1514 -0.0207 -0.5110
 9183TIP3   OH251743   1.977   6.111   1.171  0.0977  0.2536  0.2904
 9183TIP3    H151744   2.061   6.145   1.140 -0.5357  2.0301  0.3824
 9183TIP3    H251745   1.958   6.037   1.113  0.5306  1.4103 -1.4085
 9184TIP3   OH251746   4.176   4.087   2.607  0.6264 -0.1489  0.5233
 9184TIP3    H151747   4.098   4.137   2.629  0.4393 -0.2893  0.1888
 9184TIP3    H251748   4.142   4.003   2.574  0.6864  1.1649 -3.4524
 9185TIP3   OH251749   6.621   0.400   2.508 -0.0567 -0.4183 -0.0897
 9185TIP3    H151750   6.637   0.422   2.599 -1.0251  0.1838 -0.0411
 9185TIP3    H251751   6.581   0.313   2.511 -1.9330  0.4060  0.2575
 9186TIP3   OH251752   1.736   7.141   3.203  0.6685 -0.1533  1.4472
 9186TIP3    H151753   1.718   7.220   3.151 -0.2268 -1.1339  0.2117
 9186TIP3    H251754   1.777   7.174   3.282  2.4262  1.3802 -0.0142
 9187TIP3   OH251755   5.147   7.517   1.010 -0.5829 -0.5666  0.0752
 9187TIP3    H151756   5.164   7.610   0.999  1.1155 -0.2834  3.7007
 9187TIP3    H251757   5.231   7.475   0.991  0.1804 -0.7158  3.1377
 9188TIP3   OH251758   7.019   1.144   1.590  0.2922 -0.0857  0.6473
 9188TIP3    H151759   7.001   1.231   1.552  0.5360 -0.4857 -0.4391
 9188TIP3    H251760   7.043   1.090   1.514  1.2490 -0.8166  1.4443
 9189TIP3   OH251761   1.757   6.686   2.288  0.2034 -0.0021  0.1080
 9189TIP3    H151762   1.774   6.599   2.326  1.7816  0.1890 -0.0661
 9189TIP3    H251763   1.672   6.677   2.245  0.0381 -1.2755  0.6380
 9190TIP3   OH251764   1.073   5.426   2.973 -0.6069  0.4266 -0.2847
 9190TIP3    H151765   1.086   5.504   3.027 -0.5626 -0.8592  1.6142
 9190TIP3    H251766   1.054   5.356   3.035  0.2478 -1.2945 -1.8816
 9191TIP3   OH251767   4.896   3.541   2.779 -0.5964  0.2786 -0.1055
 9191TIP3    H151768   4.879   3.588   2.698  0.5224 -1.0200 -1.1292
 9191TIP3    H251769   4.969   3.587   2.820  0.1585 -0.2352 -0.8514
 9192TIP3   OH251770   6.675   2.364   2.341  0.0567  0.0910  0.4208
 9192TIP3    H151771   6.650   2.456   2.339  1.6865  0.5422 -0.1504
 9192TIP3    H251772   6.606   2.320   2.290 -1.8692  0.6459  2.3854
 9193TIP3   OH251773   4.221   4.889   2.182 -0.3448  0.2671 -0.3292
 9193TIP3    H151774   4.313   4.899   2.158 -0.3077 -0.2603 -0.4178
 9193TIP3    H251775   4.177   4.964   2.142 -0.1654 -0.1853 -1.4197
 9194TIP3   OH251776   7.451   0.672   1.081 -0.0647  0.4578  0.1405
 9194TIP3    H151777   7.364   0.640   1.059 -0.2770  1.1067  0.0442
 9194TIP3    H251778   7.510   0.610   1.037 -0.4541  2.2385 -3.2073
 9195TIP3   OH251779   3.689   4.564   2.564  0.0790  0.3029 -0.3893
 9195TIP3    H151780   3.696   4.595   2.474  1.4889 -1.4784 -0.9556
 9195TIP3    H251781   3.777   4.530   2.585  0.6647  3.1334  2.6490
 9196TIP3   OH251782   0.062   3.725   1.584  0.0195 -0.4644  0.0804
 9196TIP3    H151783   0.025   3.747   1.670 -0.3799 -1.8796  0.2990
 9196TIP3    H251784   0.038   3.634   1.571  1.8018 -0.8669 -0.6450
 9197TIP3   OH251785   3.617   1.041   0.516 -0.5167 -0.6635 -0.0144
 9197TIP3    H151786   3.581   1.125   0.543  2.9961  0.8959  0.4581
 9197TIP3    H251787   3.593   0.980   0.586 -0.4091  0.7632  1.2995
 9198TIP3   OH251788   7.646   0.706   0.710  0.1605  0.2549 -0.1519
 9198TIP3    H151789   7.573   0.763   0.733  1.5072  3.0840 -2.3045
 9198TIP3    H251790   7.721   0.743   0.756  0.5928 -1.7267  0.8542
 9199TIP3   OH251791   1.706   3.108   2.636  0.1057 -0.4572  0.1268
 9199TIP3    H151792   1.725   3.143   2.549 -0.6351  0.2229  0.2231
 9199TIP3    H251793   1.639   3.042   2.622  0.8330 -1.1851  0.0519
 9200TIP3   OH251794   7.100   5.075   1.135 -0.4229  0.1083 -0.5430
 9200TIP3    H151795   7.104   5.081   1.230 -0.0154 -0.9151 -0.4738
 9200TIP3    H251796   7.021   5.123   1.110 -0.7090  0.0985  0.3411
 9201TIP3   OH251797   4.037   1.490   1.420 -0.2841  0.3972 -0.4265
 9201TIP3    H151798   4.024   1.399   1.445 -0.2949  0.4385 -0.2813
 9201TIP3    H251799   3.975   1.539   1.475  0.1608  0.5523 -0.0598
 9202TIP3   OH251800   3.531   7.664   0.627  0.2282 -0.0905 -0.7011
 9202TIP3    H151801   3.569   7.752   0.630  0.5032 -0.2348  1.0833
 9202TIP3    H251802   3.494   7.651   0.715  1.4491 -2.3022 -0.4597
 9203TIP3   OH251803   7.572   2.852   0.723 -0.3937  0.4718  0.2409
 9203TIP3    H151804   7.663   2.832   0.700 -0.3556  0.4305  0.4317
 9203TIP3    H251805   7.566   2.947   0.717 -0.5142  0.4256 -0.4437
 9204TIP3   OH251806   2.025   0.398   3.079  0.6752 -0.1811  0.3063
 9204TIP3    H151807   1.984   0.413   2.994  1.3738 -2.1490 -0.4277
 9204TIP3    H251808   2.054   0.485   3.108 -0.5752  0.6702 -0.9211
 9205TIP3   OH251809   5.488   6.654   1.340 -0.4029  0.4699 -0.1001
 9205TIP3    H151810   5.474   6.734   1.289 -1.5201  0.9248  0.8684
 9205TIP3    H251811   5.575   6.624   1.314  1.0638  3.2542  1.1165
 9206TIP3   OH251812   5.435   4.144   1.302 -0.4761  0.4108 -0.4265
 9206TIP3    H151813   5.508   4.170   1.358 -0.5339 -0.4383  0.0678
 9206TIP3    H251814   5.361   4.136   1.362 -0.6047 -0.2332 -0.6580
 9207TIP3   OH251815   2.505   0.114   2.847  0.5827 -0.2278  0.3911
 9207TIP3    H151816   2.520   0.019   2.842 -1.0159 -0.4559 -0.5461
 9207TIP3    H251817   2.466   0.128   2.933  4.2265  0.1672  2.1918
 9208TIP3   OH251818   6.701   0.960   1.624  0.4173  0.0928 -0.1281
 9208TIP3    H151819   6.685   0.997   1.711 -1.1681  0.4346 -0.5305
 9208TIP3    H251820   6.689   0.866   1.635 -1.4230  0.2732 -0.2657
 9209TIP3   OH251821   3.113   0.854   2.195  0.3157  0.2788  0.1194
 9209TIP3    H151822   3.038   0.816   2.241 -0.4561  0.3291 -1.0656
 9209TIP3    H251823   3.142   0.786   2.135  1.6542  0.0253  1.0002
 9210TIP3   OH251824   7.110   1.226   0.546  0.1910 -0.3280 -0.2586
 9210TIP3    H151825   7.173   1.297   0.560 -0.0974  0.3312 -2.0226
 9210TIP3    H251826   7.148   1.174   0.475 -1.5779  0.5228 -1.8961
 9211TIP3   OH251827   0.535   2.293   0.603  0.1350  0.5848 -0.0760
 9211TIP3    H151828   0.579   2.276   0.686 -0.2402 -2.0760 -0.3251
 9211TIP3    H251829   0.592   2.253   0.537 -1.2431 -0.4439 -0.6943
 9212TIP3   OH251830   3.349   2.411   2.053 -0.0040  0.4815 -0.0849
 9212TIP3    H151831   3.305   2.336   2.014 -0.1657  0.7197 -0.3618
 9212TIP3    H251832   3.351   2.477   1.984  1.0411  0.3722 -0.1690
 9213TIP3   OH251833   0.933   3.991   1.405 -0.1281 -0.4558 -0.3477
 9213TIP3    H151834   0.994   3.925   1.438  0.6674 -0.1112 -1.0923
 9213TIP3    H251835   0.988   4.055   1.361 -0.9454  0.4092 -0.1487
 9214TIP3   OH251836   2.972   3.044   1.672 -0.2230  0.0268  0.0727
 9214TIP3    H151837   3.040   3.073   1.732 -0.9360 -0.2961  1.0734
 9214TIP3    H251838   3.016   3.032   1.588  0.9673 -0.3008  0.7298
 9215TIP3   OH251839   0.847   3.325   1.819 -0.0524  0.1436  0.4971
 9215TIP3    H151840   0.940   3.333   1.798 -0.6740 -1.3099 -3.7971
 9215TIP3    H251841   0.805   3.393   1.765 -1.5975 -0.0123  1.4434
 9216TIP3   OH251842   5.749   3.584   2.230  0.1832  0.3672  0.6056
 9216TIP3    H151843   5.680   3.535   2.275  2.1955 -2.8120  0.5547
 9216TIP3    H251844   5.818   3.593   2.295  0.5698  1.6504  0.0519
 9217TIP3   OH251845   7.654   6.718   2.638  0.5217  0.0072  0.7475
 9217TIP3    H151846   7.626   6.787   2.579 -1.5615 -1.1440  0.2986
 9217TIP3    H251847   7.744   6.741   2.661  0.6032  1.7087 -1.0392
 9218TIP3   OH251848   1.073   6.175   2.305 -0.3658 -0.0667  0.3778
 9218TIP3    H151849   1.048   6.149   2.394 -1.1865 -1.5720 -0.2456
 9218TIP3    H251850   0.989   6.194   2.262  0.0048  0.3882 -0.1506
 9219TIP3   OH251851   3.123   5.394   3.306  0.2549  0.1983 -0.1119
 9219TIP3    H151852   3.079   5.328   3.360  1.1291 -1.8106 -1.7222
 9219TIP3    H251853   3.177   5.443   3.367 -0.7442 -0.2878  1.2058
 9220TIP3   OH251854   1.480   6.756   1.118 -0.1571  0.4417  0.7943
 9220TIP3    H151855   1.393   6.786   1.093  0.2615  0.9726 -0.0633
 9220TIP3    H251856   1.507   6.815   1.188 -1.6565 -1.5321  3.2288
 9221TIP3   OH251857   1.118   6.475   3.247 -0.1066  0.4222  0.3909
 9221TIP3    H151858   1.060   6.430   3.309 -0.3781  1.0681  0.6139
 9221TIP3    H251859   1.058   6.520   3.187  0.1561 -0.1399 -0.3059
 9222TIP3   OH251860   7.458   4.261   3.118 -0.1201  0.3179  0.1464
 9222TIP3    H151861   7.478   4.277   3.026  1.9033 -0.6909  0.3649
 9222TIP3    H251862   7.543   4.255   3.161 -1.0186  0.6286  2.0801
 9223TIP3   OH251863   6.601   3.618   2.033  0.6650 -0.0386  0.2922
 9223TIP3    H151864   6.663   3.612   1.960 -0.8410 -1.3210 -0.9441
 9223TIP3    H251865   6.528   3.670   1.999 -0.0817 -0.6924  0.8503
 9224TIP3   OH251866   5.867   6.792   2.124  0.1431  0.0313  0.0335
 9224TIP3    H151867   5.869   6.704   2.163  0.3812 -0.5900 -1.3190
 9224TIP3    H251868   5.956   6.825   2.137  0.2250 -0.1718 -0.0081
 9225TIP3   OH251869   6.643   5.841   2.869 -0.1255  0.0752  0.2172
 9225TIP3    H151870   6.630   5.894   2.947  0.4526  1.2839 -0.4756
 9225TIP3    H251871   6.700   5.894   2.813  0.5418 -1.3137 -0.4760
 9226TIP3   OH251872   1.655   4.279   1.475 -0.1221  0.0202 -0.6792
 9226TIP3    H151873   1.705   4.238   1.545  0.2070  1.1023 -0.2657
 9226TIP3    H251874   1.630   4.207   1.418 -0.9789 -0.9993  0.8958
 9227TIP3   OH251875   6.616   2.738   1.964  0.3971 -0.2808 -0.3627
 9227TIP3    H151876   6.666   2.685   1.901  1.3980  0.2067 -0.0034
 9227TIP3    H251877   6.683   2.773   2.023 -0.5211 -0.6464  0.9143
 9228TIP3   OH251878   5.194   5.924   1.439 -0.0425 -0.3788  0.0507
 9228TIP3    H151879   5.243   5.865   1.382  0.3756 -1.1745  1.2140
 9228TIP3    H251880   5.242   5.924   1.522  1.6756  3.8250 -0.6608
 9229TIP3   OH251881   5.900   5.693   1.957 -0.4044  0.4357 -0.1975
 9229TIP3    H151882   5.910   5.663   1.867  0.6138 -0.3586  0.1622
 9229TIP3    H251883   5.894   5.613   2.009 -0.7548  0.8834  0.4634
 9230TIP3   OH251884   1.896   0.230   1.458  0.2768  0.0859 -0.0834
 9230TIP3    H151885   1.807   0.250   1.486  0.6584  0.1549  1.1590
 9230TIP3    H251886   1.893   0.138   1.431 -0.0380 -0.1090  0.5850
 9231TIP3   OH251887   0.622   2.623   2.838  0.5289  0.1106 -0.0706
 9231TIP3    H151888   0.554   2.598   2.900  1.3105 -0.7881  0.4488
 9231TIP3    H251889   0.659   2.705   2.873 -0.6379  0.9200 -0.6622
 9232TIP3   OH251890   0.369   7.548   2.233 -0.1338 -0.1932  0.0358
 9232TIP3    H151891   0.308   7.476   2.250  0.9772 -1.1841 -0.1099
 9232TIP3    H251892   0.345   7.615   2.297  0.5224 -1.7465  2.0017
 9233TIP3   OH251893   2.160   6.209   1.866 -0.0753 -0.5721  0.4591
 9233TIP3    H151894   2.234   6.176   1.917  0.4597 -0.0761  0.0217
 9233TIP3    H251895   2.145   6.297   1.901 -1.1990 -1.0857  1.3153
 9234TIP3   OH251896   3.826   2.429   0.917 -1.4496 -0.2288 -0.3355
 9234TIP3    H151897   3.876   2.434   0.998 -0.2431 -0.5581 -1.0405
 9234TIP3    H251898   3.753   2.490   0.931  1.4543  3.7597 -0.8442
 9235TIP3   OH251899   3.611   6.087   2.330  0.6461 -0.3578  0.2581
 9235TIP3    H151900   3.536   6.138   2.362 -1.2539 -1.3704 -2.1846
 9235TIP3    H251901   3.629   6.123   2.243  0.8717 -2.1702 -0.5030
 9236TIP3   OH251902   3.740   4.207   3.292  0.2848  0.9326  0.0200
 9236TIP3    H151903   3.716   4.295   3.262 -1.6264  1.0426  1.6590
 9236TIP3    H251904   3.759   4.218   3.385  1.6060 -0.1493 -0.0967
 9237TIP3   OH251905   3.308   3.881   0.853 -0.0898 -0.0423  0.7514
 9237TIP3    H151906   3.365   3.808   0.829  0.1594  0.1459  0.7668
 9237TIP3    H251907   3.368   3.950   0.880 -0.3612 -0.1941  1.7900
 9238TIP3   OH251908   0.079   1.389   2.766 -0.8739 -0.3580 -0.0658
 9238TIP3    H151909   0.055   1.337   2.842  0.6701 -1.5522 -0.3383
 9238TIP3    H251910   0.044   1.341   2.691  0.5057 -1.0408 -0.3138
 9239TIP3   OH251911   4.284   5.285   2.839  0.2313  0.6580  0.5630
 9239TIP3    H151912   4.256   5.218   2.901  0.4467 -1.3667 -1.4009
 9239TIP3    H251913   4.225   5.274   2.764  2.5699  0.1350 -1.3095
 9240TIP3   OH251914   2.609   4.405   2.223 -0.1286  0.0255  0.0450
 9240TIP3    H151915   2.668   4.480   2.208 -1.3372  1.5208  2.1610
 9240TIP3    H251916   2.641   4.366   2.304 -1.5999  0.4803  0.8825
 9241TIP3   OH251917   4.932   6.042   1.613 -0.1285 -0.3131  0.0874
 9241TIP3    H151918   4.967   5.966   1.660  0.6015 -1.0734 -1.5934
 9241TIP3    H251919   5.002   6.067   1.553 -0.7564  1.0795 -0.0991
 9242TIP3   OH251920   7.078   2.825   0.927  0.3644  0.1781 -0.1925
 9242TIP3    H151921   7.152   2.886   0.931  0.3153  0.4864 -2.4471
 9242TIP3    H251922   7.119   2.738   0.928  0.6434  0.3112  0.1123
 9243TIP3   OH251923   5.165   6.416   1.086 -0.0072  0.2752 -0.1639
 9243TIP3    H151924   5.074   6.386   1.079  0.3726 -0.6545 -1.6315
 9243TIP3    H251925   5.181   6.462   1.004  0.8501  0.4429  0.0884
 9244TIP3   OH251926   7.296   5.394   2.437  0.2336 -0.0831 -0.2841
 9244TIP3    H151927   7.232   5.438   2.493  0.0635  0.0564 -0.5880
 9244TIP3    H251928   7.374   5.450   2.441 -0.3297  0.8297 -1.5168
 9245TIP3   OH251929   0.130   3.612   0.764 -0.5485  0.1045  0.1944
 9245TIP3    H151930   0.115   3.527   0.721 -2.3381  0.4403  0.0751
 9245TIP3    H251931   0.135   3.591   0.857 -1.7443 -0.0769  0.2352
 9246TIP3   OH251932   1.568   6.299   1.368 -0.0490  0.1203 -0.3506
 9246TIP3    H151933   1.663   6.295   1.371 -0.1222 -1.6857  0.6900
 9246TIP3    H251934   1.544   6.357   1.441  0.2387  0.2476 -0.3568
 9247TIP3   OH251935   1.704   1.738   0.931  0.1522  0.0084 -0.4399
 9247TIP3    H151936   1.659   1.797   0.992 -1.6811 -1.6214 -0.0893
 9247TIP3    H251937   1.779   1.788   0.899 -0.1497  1.7541  1.3810
 9248TIP3   OH251938   3.476   3.433   0.900 -0.0916 -0.0900 -0.0541
 9248TIP3    H151939   3.427   3.506   0.864 -0.8574 -1.1089 -1.1678
 9248TIP3    H251940   3.533   3.472   0.967  0.0890  1.6124 -1.1525
 9249TIP3   OH251941   5.649   1.980   1.845 -0.4662 -0.0614 -0.1650
 9249TIP3    H151942   5.600   1.962   1.925 -0.8045 -1.0463 -0.5834
 9249TIP3    H251943   5.589   1.960   1.774 -0.4433  1.5665 -0.7040
 9250TIP3   OH251944   4.029   1.146   0.613  0.5121  0.2492  0.2000
 9250TIP3    H151945   4.098   1.080   0.604 -0.3556 -0.4500 -1.7656
 9250TIP3    H251946   3.960   1.103   0.663  0.2647 -0.0819 -0.4226
 9251TIP3   OH251947   7.185   0.504   2.205 -0.4388 -0.2672  0.1171
 9251TIP3    H151948   7.196   0.428   2.260  0.4459  0.5059  1.0375
 9251TIP3    H251949   7.233   0.484   2.125  0.7541 -0.2402  0.8066
 9252TIP3   OH251950   2.772   0.056   2.526  0.5129 -0.2039  0.3757
 9252TIP3    H151951   2.808  -0.023   2.486 -0.2680 -1.0855  1.3543
 9252TIP3    H251952   2.684   0.031   2.554  0.1026  1.1358  0.3473
 9253TIP3   OH251953   1.121   1.868   1.963 -0.4229 -0.1494  0.3133
 9253TIP3    H151954   1.125   1.964   1.957  1.4736 -0.0483  1.8430
 9253TIP3    H251955   1.154   1.849   2.051  0.1433 -2.2489 -0.2968
 9254TIP3   OH251956   0.151   6.162   3.631 -0.2751 -0.0334 -0.0148
 9254TIP3    H151957   0.235   6.119   3.645 -1.1094 -0.5936  4.8815
 9254TIP3    H251958   0.103   6.102   3.574  1.2170 -1.7667  0.4598
 9255TIP3   OH251959   4.252   5.039   1.847  0.2107  0.5811  0.1896
 9255TIP3    H151960   4.314   4.966   1.850  2.1672  2.1773  1.8461
 9255TIP3    H251961   4.172   5.005   1.887  0.5951 -1.0201 -0.3322
 9256TIP3   OH251962   2.982   0.652   1.085 -0.0404  0.0473  0.3786
 9256TIP3    H151963   3.015   0.739   1.064  0.8053 -0.4691 -0.5519
 9256TIP3    H251964   2.889   0.666   1.106 -0.2288  1.0242 -0.9557
 9257TIP3   OH251965   2.850   3.338   1.022  0.5749  0.1524  0.1786
 9257TIP3    H151966   2.761   3.303   1.012 -0.0833  1.9361 -0.8572
 9257TIP3    H251967   2.888   3.329   0.935  0.6182  1.3357  0.0643
 9258TIP3   OH251968   3.548   6.118   2.747  0.1183  0.1537  0.6771
 9258TIP3    H151969   3.636   6.097   2.717  0.0559 -1.4918  1.5202
 9258TIP3    H251970   3.557   6.202   2.793  1.7627 -1.1060  2.8352
 9259TIP3   OH251971   5.945   4.957   1.311 -0.5759 -0.3979 -0.3659
 9259TIP3    H151972   5.981   4.956   1.399 -1.5537 -1.5160  0.0410
 9259TIP3    H251973   5.908   5.045   1.300 -0.0124 -0.0968  0.1475
 9260TIP3   OH251974   6.986   5.061   2.789 -0.2986 -0.2678  0.2771
 9260TIP3    H151975   7.011   5.099   2.874  2.3345  0.9030 -0.9075
 9260TIP3    H251976   6.922   4.994   2.811  1.2134 -0.8813  3.3583
 9261TIP3   OH251977   4.377   0.777   2.183  0.6729 -0.0262 -0.6150
 9261TIP3    H151978   4.369   0.848   2.247  2.3674 -0.8181  0.5476
 9261TIP3    H251979   4.288   0.747   2.168  0.2143  0.3377  1.2096
 9262TIP3   OH251980   6.007   3.245   0.931 -0.1272  0.0013  0.5475
 9262TIP3    H151981   6.098   3.245   0.901 -0.2263 -1.0980  0.1884
 9262TIP3    H251982   6.008   3.297   1.012  0.2165  2.7212 -1.0761
 9263TIP3   OH251983   6.103   4.940   2.412 -0.4807  0.3975 -0.3355
 9263TIP3    H151984   6.132   5.031   2.416  0.0482  0.2089  2.3898
 9263TIP3    H251985   6.040   4.938   2.340 -1.7209  3.3067  0.5087
 9264TIP3   OH251986   0.669   6.557   1.874  0.1050 -0.0864 -0.4157
 9264TIP3    H151987   0.712   6.634   1.911 -1.4449 -0.0946  1.5720
 9264TIP3    H251988   0.599   6.593   1.819 -0.4680 -0.0544  0.3228
 9265TIP3   OH251989   4.631   3.154   1.323 -0.4982 -0.5686  0.7282
 9265TIP3    H151990   4.644   3.176   1.231 -0.7812 -2.8435  0.0996
 9265TIP3    H251991   4.637   3.238   1.368 -0.4992  0.6284 -1.3641
 9266TIP3   OH251992   7.574   4.289   2.512 -0.2172 -0.0555  0.5171
 9266TIP3    H151993   7.647   4.260   2.567  1.1539 -1.0966 -1.7212
 9266TIP3    H251994   7.597   4.379   2.486  0.4152 -0.4556 -0.3541
 9267TIP3   OH251995   0.846   6.214   2.165 -0.2711 -0.3811 -0.0322
 9267TIP3    H151996   0.772   6.245   2.216 -0.1363 -0.5593  0.2785
 9267TIP3    H251997   0.817   6.219   2.074 -0.8283 -0.8774  0.1111
 9268TIP3   OH251998   3.837   7.279   1.155  0.6590  0.5511  0.2028
 9268TIP3    H151999   3.770   7.334   1.196 -0.1406 -0.7732  0.7619
 9268TIP3    H252000   3.864   7.328   1.078 -0.9933  1.1363 -0.0567
 9269TIP3   OH252001   7.621   3.068   2.615 -0.2238 -0.2962  0.1000
 9269TIP3    H152002   7.657   3.071   2.526  0.1673  0.4502  0.2765
 9269TIP3    H252003   7.693   3.038   2.670  0.0680  0.9455  0.4149
 9270TIP3   OH252004   0.938   5.980   1.782  0.3758  0.0104  0.6959
 9270TIP3    H152005   0.941   6.061   1.731  0.9915 -1.2313 -1.4008
 9270TIP3    H252006   1.030   5.965   1.806  0.4117 -0.5167  0.2523
 9271TIP3   OH252007   1.188   4.167   0.973 -0.4638  0.2206  0.1104
 9271TIP3    H152008   1.225   4.248   0.938 -0.3035 -0.5282 -1.5494
 9271TIP3    H252009   1.233   4.097   0.924 -1.0016 -0.8536  1.1001
 9272TIP3   OH252010   2.201   5.654   1.477  0.2363  0.4529  0.1144
 9272TIP3    H152011   2.241   5.578   1.436 -1.0520 -1.5946  2.4096
 9272TIP3    H252012   2.274   5.698   1.522  0.6950 -0.5834  0.4128
 9273TIP3   OH252013   6.299   5.311   1.881  0.3785  0.5387  0.6942
 9273TIP3    H152014   6.254   5.361   1.812  0.5345 -1.4449 -0.9429
 9273TIP3    H252015   6.228   5.281   1.938 -0.1421 -0.3186 -0.3545
 9274TIP3   OH252016   2.893   5.221   3.194  0.7050  0.2172 -0.4390
 9274TIP3    H152017   2.848   5.233   3.111 -0.3911  0.5160  0.1804
 9274TIP3    H252018   2.835   5.260   3.259  1.8090  0.4974  0.4087
 9275TIP3   OH252019   1.736   5.169   0.847 -0.0588 -0.6948 -0.5258
 9275TIP3    H152020   1.686   5.223   0.786 -0.1121 -0.2334 -0.0755
 9275TIP3    H252021   1.770   5.230   0.912  0.1044 -1.1647 -0.1620
 9276TIP3   OH252022   7.068   0.011   2.515 -0.1636 -0.0347  0.3536
 9276TIP3    H152023   7.087   0.053   2.431  1.8408 -1.3091  0.1209
 9276TIP3    H252024   7.033  -0.075   2.492 -0.6745  0.0388  0.8278
 9277TIP3   OH252025   2.683   1.564   0.598 -0.7649 -0.1245 -0.1874
 9277TIP3    H152026   2.738   1.577   0.521  1.4962  0.0129  1.3451
 9277TIP3    H252027   2.656   1.652   0.624  0.8963  0.1394  0.7829
 9278TIP3   OH252028   3.178   7.363   3.590  0.0913  0.0881 -0.2965
 9278TIP3    H152029   3.121   7.432   3.624 -0.6638  0.0289 -1.3668
 9278TIP3    H252030   3.223   7.405   3.516 -1.5317 -0.9463 -1.9545
 9279TIP3   OH252031   2.061   0.110   0.694 -0.0834  0.3214  0.1166
 9279TIP3    H152032   2.094   0.163   0.621  0.1284  1.1572  0.8041
 9279TIP3    H252033   2.127   0.042   0.706 -0.2679 -0.0069 -0.6593
 9280TIP3   OH252034   7.665   3.177   1.485 -0.6563 -0.4109 -0.0957
 9280TIP3    H152035   7.664   3.101   1.543 -1.3372  0.4250  1.0316
 9280TIP3    H252036   7.572   3.200   1.474 -0.4194  2.0555  2.0786
 9281TIP3   OH252037   3.247   6.206   1.131 -0.6672  0.5128 -0.2754
 9281TIP3    H152038   3.201   6.262   1.193  0.0620  0.7098  0.1023
 9281TIP3    H252039   3.249   6.256   1.049  2.6325  2.4580  0.8268
 9282TIP3   OH252040   0.544   1.885   2.794  0.3896 -0.3432 -0.2221
 9282TIP3    H152041   0.543   1.867   2.888  3.5935  0.7431  0.1487
 9282TIP3    H252042   0.503   1.971   2.785 -0.8329 -0.8911  0.0306
 9283TIP3   OH252043   7.444   7.100   1.376  0.4315  0.0870 -0.6200
 9283TIP3    H152044   7.353   7.128   1.375  0.7095  1.4701  2.1273
 9283TIP3    H252045   7.441   7.005   1.379 -1.1092  0.1326  2.1771
 9284TIP3   OH252046   2.119   4.688   2.976 -0.2173 -0.1990  0.5007
 9284TIP3    H152047   2.133   4.596   2.996 -1.5307 -0.4052  0.5121
 9284TIP3    H252048   2.059   4.719   3.043  0.5325  0.7891  0.7519
 9285TIP3   OH252049   7.532   3.186   2.916 -0.3443  0.2482  0.5158
 9285TIP3    H152050   7.531   3.091   2.930 -0.5342 -0.1090 -1.6011
 9285TIP3    H252051   7.619   3.214   2.945  0.0842 -0.7436  0.2207
 9286TIP3   OH252052   7.678   1.928   0.512  0.0220 -0.0877 -0.7932
 9286TIP3    H152053   7.692   1.860   0.579 -2.1571  0.2527  0.1239
 9286TIP3    H252054   7.603   1.896   0.462  0.8858  0.2439 -2.3393
 9287TIP3   OH252055   1.654   3.255   1.313 -0.3164  0.2195  0.4083
 9287TIP3    H152056   1.591   3.326   1.318  0.2247  0.6089  2.4589
 9287TIP3    H252057   1.601   3.175   1.312 -0.8908  0.5405  2.0750
 9288TIP3   OH252058   3.270   1.510   3.134  0.0720  0.1101 -0.3133
 9288TIP3    H152059   3.354   1.523   3.178  0.5969  0.4251 -1.3732
 9288TIP3    H252060   3.207   1.558   3.188  0.8555  1.2928 -0.4161
 9289TIP3   OH252061   6.072   1.858   1.606  0.3040  0.9155 -0.4940
 9289TIP3    H152062   6.149   1.807   1.633 -0.7563  0.1788  1.3723
 9289TIP3    H252063   6.080   1.940   1.654 -0.6108  0.3791  0.6330
 9290TIP3   OH252064   3.563   4.430   3.556  0.5060 -0.2441  0.2074
 9290TIP3    H152065   3.553   4.522   3.578  0.6936 -0.5507  1.6693
 9290TIP3    H252066   3.572   4.429   3.461  2.1313  1.3921  0.2792
 9291TIP3   OH252067   2.594   3.464   2.154  0.3801 -0.2183  0.0446
 9291TIP3    H152068   2.540   3.398   2.111  1.7082  0.2157 -2.5024
 9291TIP3    H252069   2.684   3.432   2.143  0.9154  1.0531  0.4621
 9292TIP3   OH252070   2.119   5.510   1.218 -0.0625 -0.1127 -0.2087
 9292TIP3    H152071   2.047   5.561   1.181 -0.7570 -0.3042  0.8333
 9292TIP3    H252072   2.079   5.460   1.289  0.9308 -0.8963 -0.1768
 9293TIP3   OH252073   0.308   3.601   3.587 -0.0923  0.1235 -0.1229
 9293TIP3    H152074   0.233   3.586   3.644 -0.2403  1.7318  0.1709
 9293TIP3    H252075   0.317   3.520   3.536  0.3844 -1.5813  2.4935
 9294TIP3   OH252076   5.827   3.070   1.796  0.3532 -0.4209 -0.5310
 9294TIP3    H152077   5.765   3.032   1.857 -1.4719  1.7198 -0.9062
 9294TIP3    H252078   5.872   3.138   1.847 -0.0079  0.2619 -1.0979
 9295TIP3   OH252079   2.627   1.025   2.326 -0.0656 -0.6929  0.4275
 9295TIP3    H152080   2.541   1.024   2.285 -0.6487 -1.5266  1.6208
 9295TIP3    H252081   2.683   0.976   2.266 -0.7609 -1.3847  0.3291
 9296TIP3   OH252082   3.776   1.179   0.781 -0.3656  0.1174  0.6349
 9296TIP3    H152083   3.748   1.223   0.701  1.4964 -0.0119 -0.1446
 9296TIP3    H252084   3.699   1.129   0.809 -1.1536  0.3998 -0.9144
 9297TIP3   OH252085   7.192   3.780   2.679  0.0614  0.4395  0.0153
 9297TIP3    H152086   7.165   3.845   2.614  0.1384  1.0553  0.5827
 9297TIP3    H252087   7.284   3.801   2.696  0.2109 -0.1022 -0.1213
 9298TIP3   OH252088   7.670   7.660   1.056  0.1431  0.1206 -0.3349
 9298TIP3    H152089   7.583   7.676   1.093  0.2073 -0.2240 -0.0258
 9298TIP3    H252090   7.705   7.746   1.036 -0.6723  0.2221 -1.3765
 9299TIP3   OH252091   5.072   6.026   3.354 -0.8356 -0.6783  0.0765
 9299TIP3    H152092   5.158   6.041   3.395 -1.1799 -1.3764  1.0790
 9299TIP3    H252093   5.067   6.092   3.285  0.1837 -0.1266  0.5087
 9300TIP3   OH252094   0.960   0.419   1.995  0.6986 -0.3556  0.7195
 9300TIP3    H152095   0.867   0.437   2.004  0.2843 -1.5700 -0.6993
 9300TIP3    H252096   1.000   0.460   2.072 -0.7929  1.5543  0.5483
 9301TIP3   OH252097   5.859   5.633   1.696 -0.3261  0.3484 -0.1564
 9301TIP3    H152098   5.802   5.564   1.664 -0.6250  0.2491  0.5621
 9301TIP3    H252099   5.813   5.714   1.675  0.1487  0.3520 -1.2351
 9302TIP3   OH252100   7.015   4.494   1.707  0.2474  0.3053 -0.1755
 9302TIP3    H152101   7.034   4.409   1.668 -0.1970 -0.4526  1.2183
 9302TIP3    H252102   7.004   4.553   1.632  0.1683 -0.9359 -1.1600
 9303TIP3   OH252103   0.459   3.333   1.402  0.1503 -0.4529 -0.3410
 9303TIP3    H152104   0.428   3.417   1.437 -0.2300 -0.7489  0.0378
 9303TIP3    H252105   0.380   3.290   1.369  0.6463  0.3676 -2.7992
 9304TIP3   OH252106   6.754   2.545   1.824 -0.1346 -0.0316  0.4175
 9304TIP3    H152107   6.696   2.468   1.827  0.6891 -0.6991 -0.1682
 9304TIP3    H252108   6.838   2.512   1.855  0.0365  0.8375  0.8999
 9305TIP3   OH252109   3.853   0.677   2.621  0.6836  0.5662  0.5226
 9305TIP3    H152110   3.854   0.730   2.700  0.7903  1.4234 -0.0365
 9305TIP3    H252111   3.945   0.654   2.606  0.5971 -0.0976  0.9635
 9306TIP3   OH252112   7.669   7.218   1.215  0.0756 -0.0189  0.7441
 9306TIP3    H152113   7.625   7.190   1.135  0.7006  0.8898  0.0571
 9306TIP3    H252114   7.625   7.170   1.285  0.1178 -1.5364 -0.2182
 9307TIP3   OH252115   3.479   7.086   1.491  0.0878  0.0775  0.2278
 9307TIP3    H152116   3.457   7.070   1.400 -0.3129  1.5133  0.0439
 9307TIP3    H252117   3.478   7.000   1.532  0.1066 -0.5630 -1.0810
 9308TIP3   OH252118   1.114   0.176   0.941  0.1423  0.1310  0.0960
 9308TIP3    H152119   1.118   0.165   1.035  2.3115 -0.9100 -0.0694
 9308TIP3    H252120   1.189   0.127   0.907  0.0361  1.3414 -2.0884
 9309TIP3   OH252121   3.354   2.745   2.218 -0.3547  0.4048 -0.4718
 9309TIP3    H152122   3.359   2.820   2.277 -2.0451 -0.4798  0.8962
 9309TIP3    H252123   3.445   2.724   2.197  0.3275  0.7819  1.8338
 9310TIP3   OH252124   1.903   2.040   1.184 -0.0134  0.2970  0.7869
 9310TIP3    H152125   1.966   2.096   1.139 -1.0687 -0.0411 -1.1966
 9310TIP3    H252126   1.931   1.951   1.163 -2.0138  0.1184 -1.5448
 9311TIP3   OH252127   3.780   0.870   0.323  0.5472 -0.1498 -0.0051
 9311TIP3    H152128   3.764   0.937   0.389 -0.2533 -1.3628  1.0940
 9311TIP3    H252129   3.875   0.868   0.314  0.7551 -0.5584  1.8129
 9312TIP3   OH252130   3.975   5.403   2.844 -0.2819  0.4510  0.6326
 9312TIP3    H152131   4.021   5.375   2.923 -0.5737 -0.0728  0.6240
 9312TIP3    H252132   4.008   5.345   2.775  0.0587  0.9802  0.3421
 9313TIP3   OH252133   0.860   4.429   0.577  0.5344 -0.0812 -0.2104
 9313TIP3    H152134   0.954   4.420   0.568  0.4949 -2.7830  1.0108
 9313TIP3    H252135   0.825   4.348   0.541 -1.2600  0.4867  0.1486
 9314TIP3   OH252136   2.602   2.860   0.548 -0.9258 -0.4810 -0.0505
 9314TIP3    H152137   2.583   2.902   0.631 -1.2343  0.0493 -0.3862
 9314TIP3    H252138   2.631   2.931   0.491 -3.4050 -0.3354 -1.2411
 9315TIP3   OH252139   1.997   2.464   0.999  0.0532  0.4207 -0.1735
 9315TIP3    H152140   2.054   2.490   0.926 -0.1644  1.1150 -0.1060
 9315TIP3    H252141   2.018   2.372   1.014  1.3596  0.7367  0.0327
 9316TIP3   OH252142   4.765   3.875   1.488 -0.7389 -0.2711  0.4504
 9316TIP3    H152143   4.760   3.787   1.528 -1.4844  0.1889  1.4127
 9316TIP3    H252144   4.807   3.860   1.403  1.7041 -1.2109  1.6995
 9317TIP3   OH252145   7.460   0.386   0.833  0.0635 -0.1018 -0.2554
 9317TIP3    H152146   7.480   0.436   0.754 -0.2297  1.7201  0.7759
 9317TIP3    H252147   7.540   0.391   0.885 -0.2119 -0.1105  0.1699
 9318TIP3   OH252148   5.669   1.565   1.652 -0.0858 -0.0394 -0.0630
 9318TIP3    H152149   5.747   1.566   1.596  0.1869 -2.3816  0.1717
 9318TIP3    H252150   5.605   1.514   1.603 -0.1423 -1.3919  1.3442
 9319TIP3   OH252151   0.980   3.967   1.720  0.1595  0.2383  0.1234
 9319TIP3    H152152   1.011   3.911   1.650 -2.9886 -0.3777 -0.9611
 9319TIP3    H252153   0.990   3.915   1.800  0.6540 -0.4049 -0.3589
 9320TIP3   OH252154   5.232   5.748   3.316  0.0566  0.4007 -0.0844
 9320TIP3    H152155   5.283   5.805   3.258  0.8635  0.6235  0.8209
 9320TIP3    H252156   5.188   5.808   3.375 -1.9906  0.2700 -1.3763
 9321TIP3   OH252157   6.374   5.540   0.964 -0.0332 -0.2939  0.4703
 9321TIP3    H152158   6.290   5.579   0.942 -0.2396 -1.5896 -1.3252
 9321TIP3    H252159   6.428   5.613   0.994 -1.3236  0.8097  0.1981
 9322TIP3   OH252160   7.234   3.146   3.242  0.4922 -0.1596 -0.2604
 9322TIP3    H152161   7.145   3.171   3.267  0.2626 -2.1416  1.0461
 9322TIP3    H252162   7.240   3.053   3.261  2.8351 -0.1022 -0.4083
 9323TIP3   OH252163   0.349   2.977   3.232 -0.3291  0.7974 -0.1073
 9323TIP3    H152164   0.295   3.056   3.227 -1.7868 -0.1846 -0.5421
 9323TIP3    H252165   0.422   2.994   3.173  0.4787  2.5944  1.3140
 9324TIP3   OH252166   2.414   6.874   2.291  0.2882 -0.1935  0.6959
 9324TIP3    H152167   2.356   6.938   2.249  0.8854 -1.1875 -1.8473
 9324TIP3    H252168   2.366   6.791   2.286  0.4843 -0.3997  1.8615
 9325TIP3   OH252169   3.204   4.208   3.434  0.3435  0.5550 -0.1935
 9325TIP3    H152170   3.250   4.275   3.383  0.4737 -0.3096 -1.2449
 9325TIP3    H252171   3.273   4.159   3.478  0.4532 -0.5488 -1.5301
 9326TIP3   OH252172   5.730   2.288   1.604  0.0219 -0.6103 -0.1199
 9326TIP3    H152173   5.670   2.331   1.664  1.1280  0.9383 -0.0558
 9326TIP3    H252174   5.718   2.334   1.521 -1.0633 -2.3343 -0.9568
 9327TIP3   OH252175   3.545   1.364   2.907  0.4141 -0.3959 -0.1193
 9327TIP3    H152176   3.605   1.424   2.862  0.0549  1.0169  1.2242
 9327TIP3    H252177   3.564   1.376   3.000 -0.9278 -1.0348  0.2552
 9328TIP3   OH252178   6.358   1.952   2.314 -0.5718 -0.0021  0.0171
 9328TIP3    H152179   6.296   1.943   2.387 -0.2221  0.1117  0.3286
 9328TIP3    H252180   6.421   1.881   2.328 -0.2159  0.3322  0.1072
 9329TIP3   OH252181   1.494   6.611   2.179  0.4598 -0.1564  0.6751
 9329TIP3    H152182   1.469   6.540   2.120  3.0348 -0.3708 -0.2544
 9329TIP3    H252183   1.414   6.664   2.188 -0.4190 -0.9483 -1.7839
 9330TIP3   OH252184   3.351   7.441   3.025  0.1836 -0.0098  0.1753
 9330TIP3    H152185   3.395   7.526   3.014 -0.7836  0.5971  0.8891
 9330TIP3    H252186   3.415   7.387   3.072  0.9548  0.1836 -0.6221
 9331TIP3   OH252187   4.016   0.513   0.617 -0.2096 -0.2259  0.1694
 9331TIP3    H152188   4.100   0.473   0.640 -0.6625 -0.1238  2.1806
 9331TIP3    H252189   4.039   0.603   0.591  0.6226 -1.1885 -2.7561
 9332TIP3   OH252190   3.832   5.519   3.090  0.2910  0.2381 -0.1038
 9332TIP3    H152191   3.824   5.440   3.143  0.1958  1.5526  1.9368
 9332TIP3    H252192   3.787   5.586   3.140 -0.1281  1.5002 -2.0610
 9333TIP3   OH252193   5.563   6.607   1.753  0.2910 -0.1120 -0.0047
 9333TIP3    H152194   5.480   6.571   1.722  0.1241  0.1140  0.1804
 9333TIP3    H252195   5.541   6.650   1.836  1.1875 -2.9186  1.8260
 9334TIP3   OH252196   7.197   1.652   2.514 -0.3057 -0.3340  0.0935
 9334TIP3    H152197   7.146   1.601   2.451 -1.6889  1.1920 -0.0913
 9334TIP3    H252198   7.207   1.595   2.590 -0.9978 -1.1990 -0.4518
 9335TIP3   OH252199   3.829   6.887   1.757 -0.5702 -0.1638 -0.3499
 9335TIP3    H152200   3.899   6.836   1.716 -1.3193 -0.1548 -1.7277
 9335TIP3    H252201   3.829   6.970   1.708 -1.1302  0.0795  0.0532
 9336TIP3   OH252202   7.317   0.410   1.992  0.4170 -0.4787  0.1444
 9336TIP3    H152203   7.295   0.317   1.992  0.9859 -0.6187 -0.6572
 9336TIP3    H252204   7.402   0.415   2.034  0.0613 -0.2337  0.8442
 9337TIP3   OH252205   4.875   0.135   2.256 -0.3884  0.1399  0.0230
 9337TIP3    H152206   4.809   0.066   2.259 -0.6068  0.3894  1.4512
 9337TIP3    H252207   4.895   0.144   2.162 -2.1076 -0.1896 -0.4138
 9338TIP3   OH252208   1.617   2.698   0.657 -0.2569 -0.7303 -0.0245
 9338TIP3    H152209   1.621   2.634   0.728 -0.2624 -0.9322 -0.2040
 9338TIP3    H252210   1.556   2.765   0.688  1.7426  0.6093  1.3188
 9339TIP3   OH252211   4.184   1.897   0.829 -0.0996 -0.3056  0.0931
 9339TIP3    H152212   4.200   1.934   0.916 -0.7831 -0.7156  0.4066
 9339TIP3    H252213   4.271   1.881   0.793  0.1919  0.1359  0.5851
 9340TIP3   OH252214   3.422   1.033   1.335 -0.3427  0.2756 -0.1976
 9340TIP3    H152215   3.388   0.962   1.390 -0.1068  1.2681  1.2935
 9340TIP3    H252216   3.488   1.076   1.389 -0.5848  1.7270 -0.9903
 9341TIP3   OH252217   6.939   6.368   1.797  0.0231 -0.6944  0.3795
 9341TIP3    H152218   6.948   6.287   1.846  0.8409 -0.3656  0.7948
 9341TIP3    H252219   6.899   6.430   1.858  2.1015  0.0532  1.0593
 9342TIP3   OH252220   6.058   7.404   3.313  0.6639 -0.2338  0.0941
 9342TIP3    H152221   5.984   7.366   3.265 -0.3487  0.4556  1.0575
 9342TIP3    H252222   6.135   7.376   3.264 -0.3135  0.7767 -2.2110
 9343TIP3   OH252223   7.107   6.233   1.176  0.9037  0.8116 -0.1400
 9343TIP3    H152224   7.021   6.227   1.216  1.1034  0.7815  0.2936
 9343TIP3    H252225   7.093   6.283   1.096  0.2776 -0.2377 -0.7063
 9344TIP3   OH252226   3.639   3.139   2.622  0.6581 -0.1852  0.7599
 9344TIP3    H152227   3.705   3.125   2.690 -0.3211 -0.0436  1.7545
 9344TIP3    H252228   3.622   3.233   2.623  1.4717  0.0164 -0.5105
 9345TIP3   OH252229   0.882   0.174   0.818  0.3898 -0.2922 -0.3516
 9345TIP3    H152230   0.963   0.164   0.868  0.4643  0.5784 -0.2815
 9345TIP3    H252231   0.825   0.226   0.876  0.9966  2.0122 -1.7062
 9346TIP3   OH252232   7.513   3.273   1.251 -0.1960  0.1386 -0.5047
 9346TIP3    H152233   7.420   3.272   1.228 -0.0106 -3.8897 -1.7286
 9346TIP3    H252234   7.558   3.288   1.168  0.2678 -0.8800 -0.4441
 9347TIP3   OH252235   5.394   0.019   1.880  0.3325 -0.1743 -0.0079
 9347TIP3    H152236   5.316   0.062   1.845  0.0343 -0.1359  0.6821
 9347TIP3    H252237   5.385  -0.073   1.855 -0.3230 -0.3163  0.7237
 9348TIP3   OH252238   2.397   0.984   2.150 -0.1918 -0.7025 -0.0268
 9348TIP3    H152239   2.377   0.891   2.151  0.5623 -0.8843 -0.4287
 9348TIP3    H252240   2.335   1.022   2.088 -0.7168 -0.8799  0.3884
 9349TIP3   OH252241   3.211   4.421   2.467 -0.4304 -0.1853  0.0652
 9349TIP3    H152242   3.129   4.385   2.502 -0.6775 -0.6557 -0.9495
 9349TIP3    H252243   3.210   4.513   2.493 -0.1785 -0.6883  2.0023
 9350TIP3   OH252244   1.588   1.069   2.205  0.1436  0.1754 -0.5078
 9350TIP3    H152245   1.620   0.992   2.251  0.3402  0.5216 -0.0636
 9350TIP3    H252246   1.506   1.040   2.163  0.5707 -0.4618 -0.9176
 9351TIP3   OH252247   7.325   6.047   1.865 -0.7120  0.6853  0.0755
 9351TIP3    H152248   7.411   6.039   1.825 -1.0562 -2.8847 -0.2485
 9351TIP3    H252249   7.322   5.978   1.931 -2.4866  2.3082  1.8115
 9352TIP3   OH252250   6.161   4.462   1.497  0.1093 -0.1291  0.5713
 9352TIP3    H152251   6.161   4.465   1.593  1.4213 -1.6694  0.6600
 9352TIP3    H252252   6.194   4.548   1.470 -3.3916  1.6207  1.3307
 9353TIP3   OH252253   5.126   0.097   2.427  0.1493  0.0126  0.5215
 9353TIP3    H152254   5.043   0.142   2.413 -0.2730 -0.8951  0.0330
 9353TIP3    H252255   5.156   0.074   2.339  1.5092  1.3588  0.6036
 9354TIP3   OH252256   0.558   7.494   2.954  0.6050 -0.3114 -0.4479
 9354TIP3    H152257   0.464   7.480   2.942  0.3353  0.8144  0.2732
 9354TIP3    H252258   0.567   7.587   2.974  1.9410 -0.2683 -1.0974
 9355TIP3   OH252259   3.663   7.296   0.888 -0.1889 -0.6090  0.2319
 9355TIP3    H152260   3.667   7.246   0.969  2.1173 -0.8844  0.0317
 9355TIP3    H252261   3.724   7.369   0.902 -2.0391  1.0897 -0.1853
 9356TIP3   OH252262   1.471   0.153   3.074 -0.6255  0.0068  0.8057
 9356TIP3    H152263   1.518   0.222   3.026 -2.0722  1.0962  0.8896
 9356TIP3    H252264   1.518   0.073   3.051  1.8800  1.0980  1.6507
 9357TIP3   OH252265   0.849   3.290   2.085 -0.6413 -0.0508  0.0463
 9357TIP3    H152266   0.883   3.317   2.000  0.3845  0.3188  0.5612
 9357TIP3    H252267   0.810   3.204   2.069 -0.0866 -0.1717 -0.7049
 9358TIP3   OH252268   4.067   0.963   2.236  0.4316  0.4081  0.3513
 9358TIP3    H152269   4.005   1.023   2.278 -0.2088  1.1322 -1.5427
 9358TIP3    H252270   4.078   0.892   2.300 -0.2451  1.5963  1.8516
 9359TIP3   OH252271   1.609   7.028   2.150  0.2451 -0.3528 -0.6811
 9359TIP3    H152272   1.572   7.097   2.204  0.4929 -1.6314  1.2512
 9359TIP3    H252273   1.549   7.020   2.076 -0.9453  0.5180  0.1496
 9360TIP3   OH252274   1.056   7.490   3.054  0.3743 -0.5989  0.0555
 9360TIP3    H152275   1.133   7.438   3.028  0.9867 -0.4916  1.5497
 9360TIP3    H252276   1.089   7.547   3.123 -0.3604  1.5721 -1.2876
 9361TIP3   OH252277   0.320   4.516   1.573  0.0384  0.1714  0.5259
 9361TIP3    H152278   0.229   4.498   1.595  0.7511 -1.3661  2.4757
 9361TIP3    H252279   0.330   4.485   1.483 -1.2220 -0.1429  0.4793
 9362TIP3   OH252280   2.364   0.738   1.732  0.3281 -0.1830  0.4303
 9362TIP3    H152281   2.403   0.823   1.754  0.7532 -0.5839  1.3049
 9362TIP3    H252282   2.434   0.689   1.690 -0.0103  0.0019 -0.3654
 9363TIP3   OH252283   7.470   5.169   1.778 -0.0941 -0.0122  0.4735
 9363TIP3    H152284   7.516   5.197   1.699 -1.6410  0.9579 -0.1332
 9363TIP3    H252285   7.524   5.098   1.813  0.9161 -0.0992 -1.1395
 9364TIP3   OH252286   4.024   7.212   2.529 -0.0817  0.2759 -0.1290
 9364TIP3    H152287   3.942   7.207   2.578  0.5836 -2.5883  0.8706
 9364TIP3    H252288   4.028   7.129   2.481  0.8050  1.6626 -2.6657
 9365TIP3   OH252289   2.697   7.207   1.374 -0.3187  0.2795 -0.4638
 9365TIP3    H152290   2.615   7.220   1.422 -0.3923  1.2538 -0.8467
 9365TIP3    H252291   2.734   7.127   1.413 -1.2433  0.0540 -0.0121
 9366TIP3   OH252292   0.433   5.743   1.376  0.0047  0.0197  0.5157
 9366TIP3    H152293   0.492   5.807   1.336 -1.1455  1.4688  1.0164
 9366TIP3    H252294   0.446   5.663   1.326  3.0080 -0.0128  1.1628
 9367TIP3   OH252295   4.468   3.196   3.162  0.6467  0.2602 -0.0031
 9367TIP3    H152296   4.487   3.106   3.138 -1.1421  0.3911 -2.1952
 9367TIP3    H252297   4.551   3.230   3.196  1.8242 -1.6698 -0.8145
 9368TIP3   OH252298   2.297   5.455   1.965 -0.1098 -0.3167  0.1040
 9368TIP3    H152299   2.224   5.483   1.910  0.5527 -0.8265 -1.0610
 9368TIP3    H252300   2.334   5.537   1.998 -1.5249 -0.0674  1.1761
 9369TIP3   OH252301   7.603   0.377   1.261  0.3519 -0.0680  0.0109
 9369TIP3    H152302   7.539   0.372   1.332 -0.1323  1.2373 -0.2934
 9369TIP3    H252303   7.597   0.293   1.216 -2.7204  0.7010 -1.2920
 9370TIP3   OH252304   4.923   0.715   1.886  0.7110 -1.1694 -0.0476
 9370TIP3    H152305   4.994   0.651   1.895  2.2892  0.2926 -1.3866
 9370TIP3    H252306   4.936   0.776   1.959  1.1073 -0.6752 -0.5204
 9371TIP3   OH252307   5.635   1.643   2.421 -0.2268 -0.1138  0.1892
 9371TIP3    H152308   5.726   1.669   2.413 -0.5090  1.1259  0.7308
 9371TIP3    H252309   5.600   1.699   2.491 -1.2990 -0.8381  0.2628
 9372TIP3   OH252310   0.824   5.295   2.209  0.1001 -0.0958  0.2797
 9372TIP3    H152311   0.742   5.307   2.258  0.1744  2.0063 -0.0394
 9372TIP3    H252312   0.863   5.216   2.248 -1.8997 -0.9703  0.6438
 9373TIP3   OH252313   0.581   7.152   1.041 -0.4692  0.2653  0.0825
 9373TIP3    H152314   0.533   7.080   1.081  0.0678 -0.2601 -0.1976
 9373TIP3    H252315   0.539   7.231   1.074 -1.4589 -0.1813 -0.0915
 9374TIP3   OH252316   4.003   1.671   1.206 -0.2158  0.0055 -0.2425
 9374TIP3    H152317   4.045   1.632   1.129  2.9956  0.8894  0.9083
 9374TIP3    H252318   4.027   1.612   1.278 -1.2485  0.4009  0.4432
 9375TIP3   OH252319   1.919   3.672   1.804 -0.0642 -0.4883  0.4531
 9375TIP3    H152320   1.825   3.690   1.807  0.0974  0.3184  1.2226
 9375TIP3    H252321   1.952   3.707   1.887  0.8664 -1.0693  0.3376
 9376TIP3   OH252322   3.754   4.088   2.417 -0.4173 -0.1189 -0.6927
 9376TIP3    H152323   3.826   4.087   2.355  0.3590 -1.3497  0.1802
 9376TIP3    H252324   3.704   4.008   2.398  0.2290 -0.8885  0.6746
 9377TIP3   OH252325   3.738   0.488   0.629 -0.3135  0.0592 -0.2819
 9377TIP3    H152326   3.710   0.568   0.584  0.5115  0.0928 -0.7555
 9377TIP3    H252327   3.833   0.487   0.619 -0.2124 -0.4329  0.6486
 9378TIP3   OH252328   4.933   0.951   2.567 -0.1059  0.4267 -0.7196
 9378TIP3    H152329   4.947   1.015   2.498 -1.0088  0.4185 -0.9176
 9378TIP3    H252330   5.015   0.902   2.572  0.2792  1.0309 -1.1547
 9379TIP3   OH252331   5.506   1.819   2.586  0.3848 -0.0536 -0.0433
 9379TIP3    H152332   5.451   1.896   2.597 -0.0284 -0.0731 -1.6999
 9379TIP3    H252333   5.482   1.761   2.658 -1.0846  0.3430 -0.1884
 9380TIP3   OH252334   2.805   4.040   0.743 -0.2572 -0.1315  0.6411
 9380TIP3    H152335   2.727   4.089   0.717  0.0955 -0.0683 -0.3145
 9380TIP3    H252336   2.856   4.101   0.796  0.3863  0.7174 -0.8841
 9381TIP3   OH252337   3.225   7.245   1.668 -0.0544  0.2937  0.2140
 9381TIP3    H152338   3.229   7.158   1.706  1.3537 -0.4930 -1.5767
 9381TIP3    H252339   3.244   7.232   1.575  1.5137  2.6229  0.1104
 9382TIP3   OH252340   0.287   0.180   1.750 -0.3437  0.4247 -0.1358
 9382TIP3    H152341   0.372   0.218   1.726  0.3076 -0.8407  0.0649
 9382TIP3    H252342   0.309   0.104   1.804 -1.6431  0.5249  0.5684
 9383TIP3   OH252343   5.644   3.029   1.993 -0.2227 -0.0570 -0.4501
 9383TIP3    H152344   5.579   2.973   1.951 -0.4792 -1.0145  1.1535
 9383TIP3    H252345   5.657   2.991   2.079  0.2564  1.8722  0.3836
 9384TIP3   OH252346   5.653   0.182   2.249 -0.2516 -0.1976 -0.0088
 9384TIP3    H152347   5.743   0.150   2.260 -0.2053 -0.0025  0.1919
 9384TIP3    H252348   5.606   0.147   2.324  0.1651  1.5063  1.0932
 9385TIP3   OH252349   0.342   5.256   1.028  0.2123  0.2816  0.0463
 9385TIP3    H152350   0.400   5.181   1.036 -0.8099 -0.6968 -1.3668
 9385TIP3    H252351   0.349   5.283   0.936 -1.5443  0.1328 -0.1643
 9386TIP3   OH252352   0.073   5.737   2.386  0.3869  0.0750  0.0547
 9386TIP3    H152353   0.050   5.783   2.305 -0.6538  0.9893  0.8468
 9386TIP3    H252354   0.045   5.646   2.370 -1.0319  0.5217 -0.1561
 9387TIP3   OH252355   5.423   7.395   1.566 -0.1947  0.5569 -0.2942
 9387TIP3    H152356   5.420   7.465   1.501 -0.3474  1.1788  0.3644
 9387TIP3    H252357   5.515   7.369   1.569  0.2278  2.0523  0.8077
 9388TIP3   OH252358   2.419   1.971   1.543  0.2003 -0.6859  0.2800
 9388TIP3    H152359   2.344   2.029   1.559  0.8671  0.0918  0.6936
 9388TIP3    H252360   2.487   2.030   1.510 -0.0644 -1.7021 -2.3565
 9389TIP3   OH252361   0.513   0.435   2.095 -0.5291  0.0061  0.6593
 9389TIP3    H152362   0.549   0.352   2.062  2.0317  1.8531 -1.6496
 9389TIP3    H252363   0.435   0.450   2.042  0.9542  0.6514 -1.4834
 9390TIP3   OH252364   5.273   0.298   0.907  0.3812  0.3579 -0.6528
 9390TIP3    H152365   5.292   0.375   0.854  1.5090  1.4209  1.1793
 9390TIP3    H252366   5.345   0.295   0.971 -0.0198 -1.8096 -0.2358
 9391TIP3   OH252367   6.098   6.716   1.519  0.1721  0.0244  0.1662
 9391TIP3    H152368   6.151   6.772   1.576 -0.1504  0.8853 -0.3620
 9391TIP3    H252369   6.089   6.765   1.438 -0.6761 -0.5090 -0.0809
 9392TIP3   OH252370   1.303   1.784   2.630 -0.3256 -0.2889 -0.2638
 9392TIP3    H152371   1.336   1.695   2.613 -2.4981 -1.2662  0.2191
 9392TIP3    H252372   1.304   1.793   2.725  3.4926  1.7860 -0.3236
 9393TIP3   OH252373   2.123   1.372   2.256 -0.3462  0.6288  0.2517
 9393TIP3    H152374   2.089   1.291   2.219  1.0755  0.5256 -0.9541
 9393TIP3    H252375   2.134   1.354   2.349  0.0348 -0.6162 -0.0146
 9394TIP3   OH252376   5.987   1.153   1.764  0.3499  0.2673  0.2961
 9394TIP3    H152377   5.983   1.248   1.751 -1.0665  0.3938  1.4272
 9394TIP3    H252378   6.065   1.126   1.715  0.0394  1.8100 -1.1720
 9395TIP3   OH252379   1.983   5.365   1.489 -0.1326  0.0540 -0.1803
 9395TIP3    H152380   2.045   5.340   1.557 -2.9401 -0.5942  2.3099
 9395TIP3    H252381   1.964   5.457   1.506 -0.1719  0.1388 -0.6665
 9396TIP3   OH252382   4.677   2.672   1.262 -0.5262 -0.0624 -0.1813
 9396TIP3    H152383   4.733   2.700   1.190 -1.8305 -0.0595 -1.2418
 9396TIP3    H252384   4.723   2.599   1.302  0.0486 -0.3119 -1.2624
 9397TIP3   OH252385   2.177   5.311   1.674 -0.2595  0.1951  0.0288
 9397TIP3    H152386   2.271   5.307   1.692  0.0242  0.0981 -1.3960
 9397TIP3    H252387   2.137   5.282   1.756  1.0174 -2.1281 -0.0753
 9398TIP3   OH252388   2.627   6.917   1.921  0.0512  0.5559 -0.2013
 9398TIP3    H152389   2.629   6.933   1.827  1.1390  0.2822 -0.2359
 9398TIP3    H252390   2.535   6.900   1.941 -0.1944  0.6863 -1.2028
 9399TIP3   OH252391   6.426   5.613   2.908 -0.4057  0.0129  0.4213
 9399TIP3    H152392   6.491   5.668   2.952 -0.4458 -2.3945  3.9292
 9399TIP3    H252393   6.448   5.524   2.936 -2.5009 -1.4063 -2.0460
 9400TIP3   OH252394   3.016   6.939   2.917 -0.2922 -0.1088 -0.1230
 9400TIP3    H152395   2.986   7.015   2.966 -0.1977 -0.6592  0.8063
 9400TIP3    H252396   2.937   6.905   2.874 -0.5651 -0.1781  0.4241
 9401TIP3   OH252397   5.540   2.792   2.671  0.0845  0.2693  0.1168
 9401TIP3    H152398   5.616   2.740   2.647 -1.2495 -2.4235  1.2719
 9401TIP3    H252399   5.558   2.820   2.761 -0.1841 -0.2248  0.3297
 9402TIP3   OH252400   7.125   2.868   1.387 -0.1521  0.7170  0.0156
 9402TIP3    H152401   7.193   2.882   1.321 -1.1487  0.5477 -1.0784
 9402TIP3    H252402   7.161   2.907   1.467  1.0745  0.9479 -0.6223
 9403TIP3   OH252403   2.891   1.826   2.766  0.1495  0.5240  0.1015
 9403TIP3    H152404   2.872   1.909   2.809 -0.5187  0.9207 -0.9011
 9403TIP3    H252405   2.986   1.818   2.770  0.0884  0.4320  1.8024
 9404TIP3   OH252406   6.825   6.492   0.525  0.0883 -0.1531 -0.4491
 9404TIP3    H152407   6.816   6.574   0.574  2.3212 -0.7099  1.0209
 9404TIP3    H252408   6.735   6.460   0.514 -0.6343  1.1407  1.2824
 9405TIP3   OH252409   4.560   1.027   1.614 -0.0075 -0.3560 -0.3771
 9405TIP3    H152410   4.517   1.078   1.682  0.1239  0.6439 -1.0131
 9405TIP3    H252411   4.551   0.936   1.642  1.2674  0.0931  1.6787
 9406TIP3   OH252412   2.068   3.042   0.537  0.5691  0.0565  0.0969
 9406TIP3    H152413   1.986   3.091   0.534  0.8676  0.5317 -0.7088
 9406TIP3    H252414   2.043   2.952   0.518  0.0615 -0.0613  1.2413
 9407TIP3   OH252415   7.599   7.668   1.889  0.0583 -0.3505  0.0588
 9407TIP3    H152416   7.648   7.735   1.935  1.2300 -1.2060  0.0807
 9407TIP3    H252417   7.589   7.596   1.952 -1.2798 -0.1906  0.0738
 9408TIP3   OH252418   2.481   2.339   3.058  0.0293  0.2456  0.1308
 9408TIP3    H152419   2.482   2.320   2.964 -0.9855  0.1470  0.1285
 9408TIP3    H252420   2.535   2.270   3.097 -0.8604 -0.6872 -0.2297
 9409TIP3   OH252421   6.189   2.844   1.798 -0.1586 -0.1049 -0.1453
 9409TIP3    H152422   6.109   2.810   1.759 -0.0093 -0.9822  0.2910
 9409TIP3    H252423   6.242   2.872   1.723 -0.1635 -1.1086 -0.5393
 9410TIP3   OH252424   1.993   2.644   3.007 -0.1694  0.0916  0.3340
 9410TIP3    H152425   1.909   2.675   3.040 -1.5007 -2.2204 -0.5400
 9410TIP3    H252426   2.045   2.625   3.085 -0.5783  1.2243  0.8975
 9411TIP3   OH252427   4.181   4.198   1.316  0.3779  0.0752  0.8810
 9411TIP3    H152428   4.094   4.165   1.294  0.8177 -0.5486  0.0058
 9411TIP3    H252429   4.205   4.152   1.396  0.1060 -0.1481  0.8337
 9412TIP3   OH252430   0.960   7.094   1.740 -0.3112  0.1162  0.0411
 9412TIP3    H152431   0.935   7.173   1.691  0.0753  1.2402  1.5692
 9412TIP3    H252432   1.055   7.101   1.748 -0.5372  1.0868  2.6791
 9413TIP3   OH252433   5.008   2.883   0.617  0.0303 -0.4614  0.3925
 9413TIP3    H152434   5.044   2.972   0.620  2.3609 -1.3200  0.0121
 9413TIP3    H252435   5.027   2.853   0.528  0.4631 -1.7799  0.9047
 9414TIP3   OH252436   1.991   0.282   2.560  0.0642  0.6160  0.0442
 9414TIP3    H152437   1.907   0.268   2.603 -0.1476  0.9923 -0.2500
 9414TIP3    H252438   2.045   0.208   2.589 -1.4060 -1.5746 -2.3936
 9415TIP3   OH252439   7.289   4.615   2.326  0.2579  0.1627  0.1171
 9415TIP3    H152440   7.335   4.550   2.272 -0.6631  0.6852 -1.3868
 9415TIP3    H252441   7.356   4.679   2.350  0.7343 -0.1954 -0.2366
 9416TIP3   OH252442   3.460   4.889   2.943 -0.0486  0.0956  0.4422
 9416TIP3    H152443   3.526   4.953   2.916  1.7726 -1.4602  0.9429
 9416TIP3    H252444   3.484   4.809   2.897 -2.6271 -0.1385 -0.6284
 9417TIP3   OH252445   0.425   5.793   1.010 -0.7273  0.2178  0.0210
 9417TIP3    H152446   0.339   5.776   0.973 -0.8492 -1.8163  1.0958
 9417TIP3    H252447   0.415   5.875   1.059 -2.5403 -0.8087  1.5001
 9418TIP3   OH252448   1.294   2.195   2.900 -0.2195  0.0849 -0.0261
 9418TIP3    H152449   1.377   2.150   2.887  0.5116  1.2694  0.3186
 9418TIP3    H252450   1.281   2.195   2.995 -0.0162  0.8853  0.0137
 9419TIP3   OH252451   0.558   2.509   2.127 -0.4560 -0.6722 -0.1157
 9419TIP3    H152452   0.611   2.438   2.092  0.7751 -0.4923  1.3045
 9419TIP3    H252453   0.593   2.525   2.214 -0.2501  2.1348 -0.6190
 9420TIP3   OH252454   1.315   0.371   2.645  0.4990  0.4074 -0.2033
 9420TIP3    H152455   1.368   0.414   2.713 -0.5076 -0.3398  1.1037
 9420TIP3    H252456   1.249   0.435   2.621  0.0871  0.2303  0.4477
 9421TIP3   OH252457   4.228   0.970   1.715 -0.3853  0.0674  0.0861
 9421TIP3    H152458   4.250   0.882   1.744 -0.9769 -0.1116  0.0169
 9421TIP3    H252459   4.136   0.964   1.689 -0.3900  0.6707 -0.0546
 9422TIP3   OH252460   4.355   1.972   2.277  0.2801 -0.0405 -0.1106
 9422TIP3    H152461   4.428   1.965   2.216  0.3576 -0.3281  0.0137
 9422TIP3    H252462   4.363   2.059   2.315  0.3726  0.0461 -0.3318
 9423TIP3   OH252463   1.814   4.671   2.015 -0.1260 -0.2222 -0.4399
 9423TIP3    H152464   1.858   4.595   2.052 -0.6182  0.4375  1.6954
 9423TIP3    H252465   1.884   4.724   1.977  0.2114 -1.7075 -1.9951
 9424TIP3   OH252466   7.190   6.261   2.139 -0.0682 -0.2399 -0.8137
 9424TIP3    H152467   7.281   6.274   2.165 -0.1579 -0.7964 -0.1994
 9424TIP3    H252468   7.142   6.331   2.183  0.2136  0.7770 -2.0883
 9425TIP3   OH252469   2.612   3.930   3.160  0.6895  0.2355 -0.3785
 9425TIP3    H152470   2.561   3.967   3.087  0.6466  2.5076  0.7138
 9425TIP3    H252471   2.545   3.896   3.220  0.6904 -0.8899 -0.9968
 9426TIP3   OH252472   6.844   0.897   2.543 -0.0991 -0.1169 -0.6735
 9426TIP3    H152473   6.814   0.832   2.607 -1.7701  1.2660  0.0093
 9426TIP3    H252474   6.827   0.857   2.458 -0.3890 -0.8694 -0.2683
 9427TIP3   OH252475   1.325   5.186   2.806  0.4386  0.1583 -0.2886
 9427TIP3    H152476   1.254   5.125   2.827 -0.9391  1.2417 -1.5382
 9427TIP3    H252477   1.392   5.132   2.764 -1.4866 -0.3417 -2.9754
 9428TIP3   OH252478   4.732   5.525   3.169  0.4232  0.1929 -0.3254
 9428TIP3    H152479   4.785   5.538   3.248  0.9318  1.9106 -0.9011
 9428TIP3    H252480   4.650   5.488   3.201  1.7580 -2.0994  0.6369
 9429TIP3   OH252481   5.361   6.799   2.236  0.3679 -0.1986 -0.0071
 9429TIP3    H152482   5.269   6.798   2.211  0.3643  1.5407 -0.2072
 9429TIP3    H252483   5.408   6.812   2.153  0.7417 -0.2367  0.1947
 9430TIP3   OH252484   4.095   4.268   1.755 -0.3101  0.0886 -0.0747
 9430TIP3    H152485   4.154   4.257   1.830  0.8101  0.4184 -0.8867
 9430TIP3    H252486   4.129   4.344   1.709 -2.2451  1.1844  0.2016
 9431TIP3   OH252487   4.060   0.495   2.549  0.2900 -0.5911 -0.0118
 9431TIP3    H152488   4.066   0.491   2.645 -2.3047 -1.6017  0.2010
 9431TIP3    H252489   4.077   0.405   2.521 -0.2929 -0.5831 -0.3866
 9432TIP3   OH252490   5.518   0.632   2.582  0.3963  0.0909 -0.6774
 9432TIP3    H152491   5.468   0.652   2.661  1.0793 -1.1247  0.1060
 9432TIP3    H252492   5.582   0.567   2.611  0.1815 -0.9395 -2.4053
 9433TIP3   OH252493   6.794   0.772   2.291  0.2609 -0.4918  0.0588
 9433TIP3    H152494   6.859   0.803   2.228  1.6233 -0.0317  1.6157
 9433TIP3    H252495   6.711   0.776   2.243  1.3515 -1.1720 -2.0259
 9434TIP3   OH252496   2.117   1.531   1.748  0.2462 -0.1726 -0.1331
 9434TIP3    H152497   2.118   1.493   1.660 -1.6673 -0.8403  0.0926
 9434TIP3    H252498   2.178   1.476   1.798  0.4752 -0.4990 -0.7547
 9435TIP3   OH252499   6.117   5.307   2.753  0.7650 -0.4324 -0.2398
 9435TIP3    H152500   6.030   5.273   2.775  0.5953  0.2974  0.2400
 9435TIP3    H252501   6.100   5.392   2.712  1.2779  0.0983  0.6149
 9436TIP3   OH252502   4.324   4.660   3.013  0.4643  0.1170  0.1922
 9436TIP3    H152503   4.260   4.589   3.015  0.4588  0.0583 -1.0628
 9436TIP3    H252504   4.405   4.620   3.045  0.0422  0.0355  1.2034
 9437TIP3   OH252505   0.489   3.658   2.159  0.4213  0.3340 -0.2200
 9437TIP3    H152506   0.584   3.651   2.163  0.3935 -0.6643 -0.7856
 9437TIP3    H252507   0.470   3.665   2.065 -0.0805  0.0589 -0.1418
 9438TIP3   OH252508   6.906   3.304   1.190 -0.8014  0.4918 -0.4198
 9438TIP3    H152509   6.926   3.240   1.122 -0.0602  0.2162  0.0431
 9438TIP3    H252510   6.981   3.364   1.188  0.3822 -0.7947  1.6322
 9439TIP3   OH252511   3.738   6.984   2.353 -0.1815  0.5416  0.2294
 9439TIP3    H152512   3.785   6.905   2.326  1.0206  0.7608  1.6042
 9439TIP3    H252513   3.666   6.991   2.289  1.6092  0.2200 -1.9575
 9440TIP3   OH252514   7.115   0.944   3.246  0.3135 -0.4448 -0.1789
 9440TIP3    H152515   7.138   1.014   3.307  0.2722  0.4392 -1.1539
 9440TIP3    H252516   7.111   0.987   3.160  0.8549 -1.7469 -0.8839
 9441TIP3   OH252517   5.620   4.799   2.790 -0.0200  0.5374  0.0618
 9441TIP3    H152518   5.529   4.803   2.761 -0.4194 -1.8707  0.7252
 9441TIP3    H252519   5.614   4.776   2.883  1.2328 -0.1004  0.0007
 9442TIP3   OH252520   0.320   3.794   0.613 -0.0303  0.2830  0.0662
 9442TIP3    H152521   0.290   3.883   0.595 -0.9285 -0.3430 -1.7226
 9442TIP3    H252522   0.253   3.758   0.672 -0.6848  0.1949 -0.7145
 9443TIP3   OH252523   5.848   5.231   2.773 -0.5543 -0.1983  0.4332
 9443TIP3    H152524   5.765   5.267   2.806 -0.3522  1.0349 -0.3298
 9443TIP3    H252525   5.821   5.171   2.703 -0.7941  1.4601 -0.9745
 9444TIP3   OH252526   0.310   2.543   2.700 -0.0364  0.3779  0.2446
 9444TIP3    H152527   0.352   2.474   2.649 -1.3068 -0.2482  0.0007
 9444TIP3    H252528   0.266   2.497   2.771  2.0543  1.2611  2.2509
 9445TIP3   OH252529   1.024   0.800   2.777  0.0327  0.7198  0.1267
 9445TIP3    H152530   1.025   0.763   2.865 -2.0483  1.8997  0.6910
 9445TIP3    H252531   0.999   0.891   2.788  0.1400  1.0184 -1.6706
 9446TIP3   OH252532   2.407   3.289   2.453  0.1163  0.5056  0.2698
 9446TIP3    H152533   2.501   3.307   2.446  0.2321 -0.5184 -1.7958
 9446TIP3    H252534   2.398   3.239   2.534  1.3963  0.4155  0.3844
 9447TIP3   OH252535   2.418   1.654   0.696 -0.0935  0.4375  0.3525
 9447TIP3    H152536   2.471   1.693   0.765 -0.2139  1.3705 -0.0701
 9447TIP3    H252537   2.431   1.711   0.620 -0.4206 -0.2406 -0.2300
 9448TIP3   OH252538   6.449   6.793   1.130 -0.5853  0.4699 -0.4234
 9448TIP3    H152539   6.452   6.757   1.041  0.3273 -0.4198 -0.0549
 9448TIP3    H252540   6.402   6.726   1.180 -3.8377  2.2897 -0.7719
 9449TIP3   OH252541   2.768   2.679   1.600  0.4288 -0.3997 -0.6087
 9449TIP3    H152542   2.846   2.711   1.646  0.7132 -1.8166 -0.0568
 9449TIP3    H252543   2.753   2.744   1.531 -0.2257  2.0069  1.6455
 9450TIP3   OH252544   4.651   6.309   3.092 -0.0393 -0.3459  0.6018
 9450TIP3    H152545   4.586   6.239   3.086 -0.4005 -0.0369  0.8503
 9450TIP3    H252546   4.600   6.390   3.091  0.4817  0.0205 -1.6725
 9451TIP3   OH252547   4.991   3.648   3.044 -0.0312 -0.3306  0.7695
 9451TIP3    H152548   5.016   3.725   3.096  0.9874 -1.7467  2.4881
 9451TIP3    H252549   4.923   3.606   3.095 -1.1000 -0.2161 -0.5197
 9452TIP3   OH252550   1.088   2.982   1.744 -0.7240  0.1078  0.6835
 9452TIP3    H152551   1.110   2.938   1.827 -1.2624  0.0078  0.7748
 9452TIP3    H252552   1.101   3.075   1.762  2.9278 -0.0728 -0.2301
 9453TIP3   OH252553   4.476   0.374   2.067  0.1090 -0.7135 -0.2966
 9453TIP3    H152554   4.385   0.363   2.042  0.0868 -0.7915 -0.1825
 9453TIP3    H252555   4.526   0.327   2.000  0.0100 -1.6327  0.2642
 9454TIP3   OH252556   3.887   2.572   1.852  0.2806 -0.0796 -0.2224
 9454TIP3    H152557   3.898   2.597   1.944 -0.7746 -0.0419 -0.0890
 9454TIP3    H252558   3.917   2.481   1.849 -1.9774 -0.9280  0.7393
 9455TIP3   OH252559   4.675   6.572   1.769 -0.5318 -0.5855  0.2361
 9455TIP3    H152560   4.681   6.645   1.708  1.1645  1.2306  2.3472
 9455TIP3    H252561   4.597   6.590   1.821 -1.1067 -1.2757 -0.3754
 9456TIP3   OH252562   5.660   7.528   2.465  0.3224  0.0302 -0.3681
 9456TIP3    H152563   5.729   7.594   2.451  1.1618 -0.3505  1.5658
 9456TIP3    H252564   5.602   7.537   2.390  1.7649  1.2897 -1.3907
 9457TIP3   OH252565   4.709   3.886   1.841  0.0332 -0.2551 -0.6477
 9457TIP3    H152566   4.792   3.913   1.880 -0.8228  0.8331  0.4994
 9457TIP3    H252567   4.734   3.845   1.758  1.6276  1.3583 -1.0373
 9458TIP3   OH252568   4.383   6.498   2.434  0.4837  0.3943 -0.1014
 9458TIP3    H152569   4.298   6.498   2.477  1.2075  1.8776  1.4733
 9458TIP3    H252570   4.383   6.576   2.379  0.8732  0.4974  0.0367
 9459TIP3   OH252571   0.093   6.217   1.447  0.3125 -0.9308  0.2116
 9459TIP3    H152572   0.158   6.180   1.387 -0.1537 -1.6573  0.1431
 9459TIP3    H252573   0.041   6.276   1.392  0.2603 -1.1404  0.0347
 9460TIP3   OH252574   7.565   4.332   1.762  0.6980  0.3741 -0.4795
 9460TIP3    H152575   7.522   4.407   1.802  0.8102  0.2124 -0.0507
 9460TIP3    H252576   7.626   4.300   1.829 -0.5791 -1.1578  0.0023
 9461TIP3   OH252577   2.908   3.276   2.781  0.3619 -0.3995 -0.2141
 9461TIP3    H152578   2.825   3.228   2.785  0.1861 -0.0759  0.1517
 9461TIP3    H252579   2.958   3.244   2.856 -0.5135  1.3273  1.1897
 9462TIP3   OH252580   2.181   4.183   1.204 -0.1688 -0.5194  0.0874
 9462TIP3    H152581   2.268   4.145   1.194  0.0693 -0.0595  0.3803
 9462TIP3    H252582   2.121   4.109   1.194  0.1643 -0.6047 -1.7682
 9463TIP3   OH252583   3.976   3.447   2.346 -0.3990 -0.0907  0.3019
 9463TIP3    H152584   3.990   3.361   2.307 -0.0980 -0.4807  1.2508
 9463TIP3    H252585   4.033   3.449   2.423  0.4640  1.3922 -0.3297
 9464TIP3   OH252586   6.051   4.810   3.427 -0.4034  0.3908  0.3642
 9464TIP3    H152587   6.135   4.790   3.468 -0.1597 -0.7012 -0.6250
 9464TIP3    H252588   6.008   4.725   3.417 -0.3606  0.5740 -1.8184
 9465TIP3   OH252589   5.966   1.063   0.815  0.0213 -0.0463  0.2796
 9465TIP3    H152590   6.054   1.042   0.783  1.3382  2.6444  1.7210
 9465TIP3    H252591   5.949   0.999   0.884  2.1079  0.9183  1.8296
 9466TIP3   OH252592   1.914   7.441   1.084 -0.6243 -0.1099 -0.1381
 9466TIP3    H152593   1.888   7.468   0.996  0.5918  0.2542 -0.4027
 9466TIP3    H252594   1.831   7.425   1.130 -1.3426  1.7614 -0.6971
 9467TIP3   OH252595   0.548   4.135   1.940 -0.0030  0.3284 -0.2198
 9467TIP3    H152596   0.508   4.140   1.853 -0.2329  0.6606 -0.0968
 9467TIP3    H252597   0.588   4.221   1.953  0.9013 -0.0478 -0.4048
 9468TIP3   OH252598   2.422   6.749   0.819  0.3707 -0.1956 -0.1781
 9468TIP3    H152599   2.494   6.743   0.756 -0.3983 -0.6636 -1.0383
 9468TIP3    H252600   2.465   6.750   0.905  1.4791  1.2107 -0.7046
 9469TIP3   OH252601   5.491   2.785   2.323 -0.0092  0.0356  0.3328
 9469TIP3    H152602   5.527   2.760   2.408  2.0431  0.0912 -0.4671
 9469TIP3    H252603   5.499   2.706   2.270  1.1211  0.7165 -0.5356
 9470TIP3   OH252604   5.799   4.958   2.631  0.1458  0.3456 -0.2868
 9470TIP3    H152605   5.774   4.952   2.539  0.8508 -0.4903 -0.4326
 9470TIP3    H252606   5.733   4.906   2.677  2.1239 -2.9061 -0.7975
 9471TIP3   OH252607   3.912   2.192   2.524 -0.4789 -0.4799  0.6018
 9471TIP3    H152608   3.938   2.129   2.457 -0.1892 -0.9254  1.1190
 9471TIP3    H252609   3.846   2.246   2.482 -2.0513 -2.2461  0.6525
 9472TIP3   OH252610   7.036   2.587   1.414 -0.2362  0.4341  0.1476
 9472TIP3    H152611   7.053   2.680   1.395 -1.8836  0.4376 -1.5745
 9472TIP3    H252612   7.064   2.542   1.334 -1.0723 -0.3614  0.3036
 9473TIP3   OH252613   7.310   7.481   2.990  0.1203  0.0193 -0.2644
 9473TIP3    H152614   7.228   7.460   2.946 -0.6003 -1.0116  1.4813
 9473TIP3    H252615   7.319   7.575   2.981 -1.6350  0.2520  0.1341
 9474TIP3   OH252616   0.482   1.002   2.473  0.2899 -0.0034 -0.5879
 9474TIP3    H152617   0.437   1.075   2.515 -0.2208 -0.1113 -0.9290
 9474TIP3    H252618   0.565   1.038   2.444  1.3935 -0.3162  1.9201
 9475TIP3   OH252619   0.947   6.257   1.213  0.0997 -0.4519 -0.5329
 9475TIP3    H152620   0.931   6.228   1.123  0.9773 -0.8719 -0.5663
 9475TIP3    H252621   1.022   6.204   1.242 -0.7991 -1.0655  0.7984
 9476TIP3   OH252622   7.632   6.904   1.580  0.2296 -0.1607  0.0996
 9476TIP3    H152623   7.564   6.838   1.587  0.3878 -0.2039  1.7705
 9476TIP3    H252624   7.630   6.949   1.665 -0.0007  2.1109 -1.0393
 9477TIP3   OH252625   3.597   0.369   1.380 -0.4501 -0.0494 -0.0785
 9477TIP3    H152626   3.533   0.350   1.448 -0.6848 -1.0040 -0.5461
 9477TIP3    H252627   3.660   0.298   1.386  0.8946  1.1491  0.7258
 9478TIP3   OH252628   5.668   5.710   1.175 -0.2843  0.0860  0.2140
 9478TIP3    H152629   5.680   5.766   1.252 -1.6322 -1.4438  1.6348
 9478TIP3    H252630   5.626   5.766   1.111  0.1640  1.2063  0.8627
 9479TIP3   OH252631   3.201   6.934   2.087  0.0825  0.0355 -0.2695
 9479TIP3    H152632   3.139   7.006   2.092  0.5106  0.4479 -0.7235
 9479TIP3    H252633   3.241   6.943   2.000 -1.6407 -2.2417 -1.4005
 9480TIP3   OH252634   6.479   7.327   1.343 -0.1137  0.1981 -0.3319
 9480TIP3    H152635   6.470   7.414   1.303 -0.3929  1.2353  1.8281
 9480TIP3    H252636   6.548   7.338   1.409  0.8919 -1.6419 -1.0195
 9481TIP3   OH252637   4.415   0.990   1.093  0.0158  0.4795 -0.2403
 9481TIP3    H152638   4.368   0.993   1.176 -1.1392 -2.5679 -0.6657
 9481TIP3    H252639   4.500   1.031   1.112 -0.3821  0.2743  2.2995
 9482TIP3   OH252640   1.551   3.279   2.270 -0.1088  0.4385  0.2132
 9482TIP3    H152641   1.567   3.371   2.289  0.5529  0.0982  1.3647
 9482TIP3    H252642   1.587   3.266   2.182 -0.0849  1.2383  0.0992
 9483TIP3   OH252643   1.967   7.348   2.940 -0.0552 -0.0078 -0.4304
 9483TIP3    H152644   1.888   7.393   2.972 -2.1151 -2.4500 -1.6770
 9483TIP3    H252645   1.956   7.347   2.845  2.1537  0.6545 -0.7337
 9484TIP3   OH252646   4.554   1.595   2.019 -0.2757 -0.4375  0.0217
 9484TIP3    H152647   4.472   1.635   2.047  0.9695  2.8130 -0.5999
 9484TIP3    H252648   4.621   1.634   2.075  1.0905 -1.4478 -0.8317
 9485TIP3   OH252649   6.856   7.326   1.554  0.2302  0.0473  0.3570
 9485TIP3    H152650   6.932   7.284   1.593  1.9333  2.9939  0.4484
 9485TIP3    H252651   6.881   7.340   1.462 -0.4610  0.4996  0.2300
 9486TIP3   OH252652   5.480   2.228   2.553  0.2273 -0.2731 -0.0838
 9486TIP3    H152653   5.447   2.298   2.610  0.1713 -1.0624  0.8859
 9486TIP3    H252654   5.429   2.151   2.578  0.8886 -0.8640 -0.5115
 9487TIP3   OH252655   0.926   6.347   3.395 -0.2007 -0.0887 -0.5367
 9487TIP3    H152656   0.926   6.304   3.481 -0.6445  0.2921 -0.3413
 9487TIP3    H252657   0.838   6.333   3.361 -0.1757  0.1817 -0.7148
 9488TIP3   OH252658   0.268   2.716   2.003 -0.0766  0.3107 -0.2647
 9488TIP3    H152659   0.363   2.714   2.020  0.0251  1.1815 -0.6931
 9488TIP3    H252660   0.254   2.795   1.952 -1.0989  0.3992  0.1234
 9489TIP3   OH252661   0.766   3.642   2.203 -0.3117  0.1395  0.1682
 9489TIP3    H152662   0.827   3.569   2.215  0.5124  0.9071  0.8374
 9489TIP3    H252663   0.745   3.670   2.292  0.2396  1.3922 -0.0767
 9490TIP3   OH252664   3.897   6.720   2.323 -0.2985 -0.1973 -0.2320
 9490TIP3    H152665   3.876   6.627   2.330 -1.0134 -0.1471 -1.4085
 9490TIP3    H252666   3.981   6.722   2.278 -0.5160 -0.2821 -0.6558
 9491TIP3   OH252667   2.453   4.776   1.542  0.3836  0.5458 -1.1113
 9491TIP3    H152668   2.409   4.695   1.514  0.9825 -0.2071  0.0519
 9491TIP3    H252669   2.386   4.844   1.533 -0.4883 -0.2748 -1.0241
 9492TIP3   OH252670   3.497   6.567   2.197 -0.5642 -0.6238  0.0281
 9492TIP3    H152671   3.562   6.510   2.239  0.3420  0.2620 -0.1256
 9492TIP3    H252672   3.541   6.599   2.118 -1.9349 -1.5936 -1.1740
 9493TIP3   OH252673   4.867   6.308   1.213 -0.6790 -0.1514 -0.0262
 9493TIP3    H152674   4.861   6.215   1.235 -2.2206 -0.5769 -1.9529
 9493TIP3    H252675   4.930   6.343   1.276 -0.6476 -2.3185  1.2676
 9494TIP3   OH252676   3.292   0.964   2.796  0.6655  0.0843 -0.3209
 9494TIP3    H152677   3.356   1.028   2.765  2.3603 -1.0375  0.6905
 9494TIP3    H252678   3.284   0.982   2.890  2.2158 -1.9780  0.2688
 9495TIP3   OH252679   0.630   5.899   3.525 -0.6984 -0.1681  0.2581
 9495TIP3    H152680   0.715   5.855   3.518 -0.4333  0.0588  1.6169
 9495TIP3    H252681   0.590   5.889   3.439  1.0002  0.3476 -0.6385
 9496TIP3   OH252682   5.215   7.537   3.265  0.0160  0.5681 -0.0668
 9496TIP3    H152683   5.238   7.466   3.205 -0.5168 -0.1616  0.5797
 9496TIP3    H252684   5.292   7.546   3.321 -0.9343 -1.4582  1.6937
 9497TIP3   OH252685   5.449   2.889   1.840  0.1109  0.7823 -0.1255
 9497TIP3    H152686   5.401   2.825   1.787  0.0518 -0.7580  1.6495
 9497TIP3    H252687   5.383   2.951   1.869 -0.3445  0.1654  0.1877
 9498TIP3   OH252688   4.704   6.791   1.616 -0.5494  0.1477 -0.0410
 9498TIP3    H152689   4.613   6.777   1.640 -0.5545 -0.0562 -0.1859
 9498TIP3    H252690   4.701   6.857   1.547 -0.4459  1.9546  1.5853
 9499TIP3   OH252691   5.921   7.483   1.648  0.5416  0.1501  0.2388
 9499TIP3    H152692   5.954   7.435   1.571  1.0721  0.6289  0.1550
 9499TIP3    H252693   5.991   7.545   1.668  0.4751 -0.0784  1.2118
 9500TIP3   OH252694   6.752   0.859   3.127 -0.3667 -0.7992 -0.0365
 9500TIP3    H152695   6.720   0.772   3.102  0.1298 -1.3574  1.1459
 9500TIP3    H252696   6.817   0.841   3.196  1.0078  0.4084 -0.9501
 9501TIP3   OH252697   0.084   5.231   0.972 -0.2805  0.5376  0.1593
 9501TIP3    H152698   0.172   5.249   1.007 -0.9706  1.6786  1.3879
 9501TIP3    H252699   0.095   5.150   0.921  1.1447 -0.2617  1.6249
 9502TIP3   OH252700   5.803   5.915   1.694 -0.0973  0.1302  0.0186
 9502TIP3    H152701   5.782   5.968   1.617  0.6746  0.9989  0.3981
 9502TIP3    H252702   5.895   5.893   1.684 -0.3725 -1.0528 -0.0679
 9503TIP3   OH252703   4.622   1.472   1.134 -0.2681 -0.6394  0.0773
 9503TIP3    H152704   4.702   1.418   1.134  0.2454  0.0714  1.3463
 9503TIP3    H252705   4.576   1.445   1.213 -0.5846 -0.0498  0.0940
 9504TIP3   OH252706   0.053   4.585   1.645  0.5373  0.0940  0.6061
 9504TIP3    H152707   0.038   4.632   1.727 -0.6439  1.4996 -0.3595
 9504TIP3    H252708  -0.031   4.591   1.599  0.5855 -2.3184  0.0860
 9505TIP3   OH252709   4.602   1.344   2.160 -0.3657 -0.2862  0.2678
 9505TIP3    H152710   4.531   1.298   2.116 -1.1131  0.2116  0.9105
 9505TIP3    H252711   4.610   1.427   2.114 -1.2988  0.3302  1.1565
 9506TIP3   OH252712   7.196   5.104   1.836  0.4941 -0.6946 -0.7574
 9506TIP3    H152713   7.287   5.131   1.822  0.6285 -0.0784  1.0271
 9506TIP3    H252714   7.146   5.156   1.772  1.0977  1.4791  0.4104
 9507TIP3   OH252715   6.843   1.613   2.420  0.0094  0.4935  0.0968
 9507TIP3    H152716   6.880   1.558   2.350 -1.6751  0.6294 -0.9508
 9507TIP3    H252717   6.771   1.562   2.455  1.4403 -0.0268  2.5371
 9508TIP3   OH252718   0.128   4.384   0.573  0.0163 -0.3781 -0.3259
 9508TIP3    H152719   0.087   4.451   0.518  1.3676 -0.4381 -1.4326
 9508TIP3    H252720   0.060   4.316   0.582 -0.1841 -0.4472 -2.0729
 9509TIP3   OH252721   4.331   4.989   1.460  0.6095 -0.0682 -0.4863
 9509TIP3    H152722   4.262   5.019   1.401  0.2159 -0.1794 -0.0954
 9509TIP3    H252723   4.393   4.943   1.404 -0.2408 -1.0086 -0.6844
 9510TIP3   OH252724   4.419   0.178   2.308 -0.4152  0.4777 -0.9074
 9510TIP3    H152725   4.428   0.247   2.242  0.6817  0.4884 -0.7672
 9510TIP3    H252726   4.505   0.136   2.310 -0.8015 -0.2982 -0.3338
 9511TIP3   OH252727   6.507   6.790   0.486 -0.3962 -0.6936  0.0963
 9511TIP3    H152728   6.498   6.883   0.509  1.9866  0.4109 -2.7327
 9511TIP3    H252729   6.532   6.747   0.567 -2.5943  0.8521  1.7300
 9512TIP3   OH252730   1.584   1.892   3.204  0.6857  0.2182 -0.1731
 9512TIP3    H152731   1.489   1.893   3.187  0.5926 -0.6851  0.2263
 9512TIP3    H252732   1.623   1.922   3.122  0.0429  1.0484 -0.1947
 9513TIP3   OH252733   5.998   6.965   1.023  0.0977 -0.0230 -0.4612
 9513TIP3    H152734   6.091   6.981   1.040  0.1135 -0.3067 -0.2658
 9513TIP3    H252735   5.980   7.013   0.943  0.0667  1.2013  0.2590
 9514TIP3   OH252736   5.870   2.293   0.872  0.0127  0.0053  0.0575
 9514TIP3    H152737   5.964   2.307   0.878 -0.1327  0.5431  1.2045
 9514TIP3    H252738   5.855   2.211   0.920  0.0645 -0.8762 -1.3737
 9515TIP3   OH252739   1.630   4.774   1.254  0.7582 -0.7624 -0.0720
 9515TIP3    H152740   1.695   4.705   1.264  0.8815 -0.6158  0.1384
 9515TIP3    H252741   1.583   4.775   1.337  0.7859 -0.5646 -0.0577
 9516TIP3   OH252742   5.988   0.434   0.621  0.1636  0.3713 -0.0461
 9516TIP3    H152743   5.995   0.464   0.712 -0.9537 -1.4490  0.7046
 9516TIP3    H252744   5.910   0.378   0.620  0.6360 -0.3474 -1.9233
 9517TIP3   OH252745   0.355   7.661   1.949  0.2553  0.4404 -0.1860
 9517TIP3    H152746   0.447   7.648   1.972  0.2569  1.2802  0.3379
 9517TIP3    H252747   0.327   7.578   1.911  0.2992 -1.0495  2.7481
 9518TIP3   OH252748   4.518   7.294   1.414 -0.2040 -0.5417 -0.2663
 9518TIP3    H152749   4.511   7.274   1.320 -0.3847 -3.5317  0.2698
 9518TIP3    H252750   4.610   7.319   1.426 -0.6266  1.9232 -1.4753
 9519TIP3   OH252751   3.267   0.235   1.376 -0.1517  0.2483 -0.0725
 9519TIP3    H152752   3.235   0.157   1.421  3.1292 -1.9509 -1.1711
 9519TIP3    H252753   3.314   0.284   1.444  1.5205 -1.0833 -0.2139
 9520TIP3   OH252754   2.952   2.196   3.327  0.7624  0.2269 -0.2747
 9520TIP3    H152755   2.947   2.197   3.232 -2.4890  0.3726 -0.2067
 9520TIP3    H252756   2.964   2.103   3.350  1.0471  0.1351 -0.7727
 9521TIP3   OH252757   6.883   1.293   1.790  0.2158  0.5405  0.1227
 9521TIP3    H152758   6.838   1.341   1.721 -2.5297 -1.2085  0.5318
 9521TIP3    H252759   6.937   1.229   1.744 -0.3814  0.4133 -0.4092
 9522TIP3   OH252760   3.636   4.134   1.270  0.4833  0.1621 -0.0811
 9522TIP3    H152761   3.665   4.182   1.192 -2.0909 -0.3981 -1.4856
 9522TIP3    H252762   3.576   4.195   1.313  2.2652  0.6641  1.8397
 9523TIP3   OH252763   3.596   0.249   0.627 -0.2495  0.2658 -0.3750
 9523TIP3    H152764   3.648   0.329   0.615 -1.5753  1.6144  2.0833
 9523TIP3    H252765   3.508   0.272   0.597 -0.5816 -0.3578  0.0925
 9524TIP3   OH252766   5.932   7.237   3.126  0.1016  0.2848 -0.1256
 9524TIP3    H152767   5.942   7.148   3.160 -0.0171 -0.0849 -1.0321
 9524TIP3    H252768   5.897   7.225   3.037  1.4176  1.1811 -0.7872
 9525TIP3   OH252769   0.187   0.164   1.292  0.0593 -0.1614 -0.4054
 9525TIP3    H152770   0.182   0.228   1.363  0.3101  0.6309 -1.0869
 9525TIP3    H252771   0.097   0.133   1.281  0.0776 -0.5314  0.4696
 9526TIP3   OH252772   2.090   2.142   0.747  0.0135  0.4588 -0.1398
 9526TIP3    H152773   2.121   2.055   0.770 -1.4127  0.0793  0.5150
 9526TIP3    H252774   2.168   2.197   0.748  0.7646 -0.5822  0.6134
 9527TIP3   OH252775   4.230   4.504   1.725  0.7064  0.2653  0.2731
 9527TIP3    H152776   4.296   4.459   1.673  2.2339  1.2578  1.2957
 9527TIP3    H252777   4.246   4.597   1.708 -1.7091  0.5395 -0.9810
 9528TIP3   OH252778   3.273   7.421   1.916 -0.1019 -0.0736  0.3362
 9528TIP3    H152779   3.254   7.342   1.865 -0.8578 -0.7793  1.6551
 9528TIP3    H252780   3.188   7.464   1.926  0.2370  0.6914 -0.0049
 9529TIP3   OH252781   1.879   7.314   0.670 -0.3829 -0.2550  0.0666
 9529TIP3    H152782   1.967   7.288   0.697 -0.7024 -1.5106 -0.0177
 9529TIP3    H252783   1.864   7.398   0.714  1.2846  0.5909 -0.8563
 9530TIP3   OH252784   6.244   3.651   1.058  0.6212 -0.1690 -0.3060
 9530TIP3    H152785   6.261   3.562   1.090 -0.5035  0.2255  1.5434
 9530TIP3    H252786   6.325   3.698   1.076  0.4416 -0.2731  0.9127
 9531TIP3   OH252787   4.820   2.927   1.789 -0.1685 -0.4018  0.1584
 9531TIP3    H152788   4.851   2.883   1.710 -0.0527 -1.6758  0.8861
 9531TIP3    H252789   4.737   2.968   1.763  0.4018  0.1203 -0.8946
 9532TIP3   OH252790   5.055   2.910   0.935  0.5997 -0.0243 -0.7590
 9532TIP3    H152791   5.071   2.957   0.854  1.1249  1.3379  0.0922
 9532TIP3    H252792   5.131   2.930   0.990 -0.6363  0.7269  0.7708
 9533TIP3   OH252793   2.487   1.729   1.845 -0.3338 -0.7196  0.1258
 9533TIP3    H152794   2.522   1.655   1.894  1.3024  0.1928  0.3859
 9533TIP3    H252795   2.535   1.804   1.877 -1.2463  0.3263 -0.8718
 9534TIP3   OH252796   3.237   3.480   0.669  0.3962 -0.3101 -0.0578
 9534TIP3    H152797   3.204   3.536   0.740  1.2323 -0.1312  0.2019
 9534TIP3    H252798   3.205   3.522   0.589 -1.0626 -0.8532  0.2298
 9535TIP3   OH252799   3.666   6.169   1.241  0.6405 -0.0537  0.1820
 9535TIP3    H152800   3.681   6.075   1.252  1.2459  0.1913  1.6597
 9535TIP3    H252801   3.737   6.210   1.291  0.8154  1.2066 -1.0427
 9536TIP3   OH252802   3.876   1.186   1.733  0.2142 -0.2103  0.6798
 9536TIP3    H152803   3.860   1.232   1.651 -2.4553 -0.7977  0.7787
 9536TIP3    H252804   3.956   1.226   1.768  0.6479  1.0014 -1.4915
 9537TIP3   OH252805   5.348   0.989   2.491 -0.1296  0.1355 -0.3193
 9537TIP3    H152806   5.334   0.946   2.575  2.9547  1.2896  0.9244
 9537TIP3    H252807   5.426   0.947   2.455  0.1295  1.4168 -1.3476
 9538TIP3   OH252808   1.341   6.260   1.720 -0.4145  0.2404  0.0530
 9538TIP3    H152809   1.424   6.235   1.761  1.2867 -0.2303 -3.3748
 9538TIP3    H252810   1.302   6.177   1.692 -1.6487  0.5336  0.8107
 9539TIP3   OH252811   7.381   1.309   3.343  0.2837 -0.3915 -0.0547
 9539TIP3    H152812   7.394   1.320   3.248  0.4849 -2.0447 -0.2503
 9539TIP3    H252813   7.304   1.253   3.350  0.7397 -0.9343  0.7318
 9540TIP3   OH252814   5.097   3.413   1.486  0.2292 -0.6501 -0.1064
 9540TIP3    H152815   5.187   3.380   1.488  0.7375  0.6414 -0.5909
 9540TIP3    H252816   5.100   3.488   1.426 -0.5488  1.1821  1.9892
 9541TIP3   OH252817   3.928   3.220   0.665 -0.5112 -0.4347 -0.3020
 9541TIP3    H152818   3.902   3.148   0.607 -2.0934 -0.6251  0.6073
 9541TIP3    H252819   3.893   3.196   0.751  0.5305  0.5552  0.4332
 9542TIP3   OH252820   6.778   6.733   2.686 -0.4402 -0.1344 -0.8517
 9542TIP3    H152821   6.795   6.828   2.689  0.0432 -0.2095  2.3957
 9542TIP3    H252822   6.694   6.725   2.640 -1.3483  2.0639  0.2652
 9543TIP3   OH252823   6.177   6.866   1.233 -0.1806  0.4714 -0.5058
 9543TIP3    H152824   6.168   6.959   1.254 -0.2521  0.7258 -1.5891
 9543TIP3    H252825   6.248   6.862   1.170  0.6852 -0.3796  0.4943
 9544TIP3   OH252826   0.326   5.493   2.083 -0.4111  0.2084  0.3244
 9544TIP3    H152827   0.230   5.499   2.091 -0.2524  1.8633  1.5521
 9544TIP3    H252828   0.348   5.550   2.010 -0.4149 -1.0899 -0.7340
 9545TIP3   OH252829   4.282   0.289   1.882  0.5482  0.1991 -0.0548
 9545TIP3    H152830   4.330   0.226   1.828  0.0825  0.2169 -0.5005
 9545TIP3    H252831   4.245   0.351   1.819 -0.8505 -0.3593  0.1689
 9546TIP3   OH252832   1.721   6.356   1.740 -0.6350 -0.0748 -0.2935
 9546TIP3    H152833   1.771   6.276   1.730  0.4227  0.2653  1.6943
 9546TIP3    H252834   1.706   6.363   1.834 -1.6100  1.5234 -0.5308
 9547TIP3   OH252835   4.100   0.615   2.163 -0.0099 -0.0380  0.2262
 9547TIP3    H152836   4.039   0.600   2.236 -1.8967  0.5636 -1.1486
 9547TIP3    H252837   4.085   0.542   2.103 -0.6022  0.9651 -0.8906
 9548TIP3   OH252838   2.087   0.506   0.757 -0.3700 -0.5247 -0.0286
 9548TIP3    H152839   2.164   0.563   0.760  0.6506 -1.8776  0.6279
 9548TIP3    H252840   2.021   0.558   0.711  0.6724  0.9720  0.0730
 9549TIP3   OH252841   3.629   6.804   3.613  0.1203 -0.4167 -0.0812
 9549TIP3    H152842   3.702   6.852   3.573 -0.5955 -0.1831 -1.1362
 9549TIP3    H252843   3.668   6.723   3.645  0.9488 -0.0417 -0.1233
 9550TIP3   OH252844   1.212   0.969   1.124 -0.3726 -0.0585 -0.2543
 9550TIP3    H152845   1.275   0.928   1.183  1.4440  0.6330 -1.6253
 9550TIP3    H252846   1.173   1.040   1.176 -1.6454 -1.7893  1.2859
 9551TIP3   OH252847   5.100   6.940   0.974  0.6086  0.0481 -0.1159
 9551TIP3    H152848   5.018   6.989   0.980  0.1539 -0.4845 -1.5865
 9551TIP3    H252849   5.151   6.968   1.051 -0.6105  0.9916  0.3699
 9552TIP3   OH252850   6.921   0.067   0.780 -0.1928 -0.1310 -0.0527
 9552TIP3    H152851   6.920  -0.006   0.717  0.9742 -0.6726  0.5299
 9552TIP3    H252852   6.911   0.145   0.725  0.9732 -0.5776 -0.9683
 9553TIP3   OH252853   2.927   1.289   3.134  0.2829 -0.3496  0.0322
 9553TIP3    H152854   2.843   1.256   3.103  0.3102 -0.7269  0.3607
 9553TIP3    H252855   2.905   1.346   3.208  0.2294  0.4453 -0.5782
 9554TIP3   OH252856   2.621   7.007   0.722  0.4663  0.1132  0.2436
 9554TIP3    H152857   2.580   7.038   0.803  0.3521  0.5707  0.0114
 9554TIP3    H252858   2.560   7.033   0.653 -0.1267 -1.4848  0.1155
 9555TIP3   OH252859   4.052   6.907   1.964  0.4923 -0.1073  0.7307
 9555TIP3    H152860   4.012   6.981   2.009  2.2219  1.6010 -0.3762
 9555TIP3    H252861   3.989   6.883   1.895  0.7898  1.7608 -0.2523
 9556TIP3   OH252862   5.610   4.205   3.059 -0.1348 -0.1970 -0.6179
 9556TIP3    H152863   5.640   4.229   2.971  0.0871  3.4644  0.2971
 9556TIP3    H252864   5.542   4.269   3.079 -0.8425 -1.5301  1.5763
 9557TIP3   OH252865   3.208   1.919   0.914 -0.1017  0.2179  0.0349
 9557TIP3    H152866   3.177   1.854   0.977 -1.2451  0.6213 -0.0937
 9557TIP3    H252867   3.241   1.866   0.841  1.0979 -0.2475  0.8803
 9558TIP3   OH252868   6.950   0.743   3.327 -0.8031 -0.3802 -0.0804
 9558TIP3    H152869   7.018   0.796   3.286 -1.2912  0.4117  0.1075
 9558TIP3    H252870   6.997   0.680   3.381 -0.2277  1.5947  1.8485
 9559TIP3   OH252871   0.009   6.656   1.765 -0.2441 -0.2386 -0.0898
 9559TIP3    H152872   0.078   6.629   1.704  0.1796 -0.5926  0.5414
 9559TIP3    H252873  -0.057   6.587   1.759 -1.3928  0.9045 -1.9574
 9560TIP3   OH252874   4.008   0.860   0.834  0.3752  0.7108 -0.1530
 9560TIP3    H152875   3.936   0.916   0.863  0.1145  0.8705 -1.0589
 9560TIP3    H252876   4.077   0.872   0.900 -1.1382 -1.0364  1.8705
 9561TIP3   OH252877   2.559   5.163   2.877 -0.0510 -0.4468 -0.4564
 9561TIP3    H152878   2.495   5.119   2.933 -1.0445 -1.0226 -1.9704
 9561TIP3    H252879   2.644   5.139   2.914 -0.6423 -1.9246  0.0133
 9562TIP3   OH252880   7.542   2.160   2.324  0.4862 -0.5009 -0.2605
 9562TIP3    H152881   7.588   2.088   2.282  1.9410 -0.7638  1.6234
 9562TIP3    H252882   7.603   2.234   2.318 -1.2786  0.9167 -2.8416
 9563TIP3   OH252883   2.236   3.707   1.304 -0.2803  0.6470  0.3501
 9563TIP3    H152884   2.221   3.749   1.388 -1.2443  1.1278 -0.0490
 9563TIP3    H252885   2.230   3.613   1.323 -0.4113  0.7481  0.8240
 9564TIP3   OH252886   2.177   6.814   1.412  0.0658 -0.8279  0.1528
 9564TIP3    H152887   2.138   6.727   1.409 -2.3181  0.1699 -0.9355
 9564TIP3    H252888   2.258   6.807   1.361 -0.8861 -2.0821 -1.2648
 9565TIP3   OH252889   4.094   0.835   1.992  0.0107  0.0363  0.2978
 9565TIP3    H152890   4.099   0.918   2.040  2.4554 -0.3450  0.8258
 9565TIP3    H252891   4.114   0.768   2.057  1.8177 -0.6275 -0.8709
 9566TIP3   OH252892   5.215   4.373   2.197 -0.6887 -0.4413  0.4198
 9566TIP3    H152893   5.310   4.387   2.193 -0.4358 -2.2362 -1.8356
 9566TIP3    H252894   5.201   4.335   2.284  0.5895  0.1392  0.9113
 9567TIP3   OH252895   4.223   3.608   2.245  0.8161  0.3252  0.1266
 9567TIP3    H152896   4.131   3.586   2.259  0.9345 -0.4703 -0.2358
 9567TIP3    H252897   4.222   3.671   2.172  0.6310 -0.8785 -0.9575
 9568TIP3   OH252898   4.871   0.510   1.232  0.3373 -0.5118  0.0238
 9568TIP3    H152899   4.787   0.464   1.239 -0.2433  0.1839 -1.7760
 9568TIP3    H252900   4.848   0.598   1.203  1.7077 -0.4977 -1.1318
 9569TIP3   OH252901   7.145   1.072   2.983 -0.2340 -0.3214  0.0543
 9569TIP3    H152902   7.092   1.131   2.929 -0.7627 -0.2580  0.6398
 9569TIP3    H252903   7.230   1.115   2.990 -0.3290 -0.0758 -0.2868
 9570TIP3   OH252904   1.409   4.949   1.725 -0.0340  0.0542 -0.0910
 9570TIP3    H152905   1.472   5.021   1.719  3.2609 -2.5185  0.5603
 9570TIP3    H252906   1.398   4.936   1.820  0.9121 -1.3844 -0.1432
 9571TIP3   OH252907   2.352   1.918   2.601 -0.1874  0.5138  0.0765
 9571TIP3    H152908   2.332   1.827   2.578 -0.3769  1.1160 -2.4535
 9571TIP3    H252909   2.273   1.949   2.645 -0.6473 -0.1733 -0.2421
 9572TIP3   OH252910   5.402   3.632   1.588 -0.1451  0.8561  0.4967
 9572TIP3    H152911   5.456   3.570   1.539  0.3256  1.0592  0.7567
 9572TIP3    H252912   5.314   3.596   1.582 -0.2642  1.3448 -1.2757
 9573TIP3   OH252913   4.725   1.183   1.865 -0.0165 -0.0536  0.7412
 9573TIP3    H152914   4.636   1.152   1.853  0.9764 -3.3924  0.8481
 9573TIP3    H252915   4.779   1.121   1.816  2.2772  1.8915  0.5957
 9574TIP3   OH252916   3.958   5.379   1.127  0.9422 -0.1998 -0.0239
 9574TIP3    H152917   4.033   5.436   1.112  0.9147 -0.4668 -1.3226
 9574TIP3    H252918   3.976   5.336   1.210  0.5142  2.3836  1.5073
 9575TIP3   OH252919   0.064   2.408   1.485 -0.2149 -0.0725  0.3447
 9575TIP3    H152920   0.035   2.497   1.507 -0.8836 -0.8057  2.6705
 9575TIP3    H252921   0.000   2.378   1.421 -0.4647  0.8336  0.1478
 9576TIP3   OH252922   1.891   6.404   2.731 -0.1210 -0.4700 -0.0346
 9576TIP3    H152923   1.883   6.358   2.814  2.1199  1.5131  1.4367
 9576TIP3    H252924   1.805   6.443   2.717 -1.2425 -2.7473  0.0548
 9577TIP3   OH252925   5.155   1.627   2.828  0.3637 -0.2271 -0.1830
 9577TIP3    H152926   5.115   1.713   2.815  0.8742 -0.0537 -0.6422
 9577TIP3    H252927   5.091   1.566   2.791 -0.7414 -0.2107  1.5705
 9578TIP3   OH252928   5.968   6.325   2.764  0.3769 -0.1931 -0.2419
 9578TIP3    H152929   5.981   6.329   2.669  1.5731  0.6793 -0.0623
 9578TIP3    H252930   5.915   6.402   2.784  0.2907 -0.2700 -0.1742
 9579TIP3   OH252931   1.594   7.651   1.277  0.1031  0.1490 -0.2531
 9579TIP3    H152932   1.601   7.576   1.337  0.4808 -0.1513 -0.6669
 9579TIP3    H252933   1.676   7.699   1.288 -0.3823  0.8416  0.4472
 9580TIP3   OH252934   0.761   0.451   1.252 -0.1370 -0.1015  0.5694
 9580TIP3    H152935   0.855   0.440   1.260  0.2831 -1.8020 -3.9235
 9580TIP3    H252936   0.749   0.545   1.238  0.9337  0.0662  0.7127
 9581TIP3   OH252937   7.400   1.334   2.814  0.9808  0.1661  0.0651
 9581TIP3    H152938   7.342   1.398   2.772 -0.2128 -0.4629  0.6875
 9581TIP3    H252939   7.394   1.256   2.759  1.5294  0.2106 -0.0617
 9582TIP3   OH252940   1.171   4.655   2.572 -0.2227  0.1861  0.3968
 9582TIP3    H152941   1.195   4.602   2.496 -2.2236 -0.2829  0.0569
 9582TIP3    H252942   1.118   4.726   2.537 -0.3474  0.5288  1.2542
 9583TIP3   OH252943   4.816   5.463   1.477  0.4232  0.1055  0.1487
 9583TIP3    H152944   4.734   5.428   1.441 -0.4781 -1.3397  3.2438
 9583TIP3    H252945   4.790   5.544   1.521  1.4639  1.7359 -2.0509
 9584TIP3   OH252946   6.887   1.623   1.567 -0.3224 -0.1866  0.3574
 9584TIP3    H152947   6.832   1.689   1.608 -2.9072 -0.8529 -1.7888
 9584TIP3    H252948   6.895   1.650   1.476  0.4707 -1.6273 -0.0400
 9585TIP3   OH252949   2.458   3.241   1.492  0.5112  0.1023  0.7852
 9585TIP3    H152950   2.450   3.275   1.403 -0.5768  1.0296  1.2170
 9585TIP3    H252951   2.481   3.149   1.481  1.8667  0.5478 -0.4274
 9586TIP3   OH252952   0.907   1.570   1.545 -0.2352 -0.4450  0.6288
 9586TIP3    H152953   0.993   1.539   1.572 -0.4344 -0.1760  1.6262
 9586TIP3    H252954   0.902   1.660   1.579 -0.8428 -0.4052  0.4522
 9587TIP3   OH252955   0.621   0.042   1.141 -0.1768 -0.3181  0.3622
 9587TIP3    H152956   0.613   0.028   1.235  1.3502  2.8583  1.0982
 9587TIP3    H252957   0.542   0.091   1.117  1.4526  2.9256  1.0726
 9588TIP3   OH252958   3.588   7.668   1.599 -0.2924  0.1755  0.0853
 9588TIP3    H152959   3.521   7.676   1.666 -1.0376 -1.5229 -0.3870
 9588TIP3    H252960   3.543   7.627   1.525  1.0901 -0.3529 -0.5045
 9589TIP3   OH252961   4.659   3.028   3.476 -0.2019  0.2674  0.0020
 9589TIP3    H152962   4.703   3.021   3.561 -0.1215  0.1148 -0.0502
 9589TIP3    H252963   4.683   3.115   3.444  0.7139 -0.1092 -0.3779
 9590TIP3   OH252964   2.987   5.805   0.835  0.3219 -0.2004 -0.4160
 9590TIP3    H152965   2.893   5.808   0.854  0.4151 -0.1921  0.0605
 9590TIP3    H252966   2.992   5.799   0.740 -0.1919 -1.7780 -0.3630
 9591TIP3   OH252967   6.071   3.441   1.400 -0.3662 -0.1023  0.1302
 9591TIP3    H152968   6.146   3.387   1.424 -0.0686 -1.2234 -2.9213
 9591TIP3    H252969   6.095   3.530   1.427  2.4501 -0.2979 -1.4452
 9592TIP3   OH252970   0.961   6.265   3.129 -0.8565  0.3189  0.5186
 9592TIP3    H152971   1.004   6.340   3.170 -0.5957 -1.1087  3.0669
 9592TIP3    H252972   0.868   6.282   3.138 -0.8313 -0.3956  2.7546
 9593TIP3   OH252973   3.138   6.326   0.631  0.0965 -0.0857  0.5352
 9593TIP3    H152974   3.128   6.401   0.573  1.5602  0.7684  1.3289
 9593TIP3    H252975   3.217   6.345   0.682  0.6391 -2.2577  0.6215
 9594TIP3   OH252976   4.116   2.953   3.292 -0.2198  0.0129  0.2547
 9594TIP3    H152977   4.073   3.032   3.261  0.7276  1.7105  2.9371
 9594TIP3    H252978   4.179   2.931   3.223 -1.0776  1.0860 -0.9097
 9595TIP3   OH252979   5.973   4.632   1.701  0.0533  0.8190  0.1093
 9595TIP3    H152980   5.915   4.630   1.625 -0.3031  1.8790  0.3386
 9595TIP3    H252981   6.035   4.703   1.681  1.3853 -0.3878 -0.2046
 9596TIP3   OH252982   2.727   1.082   0.765  0.4104 -0.1579 -0.1020
 9596TIP3    H152983   2.721   0.988   0.753 -0.7478 -0.6929  3.5292
 9596TIP3    H252984   2.811   1.096   0.808 -0.4913  0.0766  1.6714
 9597TIP3   OH252985   5.194   0.478   3.208  0.3044  0.3965  0.1141
 9597TIP3    H152986   5.118   0.528   3.238  0.5978 -0.1494  1.8591
 9597TIP3    H252987   5.158   0.413   3.148 -0.5606  0.3342  0.6933
 9598TIP3   OH252988   4.930   6.821   2.940 -0.8042  0.1591 -0.1229
 9598TIP3    H152989   4.885   6.882   2.999 -1.0822 -0.3228  0.1672
 9598TIP3    H252990   4.935   6.868   2.856 -1.1499  0.5241  0.0579
 9599TIP3   OH252991   5.464   6.847   1.153 -0.0036 -0.3061  0.3927
 9599TIP3    H152992   5.386   6.900   1.168  0.3581 -0.2936  2.5903
 9599TIP3    H252993   5.531   6.910   1.126 -0.3626 -0.1138 -0.0724
 9600TIP3   OH252994   5.684   6.914   1.921  0.0909 -0.5210 -0.2833
 9600TIP3    H152995   5.614   6.866   1.965  0.9613 -1.8975 -0.3095
 9600TIP3    H252996   5.764   6.869   1.949  0.8168 -0.1959 -1.7315
 9601TIP3   OH252997   6.988   2.085   0.484  0.5039  0.4009  0.0817
 9601TIP3    H152998   6.921   2.141   0.523  1.6612  0.6888  1.8031
 9601TIP3    H252999   7.068   2.138   0.486  1.1885 -0.5985 -0.1375
 9602TIP3   OH253000   3.740   7.671   2.391  0.0233  0.2767 -0.1982
 9602TIP3    H153001   3.811   7.625   2.346 -0.4175  0.3613 -1.0083
 9602TIP3    H253002   3.691   7.713   2.320 -1.2492 -0.3601  0.2875
 9603TIP3   OH253003   0.654   2.224   1.354  0.2844 -0.2118 -0.3756
 9603TIP3    H153004   0.601   2.205   1.431 -1.6121 -0.1020 -1.5888
 9603TIP3    H253005   0.727   2.162   1.359 -0.5551 -1.1461  0.7797
 9604TIP3   OH253006   0.452   6.483   2.526 -0.1353 -0.8242  0.6741
 9604TIP3    H153007   0.522   6.417   2.524 -1.5655 -2.4236  0.3201
 9604TIP3    H253008   0.405   6.469   2.444 -0.7670  0.3285  0.8298
 9605TIP3   OH253009   0.659   3.841   1.886  0.2092 -0.3970  0.3215
 9605TIP3    H153010   0.628   3.931   1.876  0.7332 -0.1909  0.4989
 9605TIP3    H253011   0.580   3.790   1.903 -0.4342 -0.3502 -2.0637
 9606TIP3   OH253012   2.911   1.382   2.833  0.1650  0.5868  0.0320
 9606TIP3    H153013   2.920   1.420   2.921 -0.7647 -0.7488  0.7494
 9606TIP3    H253014   2.861   1.447   2.784 -2.8965 -0.3106  1.7207
 9607TIP3   OH253015   0.872   2.578   2.088  0.5501 -0.1445 -0.2564
 9607TIP3    H153016   0.813   2.586   2.164 -1.6832 -1.2189 -1.7507
 9607TIP3    H253017   0.917   2.495   2.102  0.5469 -0.0816  0.1562
 9608TIP3   OH253018   1.566   0.409   1.431 -0.1736  0.2504 -0.3778
 9608TIP3    H153019   1.618   0.487   1.451 -0.4262  0.4766 -0.5998
 9608TIP3    H253020   1.561   0.408   1.335 -0.7751  0.3625 -0.3524
 9609TIP3   OH253021   3.543   4.667   2.793 -0.3575  0.3673  0.0009
 9609TIP3    H153022   3.555   4.578   2.825  0.4348  0.3837 -0.2320
 9609TIP3    H253023   3.578   4.666   2.704 -0.0338  0.9924  0.1160
 9610TIP3   OH253024   5.327   4.101   3.621  0.4555 -0.1287 -0.8337
 9610TIP3    H153025   5.263   4.068   3.684  0.6527 -1.0766 -1.1117
 9610TIP3    H253026   5.354   4.185   3.656 -0.4119 -0.0440 -0.3392
 9611TIP3   OH253027   2.957   1.696   2.042 -0.2254  0.0869 -0.2801
 9611TIP3    H153028   2.923   1.694   2.131 -0.9846 -1.4401 -0.5651
 9611TIP3    H253029   3.042   1.652   2.048  0.1514  0.8271 -0.1539
 9612TIP3   OH253030   7.657   5.999   3.488  0.0431  0.1226 -0.0942
 9612TIP3    H153031   7.576   6.009   3.538 -1.3028 -1.7288 -1.7615
 9612TIP3    H253032   7.667   5.905   3.476  1.2596  0.4117 -1.7730
 9613TIP3   OH253033   4.238   5.741   3.323 -0.2026 -0.2102 -0.0421
 9613TIP3    H153034   4.319   5.745   3.375  0.0549  0.7685 -0.5057
 9613TIP3    H253035   4.269   5.728   3.233 -0.5340  0.7704 -0.2999
 9614TIP3   OH253036   5.192   0.008   2.172  0.4703  0.5085 -0.2882
 9614TIP3    H153037   5.275   0.054   2.158  0.9257  0.0679  0.7911
 9614TIP3    H253038   5.187  -0.055   2.099  1.6376 -0.2004  0.2056
 9615TIP3   OH253039   4.031   0.773   0.574  0.6830  0.5873  0.0820
 9615TIP3    H153040   4.096   0.843   0.560  1.4062 -0.2638 -1.0128
 9615TIP3    H253041   4.005   0.783   0.665  2.1467  1.1413  0.4761
 9616TIP3   OH253042   2.340   7.203   2.310  0.2105 -0.1187 -0.1961
 9616TIP3    H153043   2.336   7.298   2.305  0.0567  0.1940  3.5582
 9616TIP3    H253044   2.433   7.184   2.322  0.1685 -0.4151 -0.3307
 9617TIP3   OH253045   4.421   7.307   1.145  0.3778  0.0582 -0.1123
 9617TIP3    H153046   4.334   7.265   1.145  0.7605 -0.7618  0.0666
 9617TIP3    H253047   4.402   7.401   1.143 -0.4863 -0.1033 -2.6708
 9618TIP3   OH253048   7.259   2.840   2.933 -0.0490  0.5794  0.1038
 9618TIP3    H153049   7.245   2.783   2.858 -0.8926 -0.8511  1.3043
 9618TIP3    H253050   7.212   2.921   2.911 -1.7118 -0.4311 -0.2377
 9619TIP3   OH253051   0.113   0.212   1.557  0.1622  0.0223 -0.0460
 9619TIP3    H153052   0.184   0.213   1.622  0.4880  0.5004 -0.4024
 9619TIP3    H253053   0.088   0.120   1.551  0.6818 -0.1384  0.1658
 9620TIP3   OH253054   1.899   1.268   0.927 -0.3081 -0.3111  0.4073
 9620TIP3    H153055   1.966   1.268   0.995  0.1753 -2.1627 -0.0178
 9620TIP3    H253056   1.945   1.299   0.848 -1.3101  3.7467  1.1845
 9621TIP3   OH253057   2.531   3.953   1.864 -0.3133 -0.0791  0.2918
 9621TIP3    H153058   2.567   4.041   1.853  0.2606 -0.3404  0.0285
 9621TIP3    H253059   2.586   3.912   1.931 -0.4223 -0.3228  0.2346
 9622TIP3   OH253060   1.121   5.929   2.626  0.5841 -0.2993  0.4914
 9622TIP3    H153061   1.073   5.877   2.562 -0.3520  0.8663  0.2061
 9622TIP3    H253062   1.076   6.014   2.627  1.5721  0.2471  1.5124
 9623TIP3   OH253063   7.092   2.476   1.178 -0.2482  0.3847  0.3752
 9623TIP3    H153064   7.106   2.476   1.084  0.7268  1.1781  0.5039
 9623TIP3    H253065   7.150   2.407   1.211 -1.0448 -0.3223  0.3592
 9624TIP3   OH253066   0.264   4.117   3.154  0.1339  0.3060 -0.3935
 9624TIP3    H153067   0.250   4.039   3.208 -0.9340  0.7836  0.0458
 9624TIP3    H253068   0.350   4.104   3.115  0.6841 -0.3227  0.9689
 9625TIP3   OH253069   7.168   5.172   1.394  0.2962 -0.0624  0.3554
 9625TIP3    H153070   7.128   5.163   1.481  0.1889 -0.8484  0.2309
 9625TIP3    H253071   7.129   5.252   1.358 -1.8174 -1.2022 -0.0862
 9626TIP3   OH253072   3.879   3.075   0.891 -0.2760  0.1549  0.0356
 9626TIP3    H153073   3.835   2.991   0.875  1.4782 -0.6099 -1.0602
 9626TIP3    H253074   3.895   3.076   0.985 -1.6443 -0.0278  0.2921
 9627TIP3   OH253075   3.374   3.681   3.295 -0.1142  0.4622  0.7281
 9627TIP3    H153076   3.307   3.646   3.236 -0.0465 -0.3196  1.1014
 9627TIP3    H253077   3.445   3.709   3.238 -0.6780  1.1251  0.3412
 9628TIP3   OH253078   7.265   6.498   1.049  0.1232  0.0118  0.0559
 9628TIP3    H153079   7.170   6.496   1.040 -0.0778  1.3183  1.4504
 9628TIP3    H253080   7.296   6.536   0.967 -0.4501 -1.2607 -0.7904
 9629TIP3   OH253081   1.826   2.882   0.603  0.5573  0.1733  0.1838
 9629TIP3    H153082   1.763   2.823   0.562 -0.1195  0.3764  0.8938
 9629TIP3    H253083   1.776   2.926   0.672  1.1112  1.3824 -0.1533
 9630TIP3   OH253084   6.505   5.567   3.216  0.7352  0.0427 -0.0103
 9630TIP3    H153085   6.525   5.487   3.169 -0.6534 -0.5040  0.2593
 9630TIP3    H253086   6.417   5.591   3.186  0.8937  1.1438  0.3496
 9631TIP3   OH253087   7.059   5.425   1.054 -0.3887  0.0143  0.6317
 9631TIP3    H153088   7.068   5.490   0.984  0.6686  1.3515  1.9542
 9631TIP3    H253089   6.990   5.366   1.023 -0.7758  1.2496 -0.9972
 9632TIP3   OH253090   6.256   7.270   0.837 -0.6187  0.2266  0.1542
 9632TIP3    H153091   6.267   7.357   0.800 -2.5344  0.4613  0.0397
 9632TIP3    H253092   6.225   7.286   0.926 -0.6701 -0.3374  0.2411
 9633TIP3   OH253093   5.885   7.193   2.844  0.1351  0.5999  0.2136
 9633TIP3    H153094   5.876   7.111   2.795 -0.1134  0.5735  0.3057
 9633TIP3    H253095   5.797   7.231   2.844  0.2359  0.8357  0.2262
 9634TIP3   OH253096   4.181   7.451   2.576 -0.2809  0.4340 -0.7792
 9634TIP3    H153097   4.109   7.388   2.574  0.9354 -1.1449  1.2018
 9634TIP3    H253098   4.153   7.518   2.639  0.2429 -0.6242  0.6403
 9635TIP3   OH253099   3.123   0.810   1.614  0.2277 -0.4107 -0.4552
 9635TIP3    H153100   3.213   0.843   1.609  0.3540 -0.9083 -2.9508
 9635TIP3    H253101   3.079   0.850   1.538 -0.3556 -3.6734 -2.0226
 9636TIP3   OH253102   4.943   1.967   2.184  0.0108  0.0079 -0.0319
 9636TIP3    H153103   4.865   1.922   2.152 -0.8371  1.0608  0.4875
 9636TIP3    H253104   4.940   1.955   2.279  0.4831  0.0694 -0.0051
 9637TIP3   OH253105   3.583   2.178   2.231  0.1494  0.0145 -0.2736
 9637TIP3    H153106   3.567   2.255   2.287  0.1284 -0.4336  0.3482
 9637TIP3    H253107   3.676   2.182   2.211  0.1973  0.0678 -0.0432
 9638TIP3   OH253108   1.282   4.530   3.240  0.2613 -0.3991 -0.1936
 9638TIP3    H153109   1.311   4.443   3.214  1.6180 -0.3167  0.9113
 9638TIP3    H253110   1.363   4.578   3.259 -0.4945  0.8316  0.0630
 9639TIP3   OH253111   7.495   3.766   1.012  0.4289 -0.3879  0.2721
 9639TIP3    H153112   7.445   3.704   1.066  0.1212 -0.9213 -0.6164
 9639TIP3    H253113   7.469   3.746   0.922  0.7220  0.6911 -0.0601
 9640TIP3   OH253114   3.964   6.306   1.641  0.2630 -0.4797  0.1749
 9640TIP3    H153115   3.973   6.234   1.704 -0.3719  0.0144  0.8468
 9640TIP3    H253116   4.047   6.308   1.595  0.4852 -1.2984  0.5236
 9641TIP3   OH253117   6.168   1.016   0.581 -0.3237 -0.1142  0.5278
 9641TIP3    H153118   6.191   1.107   0.597 -1.0303  0.2524 -0.4731
 9641TIP3    H253119   6.203   0.997   0.494 -2.1794 -0.0729 -0.2829
 9642TIP3   OH253120   0.652   7.400   2.672  0.4387  0.4415  0.2896
 9642TIP3    H153121   0.682   7.490   2.683  2.0667  0.0927 -0.9249
 9642TIP3    H253122   0.631   7.394   2.579 -0.3447 -0.2451  0.5064
 9643TIP3   OH253123   1.198   4.914   0.774 -0.2197 -0.2929 -0.9794
 9643TIP3    H153124   1.200   4.908   0.870  1.3360 -1.3383 -1.0468
 9643TIP3    H253125   1.187   5.008   0.756  1.8384  0.2410  0.2408
 9644TIP3   OH253126   2.281   2.779   1.214  0.0071 -0.2238 -0.3694
 9644TIP3    H153127   2.282   2.762   1.309 -0.0859 -1.7136 -0.6044
 9644TIP3    H253128   2.337   2.711   1.178  1.1113  1.1370 -1.2956
 9645TIP3   OH253129   1.693   2.905   2.262  0.1423 -0.1583  0.0899
 9645TIP3    H153130   1.634   2.942   2.328 -0.3164 -0.0993 -0.3442
 9645TIP3    H253131   1.644   2.830   2.227 -0.2185  0.6367 -1.1648
 9646TIP3   OH253132   5.452   6.472   2.178  0.0941  0.3804 -0.0068
 9646TIP3    H153133   5.482   6.505   2.263  0.5912 -1.1568  0.4477
 9646TIP3    H253134   5.359   6.491   2.176 -0.0298 -0.0196  1.1325
 9647TIP3   OH253135   0.233   3.180   1.350  0.4479  0.4647  0.5819
 9647TIP3    H153136   0.272   3.094   1.337 -1.5120 -0.3972 -0.0338
 9647TIP3    H253137   0.163   3.165   1.413 -0.4960  1.4074 -0.1973
 9648TIP3   OH253138   3.339   0.282   0.590 -0.0702 -0.6504  0.7399
 9648TIP3    H153139   3.286   0.348   0.636  0.6901  0.6839 -0.2325
 9648TIP3    H253140   3.292   0.200   0.604 -1.3067  0.1649  1.5876
 9649TIP3   OH253141   3.925   3.418   1.089  0.4022 -0.0722  0.3099
 9649TIP3    H153142   3.976   3.482   1.138  1.4004 -1.3696  1.0379
 9649TIP3    H253143   3.971   3.408   1.006  1.9463 -1.9315  1.3331
 9650TIP3   OH253144   5.575   2.045   3.029 -0.0915 -0.5458  0.0476
 9650TIP3    H153145   5.597   2.111   3.096  2.6510  0.1789 -1.4355
 9650TIP3    H253146   5.492   2.076   2.993 -0.0111  0.8348  0.9408
 9651TIP3   OH253147   2.142   2.059   2.376  0.0301 -0.5532  0.1020
 9651TIP3    H153148   2.185   1.974   2.371  0.0017 -0.5389 -0.5939
 9651TIP3    H253149   2.144   2.092   2.286 -0.3825 -0.0301  0.2748
 9652TIP3   OH253150   2.105   5.967   2.793  0.4000  0.3266 -0.6497
 9652TIP3    H153151   2.149   5.904   2.736  2.3532  0.5142  0.5498
 9652TIP3    H253152   2.163   6.043   2.794 -0.4916  1.0208  0.1713
 9653TIP3   OH253153   1.536   2.887   1.026  0.4452 -0.2857  0.3772
 9653TIP3    H153154   1.473   2.862   1.094  0.9397 -1.3377  0.4765
 9653TIP3    H253155   1.604   2.936   1.072 -0.5234  1.3151  0.1872
 9654TIP3   OH253156   0.340   1.545   0.533  0.0743  0.4504 -0.3354
 9654TIP3    H153157   0.290   1.473   0.572  0.7380  0.5073  0.6536
 9654TIP3    H253158   0.291   1.568   0.454 -0.2966 -0.8966 -0.5185
 9655TIP3   OH253159   5.505   4.319   3.585  0.1394  0.4678 -0.5187
 9655TIP3    H153160   5.542   4.269   3.512  1.2198  1.3951 -0.6521
 9655TIP3    H253161   5.528   4.410   3.564  0.2223  0.7718  0.8440
 9656TIP3   OH253162   3.512   2.452   2.795 -0.6765  0.2301 -0.1623
 9656TIP3    H153163   3.516   2.458   2.700 -1.3350  0.0169 -0.2033
 9656TIP3    H253164   3.441   2.391   2.813  1.5446 -2.4135  0.3988
 9657TIP3   OH253165   0.961   5.872   2.396  0.9030 -0.3505  0.1961
 9657TIP3    H153166   0.972   5.847   2.304 -0.4186 -0.7680  0.1273
 9657TIP3    H253167   0.878   5.831   2.422  0.8395  0.4566  1.3311
 9658TIP3   OH253168   1.547   1.870   1.126  0.1603 -0.0999 -0.0918
 9658TIP3    H153169   1.604   1.944   1.149  0.3962 -0.2744 -0.1117
 9658TIP3    H253170   1.512   1.841   1.210  0.4256 -0.2536 -0.0327
 9659TIP3   OH253171   4.138   7.637   2.780 -0.8701 -0.8825  0.4249
 9659TIP3    H153172   4.197   7.703   2.817 -0.4103 -0.7597 -0.4999
 9659TIP3    H253173   4.054   7.682   2.772 -0.6609 -0.5278  0.1810
 9660TIP3   OH253174   7.475   1.349   2.238  0.4879  0.0105 -0.1462
 9660TIP3    H153175   7.440   1.346   2.328  3.3733  2.8168  1.2766
 9660TIP3    H253176   7.398   1.337   2.182 -1.8585  0.5781  2.6948
 9661TIP3   OH253177   3.083   0.921   3.010 -0.1082  0.0208  0.1070
 9661TIP3    H153178   3.075   0.956   2.921  2.0293 -0.8254 -0.4734
 9661TIP3    H253179   3.153   0.973   3.050 -1.2784  0.6376  1.4786
 9662TIP3   OH253180   6.510   4.955   2.446 -0.1080  0.1227  0.4194
 9662TIP3    H153181   6.493   4.862   2.461  0.1367  0.1571  0.9412
 9662TIP3    H253182   6.469   4.974   2.362 -0.7164 -0.3107  0.6122
 9663TIP3   OH253183   5.874   4.504   2.037 -0.1920 -0.4508  0.1150
 9663TIP3    H153184   5.850   4.416   2.010  0.0842 -0.1033 -1.3326
 9663TIP3    H253185   5.867   4.557   1.958 -0.5720  0.8904  1.0023
 9664TIP3   OH253186   0.275   7.108   3.060 -0.0485  0.1602 -0.2251
 9664TIP3    H153187   0.192   7.150   3.083 -0.0363 -0.3855  0.8513
 9664TIP3    H253188   0.281   7.031   3.117  1.2126  0.2010 -0.2610
 9665TIP3   OH253189   6.533   2.791   2.961 -0.1505  0.2789  0.0118
 9665TIP3    H153190   6.588   2.868   2.945  1.7763 -0.7955  1.1453
 9665TIP3    H253191   6.527   2.747   2.877  1.3232  0.0739 -0.0064
 9666TIP3   OH253192   2.225   0.122   3.607  0.0472  0.2588 -0.0636
 9666TIP3    H153193   2.171   0.145   3.682  1.1121  1.2041  0.4568
 9666TIP3    H253194   2.286   0.196   3.598 -0.2659  0.3457 -2.0767
 9667TIP3   OH253195   3.094   0.246   2.249 -0.7343  0.1547 -0.3725
 9667TIP3    H153196   3.034   0.266   2.320  0.6756  0.4882  0.7759
 9667TIP3    H253197   3.181   0.267   2.284 -0.0073  0.5064 -2.2582
 9668TIP3   OH253198   2.526   6.528   1.646  0.4366  0.2314  0.5283
 9668TIP3    H153199   2.558   6.614   1.619 -1.0609  0.8386  0.5468
 9668TIP3    H253200   2.564   6.514   1.732  1.2749  0.5498  0.2142
 9669TIP3   OH253201   2.124   0.145   1.112  0.0041 -0.4098 -0.4362
 9669TIP3    H153202   2.033   0.118   1.106 -0.3155  0.8080 -1.2878
 9669TIP3    H253203   2.128   0.228   1.066  1.6821 -0.7491 -0.9755
 9670TIP3   OH253204   2.680   5.310   1.996  0.3593  0.2992 -0.3178
 9670TIP3    H153205   2.617   5.248   2.033 -0.3892  0.6457 -0.9647
 9670TIP3    H253206   2.723   5.261   1.926 -0.4061  0.5624 -0.9914
 9671TIP3   OH253207   2.492   0.840   1.177 -0.8483 -0.7270 -0.6227
 9671TIP3    H153208   2.578   0.868   1.210 -0.6308 -0.9765 -0.9666
 9671TIP3    H253209   2.488   0.876   1.088 -1.3711 -0.1788 -0.3812
 9672TIP3   OH253210   2.199   2.387   2.942 -0.3038  0.0900 -0.2757
 9672TIP3    H153211   2.271   2.353   2.890  0.0921 -0.5270  0.6442
 9672TIP3    H253212   2.230   2.379   3.033 -2.2698 -2.0116  0.2948
 9673TIP3   OH253213   5.601   3.405   2.790  0.1380  0.2181 -0.2797
 9673TIP3    H153214   5.511   3.430   2.772 -0.3096  0.2171  1.7768
 9673TIP3    H253215   5.631   3.362   2.709 -1.8322 -0.1850 -0.8307
 9674TIP3   OH253216   0.091   7.579   1.543 -0.0250  0.0520 -0.3582
 9674TIP3    H153217   0.105   7.530   1.462  0.1217 -1.1559  0.3746
 9674TIP3    H253218   0.022   7.531   1.588 -1.0786  1.4874 -0.3631
 9675TIP3   OH253219   1.148   6.933   1.312 -0.3016  0.1939 -0.5550
 9675TIP3    H153220   1.179   7.015   1.272  2.0482 -0.2745  0.1266
 9675TIP3    H253221   1.207   6.919   1.386 -2.0609 -1.0035  0.7067
 9676TIP3   OH253222   2.595   5.632   1.992  0.7229  0.4092  0.2762
 9676TIP3    H153223   2.633   5.573   2.057 -0.0011 -1.3934 -0.8787
 9676TIP3    H253224   2.514   5.662   2.032 -0.6350 -2.1002 -0.4278
 9677TIP3   OH253225   0.715   0.297   1.483  0.0674 -0.1552  0.1928
 9677TIP3    H153226   0.772   0.325   1.553 -1.3605  1.0332  0.9253
 9677TIP3    H253227   0.741   0.350   1.407  1.1341 -0.9381 -0.0106
 9678TIP3   OH253228   2.803   3.181   1.905  0.5389  0.1922  0.0256
 9678TIP3    H153229   2.805   3.189   1.810 -1.2775 -1.4462 -0.2110
 9678TIP3    H253230   2.841   3.095   1.923  1.4964  0.7616  0.8614
 9679TIP3   OH253231   2.782   7.456   1.261  0.2012 -0.3579  0.5740
 9679TIP3    H153232   2.695   7.479   1.229  0.8602  2.0725  0.3346
 9679TIP3    H253233   2.775   7.364   1.286 -1.3531 -1.4183 -3.0607
 9680TIP3   OH253234   1.559   4.084   1.744  0.0103 -0.0279  0.0303
 9680TIP3    H153235   1.560   4.146   1.817  1.8072 -0.8047  0.7184
 9680TIP3    H253236   1.650   4.079   1.715  0.1581 -3.1011  0.7086
 9681TIP3   OH253237   0.490   7.167   2.194 -0.1979  0.2130  0.0685
 9681TIP3    H153238   0.399   7.196   2.197  0.0353  0.9830 -0.1692
 9681TIP3    H253239   0.529   7.215   2.121  0.2483 -0.5711 -0.2299
 9682TIP3   OH253240   2.490   6.116   1.274  0.1983  0.2104  0.1085
 9682TIP3    H153241   2.458   6.054   1.208  1.3597  0.2457 -0.5085
 9682TIP3    H253242   2.584   6.101   1.278  0.1294  0.0454  1.9550
 9683TIP3   OH253243   6.991   6.417   2.309 -0.2219 -0.0434 -0.1624
 9683TIP3    H153244   6.923   6.350   2.318  0.6582 -1.0211 -0.4875
 9683TIP3    H253245   7.050   6.401   2.383  1.1756 -1.0913 -1.4312
 9684TIP3   OH253246   7.052   1.788   1.322 -0.1798  0.0064  0.2850
 9684TIP3    H153247   6.995   1.721   1.284  0.6570 -0.0560 -0.9184
 9684TIP3    H253248   6.994   1.862   1.339 -0.6943 -0.1798 -0.5908
 9685TIP3   OH253249   0.776   1.469   0.737  0.1835  0.0273 -0.6980
 9685TIP3    H153250   0.859   1.483   0.782 -0.4239  1.8974 -0.1024
 9685TIP3    H253251   0.764   1.374   0.739  1.8405 -0.1978  0.0262
 9686TIP3   OH253252   0.671   2.226   0.828 -0.0715 -0.0720 -0.8131
 9686TIP3    H153253   0.626   2.281   0.892  2.8242 -0.5927  1.8781
 9686TIP3    H253254   0.672   2.139   0.868  2.1754 -0.3275 -1.3129
 9687TIP3   OH253255   6.227   5.171   1.250 -0.1599 -0.2510 -0.7627
 9687TIP3    H153256   6.314   5.186   1.214 -0.5450 -0.3163 -1.7420
 9687TIP3    H253257   6.223   5.076   1.263 -0.3068 -0.3159 -1.2887
 9688TIP3   OH253258   2.401   0.461   1.055  0.5665  0.4166  0.1449
 9688TIP3    H153259   2.394   0.474   0.960  1.6186  1.5580  0.1931
 9688TIP3    H253260   2.326   0.508   1.091  0.0888 -0.1319 -0.1143
 9689TIP3   OH253261   5.520   0.335   1.859 -0.1917 -0.1805 -0.0846
 9689TIP3    H153262   5.529   0.429   1.843  0.1699 -0.4281 -1.4669
 9689TIP3    H253263   5.486   0.329   1.948  1.5798  1.2015  0.7586
 9690TIP3   OH253264   0.327   3.581   3.192  0.2740 -0.1921  0.7298
 9690TIP3    H153265   0.298   3.509   3.248 -1.0879  0.7564  1.3095
 9690TIP3    H253266   0.315   3.549   3.103 -2.6587  0.0809  0.9143
 9691TIP3   OH253267   2.620   1.561   3.270  0.4165  0.2367  0.0692
 9691TIP3    H153268   2.706   1.563   3.312  0.5547  2.0151 -0.2110
 9691TIP3    H253269   2.623   1.484   3.213  1.6116 -0.0544  0.4952
 9692TIP3   OH253270   2.959   1.876   2.453  0.1004 -0.2983  0.0718
 9692TIP3    H153271   2.914   1.837   2.527 -1.3301  1.3421  0.1123
 9692TIP3    H253272   2.954   1.810   2.384 -0.9455 -0.7863  0.5987
 9693TIP3   OH253273   3.250   5.955   2.260 -0.0496  0.5575  0.0721
 9693TIP3    H153274   3.234   5.977   2.169 -0.2538  0.3006  0.0441
 9693TIP3    H253275   3.290   5.868   2.257  2.6190  1.6682  0.0440
 9694TIP3   OH253276   1.360   4.630   1.061  0.5159 -0.5323 -0.5914
 9694TIP3    H153277   1.271   4.648   1.032 -0.2003 -0.6320  1.4011
 9694TIP3    H253278   1.408   4.711   1.045 -0.4507  0.2084  0.1632
 9695TIP3   OH253279   0.138   1.374   0.691  0.3582 -0.2351 -0.1595
 9695TIP3    H153280   0.104   1.446   0.744  0.2230  0.1335 -0.7353
 9695TIP3    H253281   0.081   1.300   0.712  0.8127 -0.3221  0.8161
 9696TIP3   OH253282   1.163   1.599   2.971  0.0595 -0.8813  0.2234
 9696TIP3    H153283   1.141   1.536   3.040  1.4971  0.0614  1.5879
 9696TIP3    H253284   1.243   1.565   2.932 -1.5636 -2.2864 -2.2028
 9697TIP3   OH253285   6.726   2.010   2.184  0.0955  0.4163  0.1134
 9697TIP3    H153286   6.653   2.070   2.169  0.7394  1.0684 -0.5430
 9697TIP3    H253287   6.776   2.051   2.255 -1.0497 -0.8874  1.7723
 9698TIP3   OH253288   3.328   2.292   2.593  0.3625 -0.2836 -0.4798
 9698TIP3    H153289   3.415   2.305   2.555  0.6038 -0.0979  0.1276
 9698TIP3    H253290   3.270   2.347   2.540  0.9314  1.1325  0.3111
 9699TIP3   OH253291   5.359   3.396   1.966 -0.1284 -0.1395  0.3285
 9699TIP3    H153292   5.355   3.394   1.870 -0.5832 -0.1229  0.3441
 9699TIP3    H253293   5.453   3.402   1.986 -0.0262 -0.2066 -0.1129
 9700TIP3   OH253294   1.029   4.851   2.443  0.0717  0.1089  0.1284
 9700TIP3    H153295   0.950   4.808   2.409  0.7974 -0.6059 -0.7229
 9700TIP3    H253296   0.996   4.921   2.499 -1.1671 -0.8651  0.6828
 9701TIP3   OH253297   3.709   4.322   1.095  0.7869  0.1326  0.1917
 9701TIP3    H153298   3.736   4.370   1.016  0.5043 -0.1029 -0.0503
 9701TIP3    H253299   3.685   4.391   1.157  0.2221  0.3095 -0.2096
 9702TIP3   OH253300   6.711   1.294   1.316 -0.4543  0.4512  0.8673
 9702TIP3    H153301   6.697   1.216   1.263 -0.2161  1.8242 -1.3698
 9702TIP3    H253302   6.628   1.307   1.362  0.6341 -3.1612  4.4369
 9703TIP3   OH253303   6.030   7.645   3.014  0.0655 -0.1471 -0.1255
 9703TIP3    H153304   6.008   7.736   2.992 -1.2451 -1.0214 -2.9875
 9703TIP3    H253305   5.946   7.602   3.026  0.5636 -1.4238 -0.9770
 9704TIP3   OH253306   5.796   4.154   2.613  0.0362  0.0966 -0.0584
 9704TIP3    H153307   5.840   4.176   2.531 -0.3954 -0.3268 -0.4083
 9704TIP3    H253308   5.844   4.079   2.647 -0.2367 -0.1894 -0.2984
 9705TIP3   OH253309   3.134   1.579   3.615 -0.3248 -0.3277 -0.0199
 9705TIP3    H153310   3.204   1.642   3.630  1.2045 -2.2044  1.2115
 9705TIP3    H253311   3.070   1.626   3.561  2.1628  1.2911 -1.7811
 9706TIP3   OH253312   5.742   7.624   3.360  0.2113  0.3148 -0.3002
 9706TIP3    H153313   5.714   7.533   3.350  0.9906  0.0172  0.1520
 9706TIP3    H253314   5.834   7.618   3.387 -0.5202  1.1413  2.6568
 9707TIP3   OH253315   3.020   1.194   1.228  0.7210 -0.1785 -0.0153
 9707TIP3    H153316   3.110   1.224   1.239  0.8779 -0.6839  0.1124
 9707TIP3    H253317   2.966   1.264   1.264  1.1219 -0.4910  1.2534
 9708TIP3   OH253318   7.349   2.374   2.248  0.8201  1.0287 -0.2288
 9708TIP3    H153319   7.403   2.411   2.179  2.0476 -0.7739 -0.2991
 9708TIP3    H253320   7.391   2.290   2.269 -2.2746 -0.7884 -0.7243
 9709TIP3   OH253321   3.007   2.782   1.181  0.0039  0.1725 -0.3291
 9709TIP3    H153322   2.996   2.703   1.233 -0.4535 -0.5954 -1.5384
 9709TIP3    H253323   2.973   2.759   1.094 -1.9065  2.2336 -0.2517
 9710TIP3   OH253324   1.296   1.681   0.635  0.2085  0.1484 -0.1408
 9710TIP3    H153325   1.371   1.626   0.657 -0.5877 -0.6258  0.7722
 9710TIP3    H253326   1.274   1.658   0.546  1.7733  1.2762 -0.8803
 9711TIP3   OH253327   2.939   0.626   0.766  0.5420  0.1820 -0.3884
 9711TIP3    H153328   2.970   0.717   0.758 -0.1190  0.3402 -1.2876
 9711TIP3    H253329   2.993   0.589   0.835 -0.4858  1.8334  1.4239
 9712TIP3   OH253330   4.243   2.345   1.412  0.1787 -0.2254  0.5899
 9712TIP3    H153331   4.190   2.425   1.413 -0.9261 -0.9373  0.2267
 9712TIP3    H253332   4.311   2.362   1.347  2.0507  1.7003  2.8399
 9713TIP3   OH253333   6.159   4.790   1.571 -0.4276 -0.7762  0.0410
 9713TIP3    H153334   6.149   4.883   1.552  0.1335 -0.3343  1.6942
 9713TIP3    H253335   6.167   4.748   1.486  1.7052  0.9783 -0.7087
 9714TIP3   OH253336   2.774   2.877   2.168 -0.1947  0.4198 -0.2366
 9714TIP3    H153337   2.832   2.901   2.096 -0.9305  1.4641 -0.4879
 9714TIP3    H253338   2.695   2.843   2.125 -0.6379  1.0524  0.0739
 9715TIP3   OH253339   0.740   6.202   3.560  0.1435  0.2239  0.6073
 9715TIP3    H153340   0.784   6.145   3.623 -0.2915 -0.3962  0.3599
 9715TIP3    H253341   0.724   6.145   3.484 -1.5082  0.2927  0.8704
 9716TIP3   OH253342   5.292   1.743   1.792 -0.1207  0.3768  0.1129
 9716TIP3    H153343   5.215   1.714   1.742 -0.4307  1.0317  0.2103
 9716TIP3    H253344   5.281   1.703   1.878 -0.3497  0.4646  0.1247
 9717TIP3   OH253345   3.149   4.131   1.845  0.3393 -0.1341  0.1799
 9717TIP3    H153346   3.093   4.193   1.799 -1.0501 -1.2734  0.2588
 9717TIP3    H253347   3.093   4.092   1.912  0.6930 -2.4712 -0.7772
 9718TIP3   OH253348   0.093   4.596   2.119 -0.1416  0.4836 -0.4692
 9718TIP3    H153349   0.031   4.658   2.082 -0.0164  0.5923 -0.4977
 9718TIP3    H253350   0.179   4.638   2.109  0.0052  0.0780 -0.9808
 9719TIP3   OH253351   3.380   7.297   0.793  0.1000  0.4073  0.7218
 9719TIP3    H153352   3.306   7.241   0.769 -0.0298  0.1592  1.6480
 9719TIP3    H253353   3.430   7.307   0.712  0.8243 -2.1245  0.7472
 9720TIP3   OH253354   3.503   6.498   1.731 -0.0047 -0.0211 -0.0569
 9720TIP3    H153355   3.566   6.444   1.682  0.3384  1.6917 -1.5949
 9720TIP3    H253356   3.417   6.463   1.706  0.2505 -1.5380  1.0527
 9721TIP3   OH253357   2.674   4.411   0.989  0.2890 -0.1486  0.5221
 9721TIP3    H153358   2.591   4.377   1.022  0.0266  0.8634  0.9443
 9721TIP3    H253359   2.691   4.490   1.042 -0.1469  1.5604 -1.7126
 9722TIP3   OH253360   5.830   7.146   1.930  0.0190  0.1028  0.0776
 9722TIP3    H153361   5.749   7.103   1.960  0.9354 -1.3953  0.5084
 9722TIP3    H253362   5.882   7.075   1.892  1.1930  1.0224 -0.0827
 9723TIP3   OH253363   7.105   4.537   0.669  0.6699 -0.0848  0.2762
 9723TIP3    H153364   7.119   4.631   0.670 -0.9569  0.2760 -1.9786
 9723TIP3    H253365   7.169   4.503   0.607 -1.6237  0.2813 -2.5296
 9724TIP3   OH253366   4.327   7.476   0.795 -0.4919 -0.5117 -0.1037
 9724TIP3    H153367   4.413   7.488   0.755 -0.8128  0.4496 -0.5428
 9724TIP3    H253368   4.342   7.493   0.888  0.0662 -1.8134  0.0700
 9725TIP3   OH253369   6.683   6.742   2.283  0.2700 -0.2029 -0.2636
 9725TIP3    H153370   6.753   6.706   2.337  0.1608 -1.9475 -1.1872
 9725TIP3    H253371   6.604   6.732   2.335  0.5419  0.8643  0.3885
 9726TIP3   OH253372   4.156   6.661   2.228 -0.6778  0.3001 -0.2533
 9726TIP3    H153373   4.192   6.721   2.164 -2.4154  1.2281 -0.4144
 9726TIP3    H253374   4.193   6.690   2.312 -0.7843  1.0226 -0.4503
 9727TIP3   OH253375   3.714   1.858   2.832 -0.4110  0.2450 -0.2450
 9727TIP3    H153376   3.689   1.779   2.880 -0.9682  1.5386  1.6918
 9727TIP3    H253377   3.640   1.917   2.842 -0.3180  0.7758 -2.3126
 9728TIP3   OH253378   1.488   6.991   1.889 -0.4551  0.2121  0.2745
 9728TIP3    H153379   1.453   6.921   1.834  1.3239 -1.1441  0.7913
 9728TIP3    H253380   1.570   7.016   1.846 -0.9912  1.9160  0.1765
 9729TIP3   OH253381   6.848   2.380   2.085  0.1723  0.6048 -0.2565
 9729TIP3    H153382   6.874   2.408   2.173  0.8562 -0.0208 -0.2543
 9729TIP3    H253383   6.753   2.395   2.083  0.2416  1.2089  0.3647
 9730TIP3   OH253384   1.133   0.250   3.150  0.1924  0.4915  0.0880
 9730TIP3    H153385   1.173   0.306   3.084  0.7723  0.5532  0.4849
 9730TIP3    H253386   1.176   0.165   3.141  1.1471  0.8297  1.1602
 9731TIP3   OH253387   6.755   7.436   1.205 -0.3747  0.1897  0.8478
 9731TIP3    H153388   6.846   7.439   1.235 -0.5641  0.4892  1.4045
 9731TIP3    H253389   6.754   7.366   1.140  0.1890 -0.0251  1.0621
 9732TIP3   OH253390   6.944   3.522   3.410  0.3930 -0.3345  0.1903
 9732TIP3    H153391   6.998   3.547   3.335  0.8636  1.4669  1.0880
 9732TIP3    H253392   6.854   3.531   3.378  0.5224 -2.6559 -1.0849
 9733TIP3   OH253393   3.048   4.432   1.033 -0.0030 -0.3978 -0.8709
 9733TIP3    H153394   3.053   4.513   0.984 -3.3285 -0.2887 -1.2308
 9733TIP3    H253395   3.136   4.419   1.068  0.8996  2.7206 -1.7575
 9734TIP3   OH253396   4.719   2.179   1.221 -0.0163  0.5124  0.0917
 9734TIP3    H153397   4.779   2.112   1.255  0.4387  1.8196  2.0212
 9734TIP3    H253398   4.634   2.154   1.255 -0.3126 -0.3494 -1.1774
 9735TIP3   OH253399   2.806   6.235   1.302  0.1679 -0.2837 -0.0143
 9735TIP3    H153400   2.734   6.267   1.357  0.7668  0.1258  0.5443
 9735TIP3    H253401   2.855   6.176   1.359  0.9957  0.4157  0.0163
 9736TIP3   OH253402   0.477   2.356   1.196  0.4688  0.1389 -0.1046
 9736TIP3    H153403   0.407   2.357   1.261  0.6816  2.7500  0.1653
 9736TIP3    H253404   0.552   2.318   1.242 -0.2207 -0.9610  0.1613
 9737TIP3   OH253405   0.370   0.492   1.880  0.0041  0.0702 -0.6427
 9737TIP3    H153406   0.330   0.548   1.813  0.9560  1.2640 -0.2526
 9737TIP3    H253407   0.435   0.440   1.832  0.5933  0.8313 -0.6945
 9738TIP3   OH253408   2.009   1.897   1.430  0.1594  0.2285  0.0482
 9738TIP3    H153409   1.933   1.953   1.414 -2.1494 -2.7153 -0.2349
 9738TIP3    H253410   2.024   1.853   1.346  2.0853  0.5883  0.1674
 9739TIP3   OH253411   4.438   6.014   3.396  0.0836  0.0476 -0.0849
 9739TIP3    H153412   4.529   6.005   3.367  1.0303  2.0091  2.0077
 9739TIP3    H253413   4.413   5.926   3.424  1.1145 -0.6320 -1.1850
 9740TIP3   OH253414   3.253   2.927   2.894  0.3218 -0.0036 -0.0836
 9740TIP3    H153415   3.217   2.937   2.982  0.5270 -0.7434  0.0842
 9740TIP3    H253416   3.207   2.851   2.857  1.3592 -0.6670 -0.0399
 9741TIP3   OH253417   5.442   1.679   2.820  0.0634 -0.2573  0.0025
 9741TIP3    H153418   5.484   1.595   2.803  0.7394  0.4176 -1.9041
 9741TIP3    H253419   5.349   1.658   2.825  0.1522 -1.0360 -1.2104
 9742TIP3   OH253420   4.228   3.301   1.283 -0.2892  0.4627  0.5455
 9742TIP3    H153421   4.196   3.391   1.289  1.9645  1.2652  1.5667
 9742TIP3    H253422   4.299   3.305   1.219  1.4194 -0.0202  2.3106
 9743TIP3   OH253423   2.171   6.930   3.112 -0.1605 -0.9054  0.1163
 9743TIP3    H153424   2.131   6.853   3.151 -1.6255  0.3494  1.2424
 9743TIP3    H253425   2.104   6.998   3.120  1.4196  0.7391  0.0763
 9744TIP3   OH253426   3.242   1.528   2.574  0.0292 -0.0963 -0.1877
 9744TIP3    H153427   3.230   1.532   2.668  1.7802  0.6749  0.0383
 9744TIP3    H253428   3.170   1.473   2.543  0.2332 -1.5579  1.7394
 9745TIP3   OH253429   3.201   0.553   1.564 -0.3948 -1.2004 -0.2554
 9745TIP3    H153430   3.127   0.547   1.504 -0.9808 -0.9154  0.4308
 9745TIP3    H253431   3.193   0.640   1.603  0.2387 -1.2105 -0.0941
 9746TIP3   OH253432   5.787   4.076   2.192 -0.1162 -0.0149 -0.3077
 9746TIP3    H153433   5.871   4.041   2.161 -0.3104 -0.0249 -0.8257
 9746TIP3    H253434   5.727   4.002   2.189  0.3105 -0.5438  1.9695
 9747TIP3   OH253435   0.502   1.001   1.713  0.4764 -0.0090 -0.5728
 9747TIP3    H153436   0.472   0.974   1.626 -3.0476 -1.4175  0.8890
 9747TIP3    H253437   0.496   0.923   1.767 -1.3615  1.5973  1.7897
 9748TIP3   OH253438   3.005   5.754   2.106 -0.1000  0.3107 -0.6778
 9748TIP3    H153439   3.076   5.726   2.164 -0.3369 -0.5668 -0.8028
 9748TIP3    H253440   2.976   5.674   2.063  0.0918  0.9579 -2.0380
 9749TIP3   OH253441   3.470   4.324   1.375  0.5287 -0.6131  0.6303
 9749TIP3    H153442   3.511   4.391   1.430 -1.6156  0.8619  0.5568
 9749TIP3    H253443   3.423   4.268   1.437 -1.2028  0.5598  0.4572
 9750TIP3   OH253444   7.407   5.147   2.529  0.4369  0.3397 -0.1213
 9750TIP3    H153445   7.492   5.107   2.514  1.3559  1.2073  2.1966
 9750TIP3    H253446   7.398   5.211   2.459  1.0404 -0.6944 -1.1844
 9751TIP3   OH253447   4.517   4.599   2.733  0.0392 -0.2231 -0.1670
 9751TIP3    H153448   4.518   4.647   2.651  0.6875  0.5527  0.2727
 9751TIP3    H253449   4.606   4.565   2.742  0.4779  1.1200  0.9943
 9752TIP3   OH253450   5.445   1.131   1.466  0.3628 -0.3165  0.0066
 9752TIP3    H153451   5.440   1.188   1.389  2.9882  1.4012  0.9621
 9752TIP3    H253452   5.424   1.189   1.539  2.8906 -0.5155  0.9853
 9753TIP3   OH253453   5.503   5.877   2.706 -0.1305 -0.1080  0.0226
 9753TIP3    H153454   5.476   5.967   2.689  0.2785 -0.0446 -0.3140
 9753TIP3    H253455   5.488   5.865   2.800  0.2947  0.4765  0.1709
 9754TIP3   OH253456   3.097   4.071   2.675  0.5456  0.2922 -0.0784
 9754TIP3    H153457   3.072   3.998   2.732 -0.1486  1.4834  1.1999
 9754TIP3    H253458   3.151   4.031   2.607 -1.6517 -1.7747 -0.7248
 9755TIP3   OH253459   0.476   3.137   2.313 -0.3698 -0.0723 -0.2856
 9755TIP3    H153460   0.456   3.103   2.400  2.4816 -0.0235  0.4991
 9755TIP3    H253461   0.457   3.231   2.319  2.3563  0.5168  1.3311
 9756TIP3   OH253462   7.148   1.173   0.837 -0.2571  0.5433 -0.1337
 9756TIP3    H153463   7.211   1.234   0.800  0.0288  0.4963  0.2757
 9756TIP3    H253464   7.103   1.136   0.761  0.4931  0.2676 -0.4535
 9757TIP3   OH253465   2.484   2.920   2.508 -0.8854  0.5668 -0.5087
 9757TIP3    H153466   2.482   2.831   2.543  0.3036  0.4945 -0.6055
 9757TIP3    H253467   2.567   2.956   2.538 -1.5541  1.8171 -0.0822
 9758TIP3   OH253468   4.226   7.663   1.387  0.0067  0.4221  0.8723
 9758TIP3    H153469   4.240   7.585   1.440  0.5113  0.9967  1.6117
 9758TIP3    H253470   4.139   7.651   1.348  0.4536 -0.9199  0.2344
 9759TIP3   OH253471   6.600   7.561   0.716  0.3347  0.2309  0.2120
 9759TIP3    H153472   6.639   7.609   0.644 -2.2987  0.1467 -1.4034
 9759TIP3    H253473   6.532   7.619   0.750 -1.3900 -1.3763 -0.3027
 9760TIP3   OH253474   3.056   7.360   2.476 -0.0457  0.2627 -0.1954
 9760TIP3    H153475   3.116   7.298   2.517 -0.0945 -2.0066 -3.2309
 9760TIP3    H253476   3.100   7.389   2.397 -1.8934  0.5337 -1.1895
 9761TIP3   OH253477   0.119   3.864   2.643 -0.1091  0.0299 -0.9441
 9761TIP3    H153478   0.040   3.893   2.598  0.2532 -1.2832 -2.5241
 9761TIP3    H253479   0.189   3.916   2.604  0.0979 -0.4910 -1.2749
 9762TIP3   OH253480   0.897   0.961   0.906 -0.0599 -0.4138  0.4015
 9762TIP3    H153481   0.992   0.963   0.902 -0.0925 -0.8395 -1.0124
 9762TIP3    H253482   0.875   1.012   0.984  1.2336  2.2852 -0.8660
 9763TIP3   OH253483   5.009   2.069   1.495 -0.0304  0.0298  0.0748
 9763TIP3    H153484   4.948   2.079   1.569  0.9700 -1.3541  1.1467
 9763TIP3    H253485   5.012   2.155   1.454 -1.9529  0.3732  0.5785
 9764TIP3   OH253486   3.187   2.911   0.404  0.1495 -0.5655 -0.1731
 9764TIP3    H153487   3.116   2.975   0.412  0.3420 -0.4726  0.9571
 9764TIP3    H253488   3.232   2.916   0.488 -0.5686 -3.0770  0.4374
 9765TIP3   OH253489   5.214   3.542   2.938  0.5600  0.4024  0.2643
 9765TIP3    H153490   5.143   3.587   2.985  0.8264  3.2715 -1.8089
 9765TIP3    H253491   5.241   3.472   2.998 -1.3943  1.6377  2.8159
 9766TIP3   OH253492   5.218   4.552   1.552  0.6133  0.2145  0.1163
 9766TIP3    H153493   5.182   4.548   1.463  1.3553 -0.0554 -0.1810
 9766TIP3    H253494   5.222   4.461   1.581 -2.4503  0.4277  1.6342
 9767TIP3   OH253495   6.216   4.143   1.946 -0.1941 -0.5915 -0.1877
 9767TIP3    H153496   6.190   4.137   1.854 -0.9638 -1.8100  0.0807
 9767TIP3    H253497   6.164   4.215   1.982  0.1509 -0.0749 -0.7087
 9768TIP3   OH253498   5.313   0.691   2.106  0.3431  0.1024 -0.3498
 9768TIP3    H153499   5.289   0.600   2.086 -0.5884 -0.1294  1.5888
 9768TIP3    H253500   5.367   0.685   2.184 -0.6545  1.2600  0.4757
 9769TIP3   OH253501   1.084   0.631   2.123  0.3232 -0.5391 -0.0114
 9769TIP3    H153502   1.000   0.672   2.143  0.4570 -0.6926  0.9293
 9769TIP3    H253503   1.125   0.619   2.209  0.6043 -1.9459 -0.3220
 9770TIP3   OH253504   0.477   4.994   0.997  0.6956 -0.0201 -0.3216
 9770TIP3    H153505   0.465   4.902   1.020 -1.2349  0.6186  1.4517
 9770TIP3    H253506   0.571   5.009   1.005  0.9360 -1.6320  0.1055
 9771TIP3   OH253507   6.476   0.188   2.785 -0.1814  0.3917 -0.1276
 9771TIP3    H153508   6.398   0.239   2.803 -0.7082 -0.4218 -0.0611
 9771TIP3    H253509   6.529   0.195   2.865 -1.8359 -1.9971  1.3201
 9772TIP3   OH253510   0.863   6.838   1.001  0.1888 -0.4648  0.4507
 9772TIP3    H153511   0.846   6.825   0.908 -1.0303  0.2391  0.5413
 9772TIP3    H253512   0.900   6.926   1.007 -0.1108 -0.3505  0.6588
 9773TIP3   OH253513   4.369   6.981   0.897  0.5530 -0.1856 -0.8745
 9773TIP3    H153514   4.359   7.051   0.833  0.1760  1.5733  1.0178
 9773TIP3    H253515   4.280   6.966   0.930  1.0122  0.5516  0.8123
 9774TIP3   OH253516   4.809   0.036   1.961  0.3974  0.7357  0.0588
 9774TIP3    H153517   4.738   0.098   1.944 -1.0884 -1.2011 -1.3643
 9774TIP3    H253518   4.868   0.046   1.887 -0.4652 -0.2924 -0.8067
 9775TIP3   OH253519   5.344   3.352   3.106  0.1849 -0.2931 -0.2278
 9775TIP3    H153520   5.309   3.412   3.172 -0.3170 -1.3195  0.4635
 9775TIP3    H253521   5.439   3.368   3.108  0.0137  0.8369 -0.4398
 9776TIP3   OH253522   5.291   2.975   2.557  0.5760  0.0887 -0.3921
 9776TIP3    H153523   5.270   3.003   2.646  0.8330  1.1058 -0.6336
 9776TIP3    H253524   5.351   2.901   2.569 -1.9240 -1.9600  0.2768
 9777TIP3   OH253525   5.180   6.498   2.183  0.1537  0.3266 -0.3796
 9777TIP3    H153526   5.150   6.427   2.126  1.9017 -1.4976  0.8347
 9777TIP3    H253527   5.117   6.499   2.254  1.3801 -1.8060  0.8742
 9778TIP3   OH253528   0.847   6.181   0.903  0.0417  0.4292 -0.1280
 9778TIP3    H153529   0.896   6.138   0.833  2.3822  1.2772  0.8846
 9778TIP3    H253530   0.758   6.148   0.893  1.2957 -3.4279 -0.3924
 9779TIP3   OH253531   3.872   3.884   2.033  0.5315 -0.3982  0.3167
 9779TIP3    H153532   3.948   3.918   1.985 -0.9466 -0.5808 -2.3961
 9779TIP3    H253533   3.891   3.791   2.044  0.3478 -0.6540 -1.2346
 9780TIP3   OH253534   3.061   5.509   1.528 -0.3979  0.4995  0.5913
 9780TIP3    H153535   3.132   5.558   1.569 -0.5839  0.4194  1.0145
 9780TIP3    H253536   3.024   5.569   1.464 -1.6313  1.5101  2.1748
 9781TIP3   OH253537   0.750   3.416   2.577 -0.0066 -0.5160 -0.2443
 9781TIP3    H153538   0.840   3.450   2.572  0.5183 -1.3146  2.1911
 9781TIP3    H253539   0.745   3.354   2.505  0.4433  1.4967 -2.1011
 9782TIP3   OH253540   5.013   1.774   1.821 -0.4139  0.1677  0.7193
 9782TIP3    H153541   5.001   1.740   1.910  1.2921 -0.0346  0.9155
 9782TIP3    H253542   5.001   1.868   1.829  1.6709  0.4121  1.6120
 9783TIP3   OH253543   2.236   1.818   2.195 -0.1222  0.0121  0.2153
 9783TIP3    H153544   2.181   1.740   2.180  0.5672 -0.8912  2.0906
 9783TIP3    H253545   2.237   1.862   2.110 -2.9707 -0.4062 -0.1667
 9784TIP3   OH253546   7.003   6.779   1.424  0.0340  0.3167  0.5853
 9784TIP3    H153547   7.044   6.710   1.476 -0.6373 -1.3989 -1.0443
 9784TIP3    H253548   7.044   6.772   1.338 -2.6758 -0.6825 -0.7530
 9785TIP3   OH253549   1.840   1.642   1.519  0.5096 -0.3720  0.4262
 9785TIP3    H153550   1.770   1.668   1.578 -0.6887 -1.3157 -0.5312
 9785TIP3    H253551   1.919   1.677   1.559 -0.5374  1.0515  1.3398
 9786TIP3   OH253552   5.710   2.075   2.518 -0.0551  0.1844  0.3249
 9786TIP3    H153553   5.751   2.067   2.604 -0.1941  1.1664  0.4922
 9786TIP3    H253554   5.620   2.104   2.536 -0.4102 -0.6116 -0.1067
 9787TIP3   OH253555   6.279   3.279   3.472  0.5077  0.1678 -0.0484
 9787TIP3    H153556   6.243   3.327   3.397  3.0038 -0.0110 -1.4388
 9787TIP3    H253557   6.221   3.203   3.481  0.7906 -0.4629 -2.6095
 9788TIP3   OH253558   2.497   6.056   1.682  0.4941 -0.2261 -0.2392
 9788TIP3    H153559   2.543   6.126   1.730  0.4279 -0.0060 -0.4922
 9788TIP3    H253560   2.431   6.102   1.630  0.5107 -0.4678 -0.4795
 9789TIP3   OH253561   4.367   4.119   3.311 -0.1240 -0.6765  0.5838
 9789TIP3    H153562   4.424   4.047   3.336  0.7242 -0.3390 -0.3039
 9789TIP3    H253563   4.322   4.143   3.392  1.0532 -0.9117  1.3364
 9790TIP3   OH253564   6.377   7.029   0.583  0.6342 -0.5550 -0.5342
 9790TIP3    H153565   6.385   7.049   0.676  2.5316  2.1376 -1.1621
 9790TIP3    H253566   6.289   6.992   0.574  0.9005 -2.2874  2.4848
 9791TIP3   OH253567   6.574   5.944   0.847 -0.5982 -0.0441  0.7897
 9791TIP3    H153568   6.588   6.018   0.906  0.8538  0.2307  0.1593
 9791TIP3    H253569   6.570   5.983   0.759  2.2674 -0.7968  0.2209
 9792TIP3   OH253570   2.333   7.285   1.228  0.2132 -0.6559 -0.4701
 9792TIP3    H153571   2.289   7.203   1.251  0.7861 -0.8017  0.1305
 9792TIP3    H253572   2.306   7.347   1.296 -2.0381  0.3361 -2.1420
 9793TIP3   OH253573   0.814   1.797   1.727  0.5604  0.0041 -0.0708
 9793TIP3    H153574   0.745   1.739   1.696  0.8446 -1.6783  2.1813
 9793TIP3    H253575   0.803   1.798   1.822  1.9133  1.9627  0.1249
 9794TIP3   OH253576   5.844   3.877   1.380  0.0350  0.2145  0.3328
 9794TIP3    H153577   5.928   3.875   1.334 -0.0449 -1.1091  0.2358
 9794TIP3    H253578   5.859   3.824   1.458 -0.5807  0.3795  0.5655
 9795TIP3   OH253579   0.795   5.315   3.479  0.1736 -0.2610  0.2892
 9795TIP3    H153580   0.842   5.387   3.437 -0.6930  0.9021  1.2493
 9795TIP3    H253581   0.763   5.262   3.406 -2.5494  2.4748 -0.7188
 9796TIP3   OH253582   4.237   4.845   2.816  0.2141  0.0709  0.0039
 9796TIP3    H153583   4.188   4.800   2.747 -1.8525 -0.6998  1.8555
 9796TIP3    H253584   4.290   4.777   2.856  0.4560  0.2556  0.0041
 9797TIP3   OH253585   2.310   4.534   2.187  0.7001  0.0726 -0.0658
 9797TIP3    H153586   2.223   4.522   2.225  1.0547  0.3246  0.8667
 9797TIP3    H253587   2.343   4.446   2.173  0.4740 -0.0241  0.0104
 9798TIP3   OH253588   5.239   0.427   1.673  0.8244 -0.0746  0.1134
 9798TIP3    H153589   5.154   0.446   1.634  0.3334 -2.4518 -0.1140
 9798TIP3    H253590   5.295   0.406   1.599  0.3914 -2.7189  0.4055
 9799TIP3   OH253591   6.480   7.211   1.772 -0.1955  0.5445  0.1797
 9799TIP3    H153592   6.431   7.205   1.690  0.9054 -1.2545 -0.3957
 9799TIP3    H253593   6.471   7.125   1.812  0.6117  0.8996  1.1857
 9800TIP3   OH253594   0.195   6.074   1.238 -0.6390  0.1681  0.2105
 9800TIP3    H153595   0.169   6.143   1.176 -0.5192  0.3577  0.3709
 9800TIP3    H253596   0.141   5.999   1.214 -0.3696  0.1407 -0.3347
 9801TIP3   OH253597   7.576   7.002   3.103 -0.0914  0.3700  0.1080
 9801TIP3    H153598   7.623   7.084   3.086  1.9561 -0.2397  2.2488
 9801TIP3    H253599   7.607   6.943   3.034 -1.3927  1.2686 -1.3034
 9802TIP3   OH253600   4.134   0.759   2.749 -0.2172 -0.1989 -0.2567
 9802TIP3    H153601   4.153   0.842   2.706 -1.9069  0.5938  0.4101
 9802TIP3    H253602   4.089   0.784   2.830 -1.0782 -1.7529 -0.2105
 9803TIP3   OH253603   2.773   3.723   3.109  0.0567  0.7423  0.2204
 9803TIP3    H153604   2.724   3.803   3.123  1.0172  1.4723 -0.4626
 9803TIP3    H253605   2.832   3.717   3.184 -0.3523  0.4025  0.5215
 9804TIP3   OH253606   4.003   0.394   2.030 -0.0505 -0.0140  0.1460
 9804TIP3    H153607   3.935   0.388   1.962  0.2110  0.0773 -0.1281
 9804TIP3    H253608   4.068   0.330   2.002  0.0920  0.0770  0.2731
 9805TIP3   OH253609   5.265   7.369   1.226 -0.0682  0.3615  0.5901
 9805TIP3    H153610   5.263   7.282   1.186 -1.4308  0.2992  0.7578
 9805TIP3    H253611   5.223   7.426   1.161 -0.8765  0.5420  1.2570
 9806TIP3   OH253612   4.632   4.910   1.553 -0.1921  0.1133 -0.1397
 9806TIP3    H153613   4.641   4.821   1.518  0.6106 -0.1541  0.7044
 9806TIP3    H253614   4.542   4.915   1.585  0.1283 -0.8581  0.9881
 9807TIP3   OH253615   2.917   2.467   3.416 -0.0714 -0.2557  0.2921
 9807TIP3    H153616   2.871   2.510   3.344  1.4377  1.8129  0.4624
 9807TIP3    H253617   2.947   2.384   3.380  1.5523  1.1791 -1.8410
 9808TIP3   OH253618   1.070   2.351   2.081  0.3781 -0.0718  0.3491
 9808TIP3    H153619   1.104   2.307   2.003  1.4343  0.5611  0.4259
 9808TIP3    H253620   1.039   2.280   2.138  0.7484 -0.6166 -0.1232
 9809TIP3   OH253621   2.068   1.966   2.657 -0.1463 -0.3617 -0.3295
 9809TIP3    H153622   2.030   2.005   2.736 -0.4440 -1.5281  0.1206
 9809TIP3    H253623   2.073   2.038   2.594 -0.9336  0.3326  0.3877
 9810TIP3   OH253624   6.405   0.469   2.725 -0.8161  0.0775 -0.0135
 9810TIP3    H153625   6.373   0.444   2.812 -0.8475 -0.2992 -0.1307
 9810TIP3    H253626   6.500   0.474   2.735 -0.8778  0.7947  0.2342
 9811TIP3   OH253627   7.661   1.738   2.019  0.1190 -0.3240 -0.1272
 9811TIP3    H153628   7.622   1.680   1.953  0.7465  0.2142 -0.9972
 9811TIP3    H253629   7.754   1.715   2.018 -0.0540 -1.2081  1.5226
 9812TIP3   OH253630   2.149   2.079   3.112 -0.0214  0.2331  0.9211
 9812TIP3    H153631   2.089   2.108   3.043  0.3727  0.1254  0.5265
 9812TIP3    H253632   2.093   2.061   3.187 -0.9387 -2.8629 -0.3452
 9813TIP3   OH253633   3.742   3.098   1.420  0.1614  0.1254 -0.2404
 9813TIP3    H153634   3.707   3.063   1.502  0.6709  0.0395 -0.0584
 9813TIP3    H253635   3.761   3.021   1.366 -2.4149  0.1973 -1.4192
 9814TIP3   OH253636   3.602   7.254   2.788 -0.0399 -0.1367  0.2083
 9814TIP3    H153637   3.595   7.258   2.883  3.6988  1.7088  0.5826
 9814TIP3    H253638   3.577   7.341   2.758  0.4664 -0.1621 -0.3092
 9815TIP3   OH253639   6.350   6.222   0.422  0.1583 -0.0720  0.5595
 9815TIP3    H153640   6.418   6.162   0.392 -0.1543  0.3517 -1.0650
 9815TIP3    H253641   6.267   6.178   0.399 -0.0889  1.5429 -2.0292
 9816TIP3   OH253642   6.816   7.444   0.432 -0.5988  0.0848  0.4247
 9816TIP3    H153643   6.841   7.537   0.438  1.1839 -0.4288  2.1259
 9816TIP3    H253644   6.728   7.445   0.396 -0.0873  2.3693 -0.9531
 9817TIP3   OH253645   6.078   4.395   1.752 -0.1296  0.4071 -0.4361
 9817TIP3    H153646   5.992   4.351   1.745 -0.1255  0.3500 -0.1137
 9817TIP3    H253647   6.057   4.486   1.771 -0.1507  0.6364 -1.4664
 9818TIP3   OH253648   6.218   5.876   2.842 -0.5351  0.1340  0.0895
 9818TIP3    H153649   6.151   5.809   2.856 -0.8394  0.3561 -0.3035
 9818TIP3    H253650   6.274   5.869   2.919 -0.1265 -1.0858 -0.2840
 9819TIP3   OH253651   3.646   0.117   1.936 -0.0214  0.3659 -0.1362
 9819TIP3    H153652   3.565   0.066   1.928  0.0502  0.0503  1.0029
 9819TIP3    H253653   3.715   0.056   1.907  0.0078 -0.0280  0.7343
 9820TIP3   OH253654   0.660   1.481   1.988  0.5930 -0.1498 -0.2427
 9820TIP3    H153655   0.658   1.459   1.895  0.0917 -0.8727 -0.0681
 9820TIP3    H253656   0.753   1.486   2.009  0.7143 -0.8820 -0.5827
 9821TIP3   OH253657   5.802   1.727   1.837  0.1276  0.5289 -0.2331
 9821TIP3    H153658   5.738   1.677   1.787 -0.9951  1.6375  0.0385
 9821TIP3    H253659   5.760   1.812   1.851  1.1068  0.8204  1.1292
 9822TIP3   OH253660   5.213   2.640   1.273 -0.5027  0.1836 -0.1786
 9822TIP3    H153661   5.255   2.709   1.324 -1.5395  1.8777 -1.5114
 9822TIP3    H253662   5.126   2.674   1.253 -1.1951 -1.6689 -0.6085
 9823TIP3   OH253663   4.670   2.097   2.340  0.3584 -0.0834 -0.0026
 9823TIP3    H153664   4.660   2.060   2.253  0.3910 -0.1965  0.0422
 9823TIP3    H253665   4.591   2.150   2.353  0.4869  0.1656 -0.2156
 9824TIP3   OH253666   2.544   1.157   4.056 -0.0119 -0.1998  0.4316
 9824TIP3    H153667   2.499   1.072   4.059 -1.4417  0.5385  0.8980
 9824TIP3    H253668   2.591   1.156   3.973 -2.2220 -0.3968 -0.8923
 9825TIP3   OH253669   4.798   1.702   1.258  0.6894 -0.1609  0.3645
 9825TIP3    H153670   4.772   1.747   1.177  1.0402  1.1538  0.9553
 9825TIP3    H253671   4.852   1.629   1.228  0.6717  0.2030 -0.6066
 9826TIP3   OH253672   5.855   7.458   1.193  0.1855 -0.0713  0.3985
 9826TIP3    H153673   5.841   7.368   1.223  3.0683 -1.0201 -0.7183
 9826TIP3    H253674   5.799   7.511   1.249 -0.8080 -2.4544  1.8191
 9827TIP3   OH253675   0.406   5.544   1.841  0.0301  0.2645  0.2984
 9827TIP3    H153676   0.481   5.499   1.800 -0.9444  0.1286 -1.4276
 9827TIP3    H253677   0.401   5.627   1.795  0.0561  0.9548  1.5103
 9828TIP3   OH253678   6.827   1.572   0.496 -0.1592 -0.2327  0.5072
 9828TIP3    H153679   6.909   1.524   0.486  0.6721  0.8570  1.6210
 9828TIP3    H253680   6.846   1.637   0.564 -1.8738  0.2330  0.6006
 9829TIP3   OH253681   7.127   4.296   1.548  0.2014 -0.1540 -0.4622
 9829TIP3    H153682   7.086   4.210   1.555 -0.0108 -0.0555 -0.4791
 9829TIP3    H253683   7.214   4.285   1.587  0.1483 -0.3567 -0.3996
 9830TIP3   OH253684   4.139   7.254   2.804 -0.1086 -0.4285  0.3227
 9830TIP3    H153685   4.096   7.234   2.720  2.3751 -3.1115 -0.4919
 9830TIP3    H253686   4.140   7.170   2.850  1.2257  0.3257  1.7223
 9831TIP3   OH253687   2.567   1.833   3.001 -0.1790 -0.5080  0.1497
 9831TIP3    H153688   2.530   1.891   3.067 -0.8762 -0.3913 -0.3246
 9831TIP3    H253689   2.496   1.773   2.980  0.0657 -0.6095 -0.4159
 9832TIP3   OH253690   3.717   5.686   2.156 -0.4542  0.6248 -0.0143
 9832TIP3    H153691   3.686   5.700   2.246  0.4803 -0.7118  0.5618
 9832TIP3    H253692   3.745   5.594   2.155  0.5266  0.9075 -1.3782
 9833TIP3   OH253693   5.666   3.272   1.659 -0.1060  0.0386 -0.4328
 9833TIP3    H153694   5.722   3.241   1.731 -1.7538 -2.2001  0.0060
 9833TIP3    H253695   5.727   3.286   1.586  1.4716  1.3124  1.0470
 9834TIP3   OH253696   3.226   0.165   2.799  0.6831  0.5177 -0.3957
 9834TIP3    H153697   3.174   0.220   2.740 -1.6477 -0.4508  0.6337
 9834TIP3    H253698   3.206   0.076   2.772  0.3076  0.0818  1.2142
 9835TIP3   OH253699   2.261   2.686   3.430 -0.4563  0.0865 -0.4165
 9835TIP3    H153700   2.220   2.696   3.516 -1.0730  0.6671 -0.7737
 9835TIP3    H253701   2.354   2.678   3.449 -0.7715 -2.0755  0.4633
 9836TIP3   OH253702   7.248   1.020   2.083 -0.4133  0.6157  0.0581
 9836TIP3    H153703   7.319   1.054   2.029  1.0674 -0.5290  1.2007
 9836TIP3    H253704   7.212   1.098   2.126  0.1825  1.2031 -0.4831
 9837TIP3   OH253705   1.487   6.012   1.329  0.3046 -0.3667  0.0492
 9837TIP3    H153706   1.490   6.106   1.310 -0.3108 -0.2300  0.5590
 9837TIP3    H253707   1.405   6.001   1.379  0.4430 -1.1489  0.1126
 9838TIP3   OH253708   4.965   1.660   2.066  0.2188  0.1058 -0.0927
 9838TIP3    H153709   4.938   1.572   2.040 -0.7123  0.6143 -0.9173
 9838TIP3    H253710   5.057   1.651   2.089 -0.4694 -1.6276  2.4470
 9839TIP3   OH253711   6.690   1.063   1.161 -0.0382  0.2824 -0.4340
 9839TIP3    H153712   6.639   1.001   1.109  0.3659  0.6498 -1.2902
 9839TIP3    H253713   6.749   1.008   1.212 -1.5680 -0.1789  0.9293
 9840TIP3   OH253714   2.548   0.269   1.178 -0.7918 -0.2278 -0.3974
 9840TIP3    H153715   2.617   0.239   1.118 -1.4099 -2.3348 -0.1332
 9840TIP3    H253716   2.487   0.316   1.123 -0.5792 -0.8239 -1.1624
 9841TIP3   OH253717   7.335   6.081   1.073  0.0290 -0.4910  0.0202
 9841TIP3    H153718   7.259   6.131   1.102  0.4743  0.5684 -0.5680
 9841TIP3    H253719   7.409   6.140   1.088  0.5827 -1.0267 -0.5689
 9842TIP3   OH253720   6.675   5.834   2.286 -0.8624 -0.1738  0.5264
 9842TIP3    H153721   6.753   5.790   2.322 -0.4724  0.1924  0.1399
 9842TIP3    H253722   6.668   5.801   2.196  0.4974  1.8575 -0.4058
 9843TIP3   OH253723   7.162   6.538   1.514 -0.4334  0.9299  0.3546
 9843TIP3    H153724   7.206   6.454   1.499  0.0755  1.3032 -0.2557
 9843TIP3    H253725   7.190   6.564   1.602 -0.6754  0.4224  0.5926
 9844TIP3   OH253726   7.574   4.269   0.619  0.2892 -0.0280  0.2769
 9844TIP3    H153727   7.560   4.185   0.576  0.3072  1.1839 -2.2535
 9844TIP3    H253728   7.493   4.286   0.666  0.4977 -1.6775  1.3063
 9845TIP3   OH253729   0.321   1.339   1.925  0.6842 -0.2627 -0.0737
 9845TIP3    H153730   0.407   1.302   1.904  1.0843  0.0237  0.9836
 9845TIP3    H253731   0.288   1.374   1.842  1.6959 -0.1594 -0.4411
 9846TIP3   OH253732   2.457   6.406   2.758  0.4098  0.1979  0.2132
 9846TIP3    H153733   2.407   6.482   2.788 -0.4438 -1.3081  3.0188
 9846TIP3    H253734   2.496   6.370   2.838 -0.5468 -3.1976 -0.6652
 9847TIP3   OH253735   5.418   1.562   1.022 -0.1405  0.1255 -0.2316
 9847TIP3    H153736   5.492   1.547   1.082  1.6424  0.7203 -2.1818
 9847TIP3    H253737   5.391   1.652   1.039  1.1314  0.6887 -1.0778
 9848TIP3   OH253738   3.588   7.038   2.628  0.3463  0.2386 -0.2139
 9848TIP3    H153739   3.541   7.078   2.701  0.1079 -0.2040 -0.1277
 9848TIP3    H253740   3.674   7.082   2.628  0.3105  0.3080  0.2658
 9849TIP3   OH253741   2.136   2.090   1.654  0.1117 -0.0180 -0.0675
 9849TIP3    H153742   2.048   2.127   1.652  0.5644  1.1645  0.6187
 9849TIP3    H253743   2.123   1.995   1.656 -1.0990  0.0794 -1.6949
 9850TIP3   OH253744   4.997   3.037   2.488  0.4143  0.2969 -0.8648
 9850TIP3    H153745   5.077   2.988   2.471 -0.9462 -2.2411 -0.4821
 9850TIP3    H253746   4.953   2.988   2.558 -0.9731  2.2205 -0.2893
 9851TIP3   OH253747   6.947   4.078   2.944 -0.1048  0.4199 -0.4309
 9851TIP3    H153748   7.029   4.118   2.915 -1.0551  2.3667 -0.5387
 9851TIP3    H253749   6.906   4.144   3.000 -2.1919 -0.0032 -1.3715
 9852TIP3   OH253750   0.074   3.397   1.271 -0.1433 -0.1322 -0.0180
 9852TIP3    H153751  -0.011   3.354   1.259 -0.5587  0.8863 -0.8907
 9852TIP3    H253752   0.130   3.329   1.311 -1.7015 -0.4258  1.7878
 9853TIP3   OH253753   3.384   3.184   2.822 -0.5109  0.4799 -0.3190
 9853TIP3    H153754   3.349   3.096   2.839 -0.3622  0.4920  0.0745
 9853TIP3    H253755   3.380   3.194   2.727 -1.0065  0.2445 -0.3281
 9854TIP3   OH253756   7.292   7.605   2.075  0.0854 -1.0997 -0.3889
 9854TIP3    H153757   7.356   7.552   2.122  1.4375  0.2766 -0.5871
 9854TIP3    H253758   7.269   7.553   1.998  0.0810 -2.0987  0.2722
 9855TIP3   OH253759   5.088   6.838   1.545 -0.2731  0.2959  0.6965
 9855TIP3    H153760   5.172   6.855   1.502 -0.5061  0.0891  0.1484
 9855TIP3    H253761   5.042   6.922   1.540 -0.3952  0.2095  0.3154
 9856TIP3   OH253762   3.194   4.562   2.066 -0.4618 -0.1550  0.4608
 9856TIP3    H153763   3.246   4.629   2.110 -0.7923  0.0908  0.4828
 9856TIP3    H253764   3.214   4.481   2.114  0.2970 -0.1666  0.1357
 9857TIP3   OH253765   1.169   1.658   1.812  0.2694  0.4468 -0.8494
 9857TIP3    H153766   1.201   1.749   1.813  1.0960  0.1783  1.0382
 9857TIP3    H253767   1.102   1.656   1.880  1.0850 -0.6178 -0.0576
 9858TIP3   OH253768   0.915   0.149   1.665  0.6499  0.1274 -0.4401
 9858TIP3    H153769   0.940   0.086   1.732  0.7148  0.8785  0.2585
 9858TIP3    H253770   0.998   0.182   1.632  0.6130  0.1447 -0.5145
 9859TIP3   OH253771   1.142   6.896   0.851  0.1109 -0.4466 -0.2092
 9859TIP3    H153772   1.207   6.909   0.920  0.8217 -0.2187 -0.9089
 9859TIP3    H253773   1.169   6.956   0.782  0.8244 -2.3331 -1.6578
 9860TIP3   OH253774   4.257   0.813   1.294 -0.2574  0.1703  0.1626
 9860TIP3    H153775   4.172   0.853   1.316  0.1250  0.1741  1.7872
 9860TIP3    H253776   4.234   0.726   1.262 -0.9503  0.7458 -0.9742
 9861TIP3   OH253777   0.350   4.120   2.209  0.1367  0.2038 -0.6273
 9861TIP3    H153778   0.443   4.100   2.224  0.2185  1.3371  0.5258
 9861TIP3    H253779   0.349   4.214   2.191 -0.8294  0.2732 -0.2345
 9862TIP3   OH253780   2.321   6.330   1.300 -0.1410  0.3009  0.1990
 9862TIP3    H153781   2.387   6.268   1.269  0.3980  0.4839  0.9511
 9862TIP3    H253782   2.258   6.336   1.228 -1.1278 -2.4284  0.7210
 9863TIP3   OH253783   1.153   4.916   1.049  0.4829  0.0244  0.3838
 9863TIP3    H153784   1.124   5.005   1.067 -0.5008 -0.0565 -0.7163
 9863TIP3    H253785   1.223   4.900   1.113 -1.4250  0.4673  2.7060
 9864TIP3   OH253786   2.560   6.827   1.046 -0.4742 -0.1043  0.4447
 9864TIP3    H153787   2.652   6.800   1.037 -0.9402 -1.3395 -1.0421
 9864TIP3    H253788   2.562   6.898   1.109  1.5396  0.0074  0.3128
 9865TIP3   OH253789   2.694   6.876   2.370  0.0293 -0.3055 -0.6320
 9865TIP3    H153790   2.623   6.813   2.383 -0.7579  0.4946 -1.0141
 9865TIP3    H253791   2.772   6.830   2.403 -1.1655  0.1140  3.2897
 9866TIP3   OH253792   2.818   0.379   0.700 -0.1980  0.1079 -0.5001
 9866TIP3    H153793   2.890   0.345   0.647 -0.9855 -1.4016 -0.6502
 9866TIP3    H253794   2.843   0.469   0.719  3.0095 -1.0417  1.6398
 9867TIP3   OH253795   0.240   0.283   2.814 -0.4942  0.2136  0.2788
 9867TIP3    H153796   0.219   0.365   2.860  1.6871  1.0862 -0.1604
 9867TIP3    H253797   0.309   0.307   2.753  0.3351 -2.0160  0.2571
 9868TIP3   OH253798   0.864   1.107   1.675  0.0577  0.1694 -0.5271
 9868TIP3    H153799   0.873   1.162   1.752 -0.2520 -0.3617 -0.1002
 9868TIP3    H253800   0.938   1.130   1.619 -1.2859  2.6994 -1.4464
 9869TIP3   OH253801   5.765   2.375   1.254 -0.3645 -0.3251 -0.4857
 9869TIP3    H153802   5.718   2.305   1.209 -0.4992  0.0951 -1.0128
 9869TIP3    H253803   5.846   2.386   1.203 -0.0878 -0.4685 -0.0826
 9870TIP3   OH253804   5.919   3.697   2.635  0.5485 -0.4884  0.1618
 9870TIP3    H153805   5.875   3.623   2.593 -1.7144  1.0775 -0.4230
 9870TIP3    H253806   5.934   3.759   2.564  1.8783 -0.1073  0.7419
 9871TIP3   OH253807   2.033   4.634   2.310 -0.5363 -0.6827  0.0837
 9871TIP3    H153808   2.073   4.559   2.354 -0.1645 -0.8008 -0.4611
 9871TIP3    H253809   1.939   4.613   2.307 -0.5953 -0.5962  0.9669
 9872TIP3   OH253810   1.126   3.826   1.484 -0.0189 -0.5395 -0.0060
 9872TIP3    H153811   1.112   3.732   1.495 -2.4148  0.0434  3.4303
 9872TIP3    H253812   1.208   3.844   1.529  0.2611 -0.8895 -0.3659
 9873TIP3   OH253813   1.868   6.707   3.502 -0.3017 -0.2231 -0.5156
 9873TIP3    H153814   1.962   6.701   3.488 -0.0904 -0.9300  1.0711
 9873TIP3    H253815   1.829   6.658   3.430  0.5403 -0.1623 -1.0161
 9874TIP3   OH253816   3.840   7.136   2.709  0.4619 -0.0808  0.4417
 9874TIP3    H153817   3.882   7.107   2.790  1.2907 -0.9057 -0.2620
 9874TIP3    H253818   3.759   7.179   2.738 -0.0197 -1.6771  1.6435
 9875TIP3   OH253819   0.176   5.588   3.511  0.7054 -0.2698 -0.3983
 9875TIP3    H153820   0.245   5.589   3.577  1.3969  1.6830 -1.0791
 9875TIP3    H253821   0.166   5.496   3.488  1.4776 -0.8339  1.3413
 9876TIP3   OH253822   1.179   3.749   2.034  0.4511  0.2007 -0.5270
 9876TIP3    H153823   1.094   3.790   2.052  0.1050 -1.2917  1.4782
 9876TIP3    H253824   1.219   3.807   1.969 -2.3956  0.5494 -2.1908
 9877TIP3   OH253825   1.240   1.776   2.194 -0.0488 -0.2643  0.4125
 9877TIP3    H153826   1.321   1.817   2.226 -0.5517  2.9997 -1.9427
 9877TIP3    H253827   1.179   1.784   2.267  1.3569 -1.8424  1.8658
 9878TIP3   OH253828   5.462   3.290   1.088 -0.0157 -0.0536  0.3869
 9878TIP3    H153829   5.445   3.380   1.061 -0.9911 -0.2629  0.2848
 9878TIP3    H253830   5.379   3.258   1.121  0.3754 -0.8546  0.6257
 9879TIP3   OH253831   1.654   7.482   2.387  0.1163 -0.3709 -0.0219
 9879TIP3    H153832   1.732   7.427   2.382  0.4784  0.0523  0.8006
 9879TIP3    H253833   1.661   7.528   2.471 -0.8888 -0.1314 -0.0471
 9880TIP3   OH253834   3.723   0.869   2.822  0.3887 -0.7222 -0.1347
 9880TIP3    H153835   3.678   0.935   2.875  0.1264  0.0058 -1.2346
 9880TIP3    H253836   3.667   0.859   2.745  0.7664 -1.7616 -0.2800
 9881TIP3   OH253837   4.911   3.646   1.660 -0.1159 -0.1434  0.2960
 9881TIP3    H153838   4.895   3.565   1.610 -0.1106  0.5116 -0.8048
 9881TIP3    H253839   4.980   3.623   1.722 -0.0800 -0.9696 -0.0331
 9882TIP3   OH253840   6.835   1.515   1.060 -0.2708  0.0435 -0.6704
 9882TIP3    H153841   6.898   1.445   1.043 -0.8774 -0.7628  0.2493
 9882TIP3    H253842   6.751   1.470   1.064 -0.6053  0.7395  0.4741
 9883TIP3   OH253843   2.920   5.188   0.952  0.5415  0.1055  0.2939
 9883TIP3    H153844   2.991   5.215   0.893  0.1912 -0.4033 -0.3834
 9883TIP3    H253845   2.928   5.246   1.028  0.7629  1.0544 -0.4304
 9884TIP3   OH253846   0.505   0.918   0.850  0.0504 -0.5584 -0.4944
 9884TIP3    H153847   0.591   0.881   0.832  0.2217  0.4638 -1.9159
 9884TIP3    H253848   0.462   0.921   0.765 -1.1411 -0.4046  0.0918
 9885TIP3   OH253849   7.342   4.218   1.682  0.7525  0.1625  0.3422
 9885TIP3    H153850   7.423   4.268   1.683  1.0118 -0.2589  1.8391
 9885TIP3    H253851   7.314   4.214   1.773  0.0917 -1.3904  0.1021
 9886TIP3   OH253852   4.164   5.556   1.160  0.4493 -0.1799 -0.7787
 9886TIP3    H153853   4.223   5.631   1.162  0.2907 -0.0607  0.1344
 9886TIP3    H253854   4.156   5.530   1.252 -1.0931 -0.0363 -0.8454
 9887TIP3   OH253855   4.117   1.492   0.999 -0.7765  0.2195  0.0083
 9887TIP3    H153856   4.058   1.418   0.986 -1.1745  0.7454 -1.4580
 9887TIP3    H253857   4.145   1.515   0.911  2.1824 -0.4082  0.6925
 9888TIP3   OH253858   2.246   6.457   1.654 -0.0199 -0.2039  0.1257
 9888TIP3    H153859   2.212   6.509   1.727 -0.4516 -0.7254  0.2992
 9888TIP3    H253860   2.341   6.462   1.663 -0.0707 -0.4283  0.8448
 9889TIP3   OH253861   1.771   5.405   3.208 -0.3944  0.3758 -0.1897
 9889TIP3    H153862   1.682   5.380   3.184 -0.3735 -0.5480  0.5984
 9889TIP3    H253863   1.822   5.394   3.127 -0.4642 -1.9242  0.0003
 9890TIP3   OH253864   3.591   5.173   2.103 -0.3729 -0.4234  0.2778
 9890TIP3    H153865   3.643   5.141   2.177  0.6165  0.3186 -0.0753
 9890TIP3    H253866   3.627   5.127   2.027 -0.0958  0.2423  0.0017
 9891TIP3   OH253867   2.326   5.008   3.004 -0.4049  0.1052  0.1370
 9891TIP3    H153868   2.240   5.036   3.035 -1.6038 -0.7287 -2.1407
 9891TIP3    H253869   2.358   4.948   3.071 -2.7664 -1.5109 -0.0587
 9892TIP3   OH253870   0.974   5.529   2.696  0.1520  0.0353  0.3503
 9892TIP3    H153871   0.962   5.497   2.786  0.2859  1.3703  0.8751
 9892TIP3    H253872   1.065   5.509   2.676  0.2329  0.0769  0.6632
 9893TIP3   OH253873   1.772   2.508   1.590  0.1249 -0.3465 -0.0118
 9893TIP3    H153874   1.732   2.593   1.570  2.0783  0.2884 -1.4985
 9893TIP3    H253875   1.855   2.530   1.632  0.4850 -1.5333 -0.0752
 9894TIP3   OH253876   2.826   7.001   1.509 -0.0812  0.3346  0.1912
 9894TIP3    H153877   2.810   6.909   1.485  0.2489  0.5212 -0.7975
 9894TIP3    H253878   2.919   7.002   1.535  0.0061  0.4492 -0.1222
 9895TIP3   OH253879   7.613   4.923   0.583 -0.6118  0.4364 -0.3441
 9895TIP3    H153880   7.589   4.847   0.635 -0.7664  0.6811 -0.0570
 9895TIP3    H253881   7.534   4.975   0.577 -0.6281  0.3588 -0.9253
 9896TIP3   OH253882   0.364   0.034   2.687  0.8301 -0.2088  0.0128
 9896TIP3    H153883   0.367   0.129   2.698 -1.2712 -0.0223 -0.5050
 9896TIP3    H253884   0.456   0.006   2.688  1.5085  1.8650 -0.2926
 9897TIP3   OH253885   0.730   7.637   2.415  0.2026 -0.0254  0.6618
 9897TIP3    H153886   0.704   7.725   2.388 -0.7895 -0.0576  1.4678
 9897TIP3    H253887   0.716   7.635   2.510 -0.9178 -1.4057  0.5075
 9898TIP3   OH253888   1.887   5.606   1.121 -0.1803  0.1600 -0.2575
 9898TIP3    H153889   1.860   5.528   1.072 -0.3655  0.3280 -0.4208
 9898TIP3    H253890   1.807   5.635   1.165 -0.0957  0.2188 -0.1441
 9899TIP3   OH253891   6.170   1.352   2.175  0.3586  0.0909 -0.1336
 9899TIP3    H153892   6.230   1.289   2.217  0.0525  0.7680  1.3816
 9899TIP3    H253893   6.214   1.376   2.094  1.5503 -0.3882  0.3460
 9900TIP3   OH253894   0.228   6.971   2.255 -0.2845  0.3601 -0.0467
 9900TIP3    H153895   0.266   7.058   2.250  0.0926  0.1945 -0.0468
 9900TIP3    H253896   0.242   6.944   2.346  0.0884  0.0758 -0.1888
 9901TIP3   OH253897   7.187   6.187   2.466 -0.3181  0.4071 -0.1145
 9901TIP3    H153898   7.126   6.123   2.504  0.9367 -0.9055 -0.2351
 9901TIP3    H253899   7.222   6.234   2.541 -1.2938  1.0403 -0.0285
 9902TIP3   OH253900   6.354   6.238   2.634 -0.2464 -0.3738  0.3528
 9902TIP3    H153901   6.326   6.294   2.706  0.1216 -1.6512  1.5306
 9902TIP3    H253902   6.280   6.179   2.620  0.2176 -1.0278  0.6272
 9903TIP3   OH253903   6.503   1.604   2.162 -0.4135 -0.5672  0.2626
 9903TIP3    H153904   6.528   1.663   2.232  0.3319  1.0771 -1.3138
 9903TIP3    H253905   6.558   1.527   2.175 -0.0453 -0.1553  1.2618
 9904TIP3   OH253906   3.215   6.864   2.623 -0.2258 -0.4073 -0.3325
 9904TIP3    H153907   3.215   6.926   2.695 -0.0857 -0.4478 -0.2979
 9904TIP3    H253908   3.278   6.899   2.560 -1.0850  0.1675 -0.9022
 9905TIP3   OH253909   7.288   4.544   1.624 -0.1711  0.4629  0.3969
 9905TIP3    H153910   7.261   4.633   1.602 -1.8129 -0.2924 -0.8677
 9905TIP3    H253911   7.225   4.516   1.691 -0.0883  0.0158  0.2887
 9906TIP3   OH253912   4.726   5.036   2.489 -0.1388 -0.5282  0.5895
 9906TIP3    H153913   4.755   4.991   2.568  0.0152 -0.3043  0.6608
 9906TIP3    H253914   4.741   4.973   2.419  0.0193 -0.6110  0.6969
 9907TIP3   OH253915   3.232   6.884   1.331  0.2828  0.3256  0.6170
 9907TIP3    H153916   3.180   6.898   1.252  1.4791  2.7124  0.1467
 9907TIP3    H253917   3.323   6.886   1.300  0.7487  0.3398  1.9073
 9908TIP3   OH253918   0.657   1.879   2.339 -0.0845  0.0781 -0.6725
 9908TIP3    H153919   0.621   1.795   2.311 -0.4944 -0.2321  0.7246
 9908TIP3    H253920   0.730   1.856   2.397 -0.1877  0.6805 -0.2891
 9909TIP3   OH253921   4.354   6.347   1.986  0.1877  0.3340 -0.2276
 9909TIP3    H153922   4.271   6.385   2.015 -0.5768  0.6276 -2.6295
 9909TIP3    H253923   4.362   6.267   2.038 -1.2469  0.6422  0.5293
 9910TIP3   OH253924   4.438   6.787   1.738  0.1039 -0.2238  0.4047
 9910TIP3    H153925   4.465   6.740   1.817  2.3146  0.9908  0.4295
 9910TIP3    H253926   4.441   6.879   1.762  1.2825  0.2016 -1.1937
 9911TIP3   OH253927   3.009   3.853   2.837  0.0329 -0.5268  0.1799
 9911TIP3    H153928   3.059   3.799   2.776  0.9019  0.0080  0.3973
 9911TIP3    H253929   3.063   3.856   2.916 -0.4441 -0.1106  0.4973
 9912TIP3   OH253930   2.895   0.660   1.667  0.1031  0.0210  0.0841
 9912TIP3    H153931   2.937   0.723   1.609 -0.9488  1.1242  0.4722
 9912TIP3    H253932   2.805   0.691   1.674 -0.7920 -2.2322 -0.6804
 9913TIP3   OH253933   0.030   1.245   1.921  0.2190  0.4737  0.5355
 9913TIP3    H153934   0.098   1.192   1.878 -0.1326 -0.0030  0.5609
 9913TIP3    H253935   0.057   1.335   1.904  1.6360  0.3194  1.7482
 9914TIP3   OH253936   5.237   6.244   1.753  0.2440  0.4764  0.2284
 9914TIP3    H153937   5.268   6.300   1.824 -1.3120  1.1133  0.4397
 9914TIP3    H253938   5.184   6.301   1.698 -1.1943 -0.7091  0.3181
 9915TIP3   OH253939   4.530   4.566   2.272  0.6867 -0.6267 -0.3169
 9915TIP3    H153940   4.474   4.560   2.195  0.1198  0.7953 -0.0351
 9915TIP3    H253941   4.607   4.513   2.249  1.8343  1.8924 -3.0200
 9916TIP3   OH253942   7.643   2.988   1.733  0.0533 -0.0074 -0.1199
 9916TIP3    H153943   7.571   2.953   1.784  0.6763 -0.2705  0.6032
 9916TIP3    H253944   7.692   3.043   1.794  1.5868 -1.3987 -0.0169
 9917TIP3   OH253945   1.991   5.550   2.735 -0.0234  0.3813  0.2755
 9917TIP3    H153946   1.968   5.626   2.789  2.6393  1.3303  0.2125
 9917TIP3    H253947   2.030   5.488   2.796  2.3467  1.1645 -0.3678
 9918TIP3   OH253948   6.133   6.079   2.688 -0.3338  0.5492  0.2827
 9918TIP3    H153949   6.076   6.134   2.741 -0.8537  1.4657 -1.1792
 9918TIP3    H253950   6.175   6.021   2.751 -1.2784  1.2772  1.6341
 9919TIP3   OH253951   7.516   2.686   1.675  0.2803 -0.6652  0.4441
 9919TIP3    H153952   7.521   2.665   1.768 -0.1460  0.6072  0.7679
 9919TIP3    H253953   7.422   2.694   1.657  0.3400 -1.2540 -0.1888
 9920TIP3   OH253954   5.307   2.252   1.768 -0.1199 -0.4689  0.6635
 9920TIP3    H153955   5.281   2.263   1.860 -0.2736 -1.8879  0.8143
 9920TIP3    H253956   5.239   2.196   1.731 -0.5303  0.7964 -0.5693
 9921TIP3   OH253957   0.974   1.304   1.830 -0.0862  0.3590  0.4207
 9921TIP3    H153958   1.026   1.345   1.761  0.7744  0.1054  0.9040
 9921TIP3    H253959   0.942   1.376   1.883  0.4001  0.4820  0.5530
 9922TIP3   OH253960   7.233   2.229   0.541 -0.4088 -0.4977 -0.0933
 9922TIP3    H153961   7.313   2.178   0.556  0.0943  0.4369  0.5292
 9922TIP3    H253962   7.265   2.312   0.506 -1.2136 -0.5844 -1.0645
 9923TIP3   OH253963   6.248   1.644   1.362 -0.3600 -0.2034 -0.1197
 9923TIP3    H153964   6.255   1.584   1.436  0.6956 -0.6744 -0.5738
 9923TIP3    H253965   6.200   1.595   1.295  0.5241 -0.5778 -0.4998
 9924TIP3   OH253966   2.958   6.156   1.834  0.1721 -0.0926  0.2903
 9924TIP3    H153967   2.950   6.061   1.835  0.7206 -0.1397  1.2726
 9924TIP3    H253968   2.995   6.178   1.920 -0.1368  1.0212  0.1514
 9925TIP3   OH253969   1.755   3.674   1.318  0.1152 -0.1131 -0.5865
 9925TIP3    H153970   1.820   3.648   1.252  1.2775 -0.5081  0.6651
 9925TIP3    H253971   1.755   3.602   1.381 -0.5210  0.5426  0.1744
 9926TIP3   OH253972   2.414   4.121   1.004  0.2823  0.3068 -0.2388
 9926TIP3    H153973   2.392   4.086   0.917 -1.8911  0.8092  0.0693
 9926TIP3    H253974   2.373   4.207   1.006 -0.4732 -0.0698  1.6290
 9927TIP3   OH253975   7.314   6.609   0.805  0.1064 -0.4920 -0.2334
 9927TIP3    H153976   7.402   6.640   0.781 -0.0839  0.6458  0.4268
 9927TIP3    H253977   7.260   6.630   0.728  0.3296 -0.7984 -0.4750
 9928TIP3   OH253978   4.316   6.793   2.059  0.2241 -0.2414 -0.9009
 9928TIP3    H153979   4.240   6.841   2.027  0.4954  0.5978 -0.3477
 9928TIP3    H253980   4.373   6.861   2.096  1.2887 -0.8307 -1.3869
 9929TIP3   OH253981   1.645   4.294   1.038 -0.2793 -0.2462  0.0797
 9929TIP3    H153982   1.732   4.315   1.002  0.0805 -1.2875  0.3290
 9929TIP3    H253983   1.637   4.352   1.114 -0.3043  0.6912 -0.6073
 9930TIP3   OH253984   4.604   3.752   2.876 -0.8424 -0.2014  0.0557
 9930TIP3    H153985   4.609   3.665   2.915 -1.1369 -0.1318  0.2487
 9930TIP3    H253986   4.544   3.741   2.802 -2.3303  0.2253  1.1487
 9931TIP3   OH253987   7.608   4.815   2.010  0.1626 -0.0710  0.6561
 9931TIP3    H153988   7.660   4.890   1.983  2.2145 -1.3292  0.9137
 9931TIP3    H253989   7.538   4.853   2.064 -0.1332  1.8132 -0.9301
 9932TIP3   OH253990   3.373   4.409   3.315 -0.2844 -0.3287 -0.3841
 9932TIP3    H153991   3.462   4.417   3.282 -0.2972  1.5733 -0.1054
 9932TIP3    H253992   3.320   4.389   3.238  0.1365  0.6413 -0.9511
 9933TIP3   OH253993   0.461   0.430   1.292 -0.1508  0.1629  0.4855
 9933TIP3    H153994   0.461   0.495   1.362 -1.2679  0.9148 -0.1710
 9933TIP3    H253995   0.553   0.404   1.282  0.2864  1.4891  0.9077
 9934TIP3   OH253996   6.479   0.691   1.146  0.2438  0.2552 -0.3501
 9934TIP3    H153997   6.469   0.625   1.214  0.4628 -0.1347 -0.6931
 9934TIP3    H253998   6.566   0.729   1.162  1.4178 -1.5832 -1.9044
 9935TIP3   OH253999   1.860   1.572   1.812 -0.5279  0.6911 -0.5220
 9935TIP3    H154000   1.951   1.544   1.798 -1.0569 -1.3792 -0.2058
 9935TIP3    H254001   1.835   1.529   1.894 -2.2655 -0.0319 -1.3868
 9936TIP3   OH254002   0.618   6.837   1.956 -0.1505  0.4064  0.1833
 9936TIP3    H154003   0.573   6.906   2.006 -1.8296  1.4348 -2.5169
 9936TIP3    H254004   0.548   6.791   1.910  1.2617 -0.4616 -1.2010
 9937TIP3   OH254005   2.847   6.316   3.333  0.0817 -0.3333  0.4319
 9937TIP3    H154006   2.850   6.251   3.403  1.8049 -0.4808  0.2464
 9937TIP3    H254007   2.773   6.289   3.279 -0.2136 -1.2044  1.2445
 9938TIP3   OH254008   1.645   0.994   0.667 -0.2507  0.3495  0.2347
 9938TIP3    H154009   1.704   0.984   0.742 -0.1541 -0.3620  0.0709
 9938TIP3    H254010   1.700   1.034   0.599 -0.8918  3.1163  1.2046
 9939TIP3   OH254011   6.351   4.916   2.174 -0.0654  0.0265 -0.0152
 9939TIP3    H154012   6.301   4.847   2.218  1.5684  0.8019  3.3759
 9939TIP3    H254013   6.413   4.869   2.118 -1.4868 -1.0612 -0.7449
 9940TIP3   OH254014   4.189   5.429   1.434  0.3968  0.2227 -0.1901
 9940TIP3    H154015   4.225   5.481   1.505 -0.8977  1.5321 -0.4574
 9940TIP3    H254016   4.154   5.350   1.477 -0.0125  0.8152  0.5881
 9941TIP3   OH254017   1.075   0.744   1.828  0.4382 -0.1630 -0.0426
 9941TIP3    H154018   0.982   0.765   1.834  0.2867 -0.8049 -0.1058
 9941TIP3    H254019   1.109   0.762   1.916  0.7067  2.1105 -0.5426
 9942TIP3   OH254020   1.802   4.089   1.604 -0.0242  0.6332 -0.1907
 9942TIP3    H154021   1.831   4.018   1.546 -0.3059  0.9877 -0.7646
 9942TIP3    H254022   1.882   4.117   1.649  0.5980  1.7181 -1.8927
 9943TIP3   OH254023   5.056   4.623   1.322  0.0642  0.1970 -0.1967
 9943TIP3    H154024   5.116   4.616   1.248  0.3673  0.9668 -0.0352
 9943TIP3    H254025   5.030   4.715   1.323 -1.3123 -0.1780 -0.3989
 9944TIP3   OH254026   6.974   2.297   2.625 -0.1770  0.4280 -0.1273
 9944TIP3    H154027   7.043   2.353   2.590 -0.8392  1.4427  0.1452
 9944TIP3    H254028   7.016   2.245   2.693  0.1279  1.6560  0.6354
 9945TIP3   OH254029   2.366   1.704   1.583  0.1722 -0.1277 -0.5956
 9945TIP3    H154030   2.363   1.693   1.678  1.0102 -0.6607 -0.6170
 9945TIP3    H254031   2.411   1.788   1.570 -2.6197  1.4918 -0.5008
 9946TIP3   OH254032   6.976   4.734   1.036 -0.2696  0.2603  0.3134
 9946TIP3    H154033   7.036   4.684   1.091 -0.0357 -0.0978 -0.2664
 9946TIP3    H254034   6.928   4.669   0.986  0.1592  0.6105 -0.5735
 9947TIP3   OH254035   5.469   5.600   1.445 -0.4831 -0.0444  0.2391
 9947TIP3    H154036   5.485   5.667   1.511 -0.6044  1.1424 -0.8898
 9947TIP3    H254037   5.552   5.553   1.438 -0.7026 -0.6867  1.7599
 9948TIP3   OH254038   4.615   5.702   1.366 -0.6520  0.4456 -0.6659
 9948TIP3    H154039   4.599   5.616   1.328 -0.1134  1.5596 -3.6805
 9948TIP3    H254040   4.637   5.684   1.458 -1.4367 -2.5020 -0.9620
 9949TIP3   OH254041   3.201   7.482   2.231  0.2647 -0.6250 -0.1577
 9949TIP3    H154042   3.170   7.451   2.145  1.2812 -1.5918 -0.1900
 9949TIP3    H254043   3.295   7.495   2.219  0.2168  0.3567  0.4953
 9950TIP3   OH254044   4.608   4.576   3.040  0.4810 -0.3111 -0.1059
 9950TIP3    H154045   4.648   4.516   2.977  1.3307  0.2546 -0.1265
 9950TIP3    H254046   4.680   4.633   3.068 -0.7020  2.3225 -1.9284
 9951TIP3   OH254047   0.690   5.197   1.319 -0.2154 -0.7611  0.5158
 9951TIP3    H154048   0.683   5.164   1.230  0.3309  1.4797 -0.4212
 9951TIP3    H254049   0.679   5.120   1.374 -1.1142 -2.1232 -1.4574
 9952TIP3   OH254050   2.527   3.102   2.229 -0.1814  0.2728 -0.2640
 9952TIP3    H154051   2.493   3.128   2.315  0.5908 -0.3117  0.2300
 9952TIP3    H254052   2.621   3.122   2.233 -0.6571  3.6725 -2.2724
 9953TIP3   OH254053   0.926   0.606   3.452  0.1566  0.3740 -0.2751
 9953TIP3    H154054   0.831   0.598   3.465  0.3981 -2.3170  0.4837
 9953TIP3    H254055   0.953   0.519   3.423  2.4559  1.0235 -0.2386
 9954TIP3   OH254056   3.780   3.138   2.887  0.7523 -0.4260  0.5124
 9954TIP3    H154057   3.795   3.043   2.883  0.3178 -0.6383  2.6599
 9954TIP3    H254058   3.868   3.176   2.895  0.8522 -0.7773  1.1663
 9955TIP3   OH254059   2.267   4.559   0.750  0.6727  0.1037 -0.1362
 9955TIP3    H154060   2.283   4.494   0.818  1.4622  1.3992  0.9875
 9955TIP3    H254061   2.353   4.577   0.713  0.3835  0.1111 -0.8147
 9956TIP3   OH254062   0.882   5.779   3.455 -0.5803  0.0677 -0.2492
 9956TIP3    H154063   0.953   5.788   3.391  0.0393 -1.5474  0.1533
 9956TIP3    H254064   0.911   5.709   3.513 -1.1026  1.4937  1.8509
 9957TIP3   OH254065   2.820   7.634   1.489 -0.0255 -0.1425  0.0467
 9957TIP3    H154066   2.881   7.570   1.526 -1.0612 -0.4491  1.2808
 9957TIP3    H254067   2.786   7.592   1.411  0.5366 -0.4117 -0.0635
 9958TIP3   OH254068   1.754   1.015   0.928  0.2263  0.2970 -0.5732
 9958TIP3    H154069   1.809   1.092   0.913  0.0352  0.4636 -0.4241
 9958TIP3    H254070   1.668   1.051   0.951  0.3570  0.0581  0.3548
 9959TIP3   OH254071   3.308   2.396   1.344  1.0185 -0.3061  0.6023
 9959TIP3    H154072   3.323   2.396   1.438 -0.5419 -1.7018  0.8829
 9959TIP3    H254073   3.358   2.471   1.312  1.8022  0.0221  2.4894
 9960TIP3   OH254074   1.476   5.107   0.959 -0.4752  0.3217 -0.0327
 9960TIP3    H154075   1.545   5.162   0.922  1.0759 -1.9795 -0.6929
 9960TIP3    H254076   1.480   5.125   1.053  0.6589  0.6243 -0.1212
 9961TIP3   OH254077   3.309   3.859   1.284 -0.0094  0.4492  0.1776
 9961TIP3    H154078   3.394   3.862   1.328 -0.2808 -0.9915  0.8694
 9961TIP3    H254079   3.295   3.948   1.253  2.0403  0.5900 -0.5118
 9962TIP3   OH254080   0.893   2.635   1.825  0.5228 -0.1998 -0.1970
 9962TIP3    H154081   0.886   2.603   1.915  2.2138 -0.6914 -0.1954
 9962TIP3    H254082   0.970   2.693   1.826 -0.7235  1.5753 -0.8603
 9963TIP3   OH254083   4.846   2.568   1.978 -0.0779 -0.3022  0.3830
 9963TIP3    H154084   4.795   2.558   1.898 -1.6504  1.4692  1.0975
 9963TIP3    H254085   4.881   2.657   1.974  2.5904 -1.2769  0.1854
 9964TIP3   OH254086   7.368   3.183   1.519 -0.3670  0.5004  0.4578
 9964TIP3    H154087   7.312   3.113   1.552 -1.9904  1.4171 -0.2488
 9964TIP3    H254088   7.311   3.260   1.514  0.5296  1.1254 -1.6679
 9965TIP3   OH254089   0.403   5.995   0.701 -0.6054 -0.6563  0.9415
 9965TIP3    H154090   0.351   6.030   0.628  0.0288 -1.0379  0.2958
 9965TIP3    H254091   0.337   5.963   0.762 -1.1480 -1.4100 -0.0022
 9966TIP3   OH254092   4.175   0.404   1.666 -0.0989 -0.3522 -0.6459
 9966TIP3    H154093   4.143   0.326   1.620 -0.8853 -0.4875  0.0935
 9966TIP3    H254094   4.096   0.455   1.683 -0.5025 -2.0192  3.7707
 9967TIP3   OH254095   5.267   0.059   1.216  0.0759 -0.4634  0.4756
 9967TIP3    H154096   5.240   0.107   1.294  1.6736  1.6288 -0.1350
 9967TIP3    H254097   5.209   0.090   1.147 -0.6039 -1.4591  0.5830
 9968TIP3   OH254098   0.104   3.272   3.008  0.2028  0.4117 -0.1689
 9968TIP3    H154099   0.126   3.264   3.101  0.4225 -0.7543 -0.3143
 9968TIP3    H254100   0.079   3.364   2.998  0.7483  0.6963  0.9177
 9969TIP3   OH254101   7.018   7.412   0.988  0.1123 -0.1045 -0.4315
 9969TIP3    H154102   7.002   7.454   1.072  1.3258 -0.6555  0.0966
 9969TIP3    H254103   6.983   7.473   0.923 -0.3799  0.5562  0.4433
 9970TIP3   OH254104   7.159   6.868   1.222  0.8736 -0.1203 -0.3275
 9970TIP3    H154105   7.109   6.948   1.207  0.6154 -0.1351  0.4219
 9970TIP3    H254106   7.152   6.820   1.140  1.1826  0.7039 -0.8564
 9971TIP3   OH254107   3.104   3.563   2.148 -0.0549 -0.2072 -0.1734
 9971TIP3    H154108   3.154   3.487   2.119  0.3622  0.2826 -0.7869
 9971TIP3    H254109   3.100   3.555   2.243  3.0968  0.8468  0.1520
 9972TIP3   OH254110   4.872   7.446   0.969 -0.5341  0.1864  0.5557
 9972TIP3    H154111   4.802   7.495   1.010 -0.8568  1.1440 -1.0511
 9972TIP3    H254112   4.950   7.500   0.980 -0.6623  0.5427 -0.2382
 9973TIP3   OH254113   2.356   0.526   2.725 -0.0374  0.4101 -0.1628
 9973TIP3    H154114   2.430   0.474   2.756 -0.9756 -0.5093  0.5952
 9973TIP3    H254115   2.394   0.612   2.706  1.3395 -0.2186 -0.3973
 9974TIP3   OH254116   2.088   6.879   1.873  0.3748 -0.5721  0.3140
 9974TIP3    H154117   2.050   6.884   1.785  0.5990 -2.0263  0.1134
 9974TIP3    H254118   2.013   6.865   1.931  0.1035  1.4205  0.5161
 9975TIP3   OH254119   3.016   2.005   0.541  0.5792 -0.7043 -0.2122
 9975TIP3    H154120   3.001   2.087   0.588 -0.3758 -0.2546 -1.2291
 9975TIP3    H254121   3.109   2.006   0.519  0.3698  0.6621 -1.1568
 9976TIP3   OH254122   0.982   6.185   2.617 -0.2475  1.0293 -0.1773
 9976TIP3    H154123   0.926   6.189   2.540 -0.5634  1.6587  0.0758
 9976TIP3    H254124   0.947   6.252   2.676  1.1337  1.8496 -0.2457
 9977TIP3   OH254125   1.553   2.154   0.686 -0.5484 -0.3270 -0.1659
 9977TIP3    H154126   1.467   2.184   0.656 -0.3619  0.3809  0.0049
 9977TIP3    H254127   1.588   2.227   0.737 -0.6701 -1.3292  1.4412
 9978TIP3   OH254128   0.313   3.807   1.678  0.1681  0.1266 -0.0425
 9978TIP3    H154129   0.320   3.832   1.586  1.8456 -3.2943 -1.0077
 9978TIP3    H254130   0.233   3.753   1.683  0.1624  0.1717  0.4677
 9979TIP3   OH254131   5.705   2.386   2.076 -0.0182 -0.3797  0.1572
 9979TIP3    H154132   5.776   2.322   2.071  0.5641  0.3136 -0.7198
 9979TIP3    H254133   5.678   2.399   1.985  0.0157  0.7755  0.2934
 9980TIP3   OH254134   5.121   2.606   1.934 -0.1436  0.0084 -0.5761
 9980TIP3    H154135   5.044   2.549   1.943  1.0911 -1.6836 -0.0608
 9980TIP3    H254136   5.087   2.695   1.941 -1.7210 -0.7153  2.5538
 9981TIP3   OH254137   4.937   5.282   0.927  0.1773 -0.2403  0.6464
 9981TIP3    H154138   4.862   5.336   0.901 -0.8974 -2.1494 -0.4211
 9981TIP3    H254139   5.006   5.304   0.864 -0.0487  0.2933  0.5795
 9982TIP3   OH254140   2.021   2.762   2.040 -0.0118 -0.4581 -0.3021
 9982TIP3    H154141   2.077   2.688   2.018 -0.5285 -0.7170 -0.7837
 9982TIP3    H254142   1.970   2.732   2.116  0.3243 -0.3102 -0.0151
 9983TIP3   OH254143   7.236   6.318   1.870  0.1604 -0.2187 -0.5080
 9983TIP3    H154144   7.293   6.241   1.859 -1.2142 -1.2095 -0.9224
 9983TIP3    H254145   7.203   6.310   1.960 -1.6709 -1.3488 -1.2318
 9984TIP3   OH254146   3.316   5.399   1.517  0.3175 -0.2243  0.3655
 9984TIP3    H154147   3.241   5.441   1.475  0.9574  1.2689  0.6637
 9984TIP3    H254148   3.319   5.437   1.605  2.2511  0.8275 -0.1164
 9985TIP3   OH254149   0.884   5.458   0.568 -0.9962 -0.0909 -0.9333
 9985TIP3    H154150   0.929   5.507   0.636 -1.7453 -1.8666  0.9288
 9985TIP3    H254151   0.791   5.478   0.582 -1.2365 -1.3171 -0.7128
 9986TIP3   OH254152   0.310   6.599   0.950 -0.3047 -0.6688 -0.1876
 9986TIP3    H154153   0.350   6.512   0.938  2.1740  0.5181 -1.2620
 9986TIP3    H254154   0.384   6.657   0.968 -1.8087  1.3828 -0.2556
 9987TIP3   OH254155   3.416   5.716   3.268  0.3344 -0.5600 -0.1734
 9987TIP3    H154156   3.507   5.685   3.272  0.3185 -0.5734  0.1108
 9987TIP3    H254157   3.391   5.705   3.176  1.1507  0.9804 -0.6111
 9988TIP3   OH254158   1.804   6.628   1.178 -0.6449  0.4321 -0.7287
 9988TIP3    H154159   1.788   6.663   1.090 -0.9336 -0.2549 -0.9598
 9988TIP3    H254160   1.898   6.613   1.180 -0.8275 -1.0004 -1.5000
 9989TIP3   OH254161   4.799   0.711   2.314  0.4855  0.2077 -0.1936
 9989TIP3    H154162   4.884   0.671   2.331  1.0275  0.5352 -1.9279
 9989TIP3    H254163   4.757   0.651   2.252  0.0035  0.7454 -0.3940
 9990TIP3   OH254164   2.565   0.289   2.211 -0.4076 -0.3495 -0.0866
 9990TIP3    H154165   2.477   0.316   2.183  0.1453  0.1639 -1.4395
 9990TIP3    H254166   2.583   0.340   2.289 -1.8511 -1.5039  1.0664
 9991TIP3   OH254167   1.358   2.232   1.353  0.1613  0.0597 -0.8223
 9991TIP3    H154168   1.346   2.140   1.373  0.9074  0.0165 -0.5108
 9991TIP3    H254169   1.423   2.234   1.283  3.5428  0.4014  1.9991
 9992TIP3   OH254170   3.443   0.942   1.070  0.0235 -0.5510  0.4144
 9992TIP3    H154171   3.436   0.847   1.086  0.0219 -0.4412  1.0810
 9992TIP3    H254172   3.448   0.981   1.157 -1.2285  0.1655  0.1982
 9993TIP3   OH254173   3.282   6.191   2.969  0.0529  0.1662  0.8421
 9993TIP3    H154174   3.188   6.201   2.958 -0.1489 -1.8441  0.3974
 9993TIP3    H254175   3.311   6.147   2.890  1.5188  1.3466  0.6646
 9994TIP3   OH254176   0.590   2.463   0.953 -0.0643  0.0235  0.4758
 9994TIP3    H154177   0.676   2.494   0.979 -0.6176  0.3678  1.9986
 9994TIP3    H254178   0.554   2.422   1.032 -0.7022 -1.4836 -0.5416
 9995TIP3   OH254179   0.744   4.574   1.711 -0.2370  0.0718  0.1658
 9995TIP3    H154180   0.818   4.534   1.756 -0.2721 -1.8609 -1.3366
 9995TIP3    H254181   0.772   4.663   1.691  1.8741 -0.7460 -0.7277
 9996TIP3   OH254182   4.099   1.027   3.496 -0.5380 -0.0509 -0.5067
 9996TIP3    H154183   4.095   1.122   3.483 -1.4285 -0.1863 -1.3071
 9996TIP3    H254184   4.059   0.990   3.418  1.1727 -1.1512 -0.9131
 9997TIP3   OH254185   2.987   2.510   1.296  0.1646 -0.6599  0.8722
 9997TIP3    H154186   3.021   2.423   1.313  0.3381 -1.0162 -1.1354
 9997TIP3    H254187   2.892   2.501   1.306  0.2587 -0.7859  1.7686
 9998TIP3   OH254188   7.443   1.090   1.891 -0.0983  0.1067  0.7131
 9998TIP3    H154189   7.465   1.003   1.856 -0.9872  0.5361 -0.9996
 9998TIP3    H254190   7.526   1.122   1.928  0.6302 -0.8188 -0.0700
 9999TIP3   OH254191   0.984   0.420   2.312  0.0721  0.4034  0.0385
 9999TIP3    H154192   0.963   0.469   2.392  0.7728  0.7624  0.0119
 9999TIP3    H254193   0.928   0.343   2.316 -0.6143  0.8982  0.3900
10000TIP3   OH254194   2.227   0.806   1.991  0.8076  0.4319  0.5799
10000TIP3    H154195   2.284   0.747   1.942 -0.2846 -2.5396  2.5769
10000TIP3    H254196   2.138   0.773   1.975 -0.0439  2.6062  0.5015
10001TIP3   OH254197   5.929   2.264   2.709  0.0448  0.2296  0.1905
10001TIP3    H154198   5.896   2.179   2.738 -0.4223 -0.3029 -1.7440
10001TIP3    H254199   6.024   2.253   2.705  0.1075  0.2689  1.2876
10002TIP3   OH254200   5.135   5.619   2.348 -0.1305  0.5226  0.1984
10002TIP3    H154201   5.172   5.566   2.417  0.9633  1.7723  0.6080
10002TIP3    H254202   5.180   5.703   2.355 -0.3086  0.8313 -1.7426
10003TIP3   OH254203   1.858   2.149   1.753  0.0210 -0.7158 -0.1346
10003TIP3    H154204   1.816   2.065   1.770 -0.9711 -0.0097  1.0434
10003TIP3    H254205   1.801   2.192   1.689 -0.8774  0.0728  1.1543
10004TIP3   OH254206   0.234   1.140   1.720  0.8367 -0.4665 -0.2712
10004TIP3    H154207   0.316   1.093   1.728  0.7673 -0.6274 -0.4743
10004TIP3    H254208   0.238   1.181   1.633  0.2655 -1.3393 -0.7240
10005TIP3   OH254209   6.474   1.474   0.679 -0.2658 -0.1603 -0.3142
10005TIP3    H154210   6.488   1.408   0.611  1.0570  0.0242 -0.2544
10005TIP3    H254211   6.529   1.548   0.652  0.1972 -0.0376  0.8848
10006TIP3   OH254212   0.227   0.981   2.199 -0.1182 -0.4536 -0.2648
10006TIP3    H154213   0.271   1.064   2.181 -1.0583 -0.0982 -0.9780
10006TIP3    H254214   0.165   1.001   2.269 -0.2221 -0.5967 -0.3142
10007TIP3   OH254215   2.418   4.222   2.145  0.1077  0.0037  0.3335
10007TIP3    H154216   2.434   4.156   2.213  0.3703 -1.3181 -0.9541
10007TIP3    H254217   2.489   4.285   2.156  0.6031 -0.6196  0.7998
10008TIP3   OH254218   6.488   4.768   1.295  0.0052 -0.9231 -0.4048
10008TIP3    H154219   6.420   4.834   1.309  1.5198  0.6084  0.1838
10008TIP3    H254220   6.475   4.704   1.364 -0.2040 -0.0829  0.3531
10009TIP3   OH254221   7.384   4.384   2.796 -0.3141 -0.0702  0.1735
10009TIP3    H154222   7.371   4.308   2.739  0.9148  0.6837 -1.1917
10009TIP3    H254223   7.468   4.369   2.837 -0.5004  0.1151  0.6251
10010TIP3   OH254224   1.125   3.704   1.137 -0.0307  0.5528 -0.1548
10010TIP3    H154225   1.108   3.616   1.101  1.7606 -0.0980  0.4879
10010TIP3    H254226   1.043   3.729   1.179 -0.5307 -0.8694 -0.2352
10011TIP3   OH254227   7.333   7.637   2.508 -0.0007 -0.5029  0.5932
10011TIP3    H154228   7.401   7.704   2.519  0.0526 -0.0569 -1.9428
10011TIP3    H254229   7.253   7.679   2.537  0.1905  0.3584 -0.0852
10012TIP3   OH254230   7.014   2.589   2.571 -0.2026 -0.1299 -0.1044
10012TIP3    H154231   7.039   2.669   2.525  0.5035 -1.1411 -1.5612
10012TIP3    H254232   6.926   2.569   2.538  0.3818 -0.9628 -1.2476
10013TIP3   OH254233   3.595   0.067   1.157 -0.3980 -0.3485  0.0753
10013TIP3    H154234   3.523   0.006   1.171 -0.7011  0.2387  1.2529
10013TIP3    H254235   3.571   0.114   1.077  0.2825 -2.3362 -1.3582
10014TIP3   OH254236   2.233   5.359   2.251 -0.1922 -0.3618 -0.3027
10014TIP3    H154237   2.262   5.436   2.300 -2.5397  0.3848  0.0307
10014TIP3    H254238   2.275   5.368   2.165 -0.2707  1.2001 -0.1980
10015TIP3   OH254239   5.775   6.715   0.996 -0.0553  0.5160  0.5399
10015TIP3    H154240   5.727   6.775   0.940  0.0341 -0.7604 -0.9655
10015TIP3    H254241   5.821   6.657   0.935  0.0567 -0.9226  1.9418
10016TIP3   OH254242   7.634   5.808   2.136 -0.0942 -0.1881 -0.0218
10016TIP3    H154243   7.676   5.791   2.052 -0.7464  0.1828 -0.4320
10016TIP3    H254244   7.542   5.822   2.115 -0.3672 -0.6218  0.8169
10017TIP3   OH254245   1.379   4.184   2.352  0.0177  0.0256  0.7866
10017TIP3    H154246   1.330   4.152   2.275 -0.7967  0.4613  1.1152
10017TIP3    H254247   1.450   4.236   2.314 -0.7281  0.7390  0.3261
10018TIP3   OH254248   2.329   1.402   1.119  0.2909  0.0045  0.6855
10018TIP3    H154249   2.337   1.445   1.204  1.4558 -2.4889  1.9515
10018TIP3    H254250   2.344   1.309   1.137 -1.1833 -0.8914 -1.9924
10019TIP3   OH254251   4.963   3.336   1.112  0.0050 -0.5806  0.3738
10019TIP3    H154252   4.944   3.425   1.084  0.5625 -0.5432  0.0996
10019TIP3    H254253   4.933   3.281   1.040  1.6031 -0.4729 -0.4055
10020TIP3   OH254254   1.215   0.298   2.216 -0.3223 -0.1195 -0.1835
10020TIP3    H154255   1.283   0.359   2.245 -1.5361  0.8680  0.6964
10020TIP3    H254256   1.133   0.336   2.249 -1.2814 -1.3979 -1.0038
10021TIP3   OH254257   2.561   7.606   1.220  0.2779 -0.2894  0.0021
10021TIP3    H154258   2.488   7.624   1.161 -0.1716 -1.0177  0.3182
10021TIP3    H254259   2.615   7.685   1.217  0.2494 -0.3094 -1.3498
10022TIP3   OH254260   1.635   0.819   1.288  0.3037 -0.2182 -0.0360
10022TIP3    H154261   1.721   0.861   1.294  1.1016 -1.8326  0.6928
10022TIP3    H254262   1.643   0.742   1.345 -0.5392 -2.1575 -2.3779
10023TIP3   OH254263   3.943   2.495   2.107 -0.2276  0.5177 -0.2622
10023TIP3    H154264   4.012   2.532   2.163 -0.7098  1.5989 -0.3596
10023TIP3    H254265   3.880   2.457   2.168 -0.0281  0.3970 -0.1307
10024TIP3   OH254266   1.002   1.281   2.836  0.3021  0.2106 -0.0394
10024TIP3    H154267   1.046   1.274   2.921 -0.0607  0.9680  0.2164
10024TIP3    H254268   0.955   1.364   2.840  0.5728  0.4335 -1.1193
10025TIP3   OH254269   2.561   7.465   2.538 -0.4063  0.1660 -0.5577
10025TIP3    H154270   2.641   7.480   2.488  0.6163 -0.5179  0.8305
10025TIP3    H254271   2.556   7.370   2.548 -0.3003  0.3084  1.0714
10026TIP3   OH254272   5.529   5.013   1.978 -0.0504 -0.0766  0.9975
10026TIP3    H154273   5.474   5.049   2.047 -1.8065 -0.4069 -0.1754
10026TIP3    H254274   5.472   5.008   1.901  1.2524 -1.6087  0.0583
10027TIP3   OH254275   2.012   4.085   2.412  0.5011  0.1031  0.4065
10027TIP3    H154276   2.078   4.067   2.345 -2.4041 -2.1164 -2.2164
10027TIP3    H254277   2.051   4.055   2.494  3.0926 -0.0606 -0.8072
10028TIP3   OH254278   7.251   3.067   2.232 -0.3281 -0.3918 -0.1965
10028TIP3    H154279   7.209   3.152   2.239  1.5042  0.5098  0.5275
10028TIP3    H254280   7.178   3.005   2.221 -1.6684  1.2707 -1.1176
10029TIP3   OH254281   5.648   2.785   1.160  0.8942  0.4719 -0.0684
10029TIP3    H154282   5.732   2.763   1.202  0.6010 -2.8338 -0.8958
10029TIP3    H254283   5.660   2.874   1.128  2.7811  1.4662  2.8779
10030TIP3   OH254284   2.251   4.193   2.634 -0.1080  0.1110  0.0272
10030TIP3    H154285   2.234   4.198   2.728  1.2714 -0.5223  0.3390
10030TIP3    H254286   2.340   4.158   2.627  0.5990  1.9978 -1.4583
10031TIP3   OH254287   2.396   2.015   1.132  0.1756  0.0468  0.3582
10031TIP3    H154288   2.376   2.070   1.057 -0.6640  0.8855  1.1629
10031TIP3    H254289   2.487   2.036   1.154  0.8055 -1.0277 -1.0616
10032TIP3   OH254290   7.607   2.434   0.710  0.0366 -0.2415  0.4704
10032TIP3    H154291   7.699   2.462   0.715 -0.1534  0.4819  0.1200
10032TIP3    H254292   7.611   2.341   0.687  0.6806 -0.2819  0.7129
10033TIP3   OH254293   7.628   2.007   2.115 -0.4637 -0.0288 -0.2375
10033TIP3    H154294   7.722   2.023   2.126 -0.7383  0.1585  2.4969
10033TIP3    H254295   7.622   1.915   2.090  0.4236 -0.1698  0.0261
10034TIP3   OH254296   0.398   3.017   2.086  0.6456 -0.1267  0.0795
10034TIP3    H154297   0.433   3.070   2.157 -0.1411  0.9090 -0.2821
10034TIP3    H254298   0.465   2.951   2.070  0.5813 -0.7506  2.1665
10035TIP3   OH254299   0.734   6.302   1.674 -0.0031  0.3546 -0.2867
10035TIP3    H154300   0.793   6.300   1.598 -0.5311 -0.1731 -0.6973
10035TIP3    H254301   0.669   6.368   1.652  0.9671  1.6762  0.6051
10036TIP3   OH254302   2.972   3.507   2.403 -0.5836  0.1818  0.1578
10036TIP3    H154303   2.966   3.591   2.448 -1.1052 -0.2014  0.8287
10036TIP3    H254304   2.882   3.477   2.395 -0.5093  0.2523 -1.2093
10037TIP3   OH254305   3.160   1.390   2.305  0.1853 -0.3381  0.1224
10037TIP3    H154306   3.158   1.314   2.248  0.9349 -1.2453  1.2506
10037TIP3    H254307   3.073   1.393   2.344  0.2083 -0.7309  0.2080
10038TIP3   OH254308   6.262   6.645   3.136 -0.1767  0.4324 -0.1214
10038TIP3    H154309   6.274   6.550   3.135 -0.2071  0.4276 -1.4809
10038TIP3    H254310   6.170   6.658   3.114 -0.2596  0.7764  0.4066
10039TIP3   OH254311   7.184   6.831   1.868 -0.5053  0.0936 -0.0103
10039TIP3    H154312   7.225   6.748   1.846 -1.3755 -0.3152 -0.1110
10039TIP3    H254313   7.192   6.837   1.963  0.7348  0.5308 -0.1254
10040TIP3   OH254314   4.932   7.535   2.994 -0.0008 -0.1100 -0.3869
10040TIP3    H154315   4.935   7.626   2.966  1.7003 -0.4010 -1.2540
10040TIP3    H254316   4.900   7.538   3.084  0.3416  1.3677 -0.2979
10041TIP3   OH254317   0.562   2.905   0.543 -0.0718  0.1519 -0.3187
10041TIP3    H154318   0.568   2.983   0.599  2.5365  0.0543 -0.3506
10041TIP3    H254319   0.468   2.889   0.535 -0.6196  1.9943  1.4847
10042TIP3   OH254320   5.702   5.138   2.123  0.5756  0.3590 -0.1022
10042TIP3    H154321   5.653   5.091   2.056 -0.7050 -1.9278  2.2545
10042TIP3    H254322   5.643   5.208   2.152  1.3095  1.6422 -1.5717
10043TIP3   OH254323   1.603   4.861   2.014 -0.0087 -0.1137 -0.5360
10043TIP3    H154324   1.659   4.922   1.966  1.8824 -0.5069  1.0043
10043TIP3    H254325   1.658   4.783   2.027 -1.1185 -0.7475  0.5734
10044TIP3   OH254326   3.133   7.636   2.646  0.0148 -0.1336 -0.2907
10044TIP3    H154327   3.152   7.545   2.670  2.0581  0.3336  0.1157
10044TIP3    H254328   3.096   7.631   2.558 -0.1829 -1.3703 -0.1572
10045TIP3   OH254329   2.197   1.522   3.952  0.0551  0.0177 -0.2983
10045TIP3    H154330   2.251   1.591   3.914  0.0421 -0.5596 -1.3967
10045TIP3    H254331   2.147   1.487   3.878 -0.0678 -1.0533  0.2733
10046TIP3   OH254332   3.332   3.079   1.979  0.0703  0.4138  0.0610
10046TIP3    H154333   3.389   3.137   2.029  2.7377 -0.6464 -1.5255
10046TIP3    H254334   3.293   3.021   2.044 -0.1165  1.9092  1.3258
10047TIP3   OH254335   4.647   6.745   0.754 -0.0245  0.1665 -0.5020
10047TIP3    H154336   4.583   6.794   0.702  0.6921  3.4204  1.4199
10047TIP3    H254337   4.626   6.767   0.844  1.7455 -1.3904  0.3498
10048TIP3   OH254338   6.653   7.539   1.438 -0.0725  0.4311 -0.3954
10048TIP3    H154339   6.729   7.562   1.492 -0.2029  1.9021 -0.7933
10048TIP3    H254340   6.691   7.494   1.362  0.1823 -0.8649  0.4602
10049TIP3   OH254341   3.927   4.419   2.575 -0.6507  0.0647  0.0263
10049TIP3    H154342   3.952   4.438   2.665  1.9815 -1.6075 -0.2394
10049TIP3    H254343   3.893   4.330   2.578 -2.8094  0.8228 -0.3358
10050TIP3   OH254344   5.364   6.446   1.460  0.0861 -0.4373  0.7521
10050TIP3    H154345   5.393   6.519   1.406  0.1045 -1.4860 -0.7009
10050TIP3    H254346   5.445   6.398   1.481 -0.2684 -3.6459 -3.7091
10051TIP3   OH254347   0.040   2.581   3.251 -0.4408  0.2768 -0.2769
10051TIP3    H154348   0.109   2.515   3.245 -0.9679 -0.6937  2.3886
10051TIP3    H254349   0.081   2.663   3.225  1.8472 -0.2229  1.4436
10052TIP3   OH254350   3.821   2.926   2.049  0.5235 -0.4307 -0.0099
10052TIP3    H154351   3.874   2.987   2.101  0.4150 -1.5035  1.4487
10052TIP3    H254352   3.885   2.876   1.998  0.7460 -0.2248  0.0670
10053TIP3   OH254353   4.087   5.508   3.287 -0.4809 -0.1720  0.2605
10053TIP3    H154354   4.067   5.601   3.297 -0.4857 -0.0625 -0.6854
10053TIP3    H254355   4.002   5.465   3.282 -0.5107  0.0544 -1.6590
10054TIP3   OH254356   3.180   6.668   1.040 -0.3297  0.6340 -0.2798
10054TIP3    H154357   3.160   6.761   1.038  1.2482  1.0250  0.2156
10054TIP3    H254358   3.275   6.664   1.055 -0.6549 -1.0512  1.9058
10055TIP3   OH254359   5.467   2.521   0.800 -0.3588  0.1596  0.1500
10055TIP3    H154360   5.464   2.470   0.719  1.2363 -0.5666  0.5121
10055TIP3    H254361   5.558   2.547   0.809 -0.2126 -0.8511  2.3385
10056TIP3   OH254362   4.254   0.573   1.169 -0.3287 -0.0693 -0.0752
10056TIP3    H154363   4.203   0.493   1.159  0.2132 -0.5247  0.7137
10056TIP3    H254364   4.345   0.545   1.169 -0.1195  0.5820 -0.1224
10057TIP3   OH254365   0.262   5.205   1.292 -0.9415  0.3050 -0.1912
10057TIP3    H154366   0.290   5.220   1.202 -0.2545 -1.0510 -0.2196
10057TIP3    H254367   0.170   5.179   1.285 -0.4117 -1.5827 -0.7048
10058TIP3   OH254368   6.727   4.887   1.199  0.6110  0.7906  0.4020
10058TIP3    H154369   6.757   4.838   1.122  3.1735  0.3565  1.5540
10058TIP3    H254370   6.656   4.835   1.235  2.2598 -1.3737  0.7339
10059TIP3   OH254371   4.220   1.587   2.608 -0.0572 -0.0693  0.5801
10059TIP3    H154372   4.173   1.565   2.689 -0.7353  0.9858  0.4829
10059TIP3    H254373   4.287   1.518   2.601 -0.7647 -0.8734  1.3873
10060TIP3   OH254374   1.156   4.247   3.049  0.0122 -0.1489 -0.0164
10060TIP3    H154375   1.212   4.261   3.125 -1.4007  0.4905  0.9537
10060TIP3    H254376   1.097   4.322   3.048 -1.8807 -1.5590 -0.0326
10061TIP3   OH254377   3.358   3.263   1.563 -0.0230 -0.5107  0.1557
10061TIP3    H154378   3.346   3.201   1.635  2.4601 -1.7257 -0.3829
10061TIP3    H254379   3.362   3.209   1.485 -0.2326  0.5793 -0.6412
10062TIP3   OH254380   2.206   7.079   1.348 -0.2724  0.1154  0.3017
10062TIP3    H154381   2.131   7.114   1.395  0.7236  0.5538  1.6074
10062TIP3    H254382   2.191   6.985   1.345  0.3048 -0.1200  2.7929
10063TIP3   OH254383   1.812   3.702   2.271 -0.1646 -0.2365  0.0726
10063TIP3    H154384   1.786   3.672   2.358  0.3230 -0.5496  0.1147
10063TIP3    H254385   1.793   3.796   2.271 -0.9657 -0.3972  0.2169
10064TIP3   OH254386   3.216   3.687   1.582 -0.3513 -0.1259  0.4047
10064TIP3    H154387   3.168   3.683   1.499  0.2848 -0.3859  0.0471
10064TIP3    H254388   3.303   3.652   1.562 -0.4354 -0.9389  1.3636
10065TIP3   OH254389   0.903   5.951   1.506  0.0791 -0.0175 -0.3972
10065TIP3    H154390   0.994   5.984   1.507 -0.5127  1.7280 -0.0206
10065TIP3    H254391   0.853   6.022   1.465 -1.3141 -0.3719  0.6232
10066TIP3   OH254392   1.492   6.661   3.067  0.0856 -0.3111 -0.5641
10066TIP3    H154393   1.537   6.724   3.011  0.6314 -0.1397  0.0667
10066TIP3    H254394   1.418   6.632   3.014  0.0894  0.5092 -1.0403
10067TIP3   OH254395   0.534   5.583   1.148  0.2336 -0.3155 -0.2287
10067TIP3    H154396   0.614   5.559   1.102  0.8057  1.4960 -0.2649
10067TIP3    H254397   0.505   5.663   1.105 -0.6066  0.0309  0.9263
10068TIP3   OH254398   6.128   1.223   1.439 -0.1908 -0.1951 -0.1720
10068TIP3    H154399   6.220   1.215   1.462  0.3492 -1.3049 -2.3988
10068TIP3    H254400   6.098   1.132   1.427 -0.5631  0.2117 -2.8807
10069TIP3   OH254401   6.883   1.772   2.097 -0.1378 -0.1330 -0.2456
10069TIP3    H154402   6.844   1.708   2.157  1.0144  0.9429  1.7705
10069TIP3    H254403   6.821   1.844   2.096 -0.2072 -0.1962 -0.4277
10070TIP3   OH254404   5.961   4.219   2.372  0.1976 -0.5066 -0.1515
10070TIP3    H154405   6.005   4.299   2.346 -0.7412  0.4856  1.1710
10070TIP3    H254406   5.915   4.189   2.293 -0.0212  0.6530 -0.4766
10071TIP3   OH254407   2.003   1.008   2.380 -0.5197 -0.4482  0.1240
10071TIP3    H154408   1.955   1.084   2.347 -1.8961 -0.4844  1.9172
10071TIP3    H254409   1.993   0.942   2.311 -0.8958  0.3650 -0.6255
10072TIP3   OH254410   5.294   2.430   3.161 -0.9909  0.0660  0.0767
10072TIP3    H154411   5.220   2.477   3.201 -1.4094 -0.1407 -0.4380
10072TIP3    H254412   5.278   2.338   3.183 -0.1043  0.1634  1.1916
10073TIP3   OH254413   6.110   1.383   1.217 -0.4367  0.3404 -0.3129
10073TIP3    H154414   6.183   1.349   1.165  0.7463  1.4120  0.5759
10073TIP3    H254415   6.123   1.345   1.304 -0.2768  1.3975  0.1409
10074TIP3   OH254416   7.044   4.145   2.650 -0.4926  0.0151 -0.0168
10074TIP3    H154417   7.045   4.239   2.668 -0.2075 -0.2704  1.7049
10074TIP3    H254418   7.136   4.124   2.634 -0.2162 -0.2671  1.6700
10075TIP3   OH254419   5.287   0.945   2.774 -0.2432 -0.1733  0.3007
10075TIP3    H154420   5.218   1.009   2.793 -1.6093 -1.7560  0.8542
10075TIP3    H254421   5.367   0.988   2.803 -1.2809  0.7876  1.9046
10076TIP3   OH254422   1.188   0.260   1.578 -0.2002  0.3644 -0.5242
10076TIP3    H154423   1.176   0.269   1.672  0.2895 -0.0253 -0.4227
10076TIP3    H254424   1.251   0.189   1.568 -0.8884 -0.1769 -1.1728
10077TIP3   OH254425   6.571   2.356   1.802  0.2466 -0.1868  0.5693
10077TIP3    H154426   6.503   2.289   1.795 -0.6761  0.5315  2.0978
10077TIP3    H254427   6.554   2.399   1.886  3.1595 -0.5950  1.4808
10078TIP3   OH254428   3.226   5.120   1.874 -0.0126  0.5196 -0.0411
10078TIP3    H154429   3.166   5.068   1.927  0.5470  0.6003  0.6995
10078TIP3    H254430   3.246   5.196   1.930 -2.0146  2.3855 -1.6582
10079TIP3   OH254431   0.145   0.491   2.109  0.1159  0.4325  0.1468
10079TIP3    H154432   0.217   0.457   2.163 -0.5241  1.9302  2.0860
10079TIP3    H254433   0.179   0.572   2.071 -0.5514  1.2424  1.2187
10080TIP3   OH254434   0.279   3.399   1.941 -0.2869  0.1385  0.1072
10080TIP3    H154435   0.289   3.352   1.858 -1.9577  0.4926 -0.3373
10080TIP3    H254436   0.354   3.371   1.994 -0.1180 -1.4135 -0.8909
10081TIP3   OH254437   2.938   3.234   1.267  0.1619  0.0259  0.2553
10081TIP3    H154438   2.917   3.289   1.191 -0.2231 -0.1776  0.2151
10081TIP3    H254439   2.999   3.287   1.318  0.9400 -0.0852 -0.5232
10082TIP3   OH254440   6.433   3.576   1.484 -0.2019  0.1750 -0.1690
10082TIP3    H154441   6.454   3.557   1.575 -1.4933  0.5098  0.2168
10082TIP3    H254442   6.398   3.494   1.450  2.2595 -0.5961 -1.0168
10083TIP3   OH254443   0.178   6.727   1.418  0.1210  0.1429 -0.2923
10083TIP3    H154444   0.157   6.807   1.467  0.0582 -0.9534  1.5835
10083TIP3    H254445   0.166   6.657   1.482  2.5401 -1.1761 -1.1629
10084TIP3   OH254446   3.617   5.806   2.387  0.4121 -0.0765  0.5808
10084TIP3    H154447   3.536   5.770   2.352  1.3312 -0.6878 -1.0282
10084TIP3    H254448   3.626   5.891   2.344 -0.2614  0.8195  2.1380
10085TIP3   OH254449   3.671   4.230   2.088 -0.5950 -0.5867 -0.3992
10085TIP3    H154450   3.624   4.161   2.134 -0.0621 -1.2866 -0.8917
10085TIP3    H254451   3.603   4.293   2.064 -0.6346  1.2458  3.6903
10086TIP3   OH254452   3.511   2.131   1.300 -0.1815 -0.1855  0.2414
10086TIP3    H154453   3.436   2.121   1.241 -0.7289 -0.0961  0.9028
10086TIP3    H254454   3.541   2.221   1.285 -1.2562  0.3512  1.1481
10087TIP3   OH254455   3.801   2.902   2.426 -0.7473  0.4908  0.1257
10087TIP3    H154456   3.723   2.958   2.421 -0.8096  0.3290 -1.3158
10087TIP3    H254457   3.769   2.820   2.463 -1.0649  0.7441  0.4236
10088TIP3   OH254458   3.282   7.233   2.569 -0.4191  0.4949 -0.3040
10088TIP3    H154459   3.350   7.269   2.513  0.1576 -0.4725 -0.2605
10088TIP3    H254460   3.286   7.138   2.552 -1.9552  0.4498 -0.5231
10089TIP3   OH254461   3.398   7.008   2.447 -0.4033  0.4358 -0.3118
10089TIP3    H154462   3.474   7.018   2.504 -0.3619  1.7883 -0.5723
10089TIP3    H254463   3.435   6.995   2.360 -0.4774 -0.4185 -0.2267
10090TIP3   OH254464   1.725   3.452   1.502 -0.2515  0.2218 -0.4459
10090TIP3    H154465   1.673   3.452   1.582 -0.2977  0.7914 -0.4721
10090TIP3    H254466   1.741   3.359   1.484  0.5975  0.1004  0.7642
10091TIP3   OH254467   3.145   3.766   2.630  0.0114  0.6010 -0.1993
10091TIP3    H154468   3.220   3.732   2.583 -0.3452 -1.5808  0.6878
10091TIP3    H254469   3.069   3.727   2.586 -0.4155  0.0295  1.0112
10092TIP3   OH254470   1.341   2.890   1.223  0.1192 -0.4083 -0.1882
10092TIP3    H154471   1.286   2.822   1.183  0.8161 -0.5463 -0.9418
10092TIP3    H254472   1.279   2.956   1.253 -0.4684 -0.5574 -1.0377
10093TIP3   OH254473   3.329   6.406   0.840  0.2073 -0.5647 -0.0597
10093TIP3    H154474   3.380   6.452   0.906 -1.8394 -0.2528  1.4000
10093TIP3    H254475   3.341   6.313   0.862 -0.2679 -0.4721  0.6358
10094TIP3   OH254476   0.219   4.093   0.654 -0.2216 -0.3181  0.0755
10094TIP3    H154477   0.128   4.091   0.681  0.5795 -1.4820  3.1679
10094TIP3    H254478   0.239   4.185   0.641 -1.1946  0.2208  2.0349
10095TIP3   OH254479   5.925   1.175   2.872  0.3405  0.0222  0.1643
10095TIP3    H154480   5.890   1.086   2.862 -1.2869  0.6062  0.3116
10095TIP3    H254481   5.847   1.231   2.868  1.2988  1.4074  0.5048
10096TIP3   OH254482   1.885   5.919   2.008  0.2419 -0.0199  0.1127
10096TIP3    H154483   1.902   5.941   1.917 -0.4932  0.0948 -0.0014
10096TIP3    H254484   1.901   6.000   2.056  2.1319 -0.4648  0.2949
10097TIP3   OH254485   6.067   5.578   2.678 -0.3450 -0.4273  0.1185
10097TIP3    H154486   6.024   5.617   2.602 -0.3904 -0.6913  0.0058
10097TIP3    H254487   6.160   5.577   2.656 -0.4424 -1.2762 -0.2938
10098TIP3   OH254488   1.145   3.248   1.824 -1.0461 -0.4141  0.3061
10098TIP3    H154489   1.199   3.221   1.898  0.2642 -0.2107 -0.5436
10098TIP3    H254490   1.166   3.341   1.812 -1.4708 -0.3738 -0.1440
10099TIP3   OH254491   0.251   7.309   1.417 -0.4010  0.5944 -0.6505
10099TIP3    H154492   0.199   7.370   1.366 -2.4806 -0.4351  0.1376
10099TIP3    H254493   0.191   7.275   1.483  1.6026  0.2478  1.1133
10100TIP3   OH254494   7.360   3.979   1.338  0.0560 -0.1457  0.0011
10100TIP3    H154495   7.380   3.903   1.283  0.0956 -1.0247  1.1643
10100TIP3    H254496   7.415   3.966   1.415  1.2516  1.9296 -0.4559
10101TIP3   OH254497   0.641   0.884   1.116  0.9192  0.6488 -0.2791
10101TIP3    H154498   0.591   0.892   1.035  0.5868 -1.2469 -0.2861
10101TIP3    H254499   0.722   0.932   1.098  1.2925 -0.5629 -2.1243
10102TIP3   OH254500   1.965   2.435   2.773 -0.3147  0.6068 -0.4939
10102TIP3    H154501   2.026   2.426   2.846 -0.7679 -1.0774 -0.2813
10102TIP3    H254502   1.880   2.452   2.814 -0.3676  0.7898 -0.6786
10103TIP3   OH254503   4.147   3.615   1.160  0.0613 -0.4027  0.3798
10103TIP3    H154504   4.233   3.599   1.120  1.1402  0.2524  2.3239
10103TIP3    H254505   4.152   3.705   1.192 -1.4997 -0.2325  0.2142
10104TIP3   OH254506   7.649   7.340   1.875  0.2179 -0.8481 -0.4557
10104TIP3    H154507   7.737   7.370   1.895  0.0098 -0.8800  0.5603
10104TIP3    H254508   7.617   7.401   1.808  1.0034 -0.8402 -0.8242
10105TIP3   OH254509   3.955   1.825   0.742 -0.1020 -0.0360  0.7534
10105TIP3    H154510   3.959   1.768   0.666 -0.5272  0.5147  0.3088
10105TIP3    H254511   4.046   1.838   0.768  0.2497  1.6833 -1.1085
10106TIP3   OH254512   7.362   3.836   2.311  0.3633  0.2870 -0.2911
10106TIP3    H154513   7.293   3.891   2.349  0.9304  0.5949  0.3164
10106TIP3    H254514   7.367   3.863   2.220 -2.3077 -1.7490 -1.1668
10107TIP3   OH254515   0.461   6.520   1.313  0.1940  0.1976 -0.3097
10107TIP3    H154516   0.434   6.516   1.221  0.7028  1.5471 -0.5490
10107TIP3    H254517   0.504   6.606   1.321 -1.4193  0.8913  1.6100
10108TIP3   OH254518   7.243   1.290   1.822  0.1273 -0.5524 -0.2576
10108TIP3    H154519   7.226   1.306   1.729 -2.2243 -0.7261  0.0805
10108TIP3    H254520   7.338   1.277   1.827  1.0482  3.6112 -1.9866
10109TIP3   OH254521   6.888   4.777   3.292 -0.4890  0.0137 -1.1715
10109TIP3    H154522   6.825   4.744   3.229  0.2202 -2.7602 -0.5761
10109TIP3    H254523   6.966   4.796   3.240 -0.2762 -1.1766 -1.3149
10110TIP3   OH254524   3.470   5.908   2.934  0.1528 -0.0034 -0.5639
10110TIP3    H154525   3.543   5.907   2.995  0.9959 -0.2622 -1.5401
10110TIP3    H254526   3.472   5.997   2.896 -0.5693  0.2656  0.0156
10111TIP3   OH254527   1.660   4.461   1.263  0.2634  0.1023 -0.1988
10111TIP3    H154528   1.658   4.400   1.337 -1.7844 -0.8395 -0.9618
10111TIP3    H254529   1.582   4.516   1.277  0.3153  0.4433 -1.2248
10112TIP3   OH254530   3.363   6.381   3.188 -0.4882  0.4781 -0.3405
10112TIP3    H154531   3.452   6.357   3.216 -0.9394  0.3206  1.0294
10112TIP3    H254532   3.340   6.314   3.123  0.3749  0.5141 -0.7050
10113TIP3   OH254533   2.144   7.315   0.977  0.2872 -0.0119  0.8834
10113TIP3    H154534   2.061   7.343   1.017 -0.7016 -1.3683 -0.1421
10113TIP3    H254535   2.210   7.332   1.044 -0.6293  2.1590  1.3173
10114TIP3   OH254536   3.138   0.028   0.502  0.7122 -0.7613  0.0320
10114TIP3    H154537   3.217  -0.011   0.465 -0.3412 -1.7065 -1.2987
10114TIP3    H254538   3.069  -0.035   0.485 -0.4045  0.1694  0.9199
10115TIP3   OH254539   7.280   6.071   0.597  0.2374  0.4003 -0.0207
10115TIP3    H154540   7.284   6.163   0.620  1.5134  0.2867  0.2973
10115TIP3    H254541   7.363   6.053   0.553  0.4835 -0.8365  0.8879
10116TIP3   OH254542   0.277   6.430   2.269  0.4509  0.0074 -0.5403
10116TIP3    H154543   0.336   6.467   2.203 -2.2833  2.0011 -2.0689
10116TIP3    H254544   0.228   6.362   2.223  1.4393 -1.6604  0.7285
10117TIP3   OH254545   1.137   2.892   2.014 -0.0407  0.1171  0.3730
10117TIP3    H154546   1.065   2.886   2.077 -0.6515 -0.7163 -0.3792
10117TIP3    H254547   1.174   2.804   2.012  0.4301  0.3188  0.0862
10118TIP3   OH254548   4.739   3.395   1.525  0.6420  0.7180  0.2144
10118TIP3    H154549   4.809   3.338   1.556  1.2870  0.5834 -1.4356
10118TIP3    H254550   4.770   3.430   1.442 -1.2041  0.7544 -0.5152
10119TIP3   OH254551   3.545   0.610   1.254 -0.3984  0.3869  0.2180
10119TIP3    H154552   3.455   0.616   1.222 -0.5420  1.1214  0.7266
10119TIP3    H254553   3.546   0.533   1.310  0.1822 -1.7453 -2.4885
10120TIP3   OH254554   3.413   1.866   1.280  0.1696 -0.0074 -0.1407
10120TIP3    H154555   3.426   1.870   1.185 -0.3373 -1.5898 -0.3159
10120TIP3    H254556   3.470   1.934   1.316 -0.0291  0.9759 -1.6068
10121TIP3   OH254557   3.950   3.432   2.852  0.3231  0.4150 -0.0424
10121TIP3    H154558   3.925   3.413   2.761 -0.1708 -1.6461  0.4719
10121TIP3    H254559   3.994   3.352   2.882  3.1299  2.0936  0.6837
10122TIP3   OH254560   6.220   7.539   2.297 -0.0904 -0.3266 -0.2209
10122TIP3    H154561   6.189   7.449   2.284 -0.5658 -0.2459  0.3397
10122TIP3    H254562   6.151   7.593   2.259 -0.8989 -0.1302  1.4479
10123TIP3   OH254563   5.952   2.796   2.234 -0.3157  0.0899 -0.5978
10123TIP3    H154564   5.958   2.703   2.213 -0.2905  0.1463 -0.8509
10123TIP3    H254565   5.998   2.805   2.317 -0.0481 -0.0745 -0.7261
10124TIP3   OH254566   6.203   6.159   1.723  0.1381  0.1069  0.0021
10124TIP3    H154567   6.148   6.229   1.687  1.0714  0.6516 -0.4006
10124TIP3    H254568   6.228   6.191   1.810  2.3139  1.3103 -0.9878
10125TIP3   OH254569   2.024   0.123   1.873 -0.5665  0.2818 -0.0371
10125TIP3    H154570   2.112   0.103   1.903 -0.7309  2.2635  2.0963
10125TIP3    H254571   2.034   0.204   1.822 -0.9948 -0.1981 -0.9006
10126TIP3   OH254572   7.033   3.928   2.194 -0.3605  0.5615 -0.2295
10126TIP3    H154573   7.067   3.883   2.117  0.3386  1.0730 -0.2211
10126TIP3    H254574   6.971   3.992   2.159 -0.2683  0.5882 -0.3418
10127TIP3   OH254575   0.724   6.600   1.498  0.1393  0.3695 -0.3756
10127TIP3    H154576   0.795   6.599   1.434 -1.4782  1.0426 -2.3040
10127TIP3    H254577   0.664   6.532   1.468  0.1608 -0.5101  1.4868
10128TIP3   OH254578   0.132   6.104   1.964  0.3244  0.3625  0.1741
10128TIP3    H154579   0.185   6.060   1.898  2.4572  2.3553  0.4361
10128TIP3    H254580   0.064   6.149   1.915 -0.8478 -1.7067 -0.2223
10129TIP3   OH254581   6.629   6.915   2.904 -0.4318  0.0426 -0.1522
10129TIP3    H154582   6.585   6.985   2.857 -1.4778  0.9211  2.0209
10129TIP3    H254583   6.717   6.912   2.865 -1.2225  0.6745 -2.1164
10130TIP3   OH254584   1.085   7.069   2.018  0.3344  0.1865 -0.1183
10130TIP3    H154585   1.145   7.052   2.090  1.0485  0.6434 -0.5938
10130TIP3    H254586   1.132   7.041   1.940 -1.4593 -2.9006 -0.2247
10131TIP3   OH254587   0.952   5.249   0.441  0.6709  0.1603  0.1659
10131TIP3    H154588   0.922   5.184   0.505 -1.2503  0.1902 -0.6256
10131TIP3    H254589   0.918   5.332   0.475 -0.4744  0.1589 -0.8919
10132TIP3   OH254590   1.469   3.789   0.565  0.2437  0.0159 -0.0200
10132TIP3    H154591   1.519   3.708   0.559 -0.3745 -0.3220 -0.9194
10132TIP3    H254592   1.535   3.859   0.560  0.7649 -0.4170  0.6169
10133TIP3   OH254593   1.468   0.666   0.788 -0.3349 -1.0920 -0.5185
10133TIP3    H154594   1.438   0.757   0.794 -0.1485 -1.0209 -0.6375
10133TIP3    H254595   1.468   0.635   0.878  0.9669 -0.5266 -0.2997
10134TIP3   OH254596   1.820   5.464   2.393 -0.1400 -0.1829  0.1321
10134TIP3    H154597   1.798   5.452   2.485  1.0989  1.1956  0.6535
10134TIP3    H254598   1.879   5.540   2.392 -0.8498  0.4236 -1.8915
10135TIP3   OH254599   4.758   4.847   2.667 -0.3119  0.0934  0.4192
10135TIP3    H154600   4.727   4.767   2.624 -1.9309  1.3673 -0.8880
10135TIP3    H254601   4.682   4.879   2.716 -0.5314  2.1984 -1.1819
10136TIP3   OH254602   7.533   2.917   2.985  0.0360  0.2473  0.7593
10136TIP3    H154603   7.448   2.873   2.976  0.5718 -0.7009  0.2365
10136TIP3    H254604   7.597   2.850   2.962  0.8032  1.9103 -2.5264
10137TIP3   OH254605   7.010   0.327   1.838  0.0488  0.0643  0.0211
10137TIP3    H154606   7.098   0.305   1.869  1.3327  3.1639 -0.9887
10137TIP3    H254607   6.976   0.388   1.903  0.2349  1.7668 -1.3930
10138TIP3   OH254608   5.435   1.068   1.911 -0.0780  0.4046 -0.0439
10138TIP3    H154609   5.506   1.013   1.876  0.4360  0.2497  1.1824
10138TIP3    H254610   5.425   1.039   2.002  1.0736  3.1431  1.0549
10139TIP3   OH254611   1.841   2.173   2.443  0.3398  0.4726 -0.0574
10139TIP3    H154612   1.923   2.192   2.398  0.2763 -0.7132 -0.7078
10139TIP3    H254613   1.795   2.257   2.447  0.5683  0.7052 -1.7504
10140TIP3   OH254614   1.864   1.234   2.280  0.3638 -0.0504 -0.1986
10140TIP3    H154615   1.782   1.211   2.235  1.2608  0.7628 -2.4338
10140TIP3    H254616   1.854   1.326   2.302  0.4823 -0.0735 -0.0507
10141TIP3   OH254617   3.486   3.674   0.748  0.0108 -0.1912 -0.4251
10141TIP3    H154618   3.558   3.709   0.800 -1.0754  2.0764 -0.3037
10141TIP3    H254619   3.515   3.682   0.658  0.0940  0.2879 -0.3573
10142TIP3   OH254620   6.472   6.810   2.066  0.3106 -0.6686  0.7293
10142TIP3    H154621   6.553   6.810   2.117  0.3429  0.5427  0.7061
10142TIP3    H254622   6.456   6.717   2.047  2.2793 -0.8735 -0.2096
10143TIP3   OH254623   0.956   6.497   1.341 -0.1912 -0.2535  0.1175
10143TIP3    H154624   0.939   6.416   1.294 -1.4769  0.6263 -1.0055
10143TIP3    H254625   0.983   6.559   1.273  1.9311 -0.0007  1.0982
10144TIP3   OH254626   2.382   1.348   3.798  0.5646 -0.0034  0.0727
10144TIP3    H154627   2.340   1.278   3.848 -2.9773 -0.1153 -2.6931
10144TIP3    H254628   2.358   1.428   3.844  0.7963 -0.2999  0.7337
10145TIP3   OH254629   3.285   5.601   3.456  0.2309 -0.4911 -0.4499
10145TIP3    H154630   3.343   5.624   3.383  0.2075  0.1203 -0.2795
10145TIP3    H254631   3.210   5.660   3.447  0.1264 -0.5598 -0.0555
10146TIP3   OH254632   4.690   3.261   1.077  0.3431  0.0426 -0.2210
10146TIP3    H154633   4.717   3.347   1.045 -0.4546  0.2715 -0.3087
10146TIP3    H254634   4.759   3.201   1.047 -0.4384  0.2188 -2.5364
10147TIP3   OH254635   1.245   4.622   1.816  0.0598 -0.1748  0.0398
10147TIP3    H154636   1.324   4.604   1.766 -0.5872 -1.0816 -0.6991
10147TIP3    H254637   1.260   4.708   1.855  1.8883 -0.8691  0.9367
10148TIP3   OH254638   5.673   7.283   2.575  0.5204 -0.1736 -0.1833
10148TIP3    H154639   5.586   7.261   2.542  0.0255  0.7438  0.4657
10148TIP3    H254640   5.680   7.378   2.561  1.9529 -0.4242 -1.4659
10149TIP3   OH254641   3.815   1.861   1.180 -0.1069  0.2683  0.6157
10149TIP3    H154642   3.866   1.789   1.216  1.8372  1.5438  0.5668
10149TIP3    H254643   3.871   1.899   1.113 -1.8934  0.6460 -0.7560
10150TIP3   OH254644   7.123   4.827   2.619 -0.8635 -0.3055  0.3292
10150TIP3    H154645   7.165   4.821   2.705 -0.9886 -0.7382  0.3619
10150TIP3    H254646   7.110   4.921   2.605 -2.1083 -0.2907  1.3993
10151TIP3   OH254647   5.203   4.233   1.452  0.3315 -0.5051 -0.3729
10151TIP3    H154648   5.117   4.272   1.438  1.1614  0.9924 -1.5085
10151TIP3    H254649   5.194   4.185   1.535 -1.4786 -0.0893 -0.2866
10152TIP3   OH254650   5.797   4.235   1.261 -0.3129 -0.2371  0.0447
10152TIP3    H154651   5.851   4.167   1.222  1.4007  0.9849  0.2041
10152TIP3    H254652   5.759   4.194   1.339  2.3386 -0.4506  1.3101
10153TIP3   OH254653   4.669   4.664   1.353 -0.0721 -0.1905 -0.0454
10153TIP3    H154654   4.650   4.572   1.337 -1.6856  0.0974  0.0577
10153TIP3    H254655   4.647   4.707   1.270  1.9192 -0.0307 -0.5357
10154TIP3   OH254656   4.525   3.751   2.223  0.7015 -0.3626 -0.5337
10154TIP3    H154657   4.465   3.708   2.283  0.1047  0.3030 -0.6365
10154TIP3    H254658   4.576   3.811   2.278  0.3168  0.0755 -0.6504
10155TIP3   OH254659   7.135   0.788   0.882 -0.0908  0.5595 -0.2243
10155TIP3    H154660   7.143   0.702   0.925 -0.6355  0.6170  0.0115
10155TIP3    H254661   7.040   0.800   0.872 -0.0028  0.9953 -0.5400
10156TIP3   OH254662   0.424   1.708   2.625 -0.5397 -0.0206  0.7162
10156TIP3    H154663   0.343   1.679   2.666  1.4743 -1.4090  4.1391
10156TIP3    H254664   0.452   1.784   2.676  1.6569 -1.3115  1.6176
10157TIP3   OH254665   4.256   6.074   1.500 -0.0353  0.1933 -0.4198
10157TIP3    H154666   4.286   6.071   1.591 -3.3126 -0.4551  0.7552
10157TIP3    H254667   4.228   6.165   1.487 -1.0219 -0.0793 -0.2412
10158TIP3   OH254668   3.250   3.588   3.087  0.5795  0.6658  0.0347
10158TIP3    H154669   3.270   3.560   2.998  2.3920 -0.6981  0.8273
10158TIP3    H254670   3.169   3.542   3.109  1.0685 -0.3729 -0.2922
10159TIP3   OH254671   3.550   1.865   2.217 -0.1690 -0.2094  0.3698
10159TIP3    H154672   3.628   1.918   2.199 -0.6166  0.0378 -0.9554
10159TIP3    H254673   3.477   1.927   2.212 -0.5865 -0.7219  0.0347
10160TIP3   OH254674   3.292   0.937   0.688  0.6853  0.4326 -0.4663
10160TIP3    H154675   3.374   0.980   0.712 -0.9935  3.0325  1.1055
10160TIP3    H254676   3.304   0.846   0.713  2.8970  0.8442  0.1824
10161TIP3   OH254677   4.206   4.694   1.171  0.2322  0.4801  0.2519
10161TIP3    H154678   4.262   4.704   1.094 -1.8148  0.8571 -1.2686
10161TIP3    H254679   4.250   4.628   1.224  1.3972 -0.2796 -1.5498
10162TIP3   OH254680   1.671   2.740   2.666 -0.4761 -0.2841 -0.2290
10162TIP3    H154681   1.709   2.771   2.748  0.7674 -2.3005  0.0170
10162TIP3    H254682   1.745   2.704   2.617 -1.3511  0.0237 -1.8455
10163TIP3   OH254683   7.445   4.822   0.757  0.3394  0.0196 -0.0046
10163TIP3    H154684   7.370   4.763   0.757 -0.4258  0.8385 -2.6692
10163TIP3    H254685   7.456   4.848   0.848 -1.0786 -1.9787  0.7937
10164TIP3   OH254686   4.859   3.815   0.892 -0.0745  0.2596 -0.6168
10164TIP3    H154687   4.805   3.893   0.904 -1.7167 -0.8130 -0.8332
10164TIP3    H254688   4.813   3.746   0.938  1.1661 -0.6875 -0.7446
10165TIP3   OH254689   5.037   7.436   2.274  0.2522  0.2315 -0.4734
10165TIP3    H154690   5.082   7.513   2.238  1.2891  1.1669  2.4379
10165TIP3    H254691   5.107   7.372   2.288 -0.2257 -0.3646 -0.7787
10166TIP3   OH254692   2.339   5.719   2.037 -0.4960 -0.3402 -0.8342
10166TIP3    H154693   2.256   5.705   2.083  0.4212  1.3785  1.5992
10166TIP3    H254694   2.358   5.812   2.052  2.7293 -1.0593  0.3446
10167TIP3   OH254695   6.720   0.777   1.074 -0.3322  0.1207  0.3576
10167TIP3    H154696   6.783   0.795   1.143 -0.4035  1.2230  0.1572
10167TIP3    H254697   6.774   0.762   0.996 -0.2929  1.2723  0.1385
10168TIP3   OH254698   5.099   2.722   2.564  0.8469  0.1190  0.2497
10168TIP3    H154699   5.182   2.709   2.609  1.1336 -0.2761 -0.3858
10168TIP3    H254700   5.120   2.713   2.471  0.2618  0.9174  0.0300
10169TIP3   OH254701   0.544   2.796   2.036  0.1466  0.0927 -0.8742
10169TIP3    H154702   0.608   2.846   1.985  0.0019  1.0773 -0.1385
10169TIP3    H254703   0.589   2.715   2.059  2.0526  1.6806  1.5367
10170TIP3   OH254704   3.013   6.603   3.528 -0.1392  0.1287  0.4235
10170TIP3    H154705   3.046   6.541   3.462  1.0680 -0.6561  1.6996
10170TIP3    H254706   2.998   6.684   3.479 -0.0367 -0.6577 -0.9606
10171TIP3   OH254707   7.375   0.202   1.156 -0.4311  0.1532 -0.2017
10171TIP3    H154708   7.386   0.253   1.236 -1.2456 -0.5527  0.3878
10171TIP3    H254709   7.327   0.260   1.096  1.1687  1.0931 -0.6265
10172TIP3   OH254710   1.183   1.911   1.185 -0.2657  0.3442 -0.0572
10172TIP3    H154711   1.235   1.908   1.265  0.3131 -2.1275 -0.4516
10172TIP3    H254712   1.138   1.995   1.188  2.0450  1.6019  1.3730
10173TIP3   OH254713   6.246   3.348   2.811 -0.4090 -0.1495  0.1462
10173TIP3    H154714   6.310   3.346   2.883  1.0034  1.1117 -0.9920
10173TIP3    H254715   6.176   3.405   2.843 -0.0430 -0.0015  0.7057
10174TIP3   OH254716   6.362   4.298   0.937  0.5610 -0.8822 -0.0252
10174TIP3    H154717   6.290   4.262   0.987  1.6441 -1.9546  0.8297
10174TIP3    H254718   6.339   4.282   0.845 -1.5080  1.2259  0.0223
10175TIP3   OH254719   5.805   7.330   0.769 -0.0950  0.6294 -0.3695
10175TIP3    H154720   5.891   7.307   0.735  0.5263 -1.0627  2.0926
10175TIP3    H254721   5.820   7.407   0.823 -0.6867  1.9657 -2.0032
10176TIP3   OH254722   4.900   6.513   2.251  0.5158  0.2963 -0.2108
10176TIP3    H154723   4.882   6.505   2.157  0.1603  0.5856 -0.1693
10176TIP3    H254724   4.876   6.427   2.287 -0.5917  0.5924 -0.1933
10177TIP3   OH254725   3.914   2.084   0.809  0.8496  0.0945 -0.0098
10177TIP3    H154726   3.912   1.992   0.782 -0.9175 -0.1176  0.7242
10177TIP3    H254727   3.832   2.121   0.775  2.1612  1.7973 -1.5120
10178TIP3   OH254728   3.322   7.125   3.066  0.3664  0.0785 -0.2479
10178TIP3    H154729   3.251   7.066   3.090 -1.4090  0.9837 -2.8893
10178TIP3    H254730   3.328   7.187   3.139 -0.2919 -1.1120  0.8450
10179TIP3   OH254731   1.633   7.324   0.939 -0.3955 -0.3292 -0.0434
10179TIP3    H154732   1.570   7.394   0.921  0.6564  0.3790 -1.0358
10179TIP3    H254733   1.613   7.256   0.875  1.9899  1.3209 -2.7730
10180TIP3   OH254734   0.659   4.381   1.984  0.2856 -0.2501 -0.0036
10180TIP3    H154735   0.648   4.412   2.074  0.3828 -3.0216  1.0704
10180TIP3    H254736   0.704   4.453   1.939 -1.1524  1.8499  1.6836
10181TIP3   OH254737   6.832   7.331   2.523  0.5871  0.2413 -0.1697
10181TIP3    H154738   6.925   7.326   2.546  1.0533  1.0681 -1.7649
10181TIP3    H254739   6.806   7.421   2.543 -0.3353 -0.3845  1.7486
10182TIP3   OH254740   7.121   5.755   2.497  0.8229 -0.2702 -0.0120
10182TIP3    H154741   7.129   5.675   2.549  3.1749 -0.6014 -0.7780
10182TIP3    H254742   7.116   5.825   2.562 -1.1980 -0.9767  0.6649
10183TIP3   OH254743   3.117   3.411   2.626  0.6985 -0.3343  0.1076
10183TIP3    H154744   3.111   3.410   2.530  1.7685 -0.8087  0.0381
10183TIP3    H254745   3.045   3.355   2.654  0.1010  0.1632 -0.4001
10184TIP3   OH254746   4.410   2.771   1.227 -0.6751 -0.4423  0.0895
10184TIP3    H154747   4.491   2.720   1.231 -1.4820 -1.7593  0.1945
10184TIP3    H254748   4.439   2.862   1.233  0.7268 -0.9182  1.0792
10185TIP3   OH254749   3.734   2.828   0.866 -0.2279 -0.4368 -0.7916
10185TIP3    H154750   3.639   2.833   0.872 -0.2357 -1.6760  0.6734
10185TIP3    H254751   3.751   2.752   0.811 -0.0530  0.4971 -2.0833
10186TIP3   OH254752   5.930   3.292   1.939  0.0936  0.1948  0.3010
10186TIP3    H154753   5.931   3.387   1.945 -0.5384  0.2347 -0.1406
10186TIP3    H254754   5.938   3.262   2.030  1.2359  0.6422  0.3743
10187TIP3   OH254755   6.795   0.993   2.863  0.2649 -0.3245  0.4567
10187TIP3    H154756   6.811   0.905   2.830  1.5915  0.3332 -0.8276
10187TIP3    H254757   6.798   0.985   2.958  0.7131 -1.5993  0.3541
10188TIP3   OH254758   3.269   0.675   1.173 -0.6925  0.2445  0.0079
10188TIP3    H154759   3.293   0.583   1.163  0.4332  0.4936  0.3353
10188TIP3    H254760   3.176   0.673   1.195 -0.3134 -0.9269  1.7008
10189TIP3   OH254761   3.069   7.224   1.234  0.3449  0.1342 -0.2547
10189TIP3    H154762   2.980   7.216   1.199  0.3679 -2.9113  0.0788
10189TIP3    H254763   3.126   7.211   1.158  0.4429 -0.9509 -0.0120
10190TIP3   OH254764   2.824   0.263   3.203 -0.0128  0.6055  0.1679
10190TIP3    H154765   2.900   0.243   3.149 -0.8737 -0.0798 -0.8225
10190TIP3    H254766   2.789   0.178   3.229 -0.9443  0.8827 -0.1292
10191TIP3   OH254767   0.510   5.063   2.345 -0.2691 -0.1558  0.0486
10191TIP3    H154768   0.501   5.134   2.281 -3.0944  0.6406  1.1738
10191TIP3    H254769   0.569   5.098   2.412 -0.3170  0.4741 -0.2358
10192TIP3   OH254770   5.333   2.842   1.030  0.6840  0.2981 -0.2824
10192TIP3    H154771   5.417   2.809   1.061  0.7733  0.6828 -0.1102
10192TIP3    H254772   5.286   2.868   1.109  0.5926  0.5234 -0.4092
10193TIP3   OH254773   4.193   0.138   0.866 -0.4235 -0.1433 -0.0221
10193TIP3    H154774   4.225   0.133   0.956 -0.8329 -0.0182  0.1326
10193TIP3    H254775   4.232   0.063   0.822 -0.3576 -0.2995  0.3038
10194TIP3   OH254776   6.661   4.235   2.910  0.2997 -0.6442 -0.1568
10194TIP3    H154777   6.575   4.274   2.919  0.2746 -1.0101  1.4789
10194TIP3    H254778   6.720   4.294   2.957  0.6005 -1.4580  0.5145
10195TIP3   OH254779   3.153   2.709   2.774  0.1058 -0.2039 -0.5956
10195TIP3    H154780   3.064   2.678   2.757 -0.0659 -0.7748  1.1292
10195TIP3    H254781   3.192   2.719   2.687 -0.5903 -3.0557 -1.3268
10196TIP3   OH254782   5.858   1.435   1.146  0.0205 -0.2040 -0.1782
10196TIP3    H154783   5.859   1.463   1.054 -0.2770 -0.0763 -0.1441
10196TIP3    H254784   5.950   1.418   1.167 -0.1341 -3.3196 -1.4442
10197TIP3   OH254785   6.325   4.709   2.363 -0.4699  0.2074 -0.4673
10197TIP3    H154786   6.256   4.661   2.410 -0.2384 -0.9803 -1.3059
10197TIP3    H254787   6.407   4.675   2.399 -0.2872  1.0513 -0.0368
10198TIP3   OH254788   3.813   3.356   1.414 -0.1474  0.4352  0.0247
10198TIP3    H154789   3.789   3.263   1.405  0.1297 -0.1553  3.8518
10198TIP3    H254790   3.736   3.403   1.383  0.2015 -0.8873 -3.3385
10199TIP3   OH254791   2.035   4.500   2.740  0.4567 -0.2453  0.0717
10199TIP3    H154792   1.974   4.427   2.736  0.2911 -0.0614 -1.2538
10199TIP3    H254793   2.084   4.487   2.822 -0.0882 -1.4008  0.2266
10200TIP3   OH254794   6.082   7.288   2.262  0.4262 -0.2020 -0.9944
10200TIP3    H154795   6.021   7.324   2.196 -0.1672 -0.1304 -0.4140
10200TIP3    H254796   6.029   7.228   2.313  0.4054  1.0844  0.5645
10201TIP3   OH254797   6.868   5.973   2.491  0.2573  0.5782 -0.3637
10201TIP3    H154798   6.899   5.897   2.541 -0.2926 -0.4958 -1.6016
10201TIP3    H254799   6.778   5.985   2.520  0.4793  1.0369  0.1455
10202TIP3   OH254800   0.470   0.089   0.865 -0.2072  0.2651  0.1671
10202TIP3    H154801   0.410   0.024   0.827 -1.9917  2.1724 -0.4891
10202TIP3    H254802   0.438   0.102   0.954  0.1778  0.2113  0.3147
10203TIP3   OH254803   2.731   2.616   0.600  0.0958 -0.4721 -0.4014
10203TIP3    H154804   2.649   2.666   0.597  0.0672 -0.1394  2.9095
10203TIP3    H254805   2.799   2.680   0.583 -0.1853 -0.2458 -0.6986
10204TIP3   OH254806   1.837   6.990   2.666 -0.4607 -0.2328  0.2433
10204TIP3    H154807   1.811   6.919   2.607 -1.6760  1.4201 -1.3185
10204TIP3    H254808   1.902   6.951   2.724  1.7302 -1.6925 -2.9250
10205TIP3   OH254809   1.993   6.812   2.473 -0.2731 -0.1312  0.5468
10205TIP3    H154810   2.036   6.745   2.528  0.2410  0.6702  1.1503
10205TIP3    H254811   1.944   6.762   2.408  1.3115 -1.0954  0.0373
10206TIP3   OH254812   4.636   3.483   2.953  0.0374 -0.4647  0.8003
10206TIP3    H154813   4.652   3.435   3.034  0.1102 -1.0629  0.4358
10206TIP3    H254814   4.714   3.466   2.900  0.1686  0.2441  0.7518
10207TIP3   OH254815   4.160   6.051   2.907 -0.5544  0.1338 -0.3100
10207TIP3    H154816   4.229   6.113   2.881  2.8892 -2.5484  1.5773
10207TIP3    H254817   4.151   5.993   2.831  0.8647 -0.6777  0.0920
10208TIP3   OH254818   0.751   7.241   3.105  0.2324  0.2746  0.3557
10208TIP3    H154819   0.706   7.157   3.111  0.2431  0.2457  0.0716
10208TIP3    H254820   0.840   7.223   3.136  0.5100 -0.0417 -0.5790
10209TIP3   OH254821   4.350   3.658   2.794 -0.0248  0.0014 -0.0954
10209TIP3    H154822   4.258   3.676   2.817  0.1670  0.4414  0.3404
10209TIP3    H254823   4.346   3.578   2.741 -0.6050 -0.3181  0.4138
10210TIP3   OH254824   3.369   2.600   0.558 -0.5996  0.7413 -0.3977
10210TIP3    H154825   3.348   2.603   0.652  0.4497  1.0243 -0.1582
10210TIP3    H254826   3.286   2.580   0.516 -0.7410 -1.3687  0.7232
10211TIP3   OH254827   5.753   0.686   1.683 -0.4186 -0.0656 -0.2707
10211TIP3    H154828   5.699   0.764   1.694 -0.8610 -0.5656  1.5490
10211TIP3    H254829   5.843   0.717   1.684 -0.4811  0.2992  2.7358
10212TIP3   OH254830   5.971   2.090   2.425  0.1652 -0.3146 -0.2976
10212TIP3    H154831   5.967   2.001   2.391 -0.6437 -0.3852 -0.0200
10212TIP3    H254832   5.889   2.102   2.472  0.4475  0.4381  0.0168
10213TIP3   OH254833   2.240   5.964   1.401  0.2496  0.5652 -0.0652
10213TIP3    H154834   2.305   6.031   1.420  0.4671  0.2649  0.2648
10213TIP3    H254835   2.248   5.902   1.473 -1.2302  1.1416  0.6368
10214TIP3   OH254836   4.097   6.166   2.556 -0.2604  0.2607 -0.0353
10214TIP3    H154837   4.125   6.074   2.563  1.1441  0.6467 -0.2470
10214TIP3    H254838   4.052   6.170   2.472 -1.4721 -0.5057  0.5537
10215TIP3   OH254839   4.306   5.466   3.047 -0.1046  0.4343  0.1697
10215TIP3    H154840   4.315   5.427   2.960 -0.1354 -0.8638  0.7285
10215TIP3    H254841   4.213   5.458   3.067  0.1974 -1.0519  1.1022
10216TIP3   OH254842   4.194   2.050   1.058  0.3452 -0.0469 -0.1342
10216TIP3    H154843   4.218   2.016   1.145 -1.3566 -1.1608 -0.0643
10216TIP3    H254844   4.110   2.094   1.072 -0.6622 -1.4803 -1.4599
10217TIP3   OH254845   4.260   3.450   3.609 -0.4326 -0.3316  0.0659
10217TIP3    H154846   4.199   3.415   3.674  0.3993 -1.6028  0.2016
10217TIP3    H254847   4.252   3.391   3.534  1.2862 -1.1082  0.4439
10218TIP3   OH254848   0.137   1.840   1.252  0.7145 -0.0913 -0.0659
10218TIP3    H154849   0.140   1.746   1.267 -0.7682 -0.1482  0.0816
10218TIP3    H254850   0.045   1.863   1.265  0.2273  0.7474 -3.8870
10219TIP3   OH254851   7.105   3.599   2.039  0.2633 -0.0268  0.0880
10219TIP3    H154852   7.186   3.551   2.019  0.1225  0.3278 -1.5030
10219TIP3    H254853   7.101   3.667   1.971 -2.0198 -0.8372 -0.6651
10220TIP3   OH254854   2.845   4.795   0.920  0.3371  0.9543 -0.0362
10220TIP3    H154855   2.860   4.766   1.010 -0.5894  1.5943  0.3431
10220TIP3    H254856   2.875   4.723   0.866  0.3311  0.2995  0.8139
10221TIP3   OH254857   5.453   3.136   2.852  0.1024  0.1255 -0.3746
10221TIP3    H154858   5.376   3.189   2.868 -0.0565 -0.8056  2.5140
10221TIP3    H254859   5.420   3.046   2.846  0.8484 -0.1665 -0.2638
10222TIP3   OH254860   3.723   3.572   1.814 -0.3664  0.0593 -0.0286
10222TIP3    H154861   3.747   3.661   1.789 -1.3883  0.5161  0.5265
10222TIP3    H254862   3.679   3.536   1.737 -0.8945  0.4233  0.0935
10223TIP3   OH254863   4.427   2.003   3.357 -0.6025 -0.2079  0.1307
10223TIP3    H154864   4.391   1.915   3.363  0.1758 -0.6812 -1.5715
10223TIP3    H254865   4.353   2.057   3.329 -0.2916 -1.0258 -2.5288
10224TIP3   OH254866   3.138   0.437   1.825  0.4227 -0.7124  0.2000
10224TIP3    H154867   3.048   0.407   1.813  0.9672 -2.0470 -0.7856
10224TIP3    H254868   3.162   0.476   1.741  0.8815 -0.6913  0.3357
10225TIP3   OH254869   3.976   6.888   2.538  0.3083 -0.0778 -0.3787
10225TIP3    H154870   3.905   6.864   2.598 -0.8066 -1.3700 -2.0942
10225TIP3    H254871   3.954   6.843   2.457  2.5334  0.4249 -1.3254
10226TIP3   OH254872   7.167   0.198   3.373 -0.1044  0.3263  0.3329
10226TIP3    H154873   7.201   0.276   3.417 -0.4450 -0.3221  1.8053
10226TIP3    H254874   7.122   0.232   3.295  0.3026  1.5347  0.6095
10227TIP3   OH254875   1.746   4.924   2.268 -0.3532  0.1930 -0.1834
10227TIP3    H154876   1.681   4.941   2.200 -0.4748  0.4966  0.0069
10227TIP3    H254877   1.812   4.993   2.257  0.7539 -0.9950 -1.3524
10228TIP3   OH254878   1.624   7.365   1.223  0.0051  0.2706  0.5048
10228TIP3    H154879   1.609   7.338   1.133  2.4556 -0.9521  0.3872
10228TIP3    H254880   1.658   7.287   1.267  0.2120  1.2251  2.1298
10229TIP3   OH254881   6.285   5.303   0.621  0.0280 -0.2683 -0.2636
10229TIP3    H154882   6.345   5.351   0.679 -2.8059 -0.8512  3.5577
10229TIP3    H254883   6.330   5.221   0.602  1.6088  0.5116 -0.0529
10230TIP3   OH254884   2.136   6.638   2.947 -0.0011 -0.4299  0.7060
10230TIP3    H154885   2.102   6.639   3.036 -1.5424 -0.0069  0.1368
10230TIP3    H254886   2.155   6.546   2.929  0.7041 -0.4684  1.5929
10231TIP3   OH254887   1.105   0.979   3.156  0.5096  0.2105 -0.6655
10231TIP3    H154888   1.165   1.052   3.172  0.8057  0.3681 -2.3398
10231TIP3    H254889   1.020   1.020   3.141  0.4392  0.1302 -0.4918
10232TIP3   OH254890   4.268   7.421   3.342  0.0098 -0.4129 -0.5391
10232TIP3    H154891   4.357   7.390   3.359 -0.3473 -1.6941 -0.9127
10232TIP3    H254892   4.216   7.342   3.336 -1.6170  0.3739  1.9982
10233TIP3   OH254893   6.726   7.611   2.433 -0.0014  0.3321  0.2832
10233TIP3    H154894   6.654   7.580   2.378  0.2057  0.3706 -0.0142
10233TIP3    H254895   6.688   7.681   2.486  0.2302  1.5469 -1.1097
10234TIP3   OH254896   2.956   4.618   2.357  0.2329 -0.5653 -0.0452
10234TIP3    H154897   3.016   4.691   2.344  0.9909 -0.9797  0.8856
10234TIP3    H254898   2.948   4.611   2.452 -0.3498 -1.2656 -0.1382
10235TIP3   OH254899   3.834   1.190   1.184 -0.4193 -0.3603 -0.0534
10235TIP3    H154900   3.808   1.100   1.165 -1.7411 -0.4348  1.8174
10235TIP3    H254901   3.889   1.215   1.110 -1.9368 -1.8966 -1.7938
10236TIP3   OH254902   5.209   0.946   0.986  0.3276  0.5290 -0.2983
10236TIP3    H154903   5.130   0.928   0.934 -0.1910  2.5563 -0.3123
10236TIP3    H254904   5.244   1.027   0.948  2.0463  0.0366  0.1642
10237TIP3   OH254905   0.762   7.167   2.311  0.2955 -0.3235  0.0236
10237TIP3    H154906   0.703   7.107   2.264  0.1849  0.1388 -0.4336
10237TIP3    H254907   0.794   7.115   2.385  1.0911 -1.3305 -0.9912
10238TIP3   OH254908   2.976   4.170   1.370 -0.0833  0.0959  0.4798
10238TIP3    H154909   3.046   4.199   1.311  0.2365 -2.1934 -0.3420
10238TIP3    H254910   3.021   4.117   1.436 -1.0170 -1.4293 -0.0780
10239TIP3   OH254911   0.055   7.393   0.921  0.0037  0.2349 -0.2044
10239TIP3    H154912   0.021   7.426   0.838  1.6222  1.2502 -0.5025
10239TIP3    H254913   0.019   7.451   0.987 -2.9717 -1.7733  0.1460
10240TIP3   OH254914   3.159   1.648   3.324  0.4759  0.1277  0.2699
10240TIP3    H154915   3.229   1.711   3.308  0.7124 -0.2612 -0.2829
10240TIP3    H254916   3.084   1.701   3.350  0.4460  0.7168 -0.9288
10241TIP3   OH254917   2.233   2.865   0.733 -0.6559 -0.0015 -0.5882
10241TIP3    H154918   2.200   2.930   0.671 -0.9376 -0.0039 -0.4432
10241TIP3    H254919   2.258   2.915   0.810 -1.5760 -0.1379 -0.1888
10242TIP3   OH254920   5.520   3.307   3.445  0.3012  0.6806 -0.2415
10242TIP3    H154921   5.451   3.374   3.455  0.9159  1.5493 -1.5013
10242TIP3    H254922   5.597   3.357   3.419  1.4387 -0.2798  1.1742
10243TIP3   OH254923   0.287   6.235   2.765  0.3627  0.1742 -0.3228
10243TIP3    H154924   0.346   6.291   2.816  0.3316  0.7515 -0.9002
10243TIP3    H254925   0.223   6.296   2.727 -0.2561 -0.3752 -0.1809
10244TIP3   OH254926   0.068   4.291   1.172  0.2351 -0.0269  0.2420
10244TIP3    H154927   0.148   4.316   1.218 -0.9038  0.1199  2.2801
10244TIP3    H254928   0.044   4.207   1.210  0.4243 -1.0599 -1.7691
10245TIP3   OH254929   4.295   4.462   1.279 -0.2825 -0.0724  0.2966
10245TIP3    H154930   4.366   4.483   1.339 -0.6332 -0.5106  0.8835
10245TIP3    H254931   4.266   4.374   1.306  0.4684 -0.8961 -1.3994
10246TIP3   OH254932   6.672   1.658   1.811 -0.1715  0.1274  0.0047
10246TIP3    H154933   6.714   1.599   1.873  0.4498  1.0857  0.5402
10246TIP3    H254934   6.595   1.690   1.856 -0.1908  0.1642 -0.0546
10247TIP3   OH254935   0.934   4.264   2.057 -0.7693 -0.4393  0.6391
10247TIP3    H154936   0.844   4.255   2.026 -0.5253 -1.6694  0.2162
10247TIP3    H254937   0.987   4.250   1.978 -0.2051  1.0783  0.7147
10248TIP3   OH254938   6.005   5.085   3.459  0.0005  0.5588  0.4986
10248TIP3    H154939   6.082   5.123   3.416  0.8049 -0.7664  0.7172
10248TIP3    H254940   6.018   4.991   3.453 -2.1764  0.2430 -0.4708
10249TIP3   OH254941   7.004   2.903   2.244  0.1487 -0.4714  0.6928
10249TIP3    H154942   6.938   2.972   2.245 -1.4919 -1.9699  1.1946
10249TIP3    H254943   7.023   2.887   2.337  1.4804  0.1349  0.5531
10250TIP3   OH254944   7.058   2.614   0.542 -0.0217  0.0363  0.0036
10250TIP3    H154945   7.009   2.532   0.551  0.8721 -0.4208  0.8591
10250TIP3    H254946   7.147   2.587   0.520  0.4886  0.7263  1.1276
10251TIP3   OH254947   7.366   6.048   3.066 -0.0807 -0.0511 -0.3269
10251TIP3    H154948   7.344   5.966   3.112  0.4137 -0.2858 -0.5085
10251TIP3    H254949   7.388   6.109   3.136  0.1981 -0.2654 -0.2273
10252TIP3   OH254950   0.653   4.324   1.551  0.1775 -0.0486  0.3336
10252TIP3    H154951   0.656   4.398   1.611  0.4713 -0.4840  0.8578
10252TIP3    H254952   0.677   4.362   1.466  2.0621  0.1467  0.9159
10253TIP3   OH254953   1.930   7.352   2.669 -0.7648 -0.1825  0.9419
10253TIP3    H154954   1.981   7.336   2.589  1.3804  0.8046  2.0282
10253TIP3    H254955   1.893   7.439   2.657 -1.4251 -0.5067  0.5610
10254TIP3   OH254956   2.270   7.272   3.103  0.9733  0.0068  0.5742
10254TIP3    H154957   2.258   7.292   3.011  0.4555 -0.6070  0.5020
10254TIP3    H254958   2.185   7.241   3.133  0.8592  1.1516  1.5209
10255TIP3   OH254959   2.982   6.989   3.930  0.0729 -0.1125 -0.0610
10255TIP3    H154960   2.888   7.007   3.931  0.1348  0.2757  1.0654
10255TIP3    H254961   2.988   6.895   3.913 -0.7072 -0.8037  2.8737
10256TIP3   OH254962   6.594   5.769   1.719  0.0492  0.0527  0.3210
10256TIP3    H154963   6.618   5.686   1.678  0.5649  0.3856 -0.0618
10256TIP3    H254964   6.631   5.836   1.662 -0.2832  0.5491  0.6743
10257TIP3   OH254965   1.141   3.072   1.317  0.1827  0.2075  0.0092
10257TIP3    H154966   1.153   3.142   1.382 -1.4194  0.1672  0.3995
10257TIP3    H254967   1.062   3.026   1.346  0.4916 -0.9818 -0.9532
10258TIP3   OH254968   6.920   7.220   2.841  0.4285  0.1621  0.0061
10258TIP3    H154969   6.931   7.252   2.931  1.6386 -0.8886  0.2642
10258TIP3    H254970   7.009   7.201   2.811  0.0748  0.8038 -1.5525
10259TIP3   OH254971   4.423   1.902   1.736 -0.1136 -0.1423 -0.3119
10259TIP3    H154972   4.387   1.987   1.710  2.7169  1.8478  1.6763
10259TIP3    H254973   4.492   1.884   1.672  1.6243  0.8653  1.2180
10260TIP3   OH254974   2.362   1.373   0.673 -0.0660  0.0049 -0.2768
10260TIP3    H154975   2.432   1.316   0.642 -1.2415 -0.1737 -2.8511
10260TIP3    H254976   2.400   1.461   0.674  0.9376 -0.4089  1.0461
10261TIP3   OH254977   0.620   7.272   1.972 -0.3467 -0.0336  0.4920
10261TIP3    H154978   0.654   7.228   1.895 -1.3919 -1.2809  0.6994
10261TIP3    H254979   0.606   7.363   1.944 -2.2773 -0.8049 -1.3546
10262TIP3   OH254980   3.209   6.674   0.767 -0.0882  0.2259 -0.5239
10262TIP3    H154981   3.270   6.602   0.783  1.3044  1.7571  1.5530
10262TIP3    H254982   3.147   6.670   0.840 -0.2000  0.8981 -0.5738
10263TIP3   OH254983   3.746   0.823   1.694 -0.4785 -0.1744 -0.6119
10263TIP3    H154984   3.673   0.819   1.756 -0.2575 -2.6745 -0.4364
10263TIP3    H254985   3.742   0.741   1.646  0.9623  0.5649 -2.1103
10264TIP3   OH254986   3.921   3.622   2.026  0.1582  0.0817  0.3308
10264TIP3    H154987   3.872   3.569   1.964 -0.4326  0.7007  0.2547
10264TIP3    H254988   4.009   3.584   2.026  0.2610  0.2789 -1.1347
10265TIP3   OH254989   6.684   4.511   3.011  0.6025 -0.2117 -0.0185
10265TIP3    H154990   6.716   4.567   2.941  0.1577 -1.0154 -0.8769
10265TIP3    H254991   6.658   4.572   3.080  3.0784  0.5243  0.3761
10266TIP3   OH254992   5.240   4.033   2.825 -0.1499  0.2822 -0.3998
10266TIP3    H154993   5.258   4.124   2.847 -0.7433 -0.2737  2.8046
10266TIP3    H254994   5.153   4.016   2.860  0.5102 -1.8777  0.3534
10267TIP3   OH254995   0.505   5.880   3.011 -0.4198 -0.9679 -0.1939
10267TIP3    H154996   0.569   5.933   2.963  0.4302 -1.2693  0.5910
10267TIP3    H254997   0.436   5.862   2.947  0.3034 -0.6910 -1.0685
10268TIP3   OH254998   7.487   6.543   1.188 -0.1617  0.4888 -0.2933
10268TIP3    H154999   7.407   6.546   1.135  0.3510  1.2386 -1.0459
10268TIP3    H255000   7.490   6.627   1.233  0.4450  0.6685 -0.6507
10269TIP3   OH255001   2.300   3.669   1.919  0.0458  0.6427  0.2454
10269TIP3    H155002   2.369   3.640   1.979  0.9492 -0.2081 -1.1595
10269TIP3    H255003   2.308   3.611   1.843 -1.2952  1.4649 -0.5636
10270TIP3   OH255004   0.874   6.971   2.520  0.2359  0.1664 -0.3145
10270TIP3    H155005   0.892   6.889   2.567  0.0450  0.5159  0.3775
10270TIP3    H255006   0.840   6.942   2.435  3.5723 -0.5055 -1.5489
10271TIP3   OH255007   5.840   1.755   1.010 -0.0072 -0.5640 -0.6059
10271TIP3    H155008   5.834   1.848   0.992 -3.0734 -0.8567 -1.6811
10271TIP3    H255009   5.850   1.715   0.924 -3.8133 -1.4015 -0.8166
10272TIP3   OH255010   2.170   6.627   0.793 -0.6559  0.2572  0.3168
10272TIP3    H155011   2.143   6.688   0.862 -0.3904  2.0556 -1.1290
10272TIP3    H255012   2.265   6.626   0.798 -0.6410  0.3228  0.0050
10273TIP3   OH255013   7.461   0.432   2.429 -0.2527  0.4515  0.4286
10273TIP3    H155014   7.386   0.375   2.447 -0.9284  0.6269 -1.6039
10273TIP3    H255015   7.493   0.457   2.516 -1.3208 -1.2055  1.3526
10274TIP3   OH255016   1.113   3.462   0.860 -0.2317 -0.3847  0.6012
10274TIP3    H155017   1.209   3.454   0.855 -0.1391  0.7399  0.3564
10274TIP3    H255018   1.091   3.529   0.796 -1.0672  0.1851  1.4643
10275TIP3   OH255019   6.871   3.477   1.966  0.0637 -0.0066  0.3960
10275TIP3    H155020   6.905   3.463   1.877 -1.3167  1.3569 -0.3968
10275TIP3    H255021   6.941   3.524   2.011  0.0195  1.0815 -0.6149
10276TIP3   OH255022   5.427   1.228   1.193  0.1087  0.0883  0.2972
10276TIP3    H155023   5.522   1.239   1.182 -0.1025  0.0584 -2.0145
10276TIP3    H255024   5.391   1.245   1.106 -2.0314  0.1611  1.1518
10277TIP3   OH255025   0.979   1.390   0.928 -0.5910  0.0788 -0.5026
10277TIP3    H155026   1.072   1.388   0.906 -0.1760 -1.0507  1.1150
10277TIP3    H255027   0.974   1.442   1.008 -1.4585  0.6632 -0.9208
10278TIP3   OH255028   1.263   6.419   2.455  0.4503 -0.5359  0.6109
10278TIP3    H155029   1.348   6.382   2.432  0.6732 -0.5293  1.3941
10278TIP3    H255030   1.201   6.348   2.441  0.6260 -0.6291  0.3115
10279TIP3   OH255031   5.555   4.175   2.767  0.6183  0.4484 -0.1315
10279TIP3    H155032   5.618   4.185   2.695 -0.6449 -1.7254 -1.6681
10279TIP3    H255033   5.506   4.096   2.744 -2.3575  1.7732  1.2282
10280TIP3   OH255034   5.259   1.155   3.185 -0.6241 -0.4225 -0.0301
10280TIP3    H155035   5.268   1.162   3.281 -1.1516 -0.2947  0.0125
10280TIP3    H255036   5.313   1.080   3.162 -0.1397 -0.1909  0.3141
10281TIP3   OH255037   4.920   1.408   0.880 -0.1298  0.0037 -0.1490
10281TIP3    H155038   4.898   1.381   0.969 -2.1315  2.9447  0.3963
10281TIP3    H255039   5.016   1.405   0.877 -0.0329 -0.5115  1.9776
10282TIP3   OH255040   1.573   1.680   3.420 -0.5756  0.1937 -0.0212
10282TIP3    H155041   1.489   1.652   3.382 -0.4053 -0.0422 -0.2252
10282TIP3    H255042   1.608   1.742   3.356 -0.5222  0.1772 -0.0073
10283TIP3   OH255043   4.351   1.004   2.342 -0.3765  0.2443  0.2267
10283TIP3    H155044   4.289   1.051   2.397 -0.4170  1.4500 -0.8139
10283TIP3    H255045   4.435   1.012   2.387 -0.5061  0.7848  0.3759
10284TIP3   OH255046   2.709   2.701   2.860 -0.0065  0.3565 -0.1225
10284TIP3    H155047   2.727   2.776   2.803  1.4293 -0.5534 -0.9037
10284TIP3    H255048   2.689   2.741   2.945 -2.4245  1.7508 -1.2292
10285TIP3   OH255049   4.877   4.310   1.964 -0.4196  0.0351 -0.2759
10285TIP3    H155050   4.934   4.234   1.949 -0.9769 -0.6137  0.7965
10285TIP3    H255051   4.902   4.372   1.895  0.7078 -0.7331 -0.5938
10286TIP3   OH255052   0.032   3.594   2.265 -0.2325 -0.3086 -0.0484
10286TIP3    H155053   0.055   3.501   2.261 -0.3556 -0.3595  0.3358
10286TIP3    H255054   0.116   3.639   2.272 -0.1974 -0.4263  0.2931
10287TIP3   OH255055   1.839   7.569   0.829  0.5536 -0.3040  0.2650
10287TIP3    H155056   1.890   7.638   0.788  1.3489 -0.4032  1.0723
10287TIP3    H255057   1.754   7.609   0.846  0.9800  0.4560  0.6444
10288TIP3   OH255058   1.133   6.618   0.897 -0.4695  0.2400 -0.1114
10288TIP3    H155059   1.138   6.710   0.872  2.0478  0.3270  0.4448
10288TIP3    H255060   1.113   6.620   0.991  0.7369  0.3150  0.1686
10289TIP3   OH255061   6.600   3.344   1.909  0.1790 -0.3492  0.3064
10289TIP3    H155062   6.537   3.284   1.950 -0.5276 -0.2307 -0.5677
10289TIP3    H255063   6.637   3.394   1.981 -1.3199  0.1277  0.7728
10290TIP3   OH255064   7.134   5.810   0.680  0.0856  0.2984 -0.3323
10290TIP3    H155065   7.145   5.816   0.585  2.9603 -1.7936 -0.2779
10290TIP3    H255066   7.160   5.896   0.713  0.3202  0.6323 -1.3547
10291TIP3   OH255067   7.484   5.991   2.525  0.1063 -0.6512 -0.1508
10291TIP3    H155068   7.450   5.922   2.583  1.9303 -0.8098  0.8086
10291TIP3    H255069   7.432   6.068   2.548 -0.8287 -1.2832 -0.0502
10292TIP3   OH255070   5.730   1.221   1.230 -0.5806 -0.2103  0.5539
10292TIP3    H155071   5.773   1.292   1.181  0.6839 -1.7863 -0.7425
10292TIP3    H255072   5.767   1.227   1.318  0.0973  0.2775  0.2447
10293TIP3   OH255073   7.235   3.166   2.810  0.1234  0.1880  0.2047
10293TIP3    H155074   7.322   3.134   2.831 -0.1014 -1.2462 -0.8276
10293TIP3    H255075   7.196   3.188   2.895  0.8144 -1.0010  0.8589
10294TIP3   OH255076   2.551   7.549   1.485 -0.6204 -0.2481 -0.5325
10294TIP3    H155077   2.558   7.569   1.392 -1.8918  0.5719 -0.4744
10294TIP3    H255078   2.573   7.631   1.530  0.4272 -0.7563 -0.0837
10295TIP3   OH255079   2.005   7.567   1.675 -0.1046  0.5693 -0.0782
10295TIP3    H155080   2.086   7.614   1.696  0.3506  0.4996 -1.6127
10295TIP3    H255081   1.961   7.558   1.760  1.2439  1.0496  0.7087
10296TIP3   OH255082   0.581   6.775   2.575  0.1897 -0.1830 -0.5330
10296TIP3    H155083   0.617   6.846   2.523 -0.7593  0.2393 -0.6273
10296TIP3    H255084   0.515   6.734   2.519 -1.5706  0.9148  0.6412
10297TIP3   OH255085   1.657   4.112   1.232  0.0833  0.4548  0.9188
10297TIP3    H155086   1.564   4.117   1.255 -0.6824 -1.1334 -1.4360
10297TIP3    H255087   1.667   4.175   1.161 -0.3446 -2.3200 -1.8143
10298TIP3   OH255088   5.729   1.351   2.827  0.4397 -0.7201  0.1440
10298TIP3    H155089   5.698   1.367   2.738  0.2167 -0.3176  0.2915
10298TIP3    H255090   5.666   1.396   2.883  1.5290  0.5274  0.4268
10299TIP3   OH255091   3.775   0.396   2.611 -0.3447 -0.0666 -0.4877
10299TIP3    H155092   3.850   0.342   2.588 -0.2646  0.0758 -0.5602
10299TIP3    H255093   3.812   0.481   2.634 -0.4970  0.0644 -0.7198
10300TIP3   OH255094   4.610   5.431   1.304 -0.0646 -0.3507 -0.1249
10300TIP3    H155095   4.676   5.414   1.237 -1.8931 -3.3010 -1.3899
10300TIP3    H255096   4.529   5.398   1.266 -2.0462  1.7877  1.9310
10301TIP3   OH255097   5.114   3.097   2.942 -0.0460  0.4667 -0.0704
10301TIP3    H155098   5.097   3.175   2.889 -0.2511  1.3652  1.2969
10301TIP3    H255099   5.198   3.065   2.910  0.5981  1.8992  0.1031
10302TIP3   OH255100   3.597   4.356   2.340 -0.1253  0.1406  0.2384
10302TIP3    H155101   3.601   4.278   2.395 -1.0137 -0.3322 -0.3399
10302TIP3    H255102   3.673   4.349   2.282 -0.0023 -0.1119  0.4301
10303TIP3   OH255103   3.225   4.777   1.692 -0.0864 -0.3462  0.3758
10303TIP3    H155104   3.201   4.686   1.712 -3.4973  0.0761 -1.0655
10303TIP3    H255105   3.163   4.803   1.623 -0.4323  3.6264  1.9319
10304TIP3   OH255106   4.701   2.281   1.542 -0.0163  0.1365  0.0257
10304TIP3    H155107   4.704   2.185   1.543 -1.2075  0.0801 -0.1254
10304TIP3    H255108   4.632   2.303   1.604 -0.9707  0.8123 -1.2160
10305TIP3   OH255109   0.575   1.474   2.793  0.3129  0.3820  0.1903
10305TIP3    H155110   0.529   1.539   2.741  0.9227  1.2725  0.7452
10305TIP3    H255111   0.510   1.443   2.856 -0.0538  0.2460 -0.2501
10306TIP3   OH255112   4.954   2.521   2.330 -0.1063 -0.7465 -0.5750
10306TIP3    H155113   4.961   2.425   2.336 -0.7583 -0.8546 -1.3359
10306TIP3    H255114   5.041   2.549   2.300  0.3192 -1.0199  0.3795
10307TIP3   OH255115   0.081   6.961   0.807  0.0413  0.1550 -0.2051
10307TIP3    H155116   0.157   6.945   0.752  0.1066 -1.5785  0.3292
10307TIP3    H255117   0.113   7.018   0.877  1.1636 -1.3990  0.6074
10308TIP3   OH255118   0.115   1.269   2.485  0.7097 -0.1393  0.1691
10308TIP3    H155119   0.091   1.277   2.393  0.0235  0.5513  0.3932
10308TIP3    H255120   0.083   1.183   2.511 -1.2637  0.5871  0.3483
10309TIP3   OH255121   2.507   4.100   1.595  0.5127 -0.4521 -0.1382
10309TIP3    H155122   2.510   4.026   1.534  1.5640 -1.0688  0.6517
10309TIP3    H255123   2.535   4.064   1.679  1.4386  0.9330  0.1710
10310TIP3   OH255124   3.982   0.304   0.876  0.2860  0.3588  0.1727
10310TIP3    H155125   4.033   0.377   0.840  0.6712  0.5789  1.1248
10310TIP3    H255126   4.040   0.228   0.867  0.4792  0.4589  0.5224
10311TIP3   OH255127   6.916   5.420   1.736  0.1299 -0.1536 -0.0118
10311TIP3    H155128   6.997   5.441   1.690  0.5323 -0.7844  0.3873
10311TIP3    H255129   6.941   5.417   1.828 -0.7930  1.7025  0.3409
10312TIP3   OH255130   2.812   3.759   0.519 -0.3906  0.2551  0.4302
10312TIP3    H155131   2.784   3.823   0.584 -3.1593  1.4697 -1.7080
10312TIP3    H255132   2.888   3.798   0.477 -0.3318  0.7913  1.0224
10313TIP3   OH255133   6.795   4.476   2.295 -0.3694 -0.5413 -0.4171
10313TIP3    H155134   6.790   4.388   2.334  0.0952 -0.3799  0.0193
10313TIP3    H255135   6.882   4.479   2.254 -0.2609 -0.1854 -0.1697
10314TIP3   OH255136   3.592   3.714   3.128  0.7753 -0.6180 -0.0040
10314TIP3    H155137   3.553   3.734   3.043  0.9714  0.3004  0.1115
10314TIP3    H255138   3.681   3.686   3.108  0.9958  0.1173 -0.0726
10315TIP3   OH255139   7.637   4.331   2.928 -0.3191  0.6983  0.1280
10315TIP3    H155140   7.697   4.359   2.858 -1.0514 -0.2056 -0.8843
10315TIP3    H255141   7.667   4.243   2.951  0.3371  1.2372  1.4633
10316TIP3   OH255142   3.119   3.577   0.438  0.2169 -0.1439 -0.7670
10316TIP3    H155143   3.047   3.640   0.429  1.5378  1.5860  0.2167
10316TIP3    H255144   3.118   3.528   0.356 -1.9920 -0.0906 -0.8321
10317TIP3   OH255145   3.111   5.794   3.363  0.3798  0.2247  0.7490
10317TIP3    H155146   3.136   5.883   3.338  2.9263 -0.6523 -0.1701
10317TIP3    H255147   3.049   5.766   3.296  1.1172  0.6453 -0.1326
10318TIP3   OH255148   5.910   7.210   1.306 -0.1451 -0.5067  0.0792
10318TIP3    H155149   5.991   7.213   1.256  1.5692  0.6283  2.7317
10318TIP3    H255150   5.920   7.134   1.364 -0.7517 -0.0904  0.7531
10319TIP3   OH255151   0.463   6.037   1.576  0.2067  0.2429  0.5688
10319TIP3    H155152   0.471   6.088   1.495  0.6111 -0.5271  0.1077
10319TIP3    H255153   0.481   5.947   1.549  0.0298 -0.0694  1.4649
10320TIP3   OH255154   6.032   6.739   0.559  0.6096  0.1534 -0.0377
10320TIP3    H155155   6.027   6.647   0.534  3.7803 -0.4124  0.9372
10320TIP3    H255156   5.946   6.759   0.596 -0.2101 -2.3631 -0.4513
10321TIP3   OH255157   4.483   1.312   0.871 -0.1829 -0.2218 -0.9102
10321TIP3    H155158   4.407   1.335   0.817 -0.8060 -2.3225 -1.0491
10321TIP3    H255159   4.476   1.369   0.948 -1.9569 -0.3886 -0.9017
10322TIP3   OH255160   7.094   2.074   0.900  0.1323  0.8417 -0.3375
10322TIP3    H155161   7.001   2.048   0.901  1.1675 -3.9617 -1.4953
10322TIP3    H255162   7.122   2.066   0.991 -0.3303  1.1360 -0.1654
10323TIP3   OH255163   3.045   1.272   1.873 -0.5280 -0.1678  0.0978
10323TIP3    H155164   3.019   1.243   1.960 -0.1031  1.1002  0.6646
10323TIP3    H255165   3.138   1.293   1.881 -0.3085 -0.7174 -0.8505
10324TIP3   OH255166   1.386   5.105   1.420  0.1570  0.6028  0.1416
10324TIP3    H155167   1.449   5.108   1.491  1.5289 -1.3722 -0.9062
10324TIP3    H255168   1.414   5.031   1.366 -3.5894 -1.0225  0.1212
10325TIP3   OH255169   1.232   7.160   1.230 -0.0890 -0.4687 -0.4402
10325TIP3    H155170   1.167   7.215   1.186 -1.0450 -1.4458 -0.2710
10325TIP3    H255171   1.268   7.216   1.299  1.1214  0.9546 -2.1141
10326TIP3   OH255172   3.224   3.827   2.181  0.1191  0.1498  0.1306
10326TIP3    H155173   3.252   3.832   2.273  1.3443  0.8640 -0.2571
10326TIP3    H255174   3.193   3.737   2.170  1.2994 -0.3771  0.8904
10327TIP3   OH255175   6.165   4.238   1.123 -0.4093 -0.1034 -0.0620
10327TIP3    H155176   6.099   4.168   1.129  1.0184 -1.4926 -0.0531
10327TIP3    H255177   6.179   4.265   1.214  0.1477 -0.9109  0.1077
10328TIP3   OH255178   2.260   1.090   0.795 -0.6828 -0.4112  0.0123
10328TIP3    H155179   2.178   1.127   0.828  0.2938  0.9332  1.0286
10328TIP3    H255180   2.306   1.164   0.756 -0.8963 -1.5747 -2.6266
10329TIP3   OH255181   7.240   1.587   2.033 -0.4957  0.1937 -0.0940
10329TIP3    H155182   7.246   1.677   2.065 -0.2134  0.3728 -0.6299
10329TIP3    H255183   7.203   1.596   1.945  2.5369  0.1050 -1.5037
10330TIP3   OH255184   3.029   3.018   2.737  0.0549  0.1640  0.1668
10330TIP3    H155185   3.028   3.113   2.721  0.0497  0.1540  0.1110
10330TIP3    H255186   3.099   3.006   2.801 -0.5384  0.3238  0.8716
10331TIP3   OH255187   5.365   6.113   1.356  0.0316 -0.4760  0.2739
10331TIP3    H155188   5.335   6.203   1.342 -0.9939 -0.8180  0.2067
10331TIP3    H255189   5.285   6.064   1.373  0.7203 -1.0964  1.8865
10332TIP3   OH255190   3.139   4.547   1.792 -0.6827  0.0760 -0.8750
10332TIP3    H155191   3.168   4.553   1.883 -2.3565  1.1988 -0.3693
10332TIP3    H255192   3.173   4.463   1.761 -0.5687 -0.5940  0.9524
10333TIP3   OH255193   2.846   3.388   2.089  0.7157 -0.6565  0.1259
10333TIP3    H155194   2.933   3.390   2.129  1.3526  1.7692 -1.1226
10333TIP3    H255195   2.855   3.328   2.015  1.8445  0.6108 -0.8428
10334TIP3   OH255196   4.778   7.466   2.399 -0.1400 -0.0614  0.2712
10334TIP3    H155197   4.867   7.475   2.365 -0.0697  0.7299  0.6352
10334TIP3    H255198   4.790   7.436   2.489 -0.3616 -3.9308 -0.8059
10335TIP3   OH255199   2.893   0.199   1.368 -0.3109  0.2320 -0.0816
10335TIP3    H155200   2.892   0.176   1.275  1.3743 -0.7198  0.1025
10335TIP3    H255201   2.877   0.116   1.413 -0.3034  0.5440  0.4956
10336TIP3   OH255202   1.078   3.965   2.503  0.0415  0.6276 -0.0304
10336TIP3    H155203   1.099   4.033   2.440 -1.6592  0.2638 -1.0577
10336TIP3    H255204   1.122   3.887   2.471  1.0276  0.9555  0.4996
10337TIP3   OH255205   0.572   5.599   2.195 -1.1104  0.1821 -0.4821
10337TIP3    H155206   0.591   5.669   2.258 -0.5809  0.0573 -0.5025
10337TIP3    H255207   0.477   5.587   2.202 -1.1714  0.7214 -0.2902
10338TIP3   OH255208   4.431   1.410   2.663 -0.3163  0.2290  0.9258
10338TIP3    H155209   4.425   1.420   2.758 -0.3987  0.0877  0.9358
10338TIP3    H255210   4.520   1.437   2.642 -0.4418  0.7079  0.9872
10339TIP3   OH255211   5.556   6.064   1.174 -0.4317  0.0509 -0.2413
10339TIP3    H155212   5.632   6.087   1.227 -0.5545 -2.4775  1.1772
10339TIP3    H255213   5.482   6.074   1.233 -1.2894  2.4179 -1.5883
10340TIP3   OH255214   7.632   6.746   0.915 -0.0749 -0.2700  0.6248
10340TIP3    H155215   7.617   6.752   1.010  0.5433  0.2721  0.7000
10340TIP3    H255216   7.692   6.818   0.896  0.6995 -1.0581  0.0078
10341TIP3   OH255217   2.576   6.339   1.445  0.0430  0.5339 -0.3872
10341TIP3    H155218   2.511   6.270   1.458  0.7051 -0.4915 -2.1617
10341TIP3    H255219   2.534   6.418   1.479 -0.9407 -0.6239  1.2179
10342TIP3   OH255220   0.714   1.734   0.709 -0.0905 -0.1991 -0.4392
10342TIP3    H155221   0.734   1.641   0.714 -0.3700 -0.3096 -1.2820
10342TIP3    H255222   0.631   1.744   0.757  0.8708 -0.0606  1.2917
10343TIP3   OH255223   2.617   3.127   2.711 -0.4281  0.2225 -0.0845
10343TIP3    H155224   2.642   3.084   2.792 -3.9353 -0.0536  1.0155
10343TIP3    H255225   2.552   3.193   2.737 -0.0805  1.6108 -2.4476
10344TIP3   OH255226   2.182   2.911   3.213 -0.8828 -0.3311 -0.4032
10344TIP3    H155227   2.141   2.886   3.296  1.1904 -2.0892  0.1619
10344TIP3    H255228   2.113   2.958   3.166 -3.3625 -2.6628  0.6846
10345TIP3   OH255229   7.593   2.896   2.071  0.1465 -0.5361 -0.0466
10345TIP3    H155230   7.614   2.982   2.109  1.9323 -0.7640 -0.4528
10345TIP3    H255231   7.623   2.833   2.137 -0.0004 -0.8725 -0.3010
10346TIP3   OH255232   1.500   4.063   0.359  0.3781 -0.3077 -0.3080
10346TIP3    H155233   1.427   4.121   0.379  0.1871 -1.4048  2.5932
10346TIP3    H255234   1.510   4.069   0.264 -0.9236  2.8343 -0.3486
10347TIP3   OH255235   0.990   3.401   2.300 -0.3405 -0.4072  0.4466
10347TIP3    H155236   1.063   3.341   2.312 -0.5159 -0.6268  0.4181
10347TIP3    H255237   0.933   3.357   2.237  0.0515  0.2553 -0.3968
10348TIP3   OH255238   2.262   3.414   0.941  0.2192 -0.5537  0.1571
10348TIP3    H155239   2.218   3.467   0.875 -0.1283 -0.0519  0.7692
10348TIP3    H255240   2.259   3.468   1.020  0.3742 -1.2531  0.6527
10349TIP3   OH255241   3.493   3.380   1.900 -0.2993 -0.0881  0.4174
10349TIP3    H155242   3.531   3.361   1.814 -0.6712 -1.9945  0.6170
10349TIP3    H255243   3.547   3.450   1.935  0.0804  0.4917 -1.2134
10350TIP3   OH255244   5.489   1.464   1.471 -0.3662 -0.6033 -0.1223
10350TIP3    H155245   5.506   1.459   1.377 -0.2288 -0.8786 -0.0844
10350TIP3    H255246   5.396   1.482   1.478 -0.2499  0.0842 -0.3221
10351TIP3   OH255247   2.225   4.966   1.804 -0.0475 -0.2515  0.2730
10351TIP3    H155248   2.143   4.974   1.852 -0.5113 -0.4007 -0.4722
10351TIP3    H255249   2.201   4.984   1.713  1.0116  1.1689  0.2457
10352TIP3   OH255250   2.681   0.214   0.891  0.1951  0.8135 -0.2017
10352TIP3    H155251   2.604   0.218   0.834  0.4196  0.7413 -0.5137
10352TIP3    H255252   2.749   0.260   0.843  0.8347 -0.6029 -0.7184
10353TIP3   OH255253   0.057   0.038   2.815 -0.1519  0.5622  0.7284
10353TIP3    H155254   0.048   0.065   2.907  1.9441  1.0000  0.8536
10353TIP3    H255255   0.127   0.093   2.781 -1.7612  1.3386 -1.5533
10354TIP3   OH255256   4.654   4.355   3.387  0.4434 -0.6088 -0.0270
10354TIP3    H155257   4.571   4.355   3.338  0.5247  0.9530 -0.2122
10354TIP3    H255258   4.674   4.448   3.400  2.0813 -0.9639  0.1741
10355TIP3   OH255259   0.600   1.924   1.390  0.2154 -0.0892 -0.1004
10355TIP3    H155260   0.514   1.956   1.363  0.1741  1.3225  1.5274
10355TIP3    H255261   0.655   1.933   1.312 -0.7995  0.2088 -0.7977
10356TIP3   OH255262   6.979   5.103   2.527  0.2859  0.1672 -0.1909
10356TIP3    H155263   7.021   5.104   2.613  0.8981 -0.9509 -0.4512
10356TIP3    H255264   6.885   5.092   2.546  0.5153 -1.0968  0.3346
10357TIP3   OH255265   0.249   1.355   1.094 -0.1030 -0.5900 -0.2610
10357TIP3    H155266   0.322   1.316   1.046 -1.9015 -2.0526 -1.9757
10357TIP3    H255267   0.217   1.285   1.151 -2.2162 -1.1696 -2.0187
10358TIP3   OH255268   5.675   0.863   1.971  0.1450  0.4240 -0.1101
10358TIP3    H155269   5.612   0.876   2.042  0.2691  0.8741 -0.0770
10358TIP3    H255270   5.678   0.768   1.958  0.3837  0.3064  0.7311
10359TIP3   OH255271   1.953   1.837   2.108  0.1638  0.4715  0.8101
10359TIP3    H155272   1.923   1.824   2.197 -1.2408 -0.3212  0.2491
10359TIP3    H255273   2.010   1.763   2.090 -1.0289 -0.3858  0.4578
10360TIP3   OH255274   4.473   2.385   0.760  0.3816 -0.2826 -0.2628
10360TIP3    H155275   4.444   2.350   0.845 -2.0370  2.0950  0.0106
10360TIP3    H255276   4.404   2.360   0.699  0.4126  0.8853 -0.7963
10361TIP3   OH255277   6.169   2.810   1.141 -0.3241  0.5622  0.5523
10361TIP3    H155278   6.252   2.812   1.093 -0.4512  0.0434  0.3097
10361TIP3    H255279   6.157   2.900   1.170 -0.3275  0.9219 -0.5226
10362TIP3   OH255280   6.615   6.882   0.777  0.3460  0.0090  0.0196
10362TIP3    H155281   6.590   6.974   0.767  0.6731  0.2068  0.9519
10362TIP3    H255282   6.557   6.848   0.844  1.8983  0.2419  1.5630
10363TIP3   OH255283   6.150   5.319   3.049 -0.2314  0.1528 -0.3146
10363TIP3    H155284   6.130   5.402   3.005  0.8408  0.7770  0.3231
10363TIP3    H255285   6.212   5.275   2.992  0.6087  0.6393  0.1977
10364TIP3   OH255286   5.159   6.304   1.345 -0.2710  0.1259 -0.2587
10364TIP3    H155287   5.155   6.352   1.263 -0.6423  0.1846 -0.2086
10364TIP3    H255288   5.192   6.367   1.409 -0.5719  0.2561 -0.2337
10365TIP3   OH255289   3.175   3.930   3.324  0.3942  0.0694  0.0301
10365TIP3    H155290   3.204   4.017   3.350  0.6564  0.1980 -0.6693
10365TIP3    H255291   3.249   3.873   3.343  0.1184 -0.0571  0.7589
10366TIP3   OH255292   1.290   3.256   2.293  0.0280 -0.4874  0.0544
10366TIP3    H155293   1.384   3.245   2.305  0.8279  2.9439 -1.9696
10366TIP3    H255294   1.262   3.312   2.366 -0.3250 -0.8385  0.1970
10367TIP3   OH255295   3.900   6.327   1.365 -0.7689 -0.7165 -0.7533
10367TIP3    H155296   3.937   6.242   1.339  2.4398  0.3424 -0.1195
10367TIP3    H255297   3.920   6.334   1.458  0.1149  1.1703 -1.0311
10368TIP3   OH255298   7.643   5.932   1.188  0.0608 -0.0612  0.2434
10368TIP3    H155299   7.595   5.857   1.152  0.7437 -0.5431  0.3005
10368TIP3    H255300   7.576   5.990   1.222 -0.4786 -0.7077  0.3077
10369TIP3   OH255301   2.112   4.608   1.548  0.3313 -0.2944 -0.1264
10369TIP3    H155302   2.154   4.635   1.630  1.8628  1.3691 -1.3845
10369TIP3    H255303   2.124   4.513   1.545  1.0426 -0.2618  1.1469
10370TIP3   OH255304   7.006   1.426   3.353 -0.3836 -0.5249 -0.4690
10370TIP3    H155305   6.919   1.453   3.322  0.3635  0.7674 -1.5696
10370TIP3    H255306   7.056   1.411   3.272  0.9690  0.6630  0.1069
10371TIP3   OH255307   0.701   6.132   1.355 -0.6551 -0.3398  0.1315
10371TIP3    H155308   0.735   6.189   1.287 -2.7288 -0.7847 -1.3783
10371TIP3    H255309   0.663   6.191   1.420  1.1731  0.0762  0.9177
10372TIP3   OH255310   1.563   5.151   1.648  0.0999 -0.1929  0.1712
10372TIP3    H155311   1.570   5.199   1.731 -0.6803 -0.5105  0.4307
10372TIP3    H255312   1.651   5.157   1.610  0.0833  1.2581  0.2933
10373TIP3   OH255313   7.221   1.025   1.166  0.3115  0.1144  0.0498
10373TIP3    H155314   7.305   1.066   1.146 -0.2040  1.1136 -0.1353
10373TIP3    H255315   7.210   0.959   1.098 -0.2057  1.6996 -1.4869
10374TIP3   OH255316   0.764   5.057   0.701 -0.2337 -0.7333  0.3974
10374TIP3    H155317   0.675   5.060   0.666 -0.7901  1.3344  1.7832
10374TIP3    H255318   0.766   4.978   0.755 -1.8153  0.0872  1.7238
10375TIP3   OH255319   2.121   2.181   2.112  0.1565  0.2348  0.0666
10375TIP3    H155320   2.203   2.185   2.062 -0.5720  1.2222 -1.1211
10375TIP3    H255321   2.054   2.210   2.050 -1.1205 -0.6662  0.9721
10376TIP3   OH255322   5.108   4.824   2.455  0.3193  0.2099 -0.2317
10376TIP3    H155323   5.070   4.898   2.408 -4.2888 -1.7833 -0.2120
10376TIP3    H255324   5.145   4.862   2.534  0.0492  2.6956 -1.2145
10377TIP3   OH255325   3.589   6.307   2.941 -0.8077  0.5949  0.6326
10377TIP3    H155326   3.552   6.324   3.028  0.0058  0.2225  1.0607
10377TIP3    H255327   3.649   6.380   2.926 -1.5910  1.1357 -0.0136
10378TIP3   OH255328   5.932   5.061   1.812 -0.0556  0.3700 -0.6150
10378TIP3    H155329   5.899   4.977   1.843  0.1155  0.4512 -0.2081
10378TIP3    H255330   5.857   5.102   1.770  0.6469 -1.4438 -4.0216
10379TIP3   OH255331   2.242   2.783   1.493  0.4556  0.5524  0.3164
10379TIP3    H155332   2.179   2.830   1.546 -1.1439 -0.9389 -0.1702
10379TIP3    H255333   2.313   2.760   1.554  0.5871  2.2633  0.8619
10380TIP3   OH255334   6.195   6.812   2.378 -0.5633  0.7309  0.1803
10380TIP3    H155335   6.259   6.741   2.375  0.1682  1.3363  0.8184
10380TIP3    H255336   6.190   6.844   2.288 -0.6648  0.0763 -0.0484
10381TIP3   OH255337   0.789   6.141   2.426  0.4907  0.3688  0.3927
10381TIP3    H155338   0.759   6.066   2.374  1.9516  0.0842 -0.0914
10381TIP3    H255339   0.731   6.212   2.400  0.5147 -0.0376 -0.8608
10382TIP3   OH255340   5.259   5.972   1.710  0.0674 -0.2474 -0.3732
10382TIP3    H155341   5.231   6.061   1.733  3.0190  1.2566 -2.0229
10382TIP3    H255342   5.252   5.923   1.792 -0.9633  1.6905  0.7725
10383TIP3   OH255343   4.195   3.645   1.651 -0.1790  0.1015  0.2983
10383TIP3    H155344   4.129   3.616   1.588 -0.3425  2.0291 -0.4951
10383TIP3    H255345   4.184   3.587   1.726 -0.5635 -1.7019 -1.0835
10384TIP3   OH255346   5.466   1.144   0.605  0.2204  0.7663 -0.2048
10384TIP3    H155347   5.560   1.162   0.612  0.2586  1.0069 -1.1894
10384TIP3    H255348   5.456   1.103   0.520 -0.1020 -2.5645  1.2881
10385TIP3   OH255349   3.971   6.165   2.303  0.6067 -0.5800 -0.2599
10385TIP3    H155350   4.010   6.199   2.222  0.1152  1.2624  0.2413
10385TIP3    H255351   3.921   6.088   2.275 -1.0384  1.0341 -2.0532
10386TIP3   OH255352   5.462   6.171   2.196  0.3101  0.1237  0.5967
10386TIP3    H155353   5.504   6.256   2.211  2.9504 -1.1658  1.0755
10386TIP3    H255354   5.520   6.126   2.135 -1.9877 -0.7128 -1.0886
10387TIP3   OH255355   7.565   6.333   3.610 -0.3157  0.1916 -0.2214
10387TIP3    H155356   7.503   6.262   3.595 -1.2740  1.1161 -0.7985
10387TIP3    H255357   7.645   6.290   3.639 -0.7128 -1.1527 -1.0468
10388TIP3   OH255358   2.086   2.933   1.057  0.2376 -0.2013  0.3309
10388TIP3    H155359   2.053   2.958   1.143  0.2433  0.4292  0.1521
10388TIP3    H255360   2.151   2.865   1.075 -0.0546 -0.3644  0.7911
10389TIP3   OH255361   1.572   1.468   2.823 -1.0062  0.3898  0.1813
10389TIP3    H155362   1.581   1.563   2.821  0.8635  0.2475  0.5332
10389TIP3    H255363   1.591   1.444   2.914 -0.2952 -0.4113 -0.1661
10390TIP3   OH255364   7.267   4.388   1.081  0.3476  0.0499  0.4191
10390TIP3    H155365   7.224   4.410   1.163  1.1327 -0.1012  0.8808
10390TIP3    H255366   7.326   4.315   1.104  0.9316  0.3278 -0.1665
10391TIP3   OH255367   1.296   6.747   2.686 -0.7186 -0.0212  0.6132
10391TIP3    H155368   1.246   6.666   2.690  0.1408 -0.5361  1.1906
10391TIP3    H255369   1.236   6.814   2.719 -0.2703 -1.0186  3.7633
10392TIP3   OH255370   4.472   5.513   3.257 -0.3007  0.8167 -0.1644
10392TIP3    H155371   4.423   5.492   3.177 -0.0446 -0.2751 -0.0490
10392TIP3    H255372   4.439   5.450   3.322 -1.8651  2.8713  1.1514
10393TIP3   OH255373   2.962   2.172   2.425 -0.6471 -0.3931 -0.0072
10393TIP3    H155374   2.961   2.076   2.426  0.1885 -0.4096  1.0796
10393TIP3    H255375   2.930   2.197   2.512  0.6075  0.2714  0.2884
10394TIP3   OH255376   4.397   2.091   2.870  0.9638  1.2162  0.0673
10394TIP3    H155377   4.455   2.045   2.810 -0.4178 -0.0567 -0.3618
10394TIP3    H255378   4.404   2.043   2.953 -1.3472 -0.6391 -0.6937
10395TIP3   OH255379   2.272   7.466   2.290  0.1894  0.2427 -0.2733
10395TIP3    H155380   2.209   7.410   2.244 -0.1468 -0.8414  1.4137
10395TIP3    H255381   2.217   7.533   2.333  0.1289 -0.6927  1.1840
10396TIP3   OH255382   3.652   5.007   2.708  0.3501 -0.1085  0.0935
10396TIP3    H155383   3.627   4.949   2.636  1.2887  0.4016 -0.6577
10396TIP3    H255384   3.747   5.002   2.712  0.5749  2.3288 -0.8303
10397TIP3   OH255385   0.357   1.230   2.165  0.1797  0.5443  0.1573
10397TIP3    H155386   0.342   1.288   2.239  0.0289  0.6987  0.0062
10397TIP3    H255387   0.361   1.288   2.089 -1.1676  0.2705 -0.1533
10398TIP3   OH255388   1.294   0.617   1.954 -0.5221  0.3174  0.4417
10398TIP3    H155389   1.226   0.599   2.019 -0.8997  1.8755  0.5021
10398TIP3    H255390   1.376   0.594   1.998 -0.8443  0.4502  1.1188
10399TIP3   OH255391   0.890   3.399   1.324  0.2208  0.1459  0.8706
10399TIP3    H155392   0.946   3.353   1.261  0.0802  0.9143  0.1716
10399TIP3    H255393   0.803   3.401   1.283  0.3462  1.5184  0.6150
10400TIP3   OH255394   1.844   0.054   2.394 -0.2614  0.2079  0.1181
10400TIP3    H155395   1.822   0.073   2.303  0.3416 -0.8747 -0.2681
10400TIP3    H255396   1.940   0.053   2.396 -0.2730 -0.1511  0.6834
10401TIP3   OH255397   5.064   3.126   0.710 -0.0550 -0.3174  0.1537
10401TIP3    H155398   5.143   3.149   0.759  0.6389 -1.5104 -0.3749
10401TIP3    H255399   5.053   3.198   0.647 -0.1336  0.4931  1.0663
10402TIP3   OH255400   6.899   3.006   1.323  0.4588  0.5133  0.7042
10402TIP3    H155401   6.904   3.055   1.241 -1.7699 -0.7682 -0.2963
10402TIP3    H255402   6.986   2.967   1.334  0.8351  0.8011 -1.0019
10403TIP3   OH255403   6.034   0.193   0.842  0.1164 -0.2461  0.0681
10403TIP3    H155404   5.955   0.202   0.790  0.6575  0.4611 -0.6482
10403TIP3    H255405   6.069   0.107   0.817  0.0110 -0.2037 -0.2306
10404TIP3   OH255406   6.168   7.517   1.826 -0.4731  0.0448 -0.0771
10404TIP3    H155407   6.105   7.587   1.847  1.9783  3.0877 -1.9097
10404TIP3    H255408   6.250   7.546   1.866  0.4863 -2.3349 -0.1487
10405TIP3   OH255409   2.398   3.717   2.936 -0.1606  0.2079 -0.1199
10405TIP3    H155410   2.416   3.807   2.908  0.0405 -0.0439 -0.8206
10405TIP3    H255411   2.481   3.671   2.923 -0.1103  0.0275  0.7243
10406TIP3   OH255412   7.334   4.083   2.199  0.0576  0.7862 -0.0354
10406TIP3    H155413   7.422   4.095   2.233  1.0908 -0.7900 -1.9387
10406TIP3    H255414   7.279   4.138   2.255  2.5130  3.7223 -0.2688
10407TIP3   OH255415   5.897   7.672   2.408  0.3633 -0.7810  0.1808
10407TIP3    H155416   5.933   7.732   2.474 -0.7095 -0.3904  0.4298
10407TIP3    H255417   5.951   7.688   2.330  0.3974  0.1836  0.3834
10408TIP3   OH255418   0.800   3.611   1.713 -0.5862 -0.0919  0.4431
10408TIP3    H155419   0.712   3.629   1.746 -0.6796  0.4107 -0.0674
10408TIP3    H255420   0.802   3.652   1.626  0.5277  0.9155  0.9094
10409TIP3   OH255421   5.521   3.047   1.589  0.5460 -0.6900 -0.8811
10409TIP3    H155422   5.606   3.085   1.567  0.6193 -0.5201 -0.3245
10409TIP3    H255423   5.519   3.047   1.685 -0.0613 -0.7354 -0.8897
10410TIP3   OH255424   1.560   1.780   1.405  0.5061 -0.2526  0.0131
10410TIP3    H155425   1.608   1.708   1.364 -1.0082 -1.5011  0.3430
10410TIP3    H255426   1.628   1.838   1.438  1.8972 -2.6738  1.7728
10411TIP3   OH255427   6.147   0.909   2.645 -0.3292  0.2076 -0.1275
10411TIP3    H155428   6.188   0.876   2.725 -0.1063 -0.2208 -0.4168
10411TIP3    H255429   6.204   0.878   2.574 -0.4629  0.6806 -0.4459
10412TIP3   OH255430   2.493   5.569   0.794  0.3192 -0.0869 -0.3211
10412TIP3    H155431   2.446   5.648   0.821  0.3121  0.4144 -1.7223
10412TIP3    H255432   2.429   5.518   0.744  0.5754 -0.5684 -0.1676
10413TIP3   OH255433   7.412   6.338   2.315  0.6144 -0.9554  0.1720
10413TIP3    H155434   7.501   6.353   2.349  1.3641 -1.9365 -1.2531
10413TIP3    H255435   7.394   6.246   2.337 -1.0299 -0.1713  2.4846
10414TIP3   OH255436   7.419   6.063   2.177  0.6056 -0.3740 -0.2580
10414TIP3    H155437   7.339   6.037   2.131 -0.6329  1.1481  0.9349
10414TIP3    H255438   7.425   6.001   2.250 -1.0032  1.0176  1.1684
10415TIP3   OH255439   1.772   3.618   2.547 -0.1950  0.1586  0.1772
10415TIP3    H155440   1.725   3.537   2.569 -0.9618  0.6125  0.2369
10415TIP3    H255441   1.710   3.688   2.566 -0.1946  0.6861 -1.5774
10416TIP3   OH255442   6.656   0.328   0.761  0.0662 -0.0714  0.2980
10416TIP3    H155443   6.596   0.358   0.693 -1.4460 -1.1409  1.1055
10416TIP3    H255444   6.611   0.348   0.843  2.1753  1.8732  1.0866
10417TIP3   OH255445   4.996   5.745   1.527 -0.3510 -0.3359  0.4070
10417TIP3    H155446   4.976   5.759   1.620  0.9395 -0.7854  0.7764
10417TIP3    H255447   5.024   5.831   1.496  1.6953 -0.6873  1.1207
10418TIP3   OH255448   5.244   6.075   2.080 -0.0728  0.4431 -0.0839
10418TIP3    H155449   5.263   5.994   2.034 -0.1276 -0.0066  0.6609
10418TIP3    H255450   5.326   6.096   2.126 -0.7610 -0.5715  1.7445
10419TIP3   OH255451   6.165   7.461   1.387  0.1302 -0.3192 -0.1161
10419TIP3    H155452   6.194   7.403   1.457  0.1982 -1.4800 -1.0753
10419TIP3    H255453   6.178   7.549   1.423 -1.7299 -0.8420  2.0844
10420TIP3   OH255454   7.323   6.300   2.667  0.1074 -0.1298 -0.0563
10420TIP3    H155455   7.367   6.271   2.747  1.0990  0.4635 -0.3796
10420TIP3    H255456   7.375   6.374   2.636 -0.5689 -0.0233 -0.9725
10421TIP3   OH255457   7.547   5.888   0.556  0.9184 -0.0192 -0.3141
10421TIP3    H155458   7.590   5.847   0.630  0.7149 -0.2640 -0.3290
10421TIP3    H255459   7.583   5.843   0.479  0.2750 -0.5773 -0.3031
10422TIP3   OH255460   0.105   5.515   0.503 -0.1708  0.2632 -0.6460
10422TIP3    H155461   0.049   5.438   0.501  0.1228  0.0573 -2.7269
10422TIP3    H255462   0.194   5.480   0.502  0.0001  0.6265  0.3869
10423TIP3   OH255463   7.385   0.819   0.787  0.6469  0.3601  0.1911
10423TIP3    H155464   7.424   0.837   0.873  0.8035 -2.6333  0.8754
10423TIP3    H255465   7.290   0.828   0.802  0.5876 -1.2675  1.0784
10424TIP3   OH255466   5.466   0.109   2.473 -0.8562  0.2542 -0.6824
10424TIP3    H155467   5.434   0.030   2.430 -2.7364  0.4429  0.2597
10424TIP3    H255468   5.389   0.144   2.518  0.4285  1.4422  0.6929
10425TIP3   OH255469   2.267   1.889   1.919  0.5549  0.0689 -0.4943
10425TIP3    H155470   2.343   1.843   1.882  1.5202  0.2196  1.2266
10425TIP3    H255471   2.199   1.879   1.852  0.4190 -4.4980  0.0246
10426TIP3   OH255472   5.863   2.165   2.101 -1.0802  0.0521 -0.8287
10426TIP3    H155473   5.860   2.121   2.016  0.6391 -0.6165 -0.5895
10426TIP3    H255474   5.814   2.107   2.160 -1.4216  0.0126 -1.1472
10427TIP3   OH255475   3.949   6.062   1.799  0.5591  0.4019 -0.0795
10427TIP3    H155476   4.005   5.993   1.835 -1.9310 -2.1158 -0.6447
10427TIP3    H255477   3.929   6.031   1.710 -0.5549  1.9609 -0.3995
10428TIP3   OH255478   2.074   6.564   1.464 -0.0905 -0.5777  0.2024
10428TIP3    H155479   2.140   6.534   1.526  0.5244  1.3509  0.5529
10428TIP3    H255480   1.993   6.568   1.515  0.5212  1.5361  1.1274
10429TIP3   OH255481   4.703   6.878   2.406 -0.0756 -0.4151 -0.4590
10429TIP3    H155482   4.612   6.897   2.433  0.1074  0.5156 -0.4447
10429TIP3    H255483   4.753   6.881   2.488 -0.1211 -1.5996 -0.3720
10430TIP3   OH255484   3.064   5.269   2.864  0.3918 -0.1700  0.8379
10430TIP3    H155485   3.092   5.289   2.774  0.1461  0.9901  1.0064
10430TIP3    H255486   3.019   5.348   2.893  1.6683  0.0017  2.4834
10431TIP3   OH255487   3.531   3.001   2.316  0.1322  0.2996  0.5079
10431TIP3    H155488   3.579   3.084   2.311  0.5204  0.0666  0.3003
10431TIP3    H255489   3.467   3.015   2.386 -2.0641  1.9183 -1.6626
10432TIP3   OH255490   2.565   1.489   1.954 -0.2449 -0.1689  0.4263
10432TIP3    H155491   2.633   1.434   1.992 -0.0439 -0.1364  0.1224
10432TIP3    H255492   2.484   1.439   1.965 -0.5732  0.7682  2.8655
10433TIP3   OH255493   3.949   2.390   0.660  0.4144  0.2533 -1.0105
10433TIP3    H155494   3.869   2.359   0.702 -0.2822  0.2620 -2.2722
10433TIP3    H255495   4.010   2.317   0.668  0.8674  0.8042  1.3443
10434TIP3   OH255496   6.940   1.854   0.603 -0.1545  0.2670  0.4097
10434TIP3    H155497   6.947   1.917   0.531 -0.9600 -0.5602 -0.4298
10434TIP3    H255498   6.964   1.903   0.681 -0.3393  1.4933 -0.2819
10435TIP3   OH255499   5.049   4.908   1.291  0.6045  0.2285  0.1965
10435TIP3    H155500   5.069   4.982   1.235 -0.8818 -0.4301 -1.2889
10435TIP3    H255501   4.998   4.946   1.363  2.4469  1.0610  1.1166
10436TIP3   OH255502   1.571   3.678   2.847  0.4508  0.3415 -0.1848
10436TIP3    H155503   1.570   3.736   2.924  0.5492 -0.7598  0.6704
10436TIP3    H255504   1.499   3.710   2.792  0.1254  0.8989  0.5431
10437TIP3   OH255505   4.592   0.782   1.735 -0.4050  0.1687  0.4341
10437TIP3    H155506   4.664   0.821   1.784  0.7764 -1.1971 -0.1370
10437TIP3    H255507   4.553   0.720   1.796  0.7948 -1.2181 -0.1435
10438TIP3   OH255508   5.164   2.405   3.481  0.2344 -0.2768 -0.4962
10438TIP3    H155509   5.189   2.337   3.417 -1.3163 -1.4350  0.0616
10438TIP3    H255510   5.068   2.400   3.484  0.2515  0.0753  1.5715
10439TIP3   OH255511   2.724   4.973   3.171  0.0357 -0.0273  0.0973
10439TIP3    H155512   2.798   4.917   3.194 -0.0413  0.5207  1.8824
10439TIP3    H255513   2.759   5.032   3.104  1.4686  0.6813  1.4021
   7.68049   7.68049  30.00000
