Generated by CHARMM-GUI FF-Converter
55513
    1DOPE     N    1   3.839   3.882  16.765
    1DOPE   HN1    2   3.846   3.874  16.868
    1DOPE   HN2    3   3.855   3.980  16.735
    1DOPE   HN3    4   3.744   3.849  16.738
    1DOPE   C12    5   3.937   3.786  16.706
    1DOPE  H12A    6   4.038   3.817  16.741
    1DOPE  H12B    7   3.934   3.794  16.596
    1DOPE   C11    8   3.903   3.643  16.753
    1DOPE  H11A    9   3.981   3.571  16.719
    1DOPE  H11B   10   3.808   3.611  16.703
    1DOPE     P   11   4.003   3.634  16.999
    1DOPE   O13   12   4.029   3.495  17.043
    1DOPE   O14   13   3.966   3.735  17.101
    1DOPE   O11   14   4.119   3.682  16.904
    1DOPE   O12   15   3.884   3.636  16.894
    1DOPE    C1   16   4.254   3.713  16.933
    1DOPE    HA   17   4.299   3.643  17.006
    1DOPE    HB   18   4.259   3.816  16.975
    1DOPE    C2   19   4.337   3.711  16.802
    1DOPE    HS   20   4.441   3.743  16.828
    1DOPE   O21   21   4.280   3.805  16.712
    1DOPE   C21   22   4.342   3.832  16.601
    1DOPE   O22   23   4.446   3.784  16.560
    1DOPE   C22   24   4.257   3.940  16.535
    1DOPE   H2R   25   4.183   3.979  16.608
    1DOPE   H2S   26   4.202   3.890  16.453
    1DOPE    C3   27   4.346   3.570  16.736
    1DOPE    HX   28   4.370   3.504  16.821
    1DOPE    HY   29   4.435   3.573  16.671
    1DOPE   O31   30   4.228   3.522  16.666
    1DOPE   C31   31   4.246   3.399  16.612
    1DOPE   O32   32   4.353   3.342  16.605
    1DOPE   C32   33   4.117   3.334  16.566
    1DOPE   H2X   34   4.131   3.224  16.577
    1DOPE   H2Y   35   4.034   3.364  16.633
    1DOPE   C23   36   4.347   4.054  16.489
    1DOPE   H3R   37   4.426   4.075  16.565
    1DOPE   H3S   38   4.287   4.147  16.475
    1DOPE   C24   39   4.408   4.014  16.356
    1DOPE   H4R   40   4.445   3.910  16.363
    1DOPE   H4S   41   4.498   4.069  16.327
    1DOPE   C25   42   4.307   4.033  16.245
    1DOPE   H5R   43   4.295   4.143  16.226
    1DOPE   H5S   44   4.208   3.996  16.278
    1DOPE   C26   45   4.352   3.960  16.120
    1DOPE   H6R   46   4.456   3.993  16.101
    1DOPE   H6S   47   4.293   3.992  16.034
    1DOPE   C27   48   4.353   3.807  16.133
    1DOPE   H7R   49   4.389   3.774  16.233
    1DOPE   H7S   50   4.424   3.767  16.059
    1DOPE   C28   51   4.223   3.736  16.097
    1DOPE   H8R   52   4.200   3.755  15.990
    1DOPE   H8S   53   4.144   3.781  16.159
    1DOPE   C29   54   4.243   3.590  16.130
    1DOPE   H9R   55   4.279   3.576  16.233
    1DOPE  C210   56   4.229   3.481  16.052
    1DOPE  H10R   57   4.244   3.382  16.098
    1DOPE  C211   58   4.188   3.474  15.908
    1DOPE  H11R   59   4.179   3.579  15.868
    1DOPE  H11S   60   4.085   3.436  15.905
    1DOPE  C212   61   4.271   3.402  15.795
    1DOPE  H12R   62   4.322   3.494  15.768
    1DOPE  H12S   63   4.200   3.372  15.718
    1DOPE  C213   64   4.377   3.288  15.806
    1DOPE  H13R   65   4.323   3.194  15.830
    1DOPE  H13S   66   4.431   3.312  15.897
    1DOPE  C214   67   4.482   3.226  15.698
    1DOPE  H14R   68   4.463   3.120  15.712
    1DOPE  H14S   69   4.565   3.232  15.771
    1DOPE  C215   70   4.587   3.262  15.573
    1DOPE  H15R   71   4.609   3.160  15.562
    1DOPE  H15S   72   4.682   3.292  15.621
    1DOPE  C216   73   4.585   3.335  15.422
    1DOPE  H16R   74   4.641   3.429  15.423
    1DOPE  H16S   75   4.490   3.363  15.387
    1DOPE  C217   76   4.607   3.288  15.272
    1DOPE  H17R   77   4.630   3.183  15.269
    1DOPE  H17S   78   4.694   3.345  15.233
    1DOPE  C218   79   4.491   3.311  15.169
    1DOPE  H18R   80   4.460   3.417  15.163
    1DOPE  H18S   81   4.399   3.255  15.192
    1DOPE  H18T   82   4.521   3.277  15.068
    1DOPE   C33   83   4.083   3.365  16.419
    1DOPE   H3X   84   3.995   3.302  16.390
    1DOPE   H3Y   85   4.165   3.337  16.349
    1DOPE   C34   86   4.045   3.512  16.404
    1DOPE   H4X   87   4.002   3.548  16.500
    1DOPE   H4Y   88   4.136   3.573  16.385
    1DOPE   C35   89   3.941   3.537  16.295
    1DOPE   H5X   90   3.848   3.480  16.318
    1DOPE   H5Y   91   3.981   3.498  16.199
    1DOPE   C36   92   3.910   3.686  16.282
    1DOPE   H6X   93   3.994   3.744  16.327
    1DOPE   H6Y   94   3.817   3.710  16.339
    1DOPE   C37   95   3.891   3.730  16.137
    1DOPE   H7X   96   3.975   3.699  16.073
    1DOPE   H7Y   97   3.802   3.676  16.097
    1DOPE   C38   98   3.864   3.882  16.124
    1DOPE   H8X   99   3.796   3.906  16.208
    1DOPE   H8Y  100   3.806   3.893  16.030
    1DOPE   C39  101   3.976   3.982  16.128
    1DOPE   H9X  102   4.024   3.992  16.226
    1DOPE  C310  103   4.018   4.060  16.026
    1DOPE  H10X  104   4.105   4.126  16.040
    1DOPE  C311  105   3.959   4.060  15.888
    1DOPE  H11X  106   3.851   4.035  15.886
    1DOPE  H11Y  107   3.972   4.160  15.842
    1DOPE  C312  108   4.034   3.965  15.797
    1DOPE  H12X  109   3.977   3.957  15.702
    1DOPE  H12Y  110   4.042   3.862  15.840
    1DOPE  C313  111   4.172   4.022  15.767
    1DOPE  H13X  112   4.164   4.130  15.742
    1DOPE  H13Y  113   4.242   4.013  15.851
    1DOPE  C314  114   4.228   3.952  15.647
    1DOPE  H14X  115   4.145   3.948  15.572
    1DOPE  H14Y  116   4.249   3.844  15.666
    1DOPE  C315  117   4.336   4.035  15.574
    1DOPE  H15X  118   4.278   4.115  15.530
    1DOPE  H15Y  119   4.343   3.971  15.490
    1DOPE  C316  120   4.472   4.093  15.639
    1DOPE  H16X  121   4.457   4.097  15.746
    1DOPE  H16Y  122   4.457   4.194  15.606
    1DOPE  C317  123   4.628   4.117  15.596
    1DOPE  H17X  124   4.629   4.198  15.520
    1DOPE  H17Y  125   4.677   4.159  15.686
    1DOPE  C318  126   4.738   4.024  15.539
    1DOPE  H18X  127   4.818   4.096  15.508
    1DOPE  H18Y  128   4.776   3.946  15.609
    1DOPE  H18Z  129   4.706   3.970  15.449
    2DOPE     N  130   4.515   4.420  16.880
    2DOPE   HN1  131   4.517   4.514  16.926
    2DOPE   HN2  132   4.599   4.408  16.819
    2DOPE   HN3  133   4.430   4.413  16.821
    2DOPE   C12  134   4.518   4.309  16.985
    2DOPE  H12A  135   4.416   4.301  17.028
    2DOPE  H12B  136   4.587   4.339  17.065
    2DOPE   C11  137   4.563   4.171  16.929
    2DOPE  H11A  138   4.521   4.152  16.828
    2DOPE  H11B  139   4.521   4.094  16.998
    2DOPE     P  140   4.780   4.027  16.883
    2DOPE   O13  141   4.686   3.913  16.890
    2DOPE   O14  142   4.909   4.017  16.957
    2DOPE   O11  143   4.811   4.068  16.731
    2DOPE   O12  144   4.706   4.162  16.930
    2DOPE    C1  145   4.864   4.201  16.714
    2DOPE    HA  146   4.954   4.215  16.779
    2DOPE    HB  147   4.789   4.277  16.746
    2DOPE    C2  148   4.912   4.239  16.570
    2DOPE    HS  149   4.959   4.340  16.578
    2DOPE   O21  150   4.809   4.247  16.472
    2DOPE   C21  151   4.703   4.319  16.491
    2DOPE   O22  152   4.681   4.399  16.581
    2DOPE   C22  153   4.601   4.280  16.387
    2DOPE   H2R  154   4.525   4.227  16.447
    2DOPE   H2S  155   4.647   4.210  16.314
    2DOPE    C3  156   5.020   4.141  16.514
    2DOPE    HX  157   5.099   4.132  16.592
    2DOPE    HY  158   5.069   4.187  16.425
    2DOPE   O31  159   4.967   4.010  16.485
    2DOPE   C31  160   4.902   3.997  16.368
    2DOPE   O32  161   4.906   4.077  16.277
    2DOPE   C32  162   4.825   3.863  16.364
    2DOPE   H2X  163   4.879   3.791  16.429
    2DOPE   H2Y  164   4.726   3.882  16.410
    2DOPE   C23  165   4.526   4.394  16.313
    2DOPE   H3R  166   4.506   4.479  16.381
    2DOPE   H3S  167   4.427   4.352  16.282
    2DOPE   C24  168   4.594   4.442  16.185
    2DOPE   H4R  169   4.695   4.482  16.206
    2DOPE   H4S  170   4.533   4.524  16.142
    2DOPE   C25  171   4.605   4.332  16.079
    2DOPE   H5R  172   4.509   4.275  16.078
    2DOPE   H5S  173   4.684   4.258  16.106
    2DOPE   C26  174   4.630   4.391  15.938
    2DOPE   H6R  175   4.735   4.364  15.909
    2DOPE   H6S  176   4.615   4.501  15.935
    2DOPE   C27  177   4.537   4.327  15.835
    2DOPE   H7R  178   4.548   4.221  15.868
    2DOPE   H7S  179   4.574   4.338  15.731
    2DOPE   C28  180   4.388   4.368  15.837
    2DOPE   H8R  181   4.362   4.392  15.943
    2DOPE   H8S  182   4.329   4.276  15.815
    2DOPE   C29  183   4.348   4.485  15.747
    2DOPE   H9R  184   4.363   4.581  15.797
    2DOPE  C210  185   4.320   4.489  15.613
    2DOPE  H10R  186   4.308   4.586  15.561
    2DOPE  C211  187   4.326   4.369  15.524
    2DOPE  H11R  188   4.300   4.288  15.594
    2DOPE  H11S  189   4.434   4.365  15.497
    2DOPE  C212  190   4.265   4.323  15.389
    2DOPE  H12R  191   4.157   4.297  15.397
    2DOPE  H12S  192   4.312   4.225  15.362
    2DOPE  C213  193   4.299   4.418  15.275
    2DOPE  H13R  194   4.268   4.521  15.303
    2DOPE  H13S  195   4.244   4.383  15.185
    2DOPE  C214  196   4.443   4.423  15.225
    2DOPE  H14R  197   4.467   4.323  15.183
    2DOPE  H14S  198   4.516   4.446  15.305
    2DOPE  C215  199   4.451   4.527  15.113
    2DOPE  H15R  200   4.438   4.626  15.160
    2DOPE  H15S  201   4.365   4.512  15.043
    2DOPE  C216  202   4.581   4.519  15.034
    2DOPE  H16R  203   4.664   4.504  15.107
    2DOPE  H16S  204   4.600   4.615  14.981
    2DOPE  C217  205   4.580   4.404  14.932
    2DOPE  H17R  206   4.547   4.444  14.834
    2DOPE  H17S  207   4.506   4.327  14.963
    2DOPE  C218  208   4.715   4.334  14.915
    2DOPE  H18R  209   4.717   4.275  14.822
    2DOPE  H18S  210   4.741   4.272  15.003
    2DOPE  H18T  211   4.796   4.404  14.898
    2DOPE   C33  212   4.803   3.801  16.221
    2DOPE   H3X  213   4.775   3.694  16.236
    2DOPE   H3Y  214   4.897   3.799  16.165
    2DOPE   C34  215   4.693   3.872  16.136
    2DOPE   H4X  216   4.603   3.873  16.201
    2DOPE   H4Y  217   4.727   3.976  16.117
    2DOPE   C35  218   4.658   3.808  15.999
    2DOPE   H5X  219   4.612   3.708  16.013
    2DOPE   H5Y  220   4.756   3.791  15.949
    2DOPE   C36  221   4.575   3.889  15.891
    2DOPE   H6X  222   4.662   3.910  15.825
    2DOPE   H6Y  223   4.543   3.991  15.917
    2DOPE   C37  224   4.467   3.814  15.801
    2DOPE   H7X  225   4.470   3.712  15.842
    2DOPE   H7Y  226   4.364   3.844  15.822
    2DOPE   C38  227   4.514   3.820  15.646
    2DOPE   H8X  228   4.581   3.743  15.669
    2DOPE   H8Y  229   4.584   3.897  15.654
    2DOPE   C39  230   4.503   3.791  15.492
    2DOPE   H9X  231   4.502   3.685  15.473
    2DOPE  C310  232   4.497   3.856  15.370
    2DOPE  H10X  233   4.493   3.790  15.283
    2DOPE  C311  234   4.499   4.004  15.323
    2DOPE  H11X  235   4.399   4.024  15.278
    2DOPE  H11Y  236   4.497   4.080  15.401
    2DOPE  C312  237   4.606   4.059  15.228
    2DOPE  H12X  238   4.703   4.081  15.275
    2DOPE  H12Y  239   4.571   4.157  15.186
    2DOPE  C313  240   4.615   3.966  15.111
    2DOPE  H13X  241   4.690   4.009  15.043
    2DOPE  H13Y  242   4.652   3.867  15.144
    2DOPE  C314  243   4.472   3.959  15.055
    2DOPE  H14X  244   4.422   4.058  15.057
    2DOPE  H14Y  245   4.414   3.889  15.119
    2DOPE  C315  246   4.459   3.899  14.918
    2DOPE  H15X  247   4.357   3.854  14.911
    2DOPE  H15Y  248   4.533   3.818  14.923
    2DOPE  C316  249   4.474   3.998  14.802
    2DOPE  H16X  250   4.403   4.082  14.819
    2DOPE  H16Y  251   4.442   3.953  14.706
    2DOPE  C317  252   4.613   4.061  14.791
    2DOPE  H17X  253   4.617   4.131  14.704
    2DOPE  H17Y  254   4.612   4.120  14.885
    2DOPE  C318  255   4.743   3.978  14.796
    2DOPE  H18X  256   4.828   4.046  14.819
    2DOPE  H18Y  257   4.740   3.902  14.876
    2DOPE  H18Z  258   4.764   3.926  14.700
    3DOPE     N  259   3.616   5.135  16.705
    3DOPE   HN1  260   3.698   5.135  16.769
    3DOPE   HN2  261   3.616   5.044  16.654
    3DOPE   HN3  262   3.635   5.211  16.637
    3DOPE   C12  263   3.484   5.155  16.777
    3DOPE  H12A  264   3.403   5.151  16.701
    3DOPE  H12B  265   3.485   5.255  16.824
    3DOPE   C11  266   3.459   5.046  16.884
    3DOPE  H11A  267   3.545   5.048  16.955
    3DOPE  H11B  268   3.462   4.946  16.834
    3DOPE     P  269   3.208   4.978  16.928
    3DOPE   O13  270   3.104   5.004  17.030
    3DOPE   O14  271   3.252   4.839  16.907
    3DOPE   O11  272   3.163   5.043  16.791
    3DOPE   O12  273   3.338   5.067  16.957
    3DOPE    C1  274   3.057   4.986  16.714
    3DOPE    HA  275   2.997   5.068  16.671
    3DOPE    HB  276   2.989   4.922  16.776
    3DOPE    C2  277   3.112   4.903  16.595
    3DOPE    HS  278   3.171   4.820  16.642
    3DOPE   O21  279   3.194   4.988  16.512
    3DOPE   C21  280   3.287   4.918  16.447
    3DOPE   O22  281   3.299   4.798  16.452
    3DOPE   C22  282   3.387   5.013  16.381
    3DOPE   H2R  283   3.406   5.098  16.449
    3DOPE   H2S  284   3.341   5.051  16.289
    3DOPE    C3  285   2.995   4.844  16.513
    3DOPE    HX  286   2.935   4.782  16.583
    3DOPE    HY  287   3.036   4.775  16.435
    3DOPE   O31  288   2.913   4.951  16.462
    3DOPE   C31  289   2.917   4.970  16.330
    3DOPE   O32  290   2.957   4.890  16.248
    3DOPE   C32  291   2.870   5.113  16.299
    3DOPE   H2X  292   2.760   5.111  16.290
    3DOPE   H2Y  293   2.899   5.178  16.385
    3DOPE   C23  294   3.517   4.937  16.348
    3DOPE   H3R  295   3.543   4.868  16.432
    3DOPE   H3S  296   3.602   5.008  16.335
    3DOPE   C24  297   3.502   4.856  16.219
    3DOPE   H4R  298   3.396   4.825  16.206
    3DOPE   H4S  299   3.561   4.762  16.225
    3DOPE   C25  300   3.547   4.935  16.095
    3DOPE   H5R  301   3.658   4.933  16.091
    3DOPE   H5S  302   3.516   5.041  16.103
    3DOPE   C26  303   3.489   4.878  15.965
    3DOPE   H6R  304   3.497   4.767  15.966
    3DOPE   H6S  305   3.552   4.916  15.881
    3DOPE   C27  306   3.343   4.917  15.940
    3DOPE   H7R  307   3.340   5.006  15.874
    3DOPE   H7S  308   3.298   4.946  16.038
    3DOPE   C28  309   3.255   4.810  15.873
    3DOPE   H8R  310   3.267   4.713  15.927
    3DOPE   H8S  311   3.290   4.794  15.769
    3DOPE   C29  312   3.111   4.855  15.878
    3DOPE   H9R  313   3.053   4.819  15.964
    3DOPE  C210  314   3.052   4.939  15.791
    3DOPE  H10R  315   2.946   4.965  15.807
    3DOPE  C211  316   3.115   5.005  15.671
    3DOPE  H11R  317   3.184   4.936  15.618
    3DOPE  H11S  318   3.177   5.092  15.703
    3DOPE  C212  319   3.007   5.056  15.572
    3DOPE  H12R  320   3.060   5.094  15.481
    3DOPE  H12S  321   2.954   5.142  15.618
    3DOPE  C213  322   2.904   4.950  15.529
    3DOPE  H13R  323   2.826   4.998  15.465
    3DOPE  H13S  324   2.852   4.905  15.617
    3DOPE  C214  325   2.970   4.839  15.447
    3DOPE  H14R  326   3.060   4.801  15.499
    3DOPE  H14S  327   3.002   4.889  15.354
    3DOPE  C215  328   2.880   4.719  15.413
    3DOPE  H15R  329   2.792   4.753  15.354
    3DOPE  H15S  330   2.843   4.673  15.507
    3DOPE  C216  331   2.959   4.614  15.335
    3DOPE  H16R  332   3.046   4.582  15.397
    3DOPE  H16S  333   2.998   4.658  15.241
    3DOPE  C217  334   2.883   4.490  15.291
    3DOPE  H17R  335   2.838   4.437  15.378
    3DOPE  H17S  336   2.962   4.425  15.248
    3DOPE  C218  337   2.780   4.514  15.181
    3DOPE  H18R  338   2.827   4.572  15.098
    3DOPE  H18S  339   2.693   4.570  15.220
    3DOPE  H18T  340   2.744   4.417  15.139
    3DOPE   C33  341   2.936   5.167  16.171
    3DOPE   H3X  342   2.891   5.265  16.143
    3DOPE   H3Y  343   2.919   5.098  16.086
    3DOPE   C34  344   3.087   5.188  16.191
    3DOPE   H4X  345   3.104   5.275  16.260
    3DOPE   H4Y  346   3.132   5.099  16.239
    3DOPE   C35  347   3.161   5.212  16.060
    3DOPE   H5X  348   3.109   5.291  16.002
    3DOPE   H5Y  349   3.157   5.118  15.999
    3DOPE   C36  350   3.307   5.253  16.081
    3DOPE   H6X  351   3.362   5.172  16.131
    3DOPE   H6Y  352   3.309   5.342  16.148
    3DOPE   C37  353   3.376   5.286  15.950
    3DOPE   H7X  354   3.387   5.195  15.888
    3DOPE   H7Y  355   3.307   5.351  15.894
    3DOPE   C38  356   3.513   5.356  15.966
    3DOPE   H8X  357   3.520   5.395  16.070
    3DOPE   H8Y  358   3.511   5.446  15.900
    3DOPE   C39  359   3.634   5.273  15.931
    3DOPE   H9X  360   3.704   5.252  16.013
    3DOPE  C310  361   3.661   5.226  15.808
    3DOPE  H10X  362   3.757   5.174  15.791
    3DOPE  C311  363   3.577   5.247  15.684
    3DOPE  H11X  364   3.485   5.306  15.707
    3DOPE  H11Y  365   3.632   5.310  15.612
    3DOPE  C312  366   3.529   5.119  15.611
    3DOPE  H12X  367   3.495   5.147  15.508
    3DOPE  H12Y  368   3.438   5.084  15.665
    3DOPE  C313  369   3.628   5.001  15.601
    3DOPE  H13X  370   3.689   5.008  15.509
    3DOPE  H13Y  371   3.698   5.002  15.687
    3DOPE  C314  372   3.556   4.865  15.610
    3DOPE  H14X  373   3.483   4.871  15.693
    3DOPE  H14Y  374   3.628   4.784  15.633
    3DOPE  C315  375   3.476   4.827  15.485
    3DOPE  H15X  376   3.407   4.911  15.462
    3DOPE  H15Y  377   3.412   4.739  15.510
    3DOPE  C316  378   3.563   4.793  15.364
    3DOPE  H16X  379   3.520   4.703  15.314
    3DOPE  H16Y  380   3.665   4.765  15.396
    3DOPE  C317  381   3.570   4.909  15.264
    3DOPE  H17X  382   3.473   4.964  15.263
    3DOPE  H17Y  383   3.647   4.980  15.300
    3DOPE  C318  384   3.605   4.870  15.120
    3DOPE  H18X  385   3.693   4.804  15.120
    3DOPE  H18Y  386   3.531   4.813  15.065
    3DOPE  H18Z  387   3.621   4.962  15.062
    4DOPE     N  388   4.336   2.485  16.719
    4DOPE   HN1  389   4.270   2.565  16.734
    4DOPE   HN2  390   4.390   2.503  16.632
    4DOPE   HN3  391   4.280   2.398  16.707
    4DOPE   C12  392   4.432   2.467  16.833
    4DOPE  H12A  393   4.460   2.361  16.832
    4DOPE  H12B  394   4.377   2.483  16.926
    4DOPE   C11  395   4.558   2.557  16.824
    4DOPE  H11A  396   4.528   2.662  16.804
    4DOPE  H11B  397   4.623   2.526  16.739
    4DOPE     P  398   4.663   2.434  17.037
    4DOPE   O13  399   4.538   2.426  17.118
    4DOPE   O14  400   4.792   2.451  17.108
    4DOPE   O11  401   4.667   2.321  16.928
    4DOPE   O12  402   4.636   2.557  16.943
    4DOPE    C1  403   4.631   2.184  16.934
    4DOPE    HA  404   4.540   2.170  16.997
    4DOPE    HB  405   4.714   2.126  16.983
    4DOPE    C2  406   4.607   2.124  16.790
    4DOPE    HS  407   4.702   2.076  16.760
    4DOPE   O21  408   4.568   2.225  16.693
    4DOPE   C21  409   4.666   2.288  16.635
    4DOPE   O22  410   4.775   2.313  16.678
    4DOPE   C22  411   4.631   2.323  16.493
    4DOPE   H2R  412   4.523   2.339  16.479
    4DOPE   H2S  413   4.663   2.233  16.434
    4DOPE    C3  414   4.494   2.016  16.783
    4DOPE    HX  415   4.399   2.072  16.778
    4DOPE    HY  416   4.489   1.960  16.878
    4DOPE   O31  417   4.504   1.920  16.672
    4DOPE   C31  418   4.470   1.968  16.551
    4DOPE   O32  419   4.438   2.083  16.529
    4DOPE   C32  420   4.474   1.860  16.441
    4DOPE   H2X  421   4.563   1.797  16.452
    4DOPE   H2Y  422   4.383   1.798  16.451
    4DOPE   C23  423   4.718   2.442  16.450
    4DOPE   H3R  424   4.826   2.428  16.475
    4DOPE   H3S  425   4.688   2.537  16.500
    4DOPE   C24  426   4.711   2.456  16.301
    4DOPE   H4R  427   4.609   2.495  16.278
    4DOPE   H4S  428   4.719   2.356  16.250
    4DOPE   C25  429   4.816   2.547  16.240
    4DOPE   H5R  430   4.912   2.494  16.220
    4DOPE   H5S  431   4.838   2.635  16.305
    4DOPE   C26  432   4.751   2.590  16.112
    4DOPE   H6R  433   4.657   2.642  16.143
    4DOPE   H6S  434   4.723   2.500  16.053
    4DOPE   C27  435   4.825   2.685  16.021
    4DOPE   H7R  436   4.919   2.641  15.980
    4DOPE   H7S  437   4.851   2.777  16.077
    4DOPE   C28  438   4.727   2.707  15.906
    4DOPE   H8R  439   4.715   2.605  15.864
    4DOPE   H8S  440   4.776   2.767  15.825
    4DOPE   C29  441   4.590   2.768  15.938
    4DOPE   H9R  442   4.593   2.865  15.990
    4DOPE  C210  443   4.470   2.713  15.913
    4DOPE  H10R  444   4.381   2.774  15.931
    4DOPE  C211  445   4.442   2.579  15.849
    4DOPE  H11R  446   4.340   2.542  15.878
    4DOPE  H11S  447   4.513   2.504  15.892
    4DOPE  C212  448   4.455   2.576  15.695
    4DOPE  H12R  449   4.382   2.648  15.652
    4DOPE  H12S  450   4.425   2.476  15.657
    4DOPE  C213  451   4.597   2.614  15.650
    4DOPE  H13R  452   4.678   2.541  15.666
    4DOPE  H13S  453   4.619   2.708  15.703
    4DOPE  C214  454   4.614   2.674  15.515
    4DOPE  H14R  455   4.715   2.721  15.504
    4DOPE  H14S  456   4.537   2.753  15.518
    4DOPE  C215  457   4.582   2.577  15.406
    4DOPE  H15R  458   4.520   2.633  15.334
    4DOPE  H15S  459   4.518   2.499  15.450
    4DOPE  C216  460   4.705   2.518  15.338
    4DOPE  H16R  461   4.674   2.419  15.298
    4DOPE  H16S  462   4.786   2.500  15.413
    4DOPE  C217  463   4.752   2.615  15.230
    4DOPE  H17R  464   4.838   2.671  15.274
    4DOPE  H17S  465   4.671   2.689  15.212
    4DOPE  C218  466   4.789   2.562  15.092
    4DOPE  H18R  467   4.702   2.524  15.036
    4DOPE  H18S  468   4.863   2.480  15.103
    4DOPE  H18T  469   4.834   2.645  15.033
    4DOPE   C33  470   4.474   1.935  16.305
    4DOPE   H3X  471   4.559   2.008  16.307
    4DOPE   H3Y  472   4.381   1.995  16.302
    4DOPE   C34  473   4.481   1.862  16.170
    4DOPE   H4X  474   4.584   1.822  16.154
    4DOPE   H4Y  475   4.410   1.776  16.166
    4DOPE   C35  476   4.446   1.960  16.054
    4DOPE   H5X  477   4.337   1.981  16.057
    4DOPE   H5Y  478   4.469   1.913  15.956
    4DOPE   C36  479   4.519   2.095  16.066
    4DOPE   H6X  480   4.629   2.076  16.070
    4DOPE   H6Y  481   4.491   2.147  16.160
    4DOPE   C37  482   4.491   2.195  15.952
    4DOPE   H7X  483   4.396   2.169  15.899
    4DOPE   H7Y  484   4.479   2.297  15.996
    4DOPE   C38  485   4.610   2.193  15.857
    4DOPE   H8X  486   4.618   2.089  15.821
    4DOPE   H8Y  487   4.700   2.212  15.920
    4DOPE   C39  488   4.613   2.293  15.746
    4DOPE   H9X  489   4.633   2.394  15.781
    4DOPE  C310  490   4.606   2.267  15.614
    4DOPE  H10X  491   4.607   2.350  15.542
    4DOPE  C311  492   4.592   2.130  15.556
    4DOPE  H11X  493   4.577   2.053  15.634
    4DOPE  H11Y  494   4.499   2.126  15.497
    4DOPE  C312  495   4.717   2.083  15.477
    4DOPE  H12X  496   4.731   1.976  15.503
    4DOPE  H12Y  497   4.809   2.139  15.505
    4DOPE  C313  498   4.710   2.093  15.326
    4DOPE  H13X  499   4.694   2.200  15.298
    4DOPE  H13Y  500   4.806   2.060  15.281
    4DOPE  C314  501   4.597   2.009  15.270
    4DOPE  H14X  502   4.508   2.035  15.328
    4DOPE  H14Y  503   4.614   1.899  15.283
    4DOPE  C315  504   4.571   2.045  15.126
    4DOPE  H15X  505   4.610   1.964  15.063
    4DOPE  H15Y  506   4.633   2.135  15.103
    4DOPE  C316  507   4.425   2.084  15.101
    4DOPE  H16X  508   4.421   2.169  15.031
    4DOPE  H16Y  509   4.377   2.113  15.196
    4DOPE  C317  510   4.333   1.982  15.038
    4DOPE  H17X  511   4.374   1.952  14.940
    4DOPE  H17Y  512   4.330   1.893  15.104
    4DOPE  C318  513   4.194   2.043  15.018
    4DOPE  H18X  514   4.118   1.965  14.996
    4DOPE  H18Y  515   4.163   2.099  15.109
    4DOPE  H18Z  516   4.197   2.115  14.934
    5DOPE     N  517   1.675   4.246  16.742
    5DOPE   HN1  518   1.603   4.173  16.730
    5DOPE   HN2  519   1.633   4.339  16.765
    5DOPE   HN3  520   1.729   4.257  16.653
    5DOPE   C12  521   1.770   4.220  16.852
    5DOPE  H12A  522   1.711   4.201  16.943
    5DOPE  H12B  523   1.829   4.314  16.865
    5DOPE   C11  524   1.859   4.100  16.821
    5DOPE  H11A  525   1.929   4.115  16.736
    5DOPE  H11B  526   1.799   4.011  16.793
    5DOPE     P  527   2.042   4.173  16.993
    5DOPE   O13  528   2.153   4.083  17.032
    5DOPE   O14  529   1.977   4.259  17.095
    5DOPE   O11  530   2.068   4.254  16.856
    5DOPE   O12  531   1.933   4.072  16.937
    5DOPE    C1  532   2.193   4.305  16.812
    5DOPE    HA  533   2.276   4.232  16.829
    5DOPE    HB  534   2.218   4.397  16.870
    5DOPE    C2  535   2.203   4.341  16.657
    5DOPE    HS  536   2.299   4.396  16.644
    5DOPE   O21  537   2.092   4.423  16.612
    5DOPE   C21  538   2.028   4.390  16.500
    5DOPE   O22  539   2.074   4.382  16.387
    5DOPE   C22  540   1.889   4.338  16.544
    5DOPE   H2R  541   1.851   4.412  16.617
    5DOPE   H2S  542   1.909   4.248  16.602
    5DOPE    C3  543   2.215   4.209  16.572
    5DOPE    HX  544   2.287   4.142  16.624
    5DOPE    HY  545   2.263   4.244  16.477
    5DOPE   O31  546   2.092   4.134  16.551
    5DOPE   C31  547   2.093   4.065  16.436
    5DOPE   O32  548   2.182   4.069  16.354
    5DOPE   C32  549   1.964   3.984  16.423
    5DOPE   H2X  550   1.976   3.899  16.492
    5DOPE   H2Y  551   1.878   4.042  16.459
    5DOPE   C23  552   1.790   4.308  16.427
    5DOPE   H3R  553   1.785   4.201  16.401
    5DOPE   H3S  554   1.825   4.361  16.335
    5DOPE   C24  555   1.646   4.355  16.448
    5DOPE   H4R  556   1.646   4.464  16.441
    5DOPE   H4S  557   1.608   4.333  16.546
    5DOPE   C25  558   1.541   4.302  16.349
    5DOPE   H5R  559   1.444   4.353  16.365
    5DOPE   H5S  560   1.527   4.193  16.371
    5DOPE   C26  561   1.577   4.309  16.201
    5DOPE   H6R  562   1.516   4.228  16.154
    5DOPE   H6S  563   1.683   4.281  16.184
    5DOPE   C27  564   1.546   4.438  16.124
    5DOPE   H7R  565   1.605   4.520  16.167
    5DOPE   H7S  566   1.441   4.468  16.135
    5DOPE   C28  567   1.582   4.431  15.975
    5DOPE   H8R  568   1.686   4.392  15.964
    5DOPE   H8S  569   1.579   4.531  15.928
    5DOPE   C29  570   1.480   4.340  15.914
    5DOPE   H9R  571   1.378   4.382  15.903
    5DOPE  C210  572   1.501   4.212  15.889
    5DOPE  H10R  573   1.411   4.151  15.877
    5DOPE  C211  574   1.628   4.134  15.915
    5DOPE  H11R  575   1.608   4.034  15.957
    5DOPE  H11S  576   1.691   4.183  15.992
    5DOPE  C212  577   1.716   4.118  15.791
    5DOPE  H12R  578   1.798   4.048  15.819
    5DOPE  H12S  579   1.763   4.214  15.763
    5DOPE  C213  580   1.646   4.060  15.668
    5DOPE  H13R  581   1.614   4.143  15.602
    5DOPE  H13S  582   1.555   4.005  15.698
    5DOPE  C214  583   1.741   3.963  15.596
    5DOPE  H14R  584   1.774   3.885  15.669
    5DOPE  H14S  585   1.832   4.019  15.565
    5DOPE  C215  586   1.678   3.895  15.475
    5DOPE  H15R  587   1.603   3.821  15.510
    5DOPE  H15S  588   1.757   3.839  15.420
    5DOPE  C216  589   1.608   3.993  15.379
    5DOPE  H16R  590   1.515   4.030  15.428
    5DOPE  H16S  591   1.577   3.938  15.287
    5DOPE  C217  592   1.694   4.112  15.338
    5DOPE  H17R  593   1.743   4.159  15.426
    5DOPE  H17S  594   1.632   4.191  15.292
    5DOPE  C218  595   1.800   4.074  15.237
    5DOPE  H18R  596   1.876   4.154  15.229
    5DOPE  H18S  597   1.757   4.056  15.137
    5DOPE  H18T  598   1.849   3.981  15.270
    5DOPE   C33  599   1.938   3.934  16.279
    5DOPE   H3X  600   1.875   3.843  16.289
    5DOPE   H3Y  601   2.033   3.902  16.229
    5DOPE   C34  602   1.860   4.031  16.188
    5DOPE   H4X  603   1.833   3.981  16.093
    5DOPE   H4Y  604   1.763   4.054  16.238
    5DOPE   C35  605   1.930   4.165  16.157
    5DOPE   H5X  606   1.961   4.211  16.253
    5DOPE   H5Y  607   1.860   4.235  16.108
    5DOPE   C36  608   2.055   4.160  16.068
    5DOPE   H6X  609   2.130   4.096  16.118
    5DOPE   H6Y  610   2.097   4.263  16.062
    5DOPE   C37  611   2.029   4.109  15.926
    5DOPE   H7X  612   1.970   4.014  15.932
    5DOPE   H7Y  613   1.970   4.181  15.866
    5DOPE   C38  614   2.160   4.074  15.855
    5DOPE   H8X  615   2.145   3.980  15.798
    5DOPE   H8Y  616   2.233   4.048  15.934
    5DOPE   C39  617   2.216   4.184  15.769
    5DOPE   H9X  618   2.205   4.286  15.811
    5DOPE  C310  619   2.271   4.167  15.648
    5DOPE  H10X  620   2.303   4.256  15.592
    5DOPE  C311  621   2.288   4.036  15.576
    5DOPE  H11X  622   2.365   4.044  15.496
    5DOPE  H11Y  623   2.324   3.955  15.643
    5DOPE  C312  624   2.156   3.985  15.516
    5DOPE  H12X  625   2.078   3.981  15.595
    5DOPE  H12Y  626   2.169   3.880  15.480
    5DOPE  C313  627   2.107   4.071  15.401
    5DOPE  H13X  628   2.000   4.046  15.387
    5DOPE  H13Y  629   2.110   4.178  15.430
    5DOPE  C314  630   2.185   4.046  15.272
    5DOPE  H14X  631   2.190   3.936  15.253
    5DOPE  H14Y  632   2.289   4.082  15.288
    5DOPE  C315  633   2.125   4.116  15.150
    5DOPE  H15X  634   2.087   4.216  15.183
    5DOPE  H15Y  635   2.037   4.059  15.112
    5DOPE  C316  636   2.225   4.138  15.036
    5DOPE  H16X  637   2.229   4.048  14.971
    5DOPE  H16Y  638   2.326   4.152  15.080
    5DOPE  C317  639   2.193   4.265  14.956
    5DOPE  H17X  640   2.178   4.350  15.026
    5DOPE  H17Y  641   2.281   4.290  14.894
    5DOPE  C318  642   2.074   4.257  14.861
    5DOPE  H18X  643   1.981   4.229  14.915
    5DOPE  H18Y  644   2.058   4.355  14.812
    5DOPE  H18Z  645   2.094   4.183  14.781
    6DOPE     N  646   1.869   5.198  17.052
    6DOPE   HN1  647   1.834   5.100  17.058
    6DOPE   HN2  648   1.862   5.247  17.144
    6DOPE   HN3  649   1.820   5.249  16.975
    6DOPE   C12  650   2.009   5.183  17.003
    6DOPE  H12A  651   2.064   5.122  17.077
    6DOPE  H12B  652   2.054   5.284  16.995
    6DOPE   C11  653   2.004   5.110  16.867
    6DOPE  H11A  654   2.106   5.073  16.841
    6DOPE  H11B  655   1.976   5.184  16.790
    6DOPE     P  656   1.947   4.860  16.905
    6DOPE   O13  657   2.032   4.873  17.026
    6DOPE   O14  658   2.000   4.790  16.788
    6DOPE   O11  659   1.818   4.790  16.956
    6DOPE   O12  660   1.904   5.008  16.865
    6DOPE    C1  661   1.705   4.851  17.012
    6DOPE    HA  662   1.712   4.962  17.010
    6DOPE    HB  663   1.694   4.822  17.119
    6DOPE    C2  664   1.579   4.810  16.934
    6DOPE    HS  665   1.528   4.728  16.990
    6DOPE   O21  666   1.608   4.768  16.799
    6DOPE   C21  667   1.635   4.647  16.767
    6DOPE   O22  668   1.638   4.546  16.836
    6DOPE   C22  669   1.648   4.634  16.615
    6DOPE   H2R  670   1.552   4.618  16.564
    6DOPE   H2S  671   1.704   4.540  16.608
    6DOPE    C3  672   1.487   4.935  16.928
    6DOPE    HX  673   1.478   4.974  17.033
    6DOPE    HY  674   1.386   4.909  16.893
    6DOPE   O31  675   1.542   5.039  16.845
    6DOPE   C31  676   1.524   5.014  16.717
    6DOPE   O32  677   1.446   4.933  16.670
    6DOPE   C32  678   1.625   5.095  16.638
    6DOPE   H2X  679   1.638   5.194  16.687
    6DOPE   H2Y  680   1.721   5.040  16.644
    6DOPE   C23  681   1.731   4.738  16.537
    6DOPE   H3R  682   1.786   4.803  16.609
    6DOPE   H3S  683   1.660   4.800  16.484
    6DOPE   C24  684   1.835   4.678  16.439
    6DOPE   H4R  685   1.862   4.579  16.478
    6DOPE   H4S  686   1.927   4.737  16.459
    6DOPE   C25  687   1.803   4.660  16.285
    6DOPE   H5R  688   1.743   4.569  16.281
    6DOPE   H5S  689   1.900   4.640  16.234
    6DOPE   C26  690   1.733   4.778  16.210
    6DOPE   H6R  691   1.812   4.843  16.172
    6DOPE   H6S  692   1.670   4.819  16.287
    6DOPE   C27  693   1.632   4.783  16.092
    6DOPE   H7R  694   1.561   4.701  16.102
    6DOPE   H7S  695   1.680   4.770  15.995
    6DOPE   C28  696   1.561   4.923  16.089
    6DOPE   H8R  697   1.640   5.001  16.083
    6DOPE   H8S  698   1.511   4.938  16.186
    6DOPE   C29  699   1.459   4.956  15.985
    6DOPE   H9R  700   1.355   4.964  16.020
    6DOPE  C210  701   1.483   4.993  15.860
    6DOPE  H10R  702   1.396   5.006  15.793
    6DOPE  C211  703   1.616   5.009  15.795
    6DOPE  H11R  704   1.701   4.991  15.864
    6DOPE  H11S  705   1.630   5.112  15.752
    6DOPE  C212  706   1.613   4.908  15.681
    6DOPE  H12R  707   1.586   4.807  15.720
    6DOPE  H12S  708   1.714   4.901  15.635
    6DOPE  C213  709   1.510   4.948  15.574
    6DOPE  H13R  710   1.518   5.058  15.558
    6DOPE  H13S  711   1.407   4.925  15.608
    6DOPE  C214  712   1.532   4.878  15.442
    6DOPE  H14R  713   1.515   4.769  15.454
    6DOPE  H14S  714   1.638   4.893  15.411
    6DOPE  C215  715   1.442   4.935  15.333
    6DOPE  H15R  716   1.461   5.044  15.322
    6DOPE  H15S  717   1.335   4.924  15.362
    6DOPE  C216  718   1.467   4.865  15.201
    6DOPE  H16R  719   1.575   4.868  15.177
    6DOPE  H16S  720   1.413   4.921  15.121
    6DOPE  C217  721   1.418   4.720  15.201
    6DOPE  H17R  722   1.352   4.702  15.289
    6DOPE  H17S  723   1.505   4.652  15.212
    6DOPE  C218  724   1.340   4.688  15.074
    6DOPE  H18R  725   1.303   4.584  15.074
    6DOPE  H18S  726   1.405   4.703  14.985
    6DOPE  H18T  727   1.251   4.751  15.064
    6DOPE   C33  728   1.577   5.115  16.493
    6DOPE   H3X  729   1.577   5.223  16.474
    6DOPE   H3Y  730   1.471   5.085  16.482
    6DOPE   C34  731   1.655   5.038  16.384
    6DOPE   H4X  732   1.597   4.946  16.390
    6DOPE   H4Y  733   1.633   5.085  16.286
    6DOPE   C35  734   1.810   5.025  16.396
    6DOPE   H5X  735   1.853   4.992  16.493
    6DOPE   H5Y  736   1.809   5.130  16.405
    6DOPE   C36  737   1.915   5.029  16.278
    6DOPE   H6X  738   1.965   5.127  16.269
    6DOPE   H6Y  739   1.866   5.022  16.180
    6DOPE   C37  740   2.036   4.937  16.295
    6DOPE   H7X  741   2.098   4.970  16.382
    6DOPE   H7Y  742   2.000   4.837  16.324
    6DOPE   C38  743   2.127   4.927  16.171
    6DOPE   H8X  744   2.232   4.938  16.205
    6DOPE   H8Y  745   2.108   5.008  16.097
    6DOPE   C39  746   2.103   4.788  16.118
    6DOPE   H9X  747   2.119   4.711  16.195
    6DOPE  C310  748   2.074   4.746  15.996
    6DOPE  H10X  749   2.061   4.637  15.982
    6DOPE  C311  750   2.056   4.828  15.872
    6DOPE  H11X  751   1.998   4.920  15.893
    6DOPE  H11Y  752   2.155   4.856  15.829
    6DOPE  C312  753   1.983   4.738  15.772
    6DOPE  H12X  754   2.044   4.647  15.751
    6DOPE  H12Y  755   1.970   4.792  15.676
    6DOPE  C313  756   1.845   4.700  15.825
    6DOPE  H13X  757   1.848   4.642  15.921
    6DOPE  H13Y  758   1.796   4.798  15.844
    6DOPE  C314  759   1.761   4.621  15.726
    6DOPE  H14X  760   1.754   4.681  15.633
    6DOPE  H14Y  761   1.657   4.610  15.763
    6DOPE  C315  762   1.819   4.483  15.699
    6DOPE  H15X  763   1.788   4.415  15.781
    6DOPE  H15Y  764   1.930   4.484  15.698
    6DOPE  C316  765   1.773   4.434  15.564
    6DOPE  H16X  766   1.664   4.456  15.553
    6DOPE  H16Y  767   1.786   4.324  15.555
    6DOPE  C317  768   1.852   4.503  15.452
    6DOPE  H17X  769   1.864   4.612  15.472
    6DOPE  H17Y  770   1.954   4.459  15.446
    6DOPE  C318  771   1.778   4.486  15.322
    6DOPE  H18X  772   1.676   4.530  15.332
    6DOPE  H18Y  773   1.828   4.538  15.239
    6DOPE  H18Z  774   1.769   4.378  15.298
    7DOPE     N  775   4.897   5.790  17.194
    7DOPE   HN1  776   4.999   5.804  17.177
    7DOPE   HN2  777   4.858   5.881  17.227
    7DOPE   HN3  778   4.885   5.718  17.270
    7DOPE   C12  779   4.822   5.746  17.070
    7DOPE  H12A  780   4.715   5.757  17.094
    7DOPE  H12B  781   4.847   5.639  17.051
    7DOPE   C11  782   4.849   5.830  16.943
    7DOPE  H11A  783   4.954   5.815  16.911
    7DOPE  H11B  784   4.834   5.938  16.964
    7DOPE     P  785   4.619   5.847  16.809
    7DOPE   O13  786   4.630   5.987  16.764
    7DOPE   O14  787   4.532   5.818  16.925
    7DOPE   O11  788   4.564   5.767  16.687
    7DOPE   O12  789   4.764   5.786  16.837
    7DOPE    C1  790   4.605   5.634  16.658
    7DOPE    HA  791   4.512   5.573  16.649
    7DOPE    HB  792   4.667   5.587  16.738
    7DOPE    C2  793   4.679   5.625  16.523
    7DOPE    HS  794   4.663   5.518  16.494
    7DOPE   O21  795   4.821   5.660  16.534
    7DOPE   C21  796   4.881   5.616  16.423
    7DOPE   O22  797   4.825   5.539  16.347
    7DOPE   C22  798   5.018   5.681  16.400
    7DOPE   H2R  799   5.082   5.658  16.487
    7DOPE   H2S  800   5.004   5.790  16.393
    7DOPE    C3  801   4.612   5.716  16.415
    7DOPE    HX  802   4.507   5.736  16.447
    7DOPE    HY  803   4.610   5.660  16.319
    7DOPE   O31  804   4.677   5.843  16.404
    7DOPE   C31  805   4.722   5.888  16.290
    7DOPE   O32  806   4.739   5.826  16.187
    7DOPE   C32  807   4.745   6.038  16.312
    7DOPE   H2X  808   4.718   6.063  16.416
    7DOPE   H2Y  809   4.851   6.063  16.294
    7DOPE   C23  810   5.090   5.631  16.271
    7DOPE   H3R  811   5.125   5.527  16.285
    7DOPE   H3S  812   5.182   5.692  16.255
    7DOPE   C24  813   5.004   5.637  16.145
    7DOPE   H4R  814   4.974   5.741  16.120
    7DOPE   H4S  815   4.911   5.578  16.154
    7DOPE   C25  816   5.068   5.572  16.025
    7DOPE   H5R  817   5.086   5.464  16.046
    7DOPE   H5S  818   5.167   5.619  16.009
    7DOPE   C26  819   4.970   5.583  15.908
    7DOPE   H6R  820   4.949   5.689  15.882
    7DOPE   H6S  821   4.874   5.545  15.946
    7DOPE   C27  822   5.018   5.506  15.784
    7DOPE   H7R  823   4.947   5.494  15.701
    7DOPE   H7S  824   5.047   5.403  15.819
    7DOPE   C28  825   5.139   5.575  15.728
    7DOPE   H8R  826   5.195   5.508  15.659
    7DOPE   H8S  827   5.197   5.587  15.820
    7DOPE   C29  828   5.136   5.716  15.683
    7DOPE   H9R  829   5.091   5.788  15.754
    7DOPE  C210  830   5.177   5.760  15.565
    7DOPE  H10R  831   5.174   5.868  15.549
    7DOPE  C211  832   5.232   5.686  15.446
    7DOPE  H11R  833   5.339   5.659  15.454
    7DOPE  H11S  834   5.232   5.759  15.363
    7DOPE  C212  835   5.140   5.579  15.383
    7DOPE  H12R  836   5.114   5.498  15.455
    7DOPE  H12S  837   5.205   5.538  15.304
    7DOPE  C213  838   5.014   5.649  15.322
    7DOPE  H13R  839   5.052   5.746  15.285
    7DOPE  H13S  840   4.947   5.666  15.409
    7DOPE  C214  841   4.929   5.620  15.193
    7DOPE  H14R  842   4.843   5.688  15.212
    7DOPE  H14S  843   4.877   5.523  15.190
    7DOPE  C215  844   4.991   5.671  15.057
    7DOPE  H15R  845   5.081   5.616  15.034
    7DOPE  H15S  846   5.035   5.772  15.065
    7DOPE  C216  847   4.917   5.651  14.922
    7DOPE  H16R  848   4.811   5.682  14.932
    7DOPE  H16S  849   4.917   5.541  14.908
    7DOPE  C217  850   4.984   5.716  14.796
    7DOPE  H17R  851   4.987   5.824  14.812
    7DOPE  H17S  852   4.926   5.716  14.702
    7DOPE  C218  853   5.118   5.659  14.748
    7DOPE  H18R  854   5.169   5.741  14.693
    7DOPE  H18S  855   5.104   5.573  14.678
    7DOPE  H18T  856   5.183   5.623  14.829
    7DOPE   C33  857   4.653   6.119  16.220
    7DOPE   H3X  858   4.653   6.226  16.253
    7DOPE   H3Y  859   4.547   6.083  16.225
    7DOPE   C34  860   4.703   6.109  16.078
    7DOPE   H4X  861   4.808   6.071  16.075
    7DOPE   H4Y  862   4.640   6.033  16.026
    7DOPE   C35  863   4.701   6.241  16.004
    7DOPE   H5X  864   4.799   6.293  16.019
    7DOPE   H5Y  865   4.622   6.310  16.040
    7DOPE   C36  866   4.680   6.209  15.858
    7DOPE   H6X  867   4.576   6.228  15.828
    7DOPE   H6Y  868   4.701   6.101  15.840
    7DOPE   C37  869   4.774   6.288  15.771
    7DOPE   H7X  870   4.781   6.392  15.807
    7DOPE   H7Y  871   4.876   6.249  15.784
    7DOPE   C38  872   4.729   6.291  15.624
    7DOPE   H8X  873   4.820   6.316  15.570
    7DOPE   H8Y  874   4.661   6.374  15.607
    7DOPE   C39  875   4.662   6.171  15.564
    7DOPE   H9X  876   4.640   6.094  15.638
    7DOPE  C310  877   4.643   6.139  15.435
    7DOPE  H10X  878   4.600   6.039  15.421
    7DOPE  C311  879   4.679   6.207  15.304
    7DOPE  H11X  880   4.725   6.307  15.314
    7DOPE  H11Y  881   4.763   6.157  15.256
    7DOPE  C312  882   4.566   6.213  15.199
    7DOPE  H12X  883   4.602   6.240  15.097
    7DOPE  H12Y  884   4.504   6.294  15.236
    7DOPE  C313  885   4.464   6.100  15.191
    7DOPE  H13X  886   4.446   6.054  15.290
    7DOPE  H13Y  887   4.365   6.141  15.159
    7DOPE  C314  888   4.509   5.998  15.089
    7DOPE  H14X  889   4.618   6.007  15.073
    7DOPE  H14Y  890   4.469   6.023  14.990
    7DOPE  C315  891   4.474   5.857  15.129
    7DOPE  H15X  892   4.364   5.844  15.136
    7DOPE  H15Y  893   4.515   5.831  15.228
    7DOPE  C316  894   4.529   5.765  15.021
    7DOPE  H16X  895   4.637   5.789  15.006
    7DOPE  H16Y  896   4.475   5.789  14.927
    7DOPE  C317  897   4.513   5.619  15.057
    7DOPE  H17X  898   4.614   5.573  15.065
    7DOPE  H17Y  899   4.472   5.614  15.159
    7DOPE  C318  900   4.425   5.543  14.959
    7DOPE  H18X  901   4.453   5.560  14.854
    7DOPE  H18Y  902   4.425   5.434  14.982
    7DOPE  H18Z  903   4.322   5.578  14.955
    8DOPE     N  904   5.480   5.527  17.184
    8DOPE   HN1  905   5.404   5.466  17.223
    8DOPE   HN2  906   5.535   5.457  17.127
    8DOPE   HN3  907   5.537   5.566  17.262
    8DOPE   C12  908   5.427   5.631  17.091
    8DOPE  H12A  909   5.514   5.683  17.045
    8DOPE  H12B  910   5.365   5.702  17.148
    8DOPE   C11  911   5.349   5.563  16.978
    8DOPE  H11A  912   5.302   5.638  16.911
    8DOPE  H11B  913   5.269   5.501  17.022
    8DOPE     P  914   5.379   5.371  16.814
    8DOPE   O13  915   5.265   5.423  16.737
    8DOPE   O14  916   5.363   5.258  16.908
    8DOPE   O11  917   5.503   5.349  16.723
    8DOPE   O12  918   5.441   5.484  16.904
    8DOPE    C1  919   5.617   5.294  16.788
    8DOPE    HA  920   5.594   5.224  16.871
    8DOPE    HB  921   5.681   5.376  16.826
    8DOPE    C2  922   5.688   5.204  16.688
    8DOPE    HS  923   5.785   5.174  16.728
    8DOPE   O21  924   5.710   5.274  16.568
    8DOPE   C21  925   5.798   5.368  16.583
    8DOPE   O22  926   5.863   5.396  16.682
    8DOPE   C22  927   5.805   5.443  16.454
    8DOPE   H2R  928   5.912   5.467  16.441
    8DOPE   H2S  929   5.743   5.535  16.462
    8DOPE    C3  930   5.609   5.074  16.660
    8DOPE    HX  931   5.589   5.023  16.757
    8DOPE    HY  932   5.677   5.008  16.603
    8DOPE   O31  933   5.484   5.094  16.594
    8DOPE   C31  934   5.491   5.092  16.463
    8DOPE   O32  935   5.590   5.070  16.395
    8DOPE   C32  936   5.352   5.096  16.406
    8DOPE   H2X  937   5.338   4.993  16.370
    8DOPE   H2Y  938   5.278   5.122  16.484
    8DOPE   C23  939   5.766   5.362  16.331
    8DOPE   H3R  940   5.659   5.333  16.332
    8DOPE   H3S  941   5.822   5.269  16.324
    8DOPE   C24  942   5.810   5.437  16.209
    8DOPE   H4R  943   5.919   5.456  16.210
    8DOPE   H4S  944   5.760   5.533  16.219
    8DOPE   C25  945   5.772   5.366  16.081
    8DOPE   H5R  946   5.759   5.441  16.000
    8DOPE   H5S  947   5.675   5.312  16.096
    8DOPE   C26  948   5.882   5.270  16.041
    8DOPE   H6R  949   5.955   5.263  16.124
    8DOPE   H6S  950   5.936   5.311  15.954
    8DOPE   C27  951   5.831   5.130  16.010
    8DOPE   H7R  952   5.747   5.104  16.078
    8DOPE   H7S  953   5.914   5.058  16.031
    8DOPE   C28  954   5.791   5.124  15.864
    8DOPE   H8R  955   5.875   5.156  15.800
    8DOPE   H8S  956   5.707   5.196  15.849
    8DOPE   C29  957   5.752   4.986  15.824
    8DOPE   H9R  958   5.834   4.924  15.793
    8DOPE  C210  959   5.630   4.935  15.832
    8DOPE  H10R  960   5.609   4.838  15.784
    8DOPE  C211  961   5.512   5.011  15.884
    8DOPE  H11R  962   5.540   5.089  15.958
    8DOPE  H11S  963   5.439   4.942  15.931
    8DOPE  C212  964   5.451   5.078  15.762
    8DOPE  H12R  965   5.519   5.157  15.720
    8DOPE  H12S  966   5.357   5.129  15.793
    8DOPE  C213  967   5.421   4.976  15.654
    8DOPE  H13R  968   5.396   4.877  15.698
    8DOPE  H13S  969   5.509   4.961  15.587
    8DOPE  C214  970   5.305   5.024  15.572
    8DOPE  H14R  971   5.212   5.031  15.634
    8DOPE  H14S  972   5.291   4.942  15.498
    8DOPE  C215  973   5.337   5.160  15.511
    8DOPE  H15R  974   5.439   5.155  15.467
    8DOPE  H15S  975   5.339   5.240  15.588
    8DOPE  C216  976   5.239   5.197  15.401
    8DOPE  H16R  977   5.286   5.281  15.346
    8DOPE  H16S  978   5.145   5.234  15.446
    8DOPE  C217  979   5.215   5.078  15.307
    8DOPE  H17R  980   5.305   5.013  15.311
    8DOPE  H17S  981   5.212   5.109  15.201
    8DOPE  C218  982   5.094   4.990  15.340
    8DOPE  H18R  983   5.000   5.044  15.321
    8DOPE  H18S  984   5.091   4.954  15.444
    8DOPE  H18T  985   5.100   4.899  15.276
    8DOPE   C33  986   5.345   5.190  16.286
    8DOPE   H3X  987   5.250   5.172  16.230
    8DOPE   H3Y  988   5.430   5.164  16.218
    8DOPE   C34  989   5.349   5.336  16.329
    8DOPE   H4X  990   5.245   5.368  16.352
    8DOPE   H4Y  991   5.407   5.349  16.423
    8DOPE   C35  992   5.409   5.429  16.223
    8DOPE   H5X  993   5.518   5.439  16.239
    8DOPE   H5Y  994   5.366   5.531  16.236
    8DOPE   C36  995   5.389   5.383  16.079
    8DOPE   H6X  996   5.280   5.376  16.056
    8DOPE   H6Y  997   5.434   5.284  16.057
    8DOPE   C37  998   5.456   5.483  15.987
    8DOPE   H7X  999   5.436   5.584  16.029
    8DOPE   H7Y 1000   5.565   5.468  15.988
    8DOPE   C38 1001   5.413   5.467  15.843
    8DOPE   H8X 1002   5.308   5.431  15.843
    8DOPE   H8Y 1003   5.469   5.383  15.797
    8DOPE   C39 1004   5.433   5.603  15.780
    8DOPE   H9X 1005   5.378   5.685  15.829
    8DOPE  C310 1006   5.516   5.632  15.681
    8DOPE  H10X 1007   5.526   5.736  15.647
    8DOPE  C311 1008   5.603   5.525  15.621
    8DOPE  H11X 1009   5.554   5.425  15.625
    8DOPE  H11Y 1010   5.617   5.544  15.515
    8DOPE  C312 1011   5.738   5.520  15.695
    8DOPE  H12X 1012   5.714   5.525  15.804
    8DOPE  H12Y 1013   5.798   5.610  15.670
    8DOPE  C313 1014   5.818   5.389  15.677
    8DOPE  H13X 1015   5.873   5.372  15.772
    8DOPE  H13Y 1016   5.745   5.307  15.665
    8DOPE  C314 1017   5.919   5.382  15.560
    8DOPE  H14X 1018   6.017   5.423  15.591
    8DOPE  H14Y 1019   5.885   5.452  15.481
    8DOPE  C315 1020   5.931   5.246  15.487
    8DOPE  H15X 1021   5.987   5.167  15.542
    8DOPE  H15Y 1022   5.992   5.265  15.396
    8DOPE  C316 1023   5.797   5.187  15.443
    8DOPE  H16X 1024   5.744   5.140  15.529
    8DOPE  H16Y 1025   5.817   5.105  15.373
    8DOPE  C317 1026   5.706   5.287  15.372
    8DOPE  H17X 1027   5.608   5.240  15.348
    8DOPE  H17Y 1028   5.683   5.369  15.441
    8DOPE  C318 1029   5.767   5.340  15.242
    8DOPE  H18X 1030   5.871   5.305  15.226
    8DOPE  H18Y 1031   5.763   5.448  15.232
    8DOPE  H18Z 1032   5.704   5.312  15.156
    9DOPE     N 1033   1.313   4.682  16.644
    9DOPE   HN1 1034   1.416   4.676  16.638
    9DOPE   HN2 1035   1.270   4.703  16.551
    9DOPE   HN3 1036   1.295   4.764  16.706
    9DOPE   C12 1037   1.247   4.563  16.708
    9DOPE  H12A 1038   1.260   4.475  16.643
    9DOPE  H12B 1039   1.139   4.586  16.713
    9DOPE   C11 1040   1.295   4.541  16.853
    9DOPE  H11A 1041   1.392   4.487  16.847
    9DOPE  H11B 1042   1.223   4.473  16.904
    9DOPE     P 1043   1.216   4.720  17.033
    9DOPE   O13 1044   1.253   4.860  17.065
    9DOPE   O14 1045   1.204   4.626  17.146
    9DOPE   O11 1046   1.087   4.722  16.947
    9DOPE   O12 1047   1.316   4.663  16.923
    9DOPE    C1 1048   0.954   4.703  16.991
    9DOPE    HA 1049   0.918   4.796  17.041
    9DOPE    HB 1050   0.945   4.618  17.062
    9DOPE    C2 1051   0.867   4.677  16.867
    9DOPE    HS 1052   0.765   4.643  16.898
    9DOPE   O21 1053   0.929   4.584  16.778
    9DOPE   C21 1054   0.880   4.464  16.768
    9DOPE   O22 1055   0.798   4.413  16.842
    9DOPE   C22 1056   0.940   4.398  16.644
    9DOPE   H2R 1057   0.875   4.312  16.628
    9DOPE   H2S 1058   1.041   4.363  16.668
    9DOPE    C3 1059   0.848   4.807  16.785
    9DOPE    HX 1060   0.772   4.866  16.841
    9DOPE    HY 1061   0.803   4.780  16.687
    9DOPE   O31 1062   0.965   4.892  16.769
    9DOPE   C31 1063   1.045   4.864  16.669
    9DOPE   O32 1064   1.048   4.764  16.602
    9DOPE   C32 1065   1.124   4.987  16.630
    9DOPE   H2X 1066   1.050   5.068  16.616
    9DOPE   H2Y 1067   1.192   5.014  16.713
    9DOPE   C23 1068   0.934   4.484  16.514
    9DOPE   H3R 1069   1.005   4.567  16.526
    9DOPE   H3S 1070   0.832   4.526  16.501
    9DOPE   C24 1071   0.979   4.417  16.383
    9DOPE   H4R 1072   0.982   4.494  16.303
    9DOPE   H4S 1073   0.905   4.341  16.352
    9DOPE   C25 1074   1.117   4.354  16.395
    9DOPE   H5R 1075   1.119   4.290  16.486
    9DOPE   H5S 1076   1.196   4.432  16.407
    9DOPE   C26 1077   1.154   4.260  16.281
    9DOPE   H6R 1078   1.076   4.185  16.259
    9DOPE   H6S 1079   1.242   4.206  16.322
    9DOPE   C27 1080   1.206   4.327  16.153
    9DOPE   H7R 1081   1.287   4.265  16.108
    9DOPE   H7S 1082   1.254   4.420  16.187
    9DOPE   C28 1083   1.100   4.357  16.045
    9DOPE   H8R 1084   1.153   4.416  15.967
    9DOPE   H8S 1085   1.026   4.427  16.089
    9DOPE   C29 1086   1.029   4.239  15.984
    9DOPE   H9R 1087   0.951   4.195  16.049
    9DOPE  C210 1088   1.056   4.180  15.865
    9DOPE  H10R 1089   0.998   4.092  15.835
    9DOPE  C211 1090   1.165   4.224  15.770
    9DOPE  H11R 1091   1.247   4.151  15.782
    9DOPE  H11S 1092   1.205   4.323  15.798
    9DOPE  C212 1093   1.145   4.229  15.617
    9DOPE  H12R 1094   1.078   4.314  15.591
    9DOPE  H12S 1095   1.098   4.135  15.581
    9DOPE  C213 1096   1.281   4.247  15.546
    9DOPE  H13R 1097   1.335   4.149  15.548
    9DOPE  H13S 1098   1.343   4.319  15.603
    9DOPE  C214 1099   1.269   4.298  15.401
    9DOPE  H14R 1100   1.244   4.406  15.406
    9DOPE  H14S 1101   1.186   4.245  15.350
    9DOPE  C215 1102   1.397   4.282  15.317
    9DOPE  H15R 1103   1.418   4.174  15.297
    9DOPE  H15S 1104   1.483   4.324  15.374
    9DOPE  C216 1105   1.387   4.356  15.184
    9DOPE  H16R 1106   1.346   4.454  15.213
    9DOPE  H16S 1107   1.313   4.307  15.116
    9DOPE  C217 1108   1.520   4.383  15.112
    9DOPE  H17R 1109   1.596   4.406  15.187
    9DOPE  H17S 1110   1.510   4.474  15.049
    9DOPE  C218 1111   1.572   4.271  15.023
    9DOPE  H18R 1112   1.625   4.194  15.081
    9DOPE  H18S 1113   1.642   4.309  14.945
    9DOPE  H18T 1114   1.484   4.224  14.975
    9DOPE   C33 1115   1.204   4.964  16.499
    9DOPE   H3X 1116   1.275   4.880  16.508
    9DOPE   H3Y 1117   1.269   5.053  16.483
    9DOPE   C34 1118   1.122   4.939  16.373
    9DOPE   H4X 1119   1.054   4.853  16.386
    9DOPE   H4Y 1120   1.055   5.025  16.349
    9DOPE   C35 1121   1.210   4.910  16.251
    9DOPE   H5X 1122   1.302   4.971  16.251
    9DOPE   H5Y 1123   1.149   4.943  16.165
    9DOPE   C36 1124   1.241   4.760  16.242
    9DOPE   H6X 1125   1.157   4.702  16.285
    9DOPE   H6Y 1126   1.331   4.739  16.304
    9DOPE   C37 1127   1.269   4.704  16.101
    9DOPE   H7X 1128   1.376   4.716  16.082
    9DOPE   H7Y 1129   1.252   4.595  16.101
    9DOPE   C38 1130   1.197   4.764  15.980
    9DOPE   H8X 1131   1.270   4.757  15.896
    9DOPE   H8Y 1132   1.177   4.872  15.989
    9DOPE   C39 1133   1.071   4.693  15.946
    9DOPE   H9X 1134   1.016   4.647  16.030
    9DOPE  C310 1135   1.016   4.694  15.824
    9DOPE  H10X 1136   0.919   4.645  15.808
    9DOPE  C311 1137   1.073   4.767  15.705
    9DOPE  H11X 1138   1.031   4.870  15.696
    9DOPE  H11Y 1139   1.184   4.778  15.709
    9DOPE  C312 1140   1.039   4.690  15.578
    9DOPE  H12X 1141   0.929   4.693  15.558
    9DOPE  H12Y 1142   1.068   4.583  15.589
    9DOPE  C313 1143   1.116   4.746  15.458
    9DOPE  H13X 1144   1.225   4.744  15.477
    9DOPE  H13Y 1145   1.099   4.670  15.380
    9DOPE  C314 1146   1.074   4.885  15.406
    9DOPE  H14X 1147   1.143   4.960  15.448
    9DOPE  H14Y 1148   0.971   4.912  15.439
    9DOPE  C315 1149   1.078   4.885  15.252
    9DOPE  H15X 1150   0.981   4.847  15.214
    9DOPE  H15Y 1151   1.155   4.812  15.223
    9DOPE  C316 1152   1.111   5.018  15.184
    9DOPE  H16X 1153   1.215   5.045  15.208
    9DOPE  H16Y 1154   1.043   5.095  15.228
    9DOPE  C317 1155   1.091   5.020  15.031
    9DOPE  H17X 1156   1.016   4.942  15.002
    9DOPE  H17Y 1157   1.046   5.119  15.005
    9DOPE  C318 1158   1.217   5.006  14.944
    9DOPE  H18X 1159   1.300   5.067  14.985
    9DOPE  H18Y 1160   1.251   4.901  14.937
    9DOPE  H18Z 1161   1.197   5.039  14.840
   10DOPE     N 1162   2.055   6.179  16.986
   10DOPE   HN1 1163   1.992   6.192  17.067
   10DOPE   HN2 1164   2.135   6.117  17.014
   10DOPE   HN3 1165   2.079   6.270  16.941
   10DOPE   C12 1166   1.979   6.099  16.888
   10DOPE  H12A 1167   1.972   6.155  16.793
   10DOPE  H12B 1168   1.878   6.085  16.932
   10DOPE   C11 1169   2.049   5.966  16.871
   10DOPE  H11A 1170   2.159   5.975  16.866
   10DOPE  H11B 1171   2.017   5.933  16.769
   10DOPE     P 1172   1.964   5.733  16.945
   10DOPE   O13 1173   2.027   5.629  17.029
   10DOPE   O14 1174   1.967   5.723  16.801
   10DOPE   O11 1175   1.810   5.745  16.984
   10DOPE   O12 1176   2.013   5.879  16.981
   10DOPE    C1 1177   1.732   5.625  16.990
   10DOPE    HA 1178   1.658   5.633  17.073
   10DOPE    HB 1179   1.794   5.537  17.020
   10DOPE    C2 1180   1.654   5.582  16.859
   10DOPE    HS 1181   1.607   5.484  16.884
   10DOPE   O21 1182   1.746   5.567  16.748
   10DOPE   C21 1183   1.845   5.473  16.762
   10DOPE   O22 1184   1.843   5.384  16.846
   10DOPE   C22 1185   1.955   5.491  16.654
   10DOPE   H2R 1186   2.040   5.547  16.693
   10DOPE   H2S 1187   1.915   5.552  16.573
   10DOPE    C3 1188   1.528   5.680  16.817
   10DOPE    HX 1189   1.473   5.707  16.908
   10DOPE    HY 1190   1.475   5.600  16.767
   10DOPE   O31 1191   1.532   5.796  16.729
   10DOPE   C31 1192   1.435   5.843  16.641
   10DOPE   O32 1193   1.322   5.797  16.637
   10DOPE   C32 1194   1.478   5.964  16.533
   10DOPE   H2X 1195   1.383   6.015  16.511
   10DOPE   H2Y 1196   1.532   6.021  16.599
   10DOPE   C23 1197   2.015   5.362  16.599
   10DOPE   H3R 1198   2.078   5.311  16.673
   10DOPE   H3S 1199   2.080   5.387  16.512
   10DOPE   C24 1200   1.908   5.275  16.541
   10DOPE   H4R 1201   1.848   5.224  16.618
   10DOPE   H4S 1202   1.966   5.196  16.487
   10DOPE   C25 1203   1.822   5.352  16.439
   10DOPE   H5R 1204   1.782   5.441  16.485
   10DOPE   H5S 1205   1.730   5.305  16.403
   10DOPE   C26 1206   1.904   5.375  16.314
   10DOPE   H6R 1207   2.001   5.322  16.320
   10DOPE   H6S 1208   1.929   5.482  16.323
   10DOPE   C27 1209   1.833   5.337  16.182
   10DOPE   H7R 1210   1.807   5.229  16.184
   10DOPE   H7S 1211   1.902   5.350  16.096
   10DOPE   C28 1212   1.703   5.413  16.159
   10DOPE   H8R 1213   1.630   5.393  16.240
   10DOPE   H8S 1214   1.652   5.375  16.068
   10DOPE   C29 1215   1.742   5.558  16.152
   10DOPE   H9R 1216   1.798   5.594  16.239
   10DOPE  C210 1217   1.701   5.650  16.066
   10DOPE  H10R 1218   1.742   5.752  16.076
   10DOPE  C211 1219   1.603   5.627  15.956
   10DOPE  H11R 1220   1.581   5.723  15.906
   10DOPE  H11S 1221   1.508   5.592  16.001
   10DOPE  C212 1222   1.660   5.529  15.850
   10DOPE  H12R 1223   1.582   5.503  15.777
   10DOPE  H12S 1224   1.695   5.434  15.894
   10DOPE  C213 1225   1.779   5.592  15.779
   10DOPE  H13R 1226   1.851   5.625  15.856
   10DOPE  H13S 1227   1.743   5.682  15.725
   10DOPE  C214 1228   1.854   5.501  15.681
   10DOPE  H14R 1229   1.904   5.418  15.734
   10DOPE  H14S 1230   1.934   5.563  15.634
   10DOPE  C215 1231   1.762   5.446  15.571
   10DOPE  H15R 1232   1.684   5.522  15.549
   10DOPE  H15S 1233   1.711   5.355  15.609
   10DOPE  C216 1234   1.837   5.415  15.440
   10DOPE  H16R 1235   1.946   5.426  15.456
   10DOPE  H16S 1236   1.806   5.490  15.363
   10DOPE  C217 1237   1.806   5.278  15.381
   10DOPE  H17R 1238   1.797   5.203  15.463
   10DOPE  H17S 1239   1.891   5.247  15.317
   10DOPE  C218 1240   1.679   5.280  15.296
   10DOPE  H18R 1241   1.591   5.304  15.359
   10DOPE  H18S 1242   1.662   5.181  15.247
   10DOPE  H18T 1243   1.687   5.358  15.217
   10DOPE   C33 1244   1.579   5.982  16.399
   10DOPE   H3X 1245   1.507   6.005  16.318
   10DOPE   H3Y 1246   1.633   5.894  16.371
   10DOPE   C34 1247   1.704   6.081  16.376
   10DOPE   H4X 1248   1.706   6.097  16.265
   10DOPE   H4Y 1249   1.687   6.182  16.412
   10DOPE   C35 1250   1.856   6.049  16.404
   10DOPE   H5X 1251   1.878   6.017  16.507
   10DOPE   H5Y 1252   1.911   6.146  16.396
   10DOPE   C36 1253   1.937   5.951  16.314
   10DOPE   H6X 1254   1.948   5.993  16.212
   10DOPE   H6Y 1255   1.882   5.855  16.306
   10DOPE   C37 1256   2.078   5.920  16.373
   10DOPE   H7X 1257   2.136   6.014  16.380
   10DOPE   H7Y 1258   2.068   5.882  16.477
   10DOPE   C38 1259   2.164   5.818  16.295
   10DOPE   H8X 1260   2.260   5.811  16.350
   10DOPE   H8Y 1261   2.188   5.864  16.197
   10DOPE   C39 1262   2.117   5.675  16.281
   10DOPE   H9X 1263   2.114   5.619  16.375
   10DOPE  C310 1264   2.071   5.614  16.170
   10DOPE  H10X 1265   2.058   5.505  16.173
   10DOPE  C311 1266   2.052   5.668  16.033
   10DOPE  H11X 1267   2.017   5.584  15.969
   10DOPE  H11Y 1268   1.972   5.746  16.032
   10DOPE  C312 1269   2.180   5.722  15.971
   10DOPE  H12X 1270   2.264   5.654  15.997
   10DOPE  H12Y 1271   2.204   5.824  16.007
   10DOPE  C313 1272   2.167   5.728  15.820
   10DOPE  H13X 1273   2.264   5.762  15.776
   10DOPE  H13Y 1274   2.145   5.626  15.782
   10DOPE  C314 1275   2.059   5.822  15.768
   10DOPE  H14X 1276   2.073   5.925  15.807
   10DOPE  H14Y 1277   1.958   5.788  15.799
   10DOPE  C315 1278   2.072   5.818  15.616
   10DOPE  H15X 1279   2.092   5.712  15.586
   10DOPE  H15Y 1280   2.162   5.877  15.587
   10DOPE  C316 1281   1.950   5.866  15.540
   10DOPE  H16X 1282   1.928   5.971  15.567
   10DOPE  H16Y 1283   1.861   5.804  15.566
   10DOPE  C317 1284   1.979   5.853  15.392
   10DOPE  H17X 1285   1.908   5.919  15.339
   10DOPE  H17Y 1286   2.083   5.888  15.371
   10DOPE  C318 1287   1.962   5.712  15.337
   10DOPE  H18X 1288   2.026   5.639  15.391
   10DOPE  H18Y 1289   1.855   5.683  15.349
   10DOPE  H18Z 1290   1.986   5.707  15.229
   11DOPE     N 1291   1.462   2.993  17.141
   11DOPE   HN1 1292   1.485   2.994  17.242
   11DOPE   HN2 1293   1.496   3.077  17.091
   11DOPE   HN3 1294   1.358   2.993  17.123
   11DOPE   C12 1295   1.520   2.877  17.061
   11DOPE  H12A 1296   1.491   2.782  17.111
   11DOPE  H12B 1297   1.630   2.887  17.059
   11DOPE   C11 1298   1.460   2.882  16.921
   11DOPE  H11A 1299   1.466   2.782  16.872
   11DOPE  H11B 1300   1.517   2.950  16.854
   11DOPE     P 1301   1.241   2.957  16.804
   11DOPE   O13 1302   1.316   3.062  16.734
   11DOPE   O14 1303   1.102   2.976  16.844
   11DOPE   O11 1304   1.260   2.821  16.728
   11DOPE   O12 1305   1.325   2.928  16.933
   11DOPE    C1 1306   1.214   2.704  16.799
   11DOPE    HA 1307   1.126   2.723  16.868
   11DOPE    HB 1308   1.295   2.661  16.862
   11DOPE    C2 1309   1.168   2.596  16.700
   11DOPE    HS 1310   1.158   2.502  16.759
   11DOPE   O21 1311   1.256   2.574  16.588
   11DOPE   C21 1312   1.382   2.561  16.599
   11DOPE   O22 1313   1.447   2.556  16.704
   11DOPE   C22 1314   1.449   2.558  16.456
   11DOPE   H2R 1315   1.547   2.568  16.502
   11DOPE   H2S 1316   1.430   2.650  16.399
   11DOPE    C3 1317   1.028   2.628  16.641
   11DOPE    HX 1318   0.954   2.619  16.723
   11DOPE    HY 1319   1.009   2.546  16.568
   11DOPE   O31 1320   1.014   2.758  16.579
   11DOPE   C31 1321   1.082   2.781  16.468
   11DOPE   O32 1322   1.146   2.701  16.403
   11DOPE   C32 1323   1.053   2.919  16.413
   11DOPE   H2X 1324   0.944   2.924  16.394
   11DOPE   H2Y 1325   1.080   2.997  16.487
   11DOPE   C23 1326   1.485   2.429  16.369
   11DOPE   H3R 1327   1.425   2.345  16.406
   11DOPE   H3S 1328   1.590   2.403  16.393
   11DOPE   C24 1329   1.483   2.422  16.213
   11DOPE   H4R 1330   1.415   2.345  16.170
   11DOPE   H4S 1331   1.582   2.377  16.184
   11DOPE   C25 1332   1.473   2.553  16.136
   11DOPE   H5R 1333   1.538   2.548  16.046
   11DOPE   H5S 1334   1.511   2.633  16.201
   11DOPE   C26 1335   1.335   2.598  16.087
   11DOPE   H6R 1336   1.287   2.663  16.164
   11DOPE   H6S 1337   1.275   2.508  16.080
   11DOPE   C27 1338   1.352   2.668  15.951
   11DOPE   H7R 1339   1.389   2.594  15.877
   11DOPE   H7S 1340   1.436   2.739  15.969
   11DOPE   C28 1341   1.238   2.753  15.890
   11DOPE   H8R 1342   1.289   2.815  15.814
   11DOPE   H8S 1343   1.205   2.823  15.970
   11DOPE   C29 1344   1.113   2.693  15.828
   11DOPE   H9R 1345   1.034   2.670  15.901
   11DOPE  C210 1346   1.091   2.667  15.697
   11DOPE  H10R 1347   0.990   2.633  15.667
   11DOPE  C211 1348   1.187   2.692  15.584
   11DOPE  H11R 1349   1.239   2.789  15.602
   11DOPE  H11S 1350   1.133   2.702  15.487
   11DOPE  C212 1351   1.296   2.583  15.572
   11DOPE  H12R 1352   1.253   2.493  15.523
   11DOPE  H12S 1353   1.329   2.555  15.674
   11DOPE  C213 1354   1.424   2.629  15.498
   11DOPE  H13R 1355   1.462   2.724  15.543
   11DOPE  H13S 1356   1.396   2.655  15.393
   11DOPE  C214 1357   1.537   2.523  15.496
   11DOPE  H14R 1358   1.501   2.430  15.545
   11DOPE  H14S 1359   1.625   2.557  15.555
   11DOPE  C215 1360   1.574   2.496  15.350
   11DOPE  H15R 1361   1.672   2.448  15.330
   11DOPE  H15S 1362   1.578   2.595  15.301
   11DOPE  C216 1363   1.465   2.414  15.284
   11DOPE  H16R 1364   1.376   2.410  15.351
   11DOPE  H16S 1365   1.502   2.310  15.273
   11DOPE  C217 1366   1.426   2.464  15.146
   11DOPE  H17R 1367   1.403   2.573  15.146
   11DOPE  H17S 1368   1.334   2.412  15.112
   11DOPE  C218 1369   1.540   2.433  15.050
   11DOPE  H18R 1370   1.621   2.508  15.056
   11DOPE  H18S 1371   1.505   2.421  14.947
   11DOPE  H18T 1372   1.587   2.338  15.082
   11DOPE   C33 1373   1.132   2.935  16.280
   11DOPE   H3X 1374   1.110   2.851  16.210
   11DOPE   H3Y 1375   1.241   2.935  16.300
   11DOPE   C34 1376   1.088   3.064  16.213
   11DOPE   H4X 1377   0.980   3.049  16.192
   11DOPE   H4Y 1378   1.101   3.143  16.290
   11DOPE   C35 1379   1.155   3.109  16.083
   11DOPE   H5X 1380   1.073   3.147  16.018
   11DOPE   H5Y 1381   1.199   3.022  16.030
   11DOPE   C36 1382   1.256   3.224  16.097
   11DOPE   H6X 1383   1.307   3.222  16.195
   11DOPE   H6Y 1384   1.212   3.325  16.091
   11DOPE   C37 1385   1.355   3.224  15.981
   11DOPE   H7X 1386   1.454   3.258  16.019
   11DOPE   H7Y 1387   1.360   3.121  15.943
   11DOPE   C38 1388   1.318   3.311  15.861
   11DOPE   H8X 1389   1.392   3.296  15.779
   11DOPE   H8Y 1390   1.326   3.416  15.897
   11DOPE   C39 1391   1.177   3.283  15.818
   11DOPE   H9X 1392   1.115   3.373  15.821
   11DOPE  C310 1393   1.122   3.178  15.758
   11DOPE  H10X 1394   1.018   3.189  15.725
   11DOPE  C311 1395   1.186   3.049  15.710
   11DOPE  H11X 1396   1.291   3.034  15.742
   11DOPE  H11Y 1397   1.125   2.959  15.731
   11DOPE  C312 1398   1.175   3.091  15.565
   11DOPE  H12X 1399   1.232   3.187  15.550
   11DOPE  H12Y 1400   1.066   3.102  15.541
   11DOPE  C313 1401   1.223   3.013  15.445
   11DOPE  H13X 1402   1.332   2.991  15.444
   11DOPE  H13Y 1403   1.167   2.918  15.431
   11DOPE  C314 1404   1.186   3.115  15.338
   11DOPE  H14X 1405   1.270   3.188  15.328
   11DOPE  H14Y 1406   1.096   3.173  15.367
   11DOPE  C315 1407   1.147   3.058  15.207
   11DOPE  H15X 1408   1.221   2.981  15.190
   11DOPE  H15Y 1409   1.153   3.140  15.132
   11DOPE  C316 1410   1.013   2.987  15.196
   11DOPE  H16X 1411   0.943   3.061  15.159
   11DOPE  H16Y 1412   0.980   2.943  15.291
   11DOPE  C317 1413   1.017   2.884  15.086
   11DOPE  H17X 1414   1.069   2.794  15.123
   11DOPE  H17Y 1415   0.915   2.855  15.051
   11DOPE  C318 1416   1.094   2.948  14.971
   11DOPE  H18X 1417   1.052   3.046  14.950
   11DOPE  H18Y 1418   1.200   2.966  14.995
   11DOPE  H18Z 1419   1.091   2.889  14.880
   12DOPE     N 1420   3.105   6.485  16.905
   12DOPE   HN1 1421   3.013   6.473  16.859
   12DOPE   HN2 1422   3.184   6.468  16.837
   12DOPE   HN3 1423   3.114   6.415  16.982
   12DOPE   C12 1424   3.125   6.622  16.959
   12DOPE  H12A 1425   3.057   6.637  17.044
   12DOPE  H12B 1426   3.102   6.695  16.878
   12DOPE   C11 1427   3.272   6.639  16.999
   12DOPE  H11A 1428   3.301   6.567  17.078
   12DOPE  H11B 1429   3.280   6.742  17.043
   12DOPE     P 1430   3.476   6.719  16.863
   12DOPE   O13 1431   3.534   6.690  16.730
   12DOPE   O14 1432   3.566   6.709  16.981
   12DOPE   O11 1433   3.386   6.852  16.857
   12DOPE   O12 1434   3.357   6.616  16.887
   12DOPE    C1 1435   3.401   6.952  16.754
   12DOPE    HA 1436   3.478   6.922  16.679
   12DOPE    HB 1437   3.445   7.043  16.801
   12DOPE    C2 1438   3.271   7.001  16.673
   12DOPE    HS 1439   3.269   7.112  16.688
   12DOPE   O21 1440   3.143   6.944  16.713
   12DOPE   C21 1441   3.038   7.005  16.653
   12DOPE   O22 1442   3.044   7.112  16.596
   12DOPE   C22 1443   2.907   6.926  16.668
   12DOPE   H2R 1444   2.824   6.998  16.654
   12DOPE   H2S 1445   2.903   6.887  16.771
   12DOPE    C3 1446   3.292   6.973  16.520
   12DOPE    HX 1447   3.382   7.029  16.486
   12DOPE    HY 1448   3.206   7.010  16.459
   12DOPE   O31 1449   3.310   6.833  16.501
   12DOPE   C31 1450   3.334   6.787  16.381
   12DOPE   O32 1451   3.323   6.846  16.275
   12DOPE   C32 1452   3.387   6.644  16.403
   12DOPE   H2X 1453   3.458   6.649  16.489
   12DOPE   H2Y 1454   3.301   6.584  16.437
   12DOPE   C23 1455   2.882   6.810  16.569
   12DOPE   H3R 1456   2.867   6.850  16.466
   12DOPE   H3S 1457   2.787   6.760  16.599
   12DOPE   C24 1458   2.997   6.709  16.572
   12DOPE   H4R 1459   3.015   6.678  16.677
   12DOPE   H4S 1460   3.088   6.760  16.535
   12DOPE   C25 1461   2.973   6.585  16.486
   12DOPE   H5R 1462   2.892   6.525  16.535
   12DOPE   H5S 1463   3.065   6.522  16.484
   12DOPE   C26 1464   2.927   6.614  16.342
   12DOPE   H6R 1465   2.828   6.663  16.348
   12DOPE   H6S 1466   2.917   6.515  16.293
   12DOPE   C27 1467   3.007   6.706  16.248
   12DOPE   H7R 1468   3.109   6.666  16.231
   12DOPE   H7S 1469   3.019   6.807  16.294
   12DOPE   C28 1470   2.933   6.717  16.113
   12DOPE   H8R 1471   2.834   6.763  16.130
   12DOPE   H8S 1472   2.914   6.613  16.078
   12DOPE   C29 1473   3.009   6.795  16.009
   12DOPE   H9R 1474   3.046   6.893  16.045
   12DOPE  C210 1475   3.036   6.757  15.883
   12DOPE  H10R 1476   3.098   6.824  15.821
   12DOPE  C211 1477   2.997   6.630  15.812
   12DOPE  H11R 1478   2.932   6.564  15.874
   12DOPE  H11S 1479   3.089   6.572  15.790
   12DOPE  C212 1480   2.925   6.655  15.678
   12DOPE  H12R 1481   2.825   6.701  15.694
   12DOPE  H12S 1482   2.908   6.556  15.629
   12DOPE  C213 1483   3.005   6.744  15.583
   12DOPE  H13R 1484   3.112   6.712  15.581
   12DOPE  H13S 1485   3.003   6.849  15.620
   12DOPE  C214 1486   2.948   6.740  15.442
   12DOPE  H14R 1487   2.839   6.760  15.446
   12DOPE  H14S 1488   2.962   6.639  15.398
   12DOPE  C215 1489   3.015   6.845  15.355
   12DOPE  H15R 1490   3.124   6.824  15.350
   12DOPE  H15S 1491   3.002   6.945  15.402
   12DOPE  C216 1492   2.956   6.846  15.216
   12DOPE  H16R 1493   2.850   6.880  15.221
   12DOPE  H16S 1494   2.954   6.743  15.174
   12DOPE  C217 1495   3.031   6.936  15.119
   12DOPE  H17R 1496   3.030   7.042  15.145
   12DOPE  H17S 1497   2.965   6.936  15.032
   12DOPE  C218 1498   3.175   6.896  15.087
   12DOPE  H18R 1499   3.225   6.968  15.020
   12DOPE  H18S 1500   3.174   6.799  15.035
   12DOPE  H18T 1501   3.237   6.888  15.179
   12DOPE   C33 1502   3.458   6.579  16.282
   12DOPE   H3X 1503   3.567   6.577  16.302
   12DOPE   H3Y 1504   3.441   6.638  16.189
   12DOPE   C34 1505   3.409   6.436  16.259
   12DOPE   H4X 1506   3.474   6.385  16.186
   12DOPE   H4Y 1507   3.425   6.382  16.354
   12DOPE   C35 1508   3.261   6.432  16.215
   12DOPE   H5X 1509   3.202   6.501  16.277
   12DOPE   H5Y 1510   3.215   6.334  16.236
   12DOPE   C36 1511   3.239   6.462  16.066
   12DOPE   H6X 1512   3.270   6.567  16.045
   12DOPE   H6Y 1513   3.131   6.454  16.042
   12DOPE   C37 1514   3.319   6.365  15.979
   12DOPE   H7X 1515   3.427   6.387  15.991
   12DOPE   H7Y 1516   3.300   6.263  16.018
   12DOPE   C38 1517   3.288   6.372  15.830
   12DOPE   H8X 1518   3.312   6.474  15.793
   12DOPE   H8Y 1519   3.180   6.357  15.810
   12DOPE   C39 1520   3.371   6.263  15.767
   12DOPE   H9X 1521   3.338   6.161  15.792
   12DOPE  C310 1522   3.478   6.279  15.687
   12DOPE  H10X 1523   3.531   6.190  15.650
   12DOPE  C311 1524   3.535   6.411  15.644
   12DOPE  H11X 1525   3.518   6.490  15.721
   12DOPE  H11Y 1526   3.645   6.402  15.633
   12DOPE  C312 1527   3.478   6.460  15.510
   12DOPE  H12X 1528   3.494   6.383  15.432
   12DOPE  H12Y 1529   3.536   6.551  15.480
   12DOPE  C313 1530   3.330   6.500  15.511
   12DOPE  H13X 1531   3.266   6.408  15.514
   12DOPE  H13Y 1532   3.307   6.558  15.603
   12DOPE  C314 1533   3.291   6.584  15.389
   12DOPE  H14X 1534   3.346   6.681  15.393
   12DOPE  H14Y 1535   3.183   6.608  15.394
   12DOPE  C315 1536   3.320   6.513  15.256
   12DOPE  H15X 1537   3.268   6.415  15.257
   12DOPE  H15Y 1538   3.429   6.496  15.246
   12DOPE  C316 1539   3.271   6.594  15.136
   12DOPE  H16X 1540   3.332   6.687  15.130
   12DOPE  H16Y 1541   3.165   6.622  15.153
   12DOPE  C317 1542   3.283   6.518  15.003
   12DOPE  H17X 1543   3.389   6.487  14.989
   12DOPE  H17Y 1544   3.221   6.426  15.010
   12DOPE  C318 1545   3.238   6.599  14.880
   12DOPE  H18X 1546   3.254   6.541  14.787
   12DOPE  H18Y 1547   3.130   6.625  14.887
   12DOPE  H18Z 1548   3.296   6.694  14.872
   13DOPE     N 1549   2.494   1.092  17.177
   13DOPE   HN1 1550   2.463   1.190  17.195
   13DOPE   HN2 1551   2.470   1.031  17.257
   13DOPE   HN3 1552   2.598   1.098  17.170
   13DOPE   C12 1553   2.436   1.036  17.051
   13DOPE  H12A 1554   2.329   1.014  17.066
   13DOPE  H12B 1555   2.490   0.941  17.027
   13DOPE   C11 1556   2.457   1.133  16.936
   13DOPE  H11A 1557   2.397   1.225  16.952
   13DOPE  H11B 1558   2.416   1.082  16.844
   13DOPE     P 1559   2.642   1.207  16.778
   13DOPE   O13 1560   2.767   1.285  16.778
   13DOPE   O14 1561   2.525   1.267  16.713
   13DOPE   O11 1562   2.672   1.061  16.723
   13DOPE   O12 1563   2.596   1.165  16.925
   13DOPE    C1 1564   2.786   0.997  16.785
   13DOPE    HA 1565   2.764   0.974  16.891
   13DOPE    HB 1566   2.875   1.064  16.784
   13DOPE    C2 1567   2.831   0.864  16.716
   13DOPE    HS 1568   2.924   0.833  16.767
   13DOPE   O21 1569   2.854   0.876  16.574
   13DOPE   C21 1570   2.961   0.946  16.543
   13DOPE   O22 1571   3.043   0.989  16.622
   13DOPE   C22 1572   2.969   0.971  16.395
   13DOPE   H2R 1573   2.883   0.924  16.342
   13DOPE   H2S 1574   3.064   0.929  16.356
   13DOPE    C3 1575   2.729   0.749  16.737
   13DOPE    HX 1576   2.739   0.710  16.840
   13DOPE    HY 1577   2.761   0.667  16.671
   13DOPE   O31 1578   2.592   0.785  16.713
   13DOPE   C31 1579   2.562   0.810  16.586
   13DOPE   O32 1580   2.624   0.774  16.488
   13DOPE   C32 1581   2.431   0.887  16.581
   13DOPE   H2X 1582   2.351   0.814  16.605
   13DOPE   H2Y 1583   2.434   0.964  16.660
   13DOPE   C23 1584   2.967   1.124  16.383
   13DOPE   H3R 1585   2.972   1.153  16.276
   13DOPE   H3S 1586   3.057   1.166  16.434
   13DOPE   C24 1587   2.842   1.182  16.450
   13DOPE   H4R 1588   2.831   1.151  16.555
   13DOPE   H4S 1589   2.754   1.145  16.394
   13DOPE   C25 1590   2.835   1.334  16.451
   13DOPE   H5R 1591   2.924   1.376  16.501
   13DOPE   H5S 1592   2.746   1.365  16.510
   13DOPE   C26 1593   2.822   1.382  16.308
   13DOPE   H6R 1594   2.821   1.293  16.241
   13DOPE   H6S 1595   2.914   1.436  16.281
   13DOPE   C27 1596   2.692   1.459  16.279
   13DOPE   H7R 1597   2.707   1.568  16.295
   13DOPE   H7S 1598   2.613   1.428  16.351
   13DOPE   C28 1599   2.649   1.424  16.136
   13DOPE   H8R 1600   2.640   1.314  16.131
   13DOPE   H8S 1601   2.732   1.449  16.068
   13DOPE   C29 1602   2.521   1.481  16.083
   13DOPE   H9R 1603   2.453   1.530  16.155
   13DOPE  C210 1604   2.488   1.469  15.953
   13DOPE  H10R 1605   2.393   1.510  15.918
   13DOPE  C211 1606   2.571   1.399  15.848
   13DOPE  H11R 1607   2.539   1.293  15.841
   13DOPE  H11S 1608   2.680   1.398  15.870
   13DOPE  C212 1609   2.549   1.466  15.713
   13DOPE  H12R 1610   2.590   1.569  15.712
   13DOPE  H12S 1611   2.439   1.474  15.695
   13DOPE  C213 1612   2.607   1.389  15.593
   13DOPE  H13R 1613   2.584   1.280  15.603
   13DOPE  H13S 1614   2.717   1.400  15.586
   13DOPE  C214 1615   2.539   1.446  15.470
   13DOPE  H14R 1616   2.552   1.556  15.468
   13DOPE  H14S 1617   2.431   1.423  15.482
   13DOPE  C215 1618   2.578   1.390  15.334
   13DOPE  H15R 1619   2.564   1.279  15.332
   13DOPE  H15S 1620   2.684   1.412  15.310
   13DOPE  C216 1621   2.485   1.456  15.232
   13DOPE  H16R 1622   2.508   1.564  15.228
   13DOPE  H16S 1623   2.384   1.451  15.276
   13DOPE  C217 1624   2.495   1.393  15.093
   13DOPE  H17R 1625   2.461   1.287  15.092
   13DOPE  H17S 1626   2.603   1.391  15.083
   13DOPE  C218 1627   2.442   1.471  14.972
   13DOPE  H18R 1628   2.335   1.453  14.953
   13DOPE  H18S 1629   2.496   1.443  14.879
   13DOPE  H18T 1630   2.454   1.580  14.985
   13DOPE   C33 1631   2.407   0.954  16.444
   13DOPE   H3X 1632   2.306   1.000  16.442
   13DOPE   H3Y 1633   2.415   0.881  16.361
   13DOPE   C34 1634   2.509   1.065  16.423
   13DOPE   H4X 1635   2.513   1.130  16.514
   13DOPE   H4Y 1636   2.609   1.018  16.414
   13DOPE   C35 1637   2.482   1.156  16.304
   13DOPE   H5X 1638   2.554   1.239  16.311
   13DOPE   H5Y 1639   2.381   1.201  16.313
   13DOPE   C36 1640   2.497   1.092  16.166
   13DOPE   H6X 1641   2.478   1.169  16.089
   13DOPE   H6Y 1642   2.420   1.013  16.153
   13DOPE   C37 1643   2.638   1.035  16.144
   13DOPE   H7X 1644   2.713   1.112  16.174
   13DOPE   H7Y 1645   2.654   0.947  16.211
   13DOPE   C38 1646   2.664   0.997  15.998
   13DOPE   H8X 1647   2.769   0.964  15.985
   13DOPE   H8Y 1648   2.649   1.087  15.934
   13DOPE   C39 1649   2.570   0.885  15.962
   13DOPE   H9X 1650   2.576   0.798  16.029
   13DOPE  C310 1651   2.482   0.883  15.861
   13DOPE  H10X 1652   2.422   0.792  15.847
   13DOPE  C311 1653   2.456   0.991  15.759
   13DOPE  H11X 1654   2.347   1.000  15.740
   13DOPE  H11Y 1655   2.489   1.091  15.794
   13DOPE  C312 1656   2.529   0.953  15.629
   13DOPE  H12X 1657   2.526   0.842  15.617
   13DOPE  H12Y 1658   2.636   0.982  15.636
   13DOPE  C313 1659   2.466   1.011  15.501
   13DOPE  H13X 1660   2.355   1.013  15.514
   13DOPE  H13Y 1661   2.499   1.116  15.486
   13DOPE  C314 1662   2.498   0.926  15.376
   13DOPE  H14X 1663   2.419   0.942  15.299
   13DOPE  H14Y 1664   2.496   0.818  15.404
   13DOPE  C315 1665   2.634   0.964  15.315
   13DOPE  H15X 1666   2.689   1.024  15.392
   13DOPE  H15Y 1667   2.619   1.029  15.227
   13DOPE  C316 1668   2.728   0.848  15.277
   13DOPE  H16X 1669   2.691   0.799  15.185
   13DOPE  H16Y 1670   2.728   0.771  15.358
   13DOPE  C317 1671   2.871   0.904  15.261
   13DOPE  H17X 1672   2.861   1.015  15.251
   13DOPE  H17Y 1673   2.929   0.884  15.354
   13DOPE  C318 1674   2.954   0.857  15.141
   13DOPE  H18X 1675   3.046   0.806  15.174
   13DOPE  H18Y 1676   2.898   0.787  15.076
   13DOPE  H18Z 1677   2.988   0.943  15.080
   14DOPE     N 1678   6.778   4.543  17.191
   14DOPE   HN1 1679   6.802   4.529  17.292
   14DOPE   HN2 1680   6.778   4.645  17.168
   14DOPE   HN3 1681   6.683   4.505  17.169
   14DOPE   C12 1682   6.879   4.476  17.101
   14DOPE  H12A 1683   6.855   4.368  17.097
   14DOPE  H12B 1684   6.979   4.489  17.145
   14DOPE   C11 1685   6.878   4.533  16.959
   14DOPE  H11A 1686   6.945   4.470  16.895
   14DOPE  H11B 1687   6.923   4.635  16.963
   14DOPE     P 1688   6.732   4.606  16.763
   14DOPE   O13 1689   6.588   4.608  16.731
   14DOPE   O14 1690   6.827   4.547  16.668
   14DOPE   O11 1691   6.781   4.752  16.804
   14DOPE   O12 1692   6.745   4.534  16.907
   14DOPE    C1 1693   6.716   4.833  16.903
   14DOPE    HA 1694   6.788   4.864  16.982
   14DOPE    HB 1695   6.634   4.777  16.954
   14DOPE    C2 1696   6.648   4.960  16.842
   14DOPE    HS 1697   6.575   4.993  16.919
   14DOPE   O21 1698   6.586   4.930  16.719
   14DOPE   C21 1699   6.461   4.895  16.725
   14DOPE   O22 1700   6.402   4.864  16.827
   14DOPE   C22 1701   6.413   4.920  16.583
   14DOPE   H2R 1702   6.461   5.013  16.546
   14DOPE   H2S 1703   6.304   4.936  16.580
   14DOPE    C3 1704   6.734   5.085  16.807
   14DOPE    HX 1705   6.784   5.118  16.900
   14DOPE    HY 1706   6.663   5.168  16.783
   14DOPE   O31 1707   6.827   5.060  16.698
   14DOPE   C31 1708   6.787   5.097  16.576
   14DOPE   O32 1709   6.694   5.170  16.550
   14DOPE   C32 1710   6.882   5.044  16.466
   14DOPE   H2X 1711   6.912   5.133  16.407
   14DOPE   H2Y 1712   6.971   4.997  16.510
   14DOPE   C23 1713   6.448   4.804  16.491
   14DOPE   H3R 1714   6.370   4.726  16.503
   14DOPE   H3S 1715   6.545   4.756  16.518
   14DOPE   C24 1716   6.454   4.849  16.345
   14DOPE   H4R 1717   6.555   4.882  16.317
   14DOPE   H4S 1718   6.383   4.932  16.324
   14DOPE   C25 1719   6.423   4.728  16.263
   14DOPE   H5R 1720   6.316   4.705  16.278
   14DOPE   H5S 1721   6.478   4.641  16.308
   14DOPE   C26 1722   6.458   4.733  16.116
   14DOPE   H6R 1723   6.392   4.653  16.082
   14DOPE   H6S 1724   6.561   4.703  16.094
   14DOPE   C27 1725   6.425   4.855  16.029
   14DOPE   H7R 1726   6.508   4.928  16.040
   14DOPE   H7S 1727   6.332   4.904  16.065
   14DOPE   C28 1728   6.415   4.806  15.881
   14DOPE   H8R 1729   6.512   4.766  15.851
   14DOPE   H8S 1730   6.391   4.894  15.819
   14DOPE   C29 1731   6.313   4.697  15.865
   14DOPE   H9R 1732   6.235   4.717  15.937
   14DOPE  C210 1733   6.302   4.578  15.805
   14DOPE  H10R 1734   6.206   4.525  15.818
   14DOPE  C211 1735   6.394   4.497  15.722
   14DOPE  H11R 1736   6.440   4.424  15.790
   14DOPE  H11S 1737   6.480   4.554  15.682
   14DOPE  C212 1738   6.311   4.419  15.616
   14DOPE  H12R 1739   6.207   4.403  15.651
   14DOPE  H12S 1740   6.347   4.314  15.609
   14DOPE  C213 1741   6.306   4.485  15.476
   14DOPE  H13R 1742   6.204   4.525  15.470
   14DOPE  H13S 1743   6.309   4.407  15.398
   14DOPE  C214 1744   6.414   4.595  15.452
   14DOPE  H14R 1745   6.514   4.548  15.464
   14DOPE  H14S 1746   6.401   4.671  15.533
   14DOPE  C215 1747   6.419   4.681  15.323
   14DOPE  H15R 1748   6.517   4.735  15.323
   14DOPE  H15S 1749   6.344   4.763  15.330
   14DOPE  C216 1750   6.405   4.607  15.189
   14DOPE  H16R 1751   6.322   4.534  15.195
   14DOPE  H16S 1752   6.500   4.551  15.173
   14DOPE  C217 1753   6.380   4.701  15.069
   14DOPE  H17R 1754   6.412   4.650  14.976
   14DOPE  H17S 1755   6.443   4.793  15.078
   14DOPE  C218 1756   6.233   4.737  15.050
   14DOPE  H18R 1757   6.201   4.812  15.123
   14DOPE  H18S 1758   6.171   4.649  15.069
   14DOPE  H18T 1759   6.212   4.776  14.948
   14DOPE   C33 1760   6.812   4.941  16.374
   14DOPE   H3X 1761   6.847   4.943  16.268
   14DOPE   H3Y 1762   6.707   4.973  16.372
   14DOPE   C34 1763   6.829   4.799  16.432
   14DOPE   H4X 1764   6.934   4.783  16.464
   14DOPE   H4Y 1765   6.767   4.801  16.525
   14DOPE   C35 1766   6.783   4.676  16.351
   14DOPE   H5X 1767   6.680   4.690  16.316
   14DOPE   H5Y 1768   6.782   4.589  16.422
   14DOPE   C36 1769   6.872   4.635  16.231
   14DOPE   H6X 1770   6.963   4.587  16.272
   14DOPE   H6Y 1771   6.896   4.726  16.173
   14DOPE   C37 1772   6.804   4.537  16.136
   14DOPE   H7X 1773   6.772   4.451  16.199
   14DOPE   H7Y 1774   6.715   4.586  16.094
   14DOPE   C38 1775   6.885   4.484  16.015
   14DOPE   H8X 1776   6.818   4.426  15.948
   14DOPE   H8Y 1777   6.961   4.412  16.052
   14DOPE   C39 1778   6.954   4.589  15.933
   14DOPE   H9X 1779   7.062   4.586  15.952
   14DOPE  C310 1780   6.905   4.671  15.838
   14DOPE  H10X 1781   6.973   4.747  15.795
   14DOPE  C311 1782   6.764   4.679  15.788
   14DOPE  H11X 1783   6.711   4.582  15.802
   14DOPE  H11Y 1784   6.710   4.755  15.849
   14DOPE  C312 1785   6.750   4.723  15.639
   14DOPE  H12X 1786   6.772   4.832  15.632
   14DOPE  H12Y 1787   6.643   4.709  15.609
   14DOPE  C313 1788   6.839   4.649  15.538
   14DOPE  H13X 1789   6.945   4.657  15.571
   14DOPE  H13Y 1790   6.812   4.541  15.535
   14DOPE  C314 1791   6.829   4.709  15.397
   14DOPE  H14X 1792   6.832   4.820  15.406
   14DOPE  H14Y 1793   6.731   4.681  15.351
   14DOPE  C315 1794   6.944   4.669  15.302
   14DOPE  H15X 1795   7.041   4.670  15.355
   14DOPE  H15Y 1796   6.949   4.746  15.222
   14DOPE  C316 1797   6.923   4.532  15.236
   14DOPE  H16X 1798   6.818   4.524  15.201
   14DOPE  H16Y 1799   6.941   4.453  15.312
   14DOPE  C317 1800   7.014   4.511  15.114
   14DOPE  H17X 1801   7.117   4.546  15.138
   14DOPE  H17Y 1802   7.020   4.401  15.095
   14DOPE  C318 1803   6.962   4.582  14.989
   14DOPE  H18X 1804   6.960   4.692  15.002
   14DOPE  H18Y 1805   7.027   4.562  14.901
   14DOPE  H18Z 1806   6.859   4.547  14.965
   15DOPE     N 1807   1.186   1.776  16.819
   15DOPE   HN1 1808   1.087   1.750  16.836
   15DOPE   HN2 1809   1.186   1.879  16.796
   15DOPE   HN3 1810   1.224   1.721  16.740
   15DOPE   C12 1811   1.272   1.769  16.942
   15DOPE  H12A 1812   1.379   1.774  16.911
   15DOPE  H12B 1813   1.255   1.677  16.998
   15DOPE   C11 1814   1.237   1.891  17.026
   15DOPE  H11A 1815   1.294   1.897  17.121
   15DOPE  H11B 1816   1.127   1.896  17.046
   15DOPE     P 1817   1.205   2.134  16.937
   15DOPE   O13 1818   1.284   2.225  17.023
   15DOPE   O14 1819   1.060   2.117  16.955
   15DOPE   O11 1820   1.237   2.144  16.786
   15DOPE   O12 1821   1.275   1.995  16.944
   15DOPE    C1 1822   1.373   2.119  16.748
   15DOPE    HA 1823   1.385   2.012  16.723
   15DOPE    HB 1824   1.445   2.147  16.829
   15DOPE    C2 1825   1.416   2.200  16.625
   15DOPE    HS 1826   1.417   2.309  16.653
   15DOPE   O21 1827   1.328   2.171  16.512
   15DOPE   C21 1828   1.216   2.246  16.525
   15DOPE   O22 1829   1.195   2.324  16.615
   15DOPE   C22 1830   1.124   2.245  16.404
   15DOPE   H2R 1831   1.019   2.259  16.440
   15DOPE   H2S 1832   1.132   2.152  16.345
   15DOPE    C3 1833   1.565   2.165  16.595
   15DOPE    HX 1834   1.620   2.167  16.692
   15DOPE    HY 1835   1.610   2.246  16.535
   15DOPE   O31 1836   1.574   2.032  16.538
   15DOPE   C31 1837   1.588   2.036  16.405
   15DOPE   O32 1838   1.633   2.129  16.341
   15DOPE   C32 1839   1.539   1.909  16.342
   15DOPE   H2X 1840   1.631   1.858  16.305
   15DOPE   H2Y 1841   1.489   1.843  16.415
   15DOPE   C23 1842   1.166   2.371  16.325
   15DOPE   H3R 1843   1.261   2.341  16.280
   15DOPE   H3S 1844   1.185   2.458  16.392
   15DOPE   C24 1845   1.075   2.416  16.212
   15DOPE   H4R 1846   1.096   2.522  16.186
   15DOPE   H4S 1847   0.970   2.412  16.247
   15DOPE   C25 1848   1.100   2.322  16.093
   15DOPE   H5R 1849   1.016   2.252  16.108
   15DOPE   H5S 1850   1.191   2.260  16.107
   15DOPE   C26 1851   1.110   2.382  15.951
   15DOPE   H6R 1852   1.211   2.419  15.924
   15DOPE   H6S 1853   1.041   2.468  15.943
   15DOPE   C27 1854   1.077   2.279  15.844
   15DOPE   H7R 1855   1.160   2.205  15.838
   15DOPE   H7S 1856   1.069   2.328  15.744
   15DOPE   C28 1857   0.948   2.206  15.880
   15DOPE   H8R 1858   0.968   2.132  15.961
   15DOPE   H8S 1859   0.922   2.143  15.794
   15DOPE   C29 1860   0.840   2.303  15.923
   15DOPE   H9R 1861   0.861   2.368  16.009
   15DOPE  C210 1862   0.720   2.309  15.869
   15DOPE  H10R 1863   0.643   2.374  15.913
   15DOPE  C211 1864   0.677   2.219  15.759
   15DOPE  H11R 1865   0.571   2.193  15.776
   15DOPE  H11S 1866   0.734   2.127  15.764
   15DOPE  C212 1867   0.699   2.252  15.614
   15DOPE  H12R 1868   0.640   2.341  15.597
   15DOPE  H12S 1869   0.655   2.169  15.554
   15DOPE  C213 1870   0.844   2.263  15.571
   15DOPE  H13R 1871   0.897   2.170  15.602
   15DOPE  H13S 1872   0.894   2.350  15.618
   15DOPE  C214 1873   0.857   2.267  15.421
   15DOPE  H14R 1874   0.866   2.373  15.389
   15DOPE  H14S 1875   0.770   2.220  15.375
   15DOPE  C215 1876   0.970   2.184  15.367
   15DOPE  H15R 1877   0.941   2.142  15.268
   15DOPE  H15S 1878   0.990   2.097  15.431
   15DOPE  C216 1879   1.092   2.271  15.355
   15DOPE  H16R 1880   1.139   2.281  15.455
   15DOPE  H16S 1881   1.064   2.374  15.322
   15DOPE  C217 1882   1.181   2.209  15.251
   15DOPE  H17R 1883   1.196   2.102  15.276
   15DOPE  H17S 1884   1.278   2.259  15.257
   15DOPE  C218 1885   1.124   2.225  15.110
   15DOPE  H18R 1886   1.067   2.133  15.082
   15DOPE  H18S 1887   1.203   2.243  15.036
   15DOPE  H18T 1888   1.055   2.312  15.105
   15DOPE   C33 1889   1.447   1.941  16.223
   15DOPE   H3X 1890   1.478   2.036  16.171
   15DOPE   H3Y 1891   1.341   1.952  16.253
   15DOPE   C34 1892   1.471   1.830  16.122
   15DOPE   H4X 1893   1.576   1.854  16.092
   15DOPE   H4Y 1894   1.466   1.729  16.169
   15DOPE   C35 1895   1.388   1.834  15.996
   15DOPE   H5X 1896   1.450   1.808  15.907
   15DOPE   H5Y 1897   1.358   1.940  15.984
   15DOPE   C36 1898   1.271   1.736  16.003
   15DOPE   H6X 1899   1.216   1.755  16.098
   15DOPE   H6Y 1900   1.309   1.631  16.006
   15DOPE   C37 1901   1.172   1.751  15.888
   15DOPE   H7X 1902   1.214   1.704  15.795
   15DOPE   H7Y 1903   1.078   1.696  15.913
   15DOPE   C38 1904   1.143   1.898  15.861
   15DOPE   H8X 1905   1.236   1.949  15.830
   15DOPE   H8Y 1906   1.110   1.947  15.956
   15DOPE   C39 1907   1.041   1.916  15.754
   15DOPE   H9X 1908   0.937   1.912  15.789
   15DOPE  C310 1909   1.066   1.929  15.624
   15DOPE  H10X 1910   0.981   1.943  15.555
   15DOPE  C311 1911   1.203   1.929  15.563
   15DOPE  H11X 1912   1.258   1.842  15.604
   15DOPE  H11Y 1913   1.196   1.913  15.453
   15DOPE  C312 1914   1.293   2.052  15.587
   15DOPE  H12X 1915   1.274   2.097  15.687
   15DOPE  H12Y 1916   1.270   2.130  15.512
   15DOPE  C313 1917   1.442   2.014  15.580
   15DOPE  H13X 1918   1.503   2.106  15.592
   15DOPE  H13Y 1919   1.464   1.947  15.666
   15DOPE  C314 1920   1.483   1.944  15.448
   15DOPE  H14X 1921   1.418   1.855  15.431
   15DOPE  H14Y 1922   1.587   1.905  15.462
   15DOPE  C315 1923   1.483   2.043  15.330
   15DOPE  H15X 1924   1.587   2.081  15.322
   15DOPE  H15Y 1925   1.420   2.129  15.359
   15DOPE  C316 1926   1.439   1.999  15.189
   15DOPE  H16X 1927   1.330   1.975  15.186
   15DOPE  H16Y 1928   1.495   1.909  15.159
   15DOPE  C317 1929   1.466   2.111  15.086
   15DOPE  H17X 1930   1.412   2.201  15.120
   15DOPE  H17Y 1931   1.574   2.135  15.092
   15DOPE  C318 1932   1.424   2.091  14.940
   15DOPE  H18X 1933   1.484   2.155  14.872
   15DOPE  H18Y 1934   1.439   1.986  14.912
   15DOPE  H18Z 1935   1.317   2.115  14.925
   16DOPE     N 1936   0.472   3.692  17.127
   16DOPE   HN1 1937   0.491   3.736  17.034
   16DOPE   HN2 1938   0.388   3.737  17.173
   16DOPE   HN3 1939   0.557   3.698  17.185
   16DOPE   C12 1940   0.452   3.547  17.097
   16DOPE  H12A 1941   0.361   3.534  17.036
   16DOPE  H12B 1942   0.442   3.491  17.192
   16DOPE   C11 1943   0.575   3.502  17.018
   16DOPE  H11A 1944   0.570   3.390  17.012
   16DOPE  H11B 1945   0.670   3.524  17.072
   16DOPE     P 1946   0.586   3.477  16.764
   16DOPE   O13 1947   0.695   3.378  16.781
   16DOPE   O14 1948   0.574   3.556  16.641
   16DOPE   O11 1949   0.446   3.407  16.792
   16DOPE   O12 1950   0.581   3.570  16.892
   16DOPE    C1 1951   0.412   3.276  16.747
   16DOPE    HA 1952   0.330   3.236  16.810
   16DOPE    HB 1953   0.498   3.205  16.755
   16DOPE    C2 1954   0.366   3.277  16.600
   16DOPE    HS 1955   0.307   3.184  16.586
   16DOPE   O21 1956   0.487   3.268  16.529
   16DOPE   C21 1957   0.474   3.255  16.402
   16DOPE   O22 1958   0.392   3.187  16.342
   16DOPE   C22 1959   0.585   3.327  16.339
   16DOPE   H2R 1960   0.630   3.401  16.409
   16DOPE   H2S 1961   0.547   3.380  16.250
   16DOPE    C3 1962   0.285   3.403  16.553
   16DOPE    HX 1963   0.350   3.493  16.563
   16DOPE    HY 1964   0.207   3.416  16.627
   16DOPE   O31 1965   0.227   3.398  16.419
   16DOPE   C31 1966   0.155   3.290  16.388
   16DOPE   O32 1967   0.126   3.199  16.463
   16DOPE   C32 1968   0.118   3.277  16.236
   16DOPE   H2X 1969   0.152   3.175  16.210
   16DOPE   H2Y 1970   0.007   3.278  16.234
   16DOPE   C23 1971   0.678   3.212  16.305
   16DOPE   H3R 1972   0.724   3.162  16.392
   16DOPE   H3S 1973   0.754   3.266  16.252
   16DOPE   C24 1974   0.619   3.118  16.200
   16DOPE   H4R 1975   0.540   3.180  16.152
   16DOPE   H4S 1976   0.567   3.031  16.246
   16DOPE   C25 1977   0.720   3.076  16.094
   16DOPE   H5R 1978   0.741   2.968  16.103
   16DOPE   H5S 1979   0.817   3.129  16.107
   16DOPE   C26 1980   0.675   3.112  15.952
   16DOPE   H6R 1981   0.733   3.049  15.881
   16DOPE   H6S 1982   0.703   3.216  15.931
   16DOPE   C27 1983   0.525   3.093  15.926
   16DOPE   H7R 1984   0.464   3.179  15.961
   16DOPE   H7S 1985   0.491   3.003  15.984
   16DOPE   C28 1986   0.499   3.061  15.779
   16DOPE   H8R 1987   0.393   3.028  15.770
   16DOPE   H8S 1988   0.565   2.974  15.765
   16DOPE   C29 1989   0.526   3.164  15.671
   16DOPE   H9R 1990   0.448   3.241  15.665
   16DOPE  C210 1991   0.630   3.177  15.585
   16DOPE  H10R 1992   0.620   3.253  15.508
   16DOPE  C211 1993   0.757   3.101  15.562
   16DOPE  H11R 1994   0.783   3.032  15.645
   16DOPE  H11S 1995   0.841   3.173  15.553
   16DOPE  C212 1996   0.750   3.029  15.425
   16DOPE  H12R 1997   0.676   2.948  15.418
   16DOPE  H12S 1998   0.849   2.980  15.417
   16DOPE  C213 1999   0.726   3.120  15.305
   16DOPE  H13R 2000   0.770   3.074  15.215
   16DOPE  H13S 2001   0.774   3.218  15.323
   16DOPE  C214 2002   0.582   3.135  15.255
   16DOPE  H14R 2003   0.581   3.230  15.197
   16DOPE  H14S 2004   0.508   3.144  15.337
   16DOPE  C215 2005   0.542   3.024  15.155
   16DOPE  H15R 2006   0.529   2.929  15.212
   16DOPE  H15S 2007   0.624   3.006  15.082
   16DOPE  C216 2008   0.414   3.060  15.080
   16DOPE  H16R 2009   0.342   3.098  15.157
   16DOPE  H16S 2010   0.366   2.970  15.038
   16DOPE  C217 2011   0.430   3.168  14.971
   16DOPE  H17R 2012   0.476   3.258  15.017
   16DOPE  H17S 2013   0.328   3.198  14.936
   16DOPE  C218 2014   0.511   3.130  14.846
   16DOPE  H18R 2015   0.533   3.222  14.787
   16DOPE  H18S 2016   0.454   3.063  14.779
   16DOPE  H18T 2017   0.607   3.083  14.873
   16DOPE   C33 2018   0.167   3.374  16.123
   16DOPE   H3X 2019   0.114   3.343  16.030
   16DOPE   H3Y 2020   0.274   3.358  16.101
   16DOPE   C34 2021   0.121   3.517  16.155
   16DOPE   H4X 2022   0.012   3.509  16.138
   16DOPE   H4Y 2023   0.141   3.537  16.262
   16DOPE   C35 2024   0.166   3.644  16.080
   16DOPE   H5X 2025   0.097   3.724  16.116
   16DOPE   H5Y 2026   0.146   3.631  15.972
   16DOPE   C36 2027   0.311   3.693  16.104
   16DOPE   H6X 2028   0.326   3.725  16.210
   16DOPE   H6Y 2029   0.327   3.782  16.039
   16DOPE   C37 2030   0.406   3.578  16.069
   16DOPE   H7X 2031   0.392   3.505  16.152
   16DOPE   H7Y 2032   0.361   3.539  15.975
   16DOPE   C38 2033   0.559   3.592  16.054
   16DOPE   H8X 2034   0.609   3.593  16.154
   16DOPE   H8Y 2035   0.592   3.681  15.998
   16DOPE   C39 2036   0.587   3.462  15.981
   16DOPE   H9X 2037   0.595   3.373  16.045
   16DOPE  C310 2038   0.606   3.448  15.849
   16DOPE  H10X 2039   0.610   3.347  15.808
   16DOPE  C311 2040   0.605   3.557  15.745
   16DOPE  H11X 2041   0.613   3.656  15.794
   16DOPE  H11Y 2042   0.700   3.543  15.690
   16DOPE  C312 2043   0.496   3.567  15.637
   16DOPE  H12X 2044   0.500   3.673  15.605
   16DOPE  H12Y 2045   0.395   3.550  15.677
   16DOPE  C313 2046   0.529   3.485  15.512
   16DOPE  H13X 2047   0.632   3.445  15.523
   16DOPE  H13Y 2048   0.458   3.401  15.499
   16DOPE  C314 2049   0.536   3.571  15.386
   16DOPE  H14X 2050   0.606   3.655  15.408
   16DOPE  H14Y 2051   0.435   3.614  15.364
   16DOPE  C315 2052   0.588   3.502  15.261
   16DOPE  H15X 2053   0.514   3.426  15.228
   16DOPE  H15Y 2054   0.685   3.451  15.281
   16DOPE  C316 2055   0.606   3.609  15.154
   16DOPE  H16X 2056   0.694   3.672  15.179
   16DOPE  H16Y 2057   0.515   3.673  15.156
   16DOPE  C317 2058   0.620   3.561  15.010
   16DOPE  H17X 2059   0.715   3.506  15.002
   16DOPE  H17Y 2060   0.536   3.493  14.984
   16DOPE  C318 2061   0.623   3.681  14.915
   16DOPE  H18X 2062   0.611   3.648  14.810
   16DOPE  H18Y 2063   0.540   3.750  14.939
   16DOPE  H18Z 2064   0.717   3.738  14.926
   17DOPE     N 2065   2.750   7.190  17.131
   17DOPE   HN1 2066   2.658   7.173  17.084
   17DOPE   HN2 2067   2.779   7.099  17.174
   17DOPE   HN3 2068   2.738   7.264  17.203
   17DOPE   C12 2069   2.847   7.227  17.022
   17DOPE  H12A 2070   2.947   7.187  17.048
   17DOPE  H12B 2071   2.853   7.337  17.013
   17DOPE   C11 2072   2.796   7.168  16.891
   17DOPE  H11A 2073   2.872   7.187  16.810
   17DOPE  H11B 2074   2.703   7.220  16.860
   17DOPE     P 2075   2.639   6.954  16.917
   17DOPE   O13 2076   2.658   6.818  16.970
   17DOPE   O14 2077   2.582   6.966  16.783
   17DOPE   O11 2078   2.547   7.033  17.024
   17DOPE   O12 2079   2.778   7.029  16.913
   17DOPE    C1 2080   2.419   6.969  17.050
   17DOPE    HA 2081   2.374   7.016  17.141
   17DOPE    HB 2082   2.428   6.861  17.076
   17DOPE    C2 2083   2.311   6.991  16.936
   17DOPE    HS 2084   2.211   6.967  16.979
   17DOPE   O21 2085   2.326   6.910  16.816
   17DOPE   C21 2086   2.331   6.777  16.832
   17DOPE   O22 2087   2.299   6.722  16.936
   17DOPE   C22 2088   2.380   6.704  16.703
   17DOPE   H2R 2089   2.324   6.610  16.694
   17DOPE   H2S 2090   2.485   6.675  16.723
   17DOPE    C3 2091   2.307   7.141  16.894
   17DOPE    HX 2092   2.290   7.201  16.984
   17DOPE    HY 2093   2.219   7.151  16.825
   17DOPE   O31 2094   2.429   7.183  16.832
   17DOPE   C31 2095   2.415   7.272  16.736
   17DOPE   O32 2096   2.321   7.349  16.728
   17DOPE   C32 2097   2.532   7.261  16.638
   17DOPE   H2X 2098   2.573   7.363  16.625
   17DOPE   H2Y 2099   2.610   7.196  16.681
   17DOPE   C23 2100   2.366   6.790  16.573
   17DOPE   H3R 2101   2.456   6.856  16.573
   17DOPE   H3S 2102   2.278   6.855  16.591
   17DOPE   C24 2103   2.343   6.738  16.426
   17DOPE   H4R 2104   2.428   6.766  16.360
   17DOPE   H4S 2105   2.264   6.806  16.396
   17DOPE   C25 2106   2.283   6.600  16.385
   17DOPE   H5R 2107   2.181   6.588  16.424
   17DOPE   H5S 2108   2.345   6.524  16.437
   17DOPE   C26 2109   2.288   6.562  16.231
   17DOPE   H6R 2110   2.261   6.454  16.222
   17DOPE   H6S 2111   2.394   6.572  16.202
   17DOPE   C27 2112   2.216   6.635  16.113
   17DOPE   H7R 2113   2.222   6.745  16.125
   17DOPE   H7S 2114   2.110   6.602  16.110
   17DOPE   C28 2115   2.283   6.609  15.974
   17DOPE   H8R 2116   2.305   6.501  15.972
   17DOPE   H8S 2117   2.381   6.661  15.978
   17DOPE   C29 2118   2.212   6.647  15.845
   17DOPE   H9R 2119   2.104   6.664  15.854
   17DOPE  C210 2120   2.269   6.655  15.722
   17DOPE  H10R 2121   2.209   6.685  15.635
   17DOPE  C211 2122   2.414   6.626  15.691
   17DOPE  H11R 2123   2.452   6.555  15.767
   17DOPE  H11S 2124   2.476   6.718  15.701
   17DOPE  C212 2125   2.446   6.559  15.556
   17DOPE  H12R 2126   2.381   6.470  15.540
   17DOPE  H12S 2127   2.551   6.522  15.562
   17DOPE  C213 2128   2.446   6.647  15.432
   17DOPE  H13R 2129   2.492   6.746  15.457
   17DOPE  H13S 2130   2.342   6.664  15.397
   17DOPE  C214 2131   2.532   6.582  15.323
   17DOPE  H14R 2132   2.494   6.480  15.299
   17DOPE  H14S 2133   2.636   6.571  15.362
   17DOPE  C215 2134   2.538   6.666  15.196
   17DOPE  H15R 2135   2.621   6.630  15.130
   17DOPE  H15S 2136   2.561   6.770  15.225
   17DOPE  C216 2137   2.408   6.663  15.117
   17DOPE  H16R 2138   2.320   6.669  15.183
   17DOPE  H16S 2139   2.403   6.566  15.064
   17DOPE  C217 2140   2.405   6.775  15.014
   17DOPE  H17R 2141   2.512   6.795  14.992
   17DOPE  H17S 2142   2.367   6.869  15.059
   17DOPE  C218 2143   2.335   6.741  14.882
   17DOPE  H18R 2144   2.341   6.633  14.859
   17DOPE  H18S 2145   2.382   6.797  14.798
   17DOPE  H18T 2146   2.228   6.768  14.882
   17DOPE   C33 2147   2.488   7.194  16.507
   17DOPE   H3X 2148   2.423   7.265  16.450
   17DOPE   H3Y 2149   2.431   7.102  16.530
   17DOPE   C34 2150   2.602   7.151  16.414
   17DOPE   H4X 2151   2.681   7.228  16.414
   17DOPE   H4Y 2152   2.647   7.057  16.452
   17DOPE   C35 2153   2.548   7.134  16.271
   17DOPE   H5X 2154   2.462   7.205  16.259
   17DOPE   H5Y 2155   2.508   7.032  16.259
   17DOPE   C36 2156   2.646   7.168  16.159
   17DOPE   H6X 2157   2.721   7.087  16.149
   17DOPE   H6Y 2158   2.704   7.259  16.183
   17DOPE   C37 2159   2.569   7.192  16.028
   17DOPE   H7X 2160   2.486   7.264  16.050
   17DOPE   H7Y 2161   2.635   7.241  15.953
   17DOPE   C38 2162   2.507   7.065  15.968
   17DOPE   H8X 2163   2.445   7.094  15.881
   17DOPE   H8Y 2164   2.438   7.018  16.042
   17DOPE   C39 2165   2.617   6.969  15.931
   17DOPE   H9X 2166   2.672   6.925  16.016
   17DOPE  C310 2167   2.655   6.934  15.807
   17DOPE  H10X 2168   2.743   6.868  15.797
   17DOPE  C311 2169   2.596   6.982  15.678
   17DOPE  H11X 2170   2.526   6.906  15.638
   17DOPE  H11Y 2171   2.539   7.077  15.688
   17DOPE  C312 2172   2.706   7.003  15.573
   17DOPE  H12X 2173   2.781   6.921  15.579
   17DOPE  H12Y 2174   2.759   7.098  15.595
   17DOPE  C313 2175   2.651   7.005  15.430
   17DOPE  H13X 2176   2.722   6.949  15.367
   17DOPE  H13Y 2177   2.553   6.952  15.423
   17DOPE  C314 2178   2.637   7.147  15.374
   17DOPE  H14X 2179   2.704   7.216  15.431
   17DOPE  H14Y 2180   2.533   7.183  15.386
   17DOPE  C315 2181   2.685   7.151  15.229
   17DOPE  H15X 2182   2.794   7.132  15.228
   17DOPE  H15Y 2183   2.670   7.252  15.184
   17DOPE  C316 2184   2.621   7.051  15.134
   17DOPE  H16X 2185   2.510   7.049  15.145
   17DOPE  H16Y 2186   2.659   6.949  15.154
   17DOPE  C317 2187   2.662   7.095  14.993
   17DOPE  H17X 2188   2.616   7.195  14.974
   17DOPE  H17Y 2189   2.772   7.108  14.992
   17DOPE  C318 2190   2.622   7.000  14.883
   17DOPE  H18X 2191   2.677   6.904  14.895
   17DOPE  H18Y 2192   2.513   6.979  14.888
   17DOPE  H18Z 2193   2.643   7.043  14.783
   18DOPE     N 2194   7.525   3.092  17.087
   18DOPE   HN1 2195   7.475   3.176  17.123
   18DOPE   HN2 2196   7.560   3.033  17.165
   18DOPE   HN3 2197   7.608   3.127  17.032
   18DOPE   C12 2198   7.426   3.017  17.003
   18DOPE  H12A 2199   7.360   2.962  17.073
   18DOPE  H12B 2200   7.481   2.946  16.938
   18DOPE   C11 2201   7.341   3.113  16.919
   18DOPE  H11A 2202   7.238   3.071  16.904
   18DOPE  H11B 2203   7.389   3.116  16.818
   18DOPE     P 2204   7.323   3.364  16.880
   18DOPE   O13 2205   7.312   3.486  16.963
   18DOPE   O14 2206   7.218   3.330  16.781
   18DOPE   O11 2207   7.466   3.347  16.823
   18DOPE   O12 2208   7.331   3.241  16.981
   18DOPE    C1 2209   7.584   3.380  16.892
   18DOPE    HA 2210   7.596   3.323  16.986
   18DOPE    HB 2211   7.588   3.488  16.918
   18DOPE    C2 2212   7.694   3.345  16.791
   18DOPE    HS 2213   7.794   3.370  16.835
   18DOPE   O21 2214   7.672   3.421  16.671
   18DOPE   C21 2215   7.694   3.551  16.685
   18DOPE   O22 2216   7.747   3.604  16.781
   18DOPE   C22 2217   7.663   3.626  16.558
   18DOPE   H2R 2218   7.752   3.617  16.491
   18DOPE   H2S 2219   7.653   3.733  16.587
   18DOPE    C3 2220   7.696   3.190  16.759
   18DOPE    HX 2221   7.680   3.138  16.855
   18DOPE    HY 2222   7.796   3.164  16.719
   18DOPE   O31 2223   7.593   3.150  16.668
   18DOPE   C31 2224   7.588   3.024  16.630
   18DOPE   O32 2225   7.651   2.932  16.681
   18DOPE   C32 2226   7.472   3.009  16.531
   18DOPE   H2X 2227   7.389   2.962  16.588
   18DOPE   H2Y 2228   7.438   3.111  16.500
   18DOPE   C23 2229   7.534   3.576  16.492
   18DOPE   H3R 2230   7.467   3.663  16.486
   18DOPE   H3S 2231   7.478   3.501  16.551
   18DOPE   C24 2232   7.558   3.527  16.350
   18DOPE   H4R 2233   7.640   3.453  16.350
   18DOPE   H4S 2234   7.593   3.617  16.295
   18DOPE   C25 2235   7.433   3.471  16.281
   18DOPE   H5R 2236   7.346   3.512  16.336
   18DOPE   H5S 2237   7.427   3.360  16.291
   18DOPE   C26 2238   7.427   3.519  16.134
   18DOPE   H6R 2239   7.469   3.442  16.065
   18DOPE   H6S 2240   7.492   3.609  16.125
   18DOPE   C27 2241   7.288   3.568  16.092
   18DOPE   H7R 2242   7.263   3.655  16.157
   18DOPE   H7S 2243   7.216   3.487  16.112
   18DOPE   C28 2244   7.273   3.612  15.944
   18DOPE   H8R 2245   7.170   3.651  15.932
   18DOPE   H8S 2246   7.276   3.519  15.883
   18DOPE   C29 2247   7.369   3.715  15.891
   18DOPE   H9R 2248   7.349   3.819  15.922
   18DOPE  C210 2249   7.468   3.691  15.804
   18DOPE  H10R 2250   7.533   3.774  15.772
   18DOPE  C211 2251   7.501   3.557  15.744
   18DOPE  H11R 2252   7.498   3.478  15.823
   18DOPE  H11S 2253   7.606   3.558  15.707
   18DOPE  C212 2254   7.408   3.512  15.629
   18DOPE  H12R 2255   7.312   3.475  15.671
   18DOPE  H12S 2256   7.455   3.426  15.578
   18DOPE  C213 2257   7.377   3.619  15.523
   18DOPE  H13R 2258   7.319   3.700  15.571
   18DOPE  H13S 2259   7.312   3.574  15.445
   18DOPE  C214 2260   7.503   3.673  15.452
   18DOPE  H14R 2261   7.584   3.689  15.526
   18DOPE  H14S 2262   7.482   3.771  15.404
   18DOPE  C215 2263   7.548   3.575  15.343
   18DOPE  H15R 2264   7.469   3.569  15.265
   18DOPE  H15S 2265   7.557   3.475  15.390
   18DOPE  C216 2266   7.682   3.609  15.277
   18DOPE  H16R 2267   7.755   3.638  15.356
   18DOPE  H16S 2268   7.670   3.695  15.208
   18DOPE  C217 2269   7.737   3.489  15.200
   18DOPE  H17R 2270   7.736   3.399  15.267
   18DOPE  H17S 2271   7.844   3.510  15.175
   18DOPE  C218 2272   7.661   3.457  15.072
   18DOPE  H18R 2273   7.637   3.549  15.015
   18DOPE  H18S 2274   7.566   3.404  15.092
   18DOPE  H18T 2275   7.721   3.391  15.007
   18DOPE   C33 2276   7.504   2.924  16.406
   18DOPE   H3X 2277   7.408   2.880  16.370
   18DOPE   H3Y 2278   7.572   2.839  16.431
   18DOPE   C34 2279   7.562   3.008  16.291
   18DOPE   H4X 2280   7.492   3.092  16.269
   18DOPE   H4Y 2281   7.658   3.053  16.325
   18DOPE   C35 2282   7.588   2.930  16.161
   18DOPE   H5X 2283   7.497   2.875  16.132
   18DOPE   H5Y 2284   7.668   2.854  16.180
   18DOPE   C36 2285   7.631   3.022  16.045
   18DOPE   H6X 2286   7.729   3.066  16.072
   18DOPE   H6Y 2287   7.558   3.105  16.034
   18DOPE   C37 2288   7.648   2.952  15.909
   18DOPE   H7X 2289   7.699   2.854  15.927
   18DOPE   H7Y 2290   7.549   2.931  15.864
   18DOPE   C38 2291   7.737   3.032  15.810
   18DOPE   H8X 2292   7.764   2.963  15.727
   18DOPE   H8Y 2293   7.833   3.056  15.861
   18DOPE   C39 2294   7.675   3.158  15.755
   18DOPE   H9X 2295   7.692   3.249  15.815
   18DOPE  C310 2296   7.603   3.169  15.642
   18DOPE  H10X 2297   7.568   3.268  15.611
   18DOPE  C311 2298   7.568   3.058  15.546
   18DOPE  H11X 2299   7.624   3.070  15.451
   18DOPE  H11Y 2300   7.597   2.959  15.589
   18DOPE  C312 2301   7.417   3.047  15.514
   18DOPE  H12X 2302   7.360   3.049  15.609
   18DOPE  H12Y 2303   7.397   2.949  15.465
   18DOPE  C313 2304   7.362   3.157  15.422
   18DOPE  H13X 2305   7.251   3.153  15.428
   18DOPE  H13Y 2306   7.394   3.257  15.460
   18DOPE  C314 2307   7.400   3.146  15.274
   18DOPE  H14X 2308   7.349   3.058  15.227
   18DOPE  H14Y 2309   7.510   3.129  15.266
   18DOPE  C315 2310   7.367   3.274  15.197
   18DOPE  H15X 2311   7.390   3.265  15.089
   18DOPE  H15Y 2312   7.431   3.354  15.240
   18DOPE  C316 2313   7.223   3.324  15.212
   18DOPE  H16X 2314   7.208   3.334  15.321
   18DOPE  H16Y 2315   7.149   3.251  15.173
   18DOPE  C317 2316   7.201   3.465  15.157
   18DOPE  H17X 2317   7.298   3.518  15.158
   18DOPE  H17Y 2318   7.167   3.458  15.051
   18DOPE  C318 2319   7.101   3.547  15.241
   18DOPE  H18X 2320   7.002   3.498  15.243
   18DOPE  H18Y 2321   7.135   3.557  15.346
   18DOPE  H18Z 2322   7.090   3.649  15.198
   19DOPE     N 2323   7.516   4.272  17.131
   19DOPE   HN1 2324   7.435   4.206  17.132
   19DOPE   HN2 2325   7.592   4.241  17.197
   19DOPE   HN3 2326   7.483   4.367  17.158
   19DOPE   C12 2327   7.564   4.268  16.988
   19DOPE  H12A 2328   7.631   4.180  16.980
   19DOPE  H12B 2329   7.620   4.361  16.968
   19DOPE   C11 2330   7.447   4.253  16.887
   19DOPE  H11A 2331   7.490   4.252  16.783
   19DOPE  H11B 2332   7.383   4.344  16.892
   19DOPE     P 2333   7.402   3.998  16.844
   19DOPE   O13 2334   7.385   3.894  16.949
   19DOPE   O14 2335   7.538   4.013  16.787
   19DOPE   O11 2336   7.291   3.998  16.729
   19DOPE   O12 2337   7.367   4.137  16.913
   19DOPE    C1 2338   7.152   4.004  16.768
   19DOPE    HA 2339   7.131   4.090  16.834
   19DOPE    HB 2340   7.128   3.911  16.824
   19DOPE    C2 2341   7.045   4.003  16.652
   19DOPE    HS 2342   6.961   3.936  16.683
   19DOPE   O21 2343   7.095   3.955  16.527
   19DOPE   C21 2344   7.165   3.845  16.526
   19DOPE   O22 2345   7.194   3.770  16.616
   19DOPE   C22 2346   7.207   3.827  16.382
   19DOPE   H2R 2347   7.152   3.894  16.313
   19DOPE   H2S 2348   7.185   3.722  16.355
   19DOPE    C3 2349   6.979   4.142  16.625
   19DOPE    HX 2350   6.933   4.177  16.720
   19DOPE    HY 2351   6.897   4.133  16.550
   19DOPE   O31 2352   7.076   4.239  16.585
   19DOPE   C31 2353   7.101   4.248  16.456
   19DOPE   O32 2354   7.030   4.209  16.364
   19DOPE   C32 2355   7.240   4.309  16.442
   19DOPE   H2X 2356   7.234   4.411  16.484
   19DOPE   H2Y 2357   7.309   4.250  16.506
   19DOPE   C23 2358   7.358   3.850  16.376
   19DOPE   H3R 2359   7.400   3.765  16.317
   19DOPE   H3S 2360   7.404   3.850  16.478
   19DOPE   C24 2361   7.408   3.977  16.314
   19DOPE   H4R 2362   7.395   4.063  16.383
   19DOPE   H4S 2363   7.354   3.999  16.219
   19DOPE   C25 2364   7.556   3.950  16.289
   19DOPE   H5R 2365   7.564   3.874  16.208
   19DOPE   H5S 2366   7.602   3.906  16.380
   19DOPE   C26 2367   7.634   4.073  16.247
   19DOPE   H6R 2368   7.738   4.038  16.229
   19DOPE   H6S 2369   7.639   4.148  16.330
   19DOPE   C27 2370   7.571   4.136  16.122
   19DOPE   H7R 2371   7.475   4.185  16.150
   19DOPE   H7S 2372   7.545   4.053  16.052
   19DOPE   C28 2373   7.660   4.238  16.052
   19DOPE   H8R 2374   7.673   4.325  16.120
   19DOPE   H8S 2375   7.609   4.276  15.961
   19DOPE   C29 2376   7.792   4.172  16.021
   19DOPE   H9R 2377   7.875   4.195  16.090
   19DOPE  C210 2378   7.813   4.087  15.919
   19DOPE  H10R 2379   7.913   4.043  15.905
   19DOPE  C211 2380   7.708   4.043  15.819
   19DOPE  H11R 2381   7.605   4.076  15.846
   19DOPE  H11S 2382   7.707   3.932  15.812
   19DOPE  C212 2383   7.743   4.104  15.683
   19DOPE  H12R 2384   7.671   4.065  15.608
   19DOPE  H12S 2385   7.843   4.068  15.652
   19DOPE  C213 2386   7.744   4.259  15.682
   19DOPE  H13R 2387   7.838   4.294  15.637
   19DOPE  H13S 2388   7.744   4.300  15.785
   19DOPE  C214 2389   7.629   4.327  15.606
   19DOPE  H14R 2390   7.651   4.435  15.596
   19DOPE  H14S 2391   7.541   4.315  15.672
   19DOPE  C215 2392   7.595   4.267  15.469
   19DOPE  H15R 2393   7.539   4.173  15.486
   19DOPE  H15S 2394   7.689   4.242  15.414
   19DOPE  C216 2395   7.508   4.360  15.383
   19DOPE  H16R 2396   7.570   4.438  15.336
   19DOPE  H16S 2397   7.433   4.410  15.448
   19DOPE  C217 2398   7.427   4.283  15.278
   19DOPE  H17R 2399   7.374   4.204  15.336
   19DOPE  H17S 2400   7.496   4.233  15.207
   19DOPE  C218 2401   7.320   4.363  15.204
   19DOPE  H18R 2402   7.255   4.416  15.277
   19DOPE  H18S 2403   7.255   4.294  15.145
   19DOPE  H18T 2404   7.365   4.436  15.134
   19DOPE   C33 2405   7.294   4.310  16.298
   19DOPE   H3X 2406   7.286   4.210  16.250
   19DOPE   H3Y 2407   7.402   4.339  16.303
   19DOPE   C34 2408   7.222   4.413  16.212
   19DOPE   H4X 2409   7.123   4.375  16.180
   19DOPE   H4Y 2410   7.202   4.495  16.283
   19DOPE   C35 2411   7.304   4.463  16.092
   19DOPE   H5X 2412   7.411   4.472  16.118
   19DOPE   H5Y 2413   7.269   4.565  16.064
   19DOPE   C36 2414   7.285   4.377  15.968
   19DOPE   H6X 2415   7.175   4.369  15.951
   19DOPE   H6Y 2416   7.325   4.275  15.984
   19DOPE   C37 2417   7.350   4.444  15.848
   19DOPE   H7X 2418   7.325   4.551  15.852
   19DOPE   H7Y 2419   7.460   4.436  15.859
   19DOPE   C38 2420   7.307   4.393  15.710
   19DOPE   H8X 2421   7.321   4.283  15.709
   19DOPE   H8Y 2422   7.379   4.437  15.638
   19DOPE   C39 2423   7.170   4.435  15.664
   19DOPE   H9X 2424   7.168   4.522  15.598
   19DOPE  C310 2425   7.056   4.368  15.687
   19DOPE  H10X 2426   6.961   4.410  15.651
   19DOPE  C311 2427   7.048   4.239  15.763
   19DOPE  H11X 2428   7.145   4.210  15.809
   19DOPE  H11Y 2429   6.975   4.248  15.846
   19DOPE  C312 2430   7.008   4.123  15.670
   19DOPE  H12X 2431   6.902   4.138  15.642
   19DOPE  H12Y 2432   7.013   4.028  15.726
   19DOPE  C313 2433   7.088   4.111  15.539
   19DOPE  H13X 2434   7.037   4.035  15.476
   19DOPE  H13Y 2435   7.087   4.206  15.482
   19DOPE  C314 2436   7.233   4.066  15.564
   19DOPE  H14X 2437   7.243   4.037  15.671
   19DOPE  H14Y 2438   7.304   4.149  15.545
   19DOPE  C315 2439   7.272   3.944  15.480
   19DOPE  H15X 2440   7.193   3.866  15.494
   19DOPE  H15Y 2441   7.368   3.904  15.520
   19DOPE  C316 2442   7.290   3.971  15.331
   19DOPE  H16X 2443   7.396   4.001  15.315
   19DOPE  H16Y 2444   7.225   4.054  15.297
   19DOPE  C317 2445   7.262   3.850  15.242
   19DOPE  H17X 2446   7.274   3.756  15.301
   19DOPE  H17Y 2447   7.157   3.854  15.207
   19DOPE  C318 2448   7.359   3.847  15.123
   19DOPE  H18X 2449   7.335   3.931  15.054
   19DOPE  H18Y 2450   7.463   3.861  15.159
   19DOPE  H18Z 2451   7.353   3.751  15.068
   20DOPE     N 2452   6.284   6.940  16.978
   20DOPE   HN1 2453   6.370   6.993  17.006
   20DOPE   HN2 2454   6.301   6.868  16.904
   20DOPE   HN3 2455   6.214   7.002  16.934
   20DOPE   C12 2456   6.218   6.865  17.089
   20DOPE  H12A 2457   6.131   6.922  17.125
   20DOPE  H12B 2458   6.291   6.850  17.172
   20DOPE   C11 2459   6.172   6.733  17.028
   20DOPE  H11A 2460   6.109   6.680  17.104
   20DOPE  H11B 2461   6.262   6.670  17.005
   20DOPE     P 2462   6.039   6.631  16.833
   20DOPE   O13 2463   5.981   6.541  16.937
   20DOPE   O14 2464   6.150   6.581  16.750
   20DOPE   O11 2465   5.924   6.699  16.749
   20DOPE   O12 2466   6.098   6.760  16.909
   20DOPE    C1 2467   5.804   6.739  16.816
   20DOPE    HA 2468   5.823   6.794  16.912
   20DOPE    HB 2469   5.745   6.648  16.842
   20DOPE    C2 2470   5.716   6.832  16.726
   20DOPE    HS 2471   5.614   6.832  16.770
   20DOPE   O21 2472   5.714   6.782  16.590
   20DOPE   C21 2473   5.652   6.665  16.583
   20DOPE   O22 2474   5.569   6.625  16.664
   20DOPE   C22 2475   5.696   6.590  16.459
   20DOPE   H2R 2476   5.682   6.482  16.481
   20DOPE   H2S 2477   5.804   6.607  16.441
   20DOPE    C3 2478   5.764   6.981  16.726
   20DOPE    HX 2479   5.758   7.015  16.831
   20DOPE    HY 2480   5.691   7.038  16.664
   20DOPE   O31 2481   5.899   6.997  16.679
   20DOPE   C31 2482   5.937   7.107  16.620
   20DOPE   O32 2483   5.874   7.211  16.609
   20DOPE   C32 2484   6.083   7.090  16.579
   20DOPE   H2X 2485   6.122   7.191  16.554
   20DOPE   H2Y 2486   6.139   7.051  16.666
   20DOPE   C23 2487   5.610   6.628  16.336
   20DOPE   H3R 2488   5.504   6.602  16.359
   20DOPE   H3S 2489   5.644   6.564  16.252
   20DOPE   C24 2490   5.612   6.774  16.291
   20DOPE   H4R 2491   5.578   6.841  16.372
   20DOPE   H4S 2492   5.541   6.787  16.206
   20DOPE   C25 2493   5.745   6.827  16.239
   20DOPE   H5R 2494   5.794   6.749  16.176
   20DOPE   H5S 2495   5.812   6.849  16.325
   20DOPE   C26 2496   5.721   6.954  16.156
   20DOPE   H6R 2497   5.629   7.003  16.196
   20DOPE   H6S 2498   5.700   6.925  16.051
   20DOPE   C27 2499   5.834   7.057  16.165
   20DOPE   H7R 2500   5.929   7.001  16.180
   20DOPE   H7S 2501   5.819   7.122  16.253
   20DOPE   C28 2502   5.853   7.140  16.037
   20DOPE   H8R 2503   5.861   7.067  15.953
   20DOPE   H8S 2504   5.953   7.186  16.047
   20DOPE   C29 2505   5.754   7.251  16.010
   20DOPE   H9R 2506   5.731   7.315  16.097
   20DOPE  C210 2507   5.689   7.273  15.894
   20DOPE  H10R 2508   5.615   7.355  15.888
   20DOPE  C211 2509   5.704   7.191  15.769
   20DOPE  H11R 2510   5.617   7.123  15.768
   20DOPE  H11S 2511   5.795   7.128  15.773
   20DOPE  C212 2512   5.711   7.264  15.632
   20DOPE  H12R 2513   5.815   7.302  15.620
   20DOPE  H12S 2514   5.642   7.351  15.629
   20DOPE  C213 2515   5.680   7.171  15.513
   20DOPE  H13R 2516   5.753   7.190  15.432
   20DOPE  H13S 2517   5.581   7.197  15.469
   20DOPE  C214 2518   5.677   7.021  15.548
   20DOPE  H14R 2519   5.582   6.997  15.599
   20DOPE  H14S 2520   5.761   6.993  15.616
   20DOPE  C215 2521   5.688   6.932  15.427
   20DOPE  H15R 2522   5.618   6.972  15.350
   20DOPE  H15S 2523   5.652   6.830  15.449
   20DOPE  C216 2524   5.833   6.926  15.379
   20DOPE  H16R 2525   5.890   6.845  15.429
   20DOPE  H16S 2526   5.886   7.021  15.404
   20DOPE  C217 2527   5.839   6.910  15.229
   20DOPE  H17R 2528   5.789   6.814  15.199
   20DOPE  H17S 2529   5.945   6.903  15.199
   20DOPE  C218 2530   5.772   7.027  15.158
   20DOPE  H18R 2531   5.780   7.120  15.219
   20DOPE  H18S 2532   5.665   7.003  15.146
   20DOPE  H18T 2533   5.817   7.049  15.060
   20DOPE   C33 2534   6.101   6.995  16.459
   20DOPE   H3X 2535   6.198   7.020  16.410
   20DOPE   H3Y 2536   6.021   7.010  16.383
   20DOPE   C34 2537   6.107   6.847  16.500
   20DOPE   H4X 2538   6.171   6.836  16.590
   20DOPE   H4Y 2539   6.006   6.809  16.527
   20DOPE   C35 2540   6.169   6.759  16.390
   20DOPE   H5X 2541   6.191   6.658  16.433
   20DOPE   H5Y 2542   6.264   6.803  16.355
   20DOPE   C36 2543   6.074   6.743  16.271
   20DOPE   H6X 2544   6.064   6.843  16.223
   20DOPE   H6Y 2545   5.975   6.713  16.312
   20DOPE   C37 2546   6.118   6.638  16.169
   20DOPE   H7X 2547   6.213   6.668  16.121
   20DOPE   H7Y 2548   6.137   6.544  16.226
   20DOPE   C38 2549   6.010   6.609  16.063
   20DOPE   H8X 2550   5.918   6.576  16.115
   20DOPE   H8Y 2551   6.044   6.522  16.002
   20DOPE   C39 2552   5.981   6.731  15.978
   20DOPE   H9X 2553   5.962   6.823  16.035
   20DOPE  C310 2554   5.972   6.737  15.844
   20DOPE  H10X 2555   5.946   6.833  15.797
   20DOPE  C311 2556   5.990   6.621  15.750
   20DOPE  H11X 2557   6.041   6.653  15.657
   20DOPE  H11Y 2558   6.052   6.540  15.794
   20DOPE  C312 2559   5.853   6.560  15.715
   20DOPE  H12X 2560   5.796   6.531  15.807
   20DOPE  H12Y 2561   5.872   6.466  15.659
   20DOPE  C313 2562   5.766   6.651  15.628
   20DOPE  H13X 2563   5.685   6.697  15.689
   20DOPE  H13Y 2564   5.828   6.735  15.589
   20DOPE  C314 2565   5.707   6.574  15.509
   20DOPE  H14X 2566   5.623   6.630  15.463
   20DOPE  H14Y 2567   5.665   6.478  15.547
   20DOPE  C315 2568   5.814   6.545  15.403
   20DOPE  H15X 2569   5.878   6.462  15.440
   20DOPE  H15Y 2570   5.880   6.633  15.391
   20DOPE  C316 2571   5.757   6.510  15.265
   20DOPE  H16X 2572   5.840   6.482  15.197
   20DOPE  H16Y 2573   5.708   6.601  15.222
   20DOPE  C317 2574   5.654   6.397  15.269
   20DOPE  H17X 2575   5.695   6.310  15.323
   20DOPE  H17Y 2576   5.565   6.433  15.325
   20DOPE  C318 2577   5.611   6.351  15.129
   20DOPE  H18X 2578   5.576   6.439  15.071
   20DOPE  H18Y 2579   5.696   6.305  15.075
   20DOPE  H18Z 2580   5.529   6.277  15.136
   21DOPE     N 2581   3.360   7.415  16.795
   21DOPE   HN1 2582   3.301   7.479  16.736
   21DOPE   HN2 2583   3.424   7.354  16.741
   21DOPE   HN3 2584   3.289   7.356  16.844
   21DOPE   C12 2585   3.428   7.494  16.903
   21DOPE  H12A 2586   3.468   7.587  16.858
   21DOPE  H12B 2587   3.511   7.432  16.943
   21DOPE   C11 2588   3.328   7.524  17.016
   21DOPE  H11A 2589   3.382   7.585  17.092
   21DOPE  H11B 2590   3.298   7.430  17.068
   21DOPE     P 2591   3.076   7.537  16.929
   21DOPE   O13 2592   2.986   7.536  17.047
   21DOPE   O14 2593   3.102   7.408  16.861
   21DOPE   O11 2594   3.030   7.640  16.820
   21DOPE   O12 2595   3.216   7.598  16.969
   21DOPE    C1 2596   3.115   7.667  16.708
   21DOPE    HA 2597   3.171   7.577  16.674
   21DOPE    HB 2598   3.188   7.747  16.737
   21DOPE    C2 2599   3.037   7.719  16.584
   21DOPE    HS 2600   2.962   7.792  16.623
   21DOPE   O21 2601   2.974   7.612  16.513
   21DOPE   C21 2602   2.859   7.570  16.562
   21DOPE   O22 2603   2.802   7.614  16.660
   21DOPE   C22 2604   2.794   7.474  16.461
   21DOPE   H2R 2605   2.790   7.378  16.517
   21DOPE   H2S 2606   2.860   7.458  16.374
   21DOPE    C3 2607   3.123   7.799  16.481
   21DOPE    HX 2608   3.184   7.875  16.533
   21DOPE    HY 2609   3.052   7.854  16.417
   21DOPE   O31 2610   3.203   7.715  16.394
   21DOPE   C31 2611   3.315   7.670  16.446
   21DOPE   O32 2612   3.358   7.697  16.557
   21DOPE   C32 2613   3.384   7.571  16.354
   21DOPE   H2X 2614   3.492   7.577  16.382
   21DOPE   H2Y 2615   3.350   7.468  16.378
   21DOPE   C23 2616   2.647   7.510  16.420
   21DOPE   H3R 2617   2.598   7.568  16.502
   21DOPE   H3S 2618   2.592   7.414  16.414
   21DOPE   C24 2619   2.611   7.575  16.284
   21DOPE   H4R 2620   2.618   7.684  16.293
   21DOPE   H4S 2621   2.501   7.558  16.270
   21DOPE   C25 2622   2.679   7.522  16.157
   21DOPE   H5R 2623   2.609   7.448  16.111
   21DOPE   H5S 2624   2.772   7.467  16.182
   21DOPE   C26 2625   2.716   7.627  16.050
   21DOPE   H6R 2626   2.800   7.688  16.087
   21DOPE   H6S 2627   2.629   7.695  16.034
   21DOPE   C27 2628   2.759   7.571  15.913
   21DOPE   H7R 2629   2.756   7.652  15.837
   21DOPE   H7S 2630   2.684   7.494  15.882
   21DOPE   C28 2631   2.899   7.508  15.910
   21DOPE   H8R 2632   2.910   7.458  15.811
   21DOPE   H8S 2633   2.902   7.426  15.985
   21DOPE   C29 2634   3.016   7.601  15.933
   21DOPE   H9R 2635   3.031   7.627  16.039
   21DOPE  C210 2636   3.096   7.660  15.842
   21DOPE  H10R 2637   3.173   7.730  15.878
   21DOPE  C211 2638   3.089   7.648  15.690
   21DOPE  H11R 2639   3.021   7.565  15.659
   21DOPE  H11S 2640   3.189   7.625  15.647
   21DOPE  C212 2641   3.035   7.786  15.641
   21DOPE  H12R 2642   3.117   7.861  15.642
   21DOPE  H12S 2643   2.962   7.814  15.719
   21DOPE  C213 2644   2.944   7.802  15.516
   21DOPE  H13R 2645   2.998   7.847  15.431
   21DOPE  H13S 2646   2.865   7.876  15.541
   21DOPE  C214 2647   2.865   7.680  15.477
   21DOPE  H14R 2648   2.796   7.660  15.562
   21DOPE  H14S 2649   2.934   7.593  15.468
   21DOPE  C215 2650   2.784   7.688  15.347
   21DOPE  H15R 2651   2.854   7.680  15.261
   21DOPE  H15S 2652   2.726   7.782  15.336
   21DOPE  C216 2653   2.690   7.567  15.355
   21DOPE  H16R 2654   2.619   7.581  15.439
   21DOPE  H16S 2655   2.758   7.483  15.384
   21DOPE  C217 2656   2.617   7.521  15.230
   21DOPE  H17R 2657   2.597   7.414  15.252
   21DOPE  H17S 2658   2.683   7.525  15.141
   21DOPE  C218 2659   2.478   7.578  15.202
   21DOPE  H18R 2660   2.416   7.578  15.295
   21DOPE  H18S 2661   2.427   7.514  15.127
   21DOPE  H18T 2662   2.482   7.682  15.163
   21DOPE   C33 2663   3.372   7.598  16.203
   21DOPE   H3X 2664   3.369   7.707  16.183
   21DOPE   H3Y 2665   3.278   7.556  16.162
   21DOPE   C34 2666   3.496   7.540  16.134
   21DOPE   H4X 2667   3.503   7.575  16.028
   21DOPE   H4Y 2668   3.584   7.580  16.188
   21DOPE   C35 2669   3.507   7.388  16.137
   21DOPE   H5X 2670   3.523   7.356  16.241
   21DOPE   H5Y 2671   3.594   7.354  16.076
   21DOPE   C36 2672   3.380   7.321  16.086
   21DOPE   H6X 2673   3.296   7.343  16.156
   21DOPE   H6Y 2674   3.394   7.211  16.086
   21DOPE   C37 2675   3.342   7.372  15.946
   21DOPE   H7X 2676   3.342   7.483  15.942
   21DOPE   H7Y 2677   3.417   7.337  15.872
   21DOPE   C38 2678   3.200   7.332  15.908
   21DOPE   H8X 2679   3.173   7.387  15.815
   21DOPE   H8Y 2680   3.131   7.365  15.989
   21DOPE   C39 2681   3.192   7.183  15.892
   21DOPE   H9X 2682   3.253   7.124  15.961
   21DOPE  C310 2683   3.119   7.122  15.799
   21DOPE  H10X 2684   3.125   7.013  15.791
   21DOPE  C311 2685   3.033   7.190  15.697
   21DOPE  H11X 2686   2.934   7.139  15.695
   21DOPE  H11Y 2687   3.013   7.297  15.719
   21DOPE  C312 2688   3.099   7.182  15.560
   21DOPE  H12X 2689   3.138   7.079  15.541
   21DOPE  H12Y 2690   3.186   7.252  15.555
   21DOPE  C313 2691   3.000   7.214  15.450
   21DOPE  H13X 2692   2.918   7.138  15.454
   21DOPE  H13Y 2693   2.952   7.313  15.467
   21DOPE  C314 2694   3.065   7.205  15.313
   21DOPE  H14X 2695   2.984   7.209  15.237
   21DOPE  H14Y 2696   3.119   7.108  15.307
   21DOPE  C315 2697   3.162   7.315  15.276
   21DOPE  H15X 2698   3.192   7.303  15.169
   21DOPE  H15Y 2699   3.255   7.308  15.337
   21DOPE  C316 2700   3.095   7.449  15.299
   21DOPE  H16X 2701   3.094   7.465  15.410
   21DOPE  H16Y 2702   2.990   7.449  15.263
   21DOPE  C317 2703   3.172   7.562  15.236
   21DOPE  H17X 2704   3.278   7.528  15.228
   21DOPE  H17Y 2705   3.132   7.581  15.133
   21DOPE  C318 2706   3.168   7.691  15.317
   21DOPE  H18X 2707   3.078   7.748  15.285
   21DOPE  H18Y 2708   3.163   7.669  15.425
   21DOPE  H18Z 2709   3.256   7.755  15.301
   22DOPE     N 2710   7.364   4.773  16.898
   22DOPE   HN1 2711   7.275   4.751  16.850
   22DOPE   HN2 2712   7.422   4.837  16.840
   22DOPE   HN3 2713   7.427   4.690  16.914
   22DOPE   C12 2714   7.367   4.855  17.024
   22DOPE  H12A 2715   7.367   4.785  17.110
   22DOPE  H12B 2716   7.276   4.918  17.030
   22DOPE   C11 2717   7.494   4.944  17.019
   22DOPE  H11A 2718   7.548   4.938  17.117
   22DOPE  H11B 2719   7.461   5.050  17.009
   22DOPE     P 2720   7.679   4.790  16.920
   22DOPE   O13 2721   7.600   4.673  16.965
   22DOPE   O14 2722   7.790   4.833  17.007
   22DOPE   O11 2723   7.720   4.770  16.770
   22DOPE   O12 2724   7.579   4.912  16.907
   22DOPE    C1 2725   7.620   4.776  16.666
   22DOPE    HA 2726   7.547   4.856  16.683
   22DOPE    HB 2727   7.566   4.679  16.659
   22DOPE    C2 2728   7.688   4.800  16.528
   22DOPE    HS 2729   7.782   4.742  16.541
   22DOPE   O21 2730   7.712   4.940  16.498
   22DOPE   C21 2731   7.818   4.951  16.417
   22DOPE   O22 2732   7.904   4.866  16.404
   22DOPE   C22 2733   7.812   5.075  16.328
   22DOPE   H2R 2734   7.910   5.125  16.333
   22DOPE   H2S 2735   7.737   5.147  16.365
   22DOPE    C3 2736   7.608   4.740  16.407
   22DOPE    HX 2737   7.626   4.630  16.406
   22DOPE    HY 2738   7.655   4.778  16.313
   22DOPE   O31 2739   7.468   4.778  16.405
   22DOPE   C31 2740   7.380   4.679  16.404
   22DOPE   O32 2741   7.409   4.562  16.422
   22DOPE   C32 2742   7.234   4.727  16.388
   22DOPE   H2X 2743   7.173   4.650  16.440
   22DOPE   H2Y 2744   7.221   4.816  16.449
   22DOPE   C23 2745   7.798   5.031  16.182
   22DOPE   H3R 2746   7.694   4.998  16.160
   22DOPE   H3S 2747   7.865   4.942  16.165
   22DOPE   C24 2748   7.842   5.136  16.079
   22DOPE   H4R 2749   7.931   5.190  16.116
   22DOPE   H4S 2750   7.768   5.215  16.061
   22DOPE   C25 2751   7.877   5.064  15.949
   22DOPE   H5R 2752   7.810   4.978  15.929
   22DOPE   H5S 2753   7.973   5.014  15.966
   22DOPE   C26 2754   7.883   5.155  15.827
   22DOPE   H6R 2755   7.941   5.100  15.750
   22DOPE   H6S 2756   7.936   5.250  15.852
   22DOPE   C27 2757   7.746   5.184  15.765
   22DOPE   H7R 2758   7.706   5.274  15.815
   22DOPE   H7S 2759   7.675   5.103  15.791
   22DOPE   C28 2760   7.745   5.206  15.612
   22DOPE   H8R 2761   7.662   5.277  15.591
   22DOPE   H8S 2762   7.714   5.111  15.562
   22DOPE   C29 2763   7.872   5.258  15.549
   22DOPE   H9R 2764   7.951   5.289  15.620
   22DOPE  C210 2765   7.895   5.269  15.417
   22DOPE  H10R 2766   7.993   5.306  15.382
   22DOPE  C211 2767   7.795   5.230  15.310
   22DOPE  H11R 2768   7.693   5.256  15.348
   22DOPE  H11S 2769   7.794   5.120  15.297
   22DOPE  C212 2770   7.812   5.296  15.170
   22DOPE  H12R 2771   7.895   5.251  15.112
   22DOPE  H12S 2772   7.842   5.402  15.191
   22DOPE  C213 2773   7.680   5.305  15.088
   22DOPE  H13R 2774   7.677   5.403  15.036
   22DOPE  H13S 2775   7.604   5.306  15.168
   22DOPE  C214 2776   7.636   5.192  14.990
   22DOPE  H14R 2777   7.593   5.110  15.053
   22DOPE  H14S 2778   7.727   5.152  14.941
   22DOPE  C215 2779   7.530   5.227  14.879
   22DOPE  H15R 2780   7.520   5.141  14.810
   22DOPE  H15S 2781   7.572   5.312  14.820
   22DOPE  C216 2782   7.394   5.274  14.937
   22DOPE  H16R 2783   7.429   5.378  14.960
   22DOPE  H16S 2784   7.369   5.218  15.029
   22DOPE  C217 2785   7.259   5.305  14.867
   22DOPE  H17R 2786   7.217   5.393  14.921
   22DOPE  H17S 2787   7.178   5.232  14.878
   22DOPE  C218 2788   7.261   5.339  14.721
   22DOPE  H18R 2789   7.360   5.310  14.680
   22DOPE  H18S 2790   7.237   5.447  14.713
   22DOPE  H18T 2791   7.182   5.286  14.665
   22DOPE   C33 2792   7.166   4.749  16.249
   22DOPE   H3X 2793   7.066   4.793  16.276
   22DOPE   H3Y 2794   7.143   4.655  16.198
   22DOPE   C34 2795   7.223   4.839  16.139
   22DOPE   H4X 2796   7.225   4.944  16.168
   22DOPE   H4Y 2797   7.324   4.804  16.107
   22DOPE   C35 2798   7.130   4.846  16.020
   22DOPE   H5X 2799   7.024   4.853  16.055
   22DOPE   H5Y 2800   7.143   4.753  15.962
   22DOPE   C36 2801   7.158   4.960  15.924
   22DOPE   H6X 2802   7.154   5.059  15.975
   22DOPE   H6Y 2803   7.072   4.954  15.853
   22DOPE   C37 2804   7.291   4.948  15.846
   22DOPE   H7X 2805   7.296   5.028  15.771
   22DOPE   H7Y 2806   7.377   4.968  15.910
   22DOPE   C38 2807   7.323   4.812  15.783
   22DOPE   H8X 2808   7.327   4.741  15.868
   22DOPE   H8Y 2809   7.425   4.813  15.739
   22DOPE   C39 2810   7.222   4.772  15.679
   22DOPE   H9X 2811   7.156   4.689  15.707
   22DOPE  C310 2812   7.207   4.833  15.561
   22DOPE  H10X 2813   7.131   4.798  15.490
   22DOPE  C311 2814   7.288   4.951  15.514
   22DOPE  H11X 2815   7.223   5.034  15.478
   22DOPE  H11Y 2816   7.355   4.994  15.592
   22DOPE  C312 2817   7.387   4.911  15.407
   22DOPE  H12X 2818   7.436   4.816  15.436
   22DOPE  H12Y 2819   7.466   4.990  15.402
   22DOPE  C313 2820   7.325   4.900  15.269
   22DOPE  H13X 2821   7.247   4.820  15.267
   22DOPE  H13Y 2822   7.273   4.994  15.243
   22DOPE  C314 2823   7.435   4.869  15.168
   22DOPE  H14X 2824   7.518   4.941  15.177
   22DOPE  H14Y 2825   7.390   4.884  15.066
   22DOPE  C315 2826   7.484   4.725  15.182
   22DOPE  H15X 2827   7.506   4.684  15.082
   22DOPE  H15Y 2828   7.398   4.663  15.217
   22DOPE  C316 2829   7.604   4.694  15.275
   22DOPE  H16X 2830   7.664   4.612  15.229
   22DOPE  H16Y 2831   7.558   4.650  15.367
   22DOPE  C317 2832   7.701   4.803  15.328
   22DOPE  H17X 2833   7.643   4.885  15.375
   22DOPE  H17Y 2834   7.759   4.755  15.410
   22DOPE  C318 2835   7.803   4.865  15.232
   22DOPE  H18X 2836   7.872   4.932  15.289
   22DOPE  H18Y 2837   7.866   4.787  15.185
   22DOPE  H18Z 2838   7.753   4.925  15.154
   23DOPE     N 2839   4.664  -0.163  17.168
   23DOPE   HN1 2840   4.656  -0.185  17.270
   23DOPE   HN2 2841   4.734  -0.088  17.152
   23DOPE   HN3 2842   4.574  -0.130  17.126
   23DOPE   C12 2843   4.705  -0.287  17.094
   23DOPE  H12A 2844   4.617  -0.355  17.094
   23DOPE  H12B 2845   4.789  -0.335  17.146
   23DOPE   C11 2846   4.739  -0.248  16.951
   23DOPE  H11A 2847   4.744  -0.341  16.889
   23DOPE  H11B 2848   4.840  -0.200  16.948
   23DOPE     P 2849   4.649  -0.109  16.755
   23DOPE   O13 2850   4.518  -0.056  16.715
   23DOPE   O14 2851   4.705  -0.224  16.680
   23DOPE   O11 2852   4.755   0.008  16.772
   23DOPE   O12 2853   4.637  -0.157  16.906
   23DOPE    C1 2854   4.758   0.095  16.886
   23DOPE    HA 2855   4.807   0.043  16.971
   23DOPE    HB 2856   4.654   0.122  16.917
   23DOPE    C2 2857   4.836   0.229  16.862
   23DOPE    HS 2858   4.819   0.296  16.949
   23DOPE   O21 2859   4.791   0.295  16.745
   23DOPE   C21 2860   4.664   0.322  16.731
   23DOPE   O22 2861   4.582   0.335  16.821
   23DOPE   C22 2862   4.643   0.357  16.584
   23DOPE   H2R 2863   4.741   0.354  16.532
   23DOPE   H2S 2864   4.605   0.461  16.580
   23DOPE    C3 2865   4.992   0.214  16.850
   23DOPE    HX 2866   5.033   0.212  16.954
   23DOPE    HY 2867   5.034   0.306  16.803
   23DOPE   O31 2868   5.038   0.094  16.784
   23DOPE   C31 2869   5.014   0.090  16.653
   23DOPE   O32 2870   4.971   0.180  16.584
   23DOPE   C32 2871   5.071  -0.041  16.596
   23DOPE   H2X 2872   5.181  -0.033  16.599
   23DOPE   H2Y 2873   5.040  -0.124  16.663
   23DOPE   C23 2874   4.546   0.266  16.507
   23DOPE   H3R 2875   4.441   0.290  16.533
   23DOPE   H3S 2876   4.564   0.158  16.533
   23DOPE   C24 2877   4.572   0.284  16.357
   23DOPE   H4R 2878   4.673   0.241  16.334
   23DOPE   H4S 2879   4.575   0.392  16.333
   23DOPE   C25 2880   4.467   0.215  16.271
   23DOPE   H5R 2881   4.373   0.276  16.273
   23DOPE   H5S 2882   4.443   0.117  16.317
   23DOPE   C26 2883   4.513   0.193  16.127
   23DOPE   H6R 2884   4.432   0.136  16.076
   23DOPE   H6S 2885   4.603   0.127  16.125
   23DOPE   C27 2886   4.545   0.324  16.052
   23DOPE   H7R 2887   4.652   0.349  16.068
   23DOPE   H7S 2888   4.486   0.407  16.097
   23DOPE   C28 2889   4.515   0.317  15.901
   23DOPE   H8R 2890   4.572   0.233  15.855
   23DOPE   H8S 2891   4.549   0.411  15.853
   23DOPE   C29 2892   4.366   0.301  15.884
   23DOPE   H9R 2893   4.309   0.389  15.915
   23DOPE  C210 2894   4.298   0.190  15.849
   23DOPE  H10R 2895   4.190   0.194  15.868
   23DOPE  C211 2896   4.348   0.051  15.814
   23DOPE  H11R 2897   4.318  -0.014  15.899
   23DOPE  H11S 2898   4.459   0.047  15.813
   23DOPE  C212 2899   4.294  -0.022  15.687
   23DOPE  H12R 2900   4.184  -0.032  15.695
   23DOPE  H12S 2901   4.335  -0.125  15.692
   23DOPE  C213 2902   4.326   0.034  15.545
   23DOPE  H13R 2903   4.256   0.114  15.521
   23DOPE  H13S 2904   4.305  -0.044  15.470
   23DOPE  C214 2905   4.469   0.086  15.524
   23DOPE  H14R 2906   4.534   0.000  15.496
   23DOPE  H14S 2907   4.503   0.127  15.621
   23DOPE  C215 2908   4.489   0.202  15.424
   23DOPE  H15R 2909   4.585   0.254  15.449
   23DOPE  H15S 2910   4.408   0.275  15.441
   23DOPE  C216 2911   4.499   0.161  15.276
   23DOPE  H16R 2912   4.405   0.108  15.249
   23DOPE  H16S 2913   4.582   0.088  15.262
   23DOPE  C217 2914   4.520   0.279  15.180
   23DOPE  H17R 2915   4.501   0.243  15.076
   23DOPE  H17S 2916   4.626   0.313  15.185
   23DOPE  C218 2917   4.429   0.396  15.214
   23DOPE  H18R 2918   4.475   0.460  15.293
   23DOPE  H18S 2919   4.334   0.354  15.252
   23DOPE  H18T 2920   4.404   0.458  15.127
   23DOPE   C33 2921   5.022  -0.065  16.452
   23DOPE   H3X 2922   5.084  -0.143  16.403
   23DOPE   H3Y 2923   5.031   0.027  16.391
   23DOPE   C34 2924   4.876  -0.113  16.456
   23DOPE   H4X 2925   4.873  -0.221  16.483
   23DOPE   H4Y 2926   4.826  -0.057  16.537
   23DOPE   C35 2927   4.789  -0.086  16.333
   23DOPE   H5X 2928   4.781   0.024  16.315
   23DOPE   H5Y 2929   4.687  -0.123  16.358
   23DOPE   C36 2930   4.837  -0.156  16.207
   23DOPE   H6X 2931   4.876  -0.257  16.234
   23DOPE   H6Y 2932   4.920  -0.098  16.162
   23DOPE   C37 2933   4.723  -0.176  16.105
   23DOPE   H7X 2934   4.637  -0.221  16.159
   23DOPE   H7Y 2935   4.688  -0.078  16.066
   23DOPE   C38 2936   4.765  -0.268  15.991
   23DOPE   H8X 2937   4.680  -0.285  15.921
   23DOPE   H8Y 2938   4.790  -0.365  16.037
   23DOPE   C39 2939   4.887  -0.216  15.921
   23DOPE   H9X 2940   4.982  -0.266  15.944
   23DOPE  C310 2941   4.886  -0.113  15.836
   23DOPE  H10X 2942   4.980  -0.078  15.790
   23DOPE  C311 2943   4.762  -0.036  15.797
   23DOPE  H11X 2944   4.669  -0.096  15.808
   23DOPE  H11Y 2945   4.750   0.055  15.860
   23DOPE  C312 2946   4.777   0.005  15.651
   23DOPE  H12X 2947   4.865   0.072  15.638
   23DOPE  H12Y 2948   4.691   0.067  15.625
   23DOPE  C313 2949   4.786  -0.113  15.553
   23DOPE  H13X 2950   4.874  -0.176  15.578
   23DOPE  H13Y 2951   4.695  -0.178  15.561
   23DOPE  C314 2952   4.803  -0.064  15.410
   23DOPE  H14X 2953   4.882   0.015  15.411
   23DOPE  H14Y 2954   4.710  -0.016  15.374
   23DOPE  C315 2955   4.847  -0.174  15.314
   23DOPE  H15X 2956   4.924  -0.236  15.363
   23DOPE  H15Y 2957   4.895  -0.122  15.228
   23DOPE  C316 2958   4.732  -0.263  15.263
   23DOPE  H16X 2959   4.642  -0.200  15.247
   23DOPE  H16Y 2960   4.708  -0.338  15.342
   23DOPE  C317 2961   4.763  -0.335  15.131
   23DOPE  H17X 2962   4.848  -0.406  15.145
   23DOPE  H17Y 2963   4.675  -0.396  15.102
   23DOPE  C318 2964   4.796  -0.241  15.015
   23DOPE  H18X 2965   4.890  -0.184  15.033
   23DOPE  H18Y 2966   4.811  -0.298  14.922
   23DOPE  H18Z 2967   4.714  -0.168  14.999
   24DOPE     N 2968   6.855   6.202  17.174
   24DOPE   HN1 2969   6.803   6.112  17.176
   24DOPE   HN2 2970   6.939   6.186  17.115
   24DOPE   HN3 2971   6.882   6.227  17.272
   24DOPE   C12 2972   6.773   6.312  17.110
   24DOPE  H12A 2973   6.844   6.392  17.080
   24DOPE  H12B 2974   6.704   6.352  17.187
   24DOPE   C11 2975   6.694   6.264  16.987
   24DOPE  H11A 2976   6.650   6.353  16.937
   24DOPE  H11B 2977   6.611   6.197  17.018
   24DOPE     P 2978   6.797   6.233  16.746
   24DOPE   O13 2979   6.869   6.362  16.738
   24DOPE   O14 2980   6.669   6.219  16.673
   24DOPE   O11 2981   6.892   6.114  16.710
   24DOPE   O12 2982   6.779   6.194  16.898
   24DOPE    C1 2983   6.838   5.983  16.735
   24DOPE    HA 2984   6.731   5.973  16.703
   24DOPE    HB 2985   6.845   5.958  16.843
   24DOPE    C2 2986   6.918   5.877  16.658
   24DOPE    HS 2987   7.011   5.871  16.719
   24DOPE   O21 2988   6.945   5.921  16.524
   24DOPE   C21 2989   7.051   5.998  16.515
   24DOPE   O22 2990   7.143   6.007  16.595
   24DOPE   C22 2991   7.043   6.071  16.383
   24DOPE   H2R 2992   7.117   6.150  16.385
   24DOPE   H2S 2993   6.943   6.120  16.376
   24DOPE    C3 2994   6.851   5.737  16.651
   24DOPE    HX 2995   6.841   5.694  16.753
   24DOPE    HY 2996   6.917   5.669  16.594
   24DOPE   O31 2997   6.721   5.750  16.591
   24DOPE   C31 2998   6.708   5.702  16.470
   24DOPE   O32 2999   6.773   5.612  16.418
   24DOPE   C32 3000   6.601   5.782  16.400
   24DOPE   H2X 3001   6.595   5.744  16.296
   24DOPE   H2Y 3002   6.505   5.761  16.452
   24DOPE   C23 3003   7.077   5.983  16.261
   24DOPE   H3R 3004   7.168   5.923  16.275
   24DOPE   H3S 3005   7.096   6.054  16.178
   24DOPE   C24 3006   6.955   5.906  16.216
   24DOPE   H4R 3007   6.880   5.981  16.244
   24DOPE   H4S 3008   6.925   5.817  16.274
   24DOPE   C25 3009   6.938   5.894  16.065
   24DOPE   H5R 3010   6.950   5.794  16.022
   24DOPE   H5S 3011   7.015   5.956  16.018
   24DOPE   C26 3012   6.796   5.934  16.030
   24DOPE   H6R 3013   6.792   5.979  15.929
   24DOPE   H6S 3014   6.764   6.015  16.097
   24DOPE   C27 3015   6.703   5.813  16.050
   24DOPE   H7R 3016   6.604   5.847  16.086
   24DOPE   H7S 3017   6.746   5.748  16.130
   24DOPE   C28 3018   6.686   5.728  15.923
   24DOPE   H8R 3019   6.611   5.649  15.941
   24DOPE   H8S 3020   6.784   5.677  15.904
   24DOPE   C29 3021   6.646   5.821  15.811
   24DOPE   H9R 3022   6.570   5.895  15.839
   24DOPE  C210 3023   6.699   5.825  15.688
   24DOPE  H10R 3024   6.667   5.904  15.618
   24DOPE  C211 3025   6.810   5.737  15.639
   24DOPE  H11R 3026   6.875   5.702  15.723
   24DOPE  H11S 3027   6.877   5.792  15.570
   24DOPE  C212 3028   6.750   5.612  15.572
   24DOPE  H12R 3029   6.676   5.567  15.642
   24DOPE  H12S 3030   6.830   5.537  15.556
   24DOPE  C213 3031   6.682   5.640  15.437
   24DOPE  H13R 3032   6.611   5.725  15.449
   24DOPE  H13S 3033   6.622   5.551  15.407
   24DOPE  C214 3034   6.780   5.675  15.324
   24DOPE  H14R 3035   6.853   5.750  15.363
   24DOPE  H14S 3036   6.725   5.724  15.241
   24DOPE  C215 3037   6.861   5.558  15.266
   24DOPE  H15R 3038   6.795   5.494  15.204
   24DOPE  H15S 3039   6.904   5.498  15.349
   24DOPE  C216 3040   6.979   5.615  15.188
   24DOPE  H16R 3041   7.061   5.640  15.259
   24DOPE  H16S 3042   6.940   5.711  15.150
   24DOPE  C217 3043   7.034   5.542  15.065
   24DOPE  H17R 3044   6.991   5.443  15.049
   24DOPE  H17S 3045   7.144   5.529  15.075
   24DOPE  C218 3046   7.009   5.620  14.938
   24DOPE  H18R 3047   7.029   5.551  14.853
   24DOPE  H18S 3048   7.079   5.704  14.927
   24DOPE  H18T 3049   6.906   5.659  14.935
   24DOPE   C33 3050   6.634   5.933  16.403
   24DOPE   H3X 3051   6.718   5.953  16.334
   24DOPE   H3Y 3052   6.664   5.967  16.504
   24DOPE   C34 3053   6.521   6.022  16.356
   24DOPE   H4X 3054   6.490   5.983  16.258
   24DOPE   H4Y 3055   6.436   6.015  16.428
   24DOPE   C35 3056   6.561   6.168  16.328
   24DOPE   H5X 3057   6.649   6.193  16.391
   24DOPE   H5Y 3058   6.477   6.232  16.361
   24DOPE   C36 3059   6.589   6.194  16.178
   24DOPE   H6X 3060   6.502   6.248  16.134
   24DOPE   H6Y 3061   6.591   6.098  16.123
   24DOPE   C37 3062   6.719   6.273  16.149
   24DOPE   H7X 3063   6.710   6.373  16.195
   24DOPE   H7Y 3064   6.805   6.220  16.196
   24DOPE   C38 3065   6.746   6.289  15.997
   24DOPE   H8X 3066   6.653   6.328  15.952
   24DOPE   H8Y 3067   6.757   6.187  15.954
   24DOPE   C39 3068   6.861   6.377  15.952
   24DOPE   H9X 3069   6.846   6.485  15.963
   24DOPE  C310 3070   6.978   6.334  15.900
   24DOPE  H10X 3071   7.043   6.406  15.849
   24DOPE  C311 3072   7.017   6.190  15.878
   24DOPE  H11X 3073   7.127   6.175  15.885
   24DOPE  H11Y 3074   6.972   6.132  15.960
   24DOPE  C312 3075   6.967   6.133  15.743
   24DOPE  H12X 3076   6.857   6.123  15.746
   24DOPE  H12Y 3077   7.011   6.032  15.727
   24DOPE  C313 3078   7.006   6.225  15.628
   24DOPE  H13X 3079   6.970   6.328  15.651
   24DOPE  H13Y 3080   7.117   6.231  15.623
   24DOPE  C314 3081   6.944   6.200  15.491
   24DOPE  H14X 3082   6.836   6.227  15.493
   24DOPE  H14Y 3083   6.954   6.095  15.455
   24DOPE  C315 3084   7.019   6.297  15.401
   24DOPE  H15X 3085   7.125   6.277  15.422
   24DOPE  H15Y 3086   6.997   6.401  15.435
   24DOPE  C316 3087   6.997   6.282  15.250
   24DOPE  H16X 3088   6.949   6.375  15.216
   24DOPE  H16Y 3089   6.924   6.199  15.235
   24DOPE  C317 3090   7.130   6.248  15.177
   24DOPE  H17X 3091   7.211   6.314  15.214
   24DOPE  H17Y 3092   7.159   6.146  15.206
   24DOPE  C318 3093   7.137   6.256  15.024
   24DOPE  H18X 3094   7.145   6.359  14.991
   24DOPE  H18Y 3095   7.226   6.203  14.985
   24DOPE  H18Z 3096   7.047   6.216  14.976
   25DOPE     N 3097   7.681   5.996  16.782
   25DOPE   HN1 3098   7.749   5.950  16.846
   25DOPE   HN2 3099   7.626   5.918  16.741
   25DOPE   HN3 3100   7.727   6.054  16.708
   25DOPE   C12 3101   7.588   6.071  16.872
   25DOPE  H12A 3102   7.485   6.058  16.833
   25DOPE  H12B 3103   7.612   6.178  16.870
   25DOPE   C11 3104   7.605   6.011  17.013
   25DOPE  H11A 3105   7.532   6.056  17.084
   25DOPE  H11B 3106   7.706   6.040  17.051
   25DOPE     P 3107   7.458   5.798  17.010
   25DOPE   O13 3108   7.373   5.878  16.920
   25DOPE   O14 3109   7.410   5.782  17.149
   25DOPE   O11 3110   7.490   5.665  16.939
   25DOPE   O12 3111   7.600   5.868  17.011
   25DOPE    C1 3112   7.543   5.545  16.989
   25DOPE    HA 3113   7.465   5.485  17.040
   25DOPE    HB 3114   7.622   5.566  17.064
   25DOPE    C2 3115   7.605   5.460  16.873
   25DOPE    HS 3116   7.706   5.432  16.904
   25DOPE   O21 3117   7.610   5.527  16.743
   25DOPE   C21 3118   7.677   5.640  16.729
   25DOPE   O22 3119   7.728   5.710  16.814
   25DOPE   C22 3120   7.696   5.674  16.581
   25DOPE   H2R 3121   7.601   5.718  16.545
   25DOPE   H2S 3122   7.713   5.577  16.529
   25DOPE    C3 3123   7.531   5.323  16.855
   25DOPE    HX 3124   7.491   5.293  16.953
   25DOPE    HY 3125   7.605   5.243  16.828
   25DOPE   O31 3126   7.420   5.329  16.765
   25DOPE   C31 3127   7.458   5.319  16.638
   25DOPE   O32 3128   7.567   5.282  16.598
   25DOPE   C32 3129   7.345   5.372  16.553
   25DOPE   H2X 3130   7.253   5.314  16.557
   25DOPE   H2Y 3131   7.300   5.452  16.605
   25DOPE   C23 3132   7.813   5.771  16.548
   25DOPE   H3R 3133   7.908   5.720  16.574
   25DOPE   H3S 3134   7.810   5.861  16.611
   25DOPE   C24 3135   7.819   5.819  16.400
   25DOPE   H4R 3136   7.917   5.867  16.379
   25DOPE   H4S 3137   7.742   5.897  16.384
   25DOPE   C25 3138   7.793   5.703  16.302
   25DOPE   H5R 3139   7.701   5.650  16.326
   25DOPE   H5S 3140   7.868   5.627  16.319
   25DOPE   C26 3141   7.789   5.731  16.151
   25DOPE   H6R 3142   7.864   5.806  16.119
   25DOPE   H6S 3143   7.691   5.775  16.127
   25DOPE   C27 3144   7.803   5.601  16.070
   25DOPE   H7R 3145   7.705   5.575  16.026
   25DOPE   H7S 3146   7.826   5.517  16.139
   25DOPE   C28 3147   7.913   5.605  15.961
   25DOPE   H8R 3148   7.928   5.501  15.923
   25DOPE   H8S 3149   8.011   5.634  16.004
   25DOPE   C29 3150   7.878   5.698  15.849
   25DOPE   H9R 3151   7.915   5.801  15.858
   25DOPE  C210 3152   7.790   5.670  15.752
   25DOPE  H10R 3153   7.760   5.746  15.680
   25DOPE  C211 3154   7.714   5.541  15.743
   25DOPE  H11R 3155   7.749   5.466  15.817
   25DOPE  H11S 3156   7.727   5.494  15.644
   25DOPE  C212 3157   7.568   5.578  15.768
   25DOPE  H12R 3158   7.557   5.669  15.832
   25DOPE  H12S 3159   7.511   5.502  15.823
   25DOPE  C213 3160   7.494   5.597  15.638
   25DOPE  H13R 3161   7.531   5.691  15.595
   25DOPE  H13S 3162   7.388   5.609  15.659
   25DOPE  C214 3163   7.488   5.487  15.533
   25DOPE  H14R 3164   7.435   5.396  15.568
   25DOPE  H14S 3165   7.590   5.457  15.500
   25DOPE  C215 3166   7.413   5.547  15.414
   25DOPE  H15R 3167   7.430   5.657  15.412
   25DOPE  H15S 3168   7.303   5.529  15.421
   25DOPE  C216 3169   7.466   5.499  15.284
   25DOPE  H16R 3170   7.571   5.463  15.294
   25DOPE  H16S 3171   7.470   5.583  15.212
   25DOPE  C217 3172   7.373   5.393  15.232
   25DOPE  H17R 3173   7.426   5.363  15.144
   25DOPE  H17S 3174   7.275   5.434  15.202
   25DOPE  C218 3175   7.360   5.272  15.322
   25DOPE  H18R 3176   7.294   5.296  15.408
   25DOPE  H18S 3177   7.460   5.242  15.360
   25DOPE  H18T 3178   7.317   5.188  15.265
   25DOPE   C33 3179   7.374   5.418  16.411
   25DOPE   H3X 3180   7.295   5.491  16.404
   25DOPE   H3Y 3181   7.343   5.340  16.341
   25DOPE   C34 3182   7.489   5.515  16.376
   25DOPE   H4X 3183   7.504   5.566  16.472
   25DOPE   H4Y 3184   7.582   5.462  16.348
   25DOPE   C35 3185   7.452   5.623  16.269
   25DOPE   H5X 3186   7.348   5.606  16.238
   25DOPE   H5Y 3187   7.514   5.601  16.179
   25DOPE   C36 3188   7.468   5.774  16.306
   25DOPE   H6X 3189   7.566   5.790  16.352
   25DOPE   H6Y 3190   7.398   5.808  16.384
   25DOPE   C37 3191   7.458   5.870  16.185
   25DOPE   H7X 3192   7.487   5.811  16.095
   25DOPE   H7Y 3193   7.352   5.900  16.171
   25DOPE   C38 3194   7.548   5.997  16.189
   25DOPE   H8X 3195   7.655   5.970  16.194
   25DOPE   H8Y 3196   7.527   6.055  16.281
   25DOPE   C39 3197   7.524   6.087  16.070
   25DOPE   H9X 3198   7.456   6.171  16.093
   25DOPE  C310 3199   7.577   6.081  15.946
   25DOPE  H10X 3200   7.543   6.155  15.872
   25DOPE  C311 3201   7.678   5.984  15.890
   25DOPE  H11X 3202   7.753   5.955  15.967
   25DOPE  H11Y 3203   7.625   5.891  15.858
   25DOPE  C312 3204   7.753   6.039  15.766
   25DOPE  H12X 3205   7.823   5.960  15.731
   25DOPE  H12Y 3206   7.816   6.126  15.795
   25DOPE  C313 3207   7.661   6.078  15.649
   25DOPE  H13X 3208   7.573   6.011  15.646
   25DOPE  H13Y 3209   7.622   6.179  15.671
   25DOPE  C314 3210   7.728   6.086  15.511
   25DOPE  H14X 3211   7.819   6.147  15.517
   25DOPE  H14Y 3212   7.659   6.134  15.439
   25DOPE  C315 3213   7.775   5.954  15.453
   25DOPE  H15X 3214   7.846   5.905  15.523
   25DOPE  H15Y 3215   7.831   5.972  15.358
   25DOPE  C316 3216   7.657   5.863  15.425
   25DOPE  H16X 3217   7.587   5.909  15.353
   25DOPE  H16Y 3218   7.603   5.852  15.521
   25DOPE  C317 3219   7.702   5.727  15.376
   25DOPE  H17X 3220   7.798   5.703  15.424
   25DOPE  H17Y 3221   7.638   5.649  15.417
   25DOPE  C318 3222   7.702   5.714  15.224
   25DOPE  H18X 3223   7.729   5.611  15.193
   25DOPE  H18Y 3224   7.601   5.736  15.186
   25DOPE  H18Z 3225   7.769   5.787  15.176
   26DOPE     N 3226   0.638   6.408  16.740
   26DOPE   HN1 3227   0.669   6.482  16.808
   26DOPE   HN2 3228   0.700   6.325  16.752
   26DOPE   HN3 3229   0.648   6.454  16.648
   26DOPE   C12 3230   0.494   6.382  16.772
   26DOPE  H12A 3231   0.490   6.306  16.854
   26DOPE  H12B 3232   0.445   6.342  16.682
   26DOPE   C11 3233   0.426   6.511  16.822
   26DOPE  H11A 3234   0.321   6.485  16.849
   26DOPE  H11B 3235   0.419   6.587  16.740
   26DOPE     P 3236   0.597   6.678  16.937
   26DOPE   O13 3237   0.712   6.626  16.859
   26DOPE   O14 3238   0.621   6.718  17.078
   26DOPE   O11 3239   0.519   6.783  16.852
   26DOPE   O12 3240   0.491   6.559  16.939
   26DOPE    C1 3241   0.407   6.847  16.913
   26DOPE    HA 3242   0.446   6.932  16.972
   26DOPE    HB 3243   0.353   6.778  16.983
   26DOPE    C2 3244   0.301   6.897  16.810
   26DOPE    HS 3245   0.242   6.977  16.858
   26DOPE   O21 3246   0.217   6.784  16.782
   26DOPE   C21 3247   0.142   6.776  16.673
   26DOPE   O22 3248   0.104   6.867  16.602
   26DOPE   C22 3249   0.135   6.625  16.641
   26DOPE   H2R 3250   0.028   6.600  16.634
   26DOPE   H2S 3251   0.173   6.566  16.725
   26DOPE    C3 3252   0.368   6.957  16.683
   26DOPE    HX 3253   0.445   7.028  16.720
   26DOPE    HY 3254   0.292   7.015  16.627
   26DOPE   O31 3255   0.423   6.854  16.598
   26DOPE   C31 3256   0.542   6.878  16.547
   26DOPE   O32 3257   0.602   6.984  16.546
   26DOPE   C32 3258   0.590   6.750  16.479
   26DOPE   H2X 3259   0.612   6.675  16.557
   26DOPE   H2Y 3260   0.505   6.713  16.417
   26DOPE   C23 3261   0.218   6.594  16.513
   26DOPE   H3R 3262   0.318   6.640  16.528
   26DOPE   H3S 3263   0.177   6.653  16.430
   26DOPE   C24 3264   0.248   6.445  16.482
   26DOPE   H4R 3265   0.212   6.383  16.567
   26DOPE   H4S 3266   0.359   6.433  16.477
   26DOPE   C25 3267   0.196   6.382  16.349
   26DOPE   H5R 3268   0.123   6.302  16.376
   26DOPE   H5S 3269   0.280   6.328  16.299
   26DOPE   C26 3270   0.136   6.476  16.243
   26DOPE   H6R 3271   0.094   6.568  16.287
   26DOPE   H6S 3272   0.046   6.429  16.197
   26DOPE   C27 3273   0.238   6.516  16.134
   26DOPE   H7R 3274   0.258   6.427  16.070
   26DOPE   H7S 3275   0.334   6.545  16.182
   26DOPE   C28 3276   0.193   6.634  16.046
   26DOPE   H8R 3277   0.278   6.667  15.984
   26DOPE   H8S 3278   0.166   6.721  16.111
   26DOPE   C29 3279   0.075   6.589  15.964
   26DOPE   H9R 3280  -0.016   6.572  16.023
   26DOPE  C210 3281   0.074   6.561  15.833
   26DOPE  H10R 3282  -0.018   6.523  15.787
   26DOPE  C211 3283   0.193   6.571  15.740
   26DOPE  H11R 3284   0.266   6.646  15.779
   26DOPE  H11S 3285   0.160   6.609  15.641
   26DOPE  C212 3286   0.271   6.439  15.726
   26DOPE  H12R 3287   0.262   6.380  15.820
   26DOPE  H12S 3288   0.379   6.462  15.712
   26DOPE  C213 3289   0.226   6.352  15.607
   26DOPE  H13R 3290   0.117   6.336  15.615
   26DOPE  H13S 3291   0.279   6.254  15.617
   26DOPE  C214 3292   0.259   6.410  15.469
   26DOPE  H14R 3293   0.367   6.394  15.448
   26DOPE  H14S 3294   0.240   6.519  15.473
   26DOPE  C215 3295   0.178   6.355  15.350
   26DOPE  H15R 3296   0.071   6.372  15.372
   26DOPE  H15S 3297   0.195   6.246  15.335
   26DOPE  C216 3298   0.216   6.428  15.221
   26DOPE  H16R 3299   0.327   6.434  15.218
   26DOPE  H16S 3300   0.174   6.530  15.229
   26DOPE  C217 3301   0.173   6.369  15.086
   26DOPE  H17R 3302   0.063   6.358  15.083
   26DOPE  H17S 3303   0.218   6.268  15.073
   26DOPE  C218 3304   0.217   6.459  14.968
   26DOPE  H18R 3305   0.171   6.425  14.873
   26DOPE  H18S 3306   0.328   6.457  14.957
   26DOPE  H18T 3307   0.186   6.564  14.986
   26DOPE   C33 3308   0.712   6.774  16.388
   26DOPE   H3X 3309   0.805   6.781  16.448
   26DOPE   H3Y 3310   0.701   6.870  16.333
   26DOPE   C34 3311   0.726   6.663  16.283
   26DOPE   H4X 3312   0.743   6.566  16.334
   26DOPE   H4Y 3313   0.630   6.656  16.226
   26DOPE   C35 3314   0.840   6.689  16.185
   26DOPE   H5X 3315   0.933   6.714  16.242
   26DOPE   H5Y 3316   0.816   6.778  16.122
   26DOPE   C36 3317   0.870   6.568  16.095
   26DOPE   H6X 3318   0.911   6.487  16.159
   26DOPE   H6Y 3319   0.950   6.596  16.022
   26DOPE   C37 3320   0.750   6.513  16.018
   26DOPE   H7X 3321   0.668   6.488  16.090
   26DOPE   H7Y 3322   0.711   6.592  15.949
   26DOPE   C38 3323   0.789   6.387  15.940
   26DOPE   H8X 3324   0.835   6.315  16.011
   26DOPE   H8Y 3325   0.870   6.417  15.869
   26DOPE   C39 3326   0.672   6.323  15.870
   26DOPE   H9X 3327   0.582   6.313  15.932
   26DOPE  C310 3328   0.668   6.281  15.742
   26DOPE  H10X 3329   0.575   6.237  15.704
   26DOPE  C311 3330   0.780   6.291  15.641
   26DOPE  H11X 3331   0.875   6.326  15.685
   26DOPE  H11Y 3332   0.801   6.190  15.599
   26DOPE  C312 3333   0.744   6.386  15.525
   26DOPE  H12X 3334   0.654   6.349  15.472
   26DOPE  H12Y 3335   0.828   6.387  15.452
   26DOPE  C313 3336   0.720   6.531  15.572
   26DOPE  H13X 3337   0.640   6.533  15.650
   26DOPE  H13Y 3338   0.814   6.567  15.620
   26DOPE  C314 3339   0.680   6.630  15.463
   26DOPE  H14X 3340   0.753   6.628  15.379
   26DOPE  H14Y 3341   0.685   6.731  15.509
   26DOPE  C315 3342   0.537   6.614  15.411
   26DOPE  H15X 3343   0.468   6.628  15.497
   26DOPE  H15Y 3344   0.522   6.512  15.370
   26DOPE  C316 3345   0.502   6.718  15.304
   26DOPE  H16X 3346   0.568   6.706  15.215
   26DOPE  H16Y 3347   0.521   6.817  15.348
   26DOPE  C317 3348   0.355   6.707  15.262
   26DOPE  H17X 3349   0.355   6.632  15.180
   26DOPE  H17Y 3350   0.301   6.666  15.350
   26DOPE  C318 3351   0.275   6.828  15.213
   26DOPE  H18X 3352   0.169   6.796  15.199
   26DOPE  H18Y 3353   0.276   6.911  15.286
   26DOPE  H18Z 3354   0.313   6.863  15.115
   27DOPE     N 3355   5.848   7.472  16.658
   27DOPE   HN1 3356   5.746   7.490  16.665
   27DOPE   HN2 3357   5.891   7.531  16.584
   27DOPE   HN3 3358   5.862   7.371  16.634
   27DOPE   C12 3359   5.917   7.498  16.790
   27DOPE  H12A 3360   5.859   7.446  16.869
   27DOPE  H12B 3361   5.913   7.608  16.808
   27DOPE   C11 3362   6.063   7.445  16.790
   27DOPE  H11A 3363   6.127   7.503  16.719
   27DOPE  H11B 3364   6.063   7.340  16.754
   27DOPE     P 3365   6.132   7.586  16.997
   27DOPE   O13 3366   6.252   7.598  17.083
   27DOPE   O14 3367   6.001   7.623  17.056
   27DOPE   O11 3368   6.150   7.680  16.869
   27DOPE   O12 3369   6.121   7.445  16.922
   27DOPE    C1 3370   6.186   7.817  16.887
   27DOPE    HA 3371   6.291   7.824  16.923
   27DOPE    HB 3372   6.119   7.867  16.960
   27DOPE    C2 3373   6.171   7.903  16.758
   27DOPE    HS 3374   6.168   8.009  16.790
   27DOPE   O21 3375   6.050   7.867  16.688
   27DOPE   C21 3376   6.024   7.946  16.584
   27DOPE   O22 3377   6.090   8.042  16.549
   27DOPE   C22 3378   5.900   7.894  16.513
   27DOPE   H2R 3379   5.814   7.912  16.580
   27DOPE   H2S 3380   5.911   7.784  16.499
   27DOPE    C3 3381   6.298   7.888  16.666
   27DOPE    HX 3382   6.381   7.906  16.739
   27DOPE    HY 3383   6.301   7.970  16.593
   27DOPE   O31 3384   6.315   7.763  16.595
   27DOPE   C31 3385   6.444   7.743  16.564
   27DOPE   O32 3386   6.538   7.810  16.600
   27DOPE   C32 3387   6.459   7.614  16.486
   27DOPE   H2X 3388   6.520   7.552  16.554
   27DOPE   H2Y 3389   6.359   7.566  16.475
   27DOPE   C23 3390   5.877   7.964  16.378
   27DOPE   H3R 3391   5.896   8.074  16.386
   27DOPE   H3S 3392   5.770   7.952  16.350
   27DOPE   C24 3393   5.963   7.904  16.266
   27DOPE   H4R 3394   5.950   7.793  16.265
   27DOPE   H4S 3395   6.071   7.926  16.286
   27DOPE   C25 3396   5.923   7.959  16.128
   27DOPE   H5R 3397   5.938   8.069  16.127
   27DOPE   H5S 3398   5.814   7.939  16.114
   27DOPE   C26 3399   5.999   7.893  16.012
   27DOPE   H6R 3400   5.951   7.925  15.917
   27DOPE   H6S 3401   5.990   7.783  16.020
   27DOPE   C27 3402   6.149   7.929  16.005
   27DOPE   H7R 3403   6.199   7.886  16.094
   27DOPE   H7S 3404   6.160   8.040  16.010
   27DOPE   C28 3405   6.212   7.879  15.873
   27DOPE   H8R 3406   6.232   7.967  15.809
   27DOPE   H8S 3407   6.132   7.822  15.822
   27DOPE   C29 3408   6.334   7.791  15.883
   27DOPE   H9R 3409   6.347   7.737  15.977
   27DOPE  C210 3410   6.430   7.780  15.788
   27DOPE  H10R 3411   6.518   7.718  15.808
   27DOPE  C211 3412   6.427   7.856  15.658
   27DOPE  H11R 3413   6.430   7.964  15.685
   27DOPE  H11S 3414   6.330   7.839  15.609
   27DOPE  C212 3415   6.538   7.835  15.553
   27DOPE  H12R 3416   6.636   7.820  15.605
   27DOPE  H12S 3417   6.551   7.928  15.493
   27DOPE  C213 3418   6.518   7.714  15.460
   27DOPE  H13R 3419   6.529   7.634  15.534
   27DOPE  H13S 3420   6.598   7.707  15.383
   27DOPE  C214 3421   6.384   7.668  15.400
   27DOPE  H14R 3422   6.383   7.679  15.290
   27DOPE  H14S 3423   6.307   7.734  15.444
   27DOPE  C215 3424   6.336   7.524  15.439
   27DOPE  H15R 3425   6.242   7.499  15.387
   27DOPE  H15S 3426   6.315   7.531  15.548
   27DOPE  C216 3427   6.424   7.399  15.419
   27DOPE  H16R 3428   6.378   7.317  15.479
   27DOPE  H16S 3429   6.519   7.415  15.469
   27DOPE  C217 3430   6.451   7.346  15.278
   27DOPE  H17R 3431   6.530   7.267  15.292
   27DOPE  H17S 3432   6.497   7.425  15.215
   27DOPE  C218 3433   6.333   7.280  15.203
   27DOPE  H18R 3434   6.257   7.356  15.175
   27DOPE  H18S 3435   6.285   7.201  15.264
   27DOPE  H18T 3436   6.370   7.233  15.110
   27DOPE   C33 3437   6.533   7.626  16.351
   27DOPE   H3X 3438   6.594   7.534  16.336
   27DOPE   H3Y 3439   6.605   7.711  16.353
   27DOPE   C34 3440   6.439   7.635  16.229
   27DOPE   H4X 3441   6.372   7.723  16.239
   27DOPE   H4Y 3442   6.502   7.651  16.138
   27DOPE   C35 3443   6.357   7.507  16.209
   27DOPE   H5X 3444   6.306   7.476  16.303
   27DOPE   H5Y 3445   6.427   7.425  16.181
   27DOPE   C36 3446   6.248   7.516  16.102
   27DOPE   H6X 3447   6.290   7.556  16.008
   27DOPE   H6Y 3448   6.167   7.585  16.134
   27DOPE   C37 3449   6.191   7.378  16.067
   27DOPE   H7X 3450   6.276   7.307  16.065
   27DOPE   H7Y 3451   6.122   7.344  16.147
   27DOPE   C38 3452   6.123   7.377  15.929
   27DOPE   H8X 3453   6.082   7.275  15.909
   27DOPE   H8Y 3454   6.201   7.394  15.852
   27DOPE   C39 3455   6.015   7.481  15.924
   27DOPE   H9X 3456   5.952   7.486  16.014
   27DOPE  C310 3457   5.989   7.567  15.824
   27DOPE  H10X 3458   5.908   7.640  15.838
   27DOPE  C311 3459   6.061   7.581  15.691
   27DOPE  H11X 3460   6.116   7.677  15.685
   27DOPE  H11Y 3461   6.136   7.501  15.675
   27DOPE  C312 3462   5.957   7.578  15.577
   27DOPE  H12X 3463   5.860   7.624  15.608
   27DOPE  H12Y 3464   5.937   7.471  15.554
   27DOPE  C313 3465   6.001   7.650  15.448
   27DOPE  H13X 3466   6.105   7.625  15.427
   27DOPE  H13Y 3467   5.939   7.612  15.364
   27DOPE  C314 3468   5.993   7.803  15.449
   27DOPE  H14X 3469   6.071   7.842  15.517
   27DOPE  H14Y 3470   5.894   7.836  15.488
   27DOPE  C315 3471   6.015   7.859  15.307
   27DOPE  H15X 3472   5.987   7.967  15.306
   27DOPE  H15Y 3473   5.948   7.807  15.235
   27DOPE  C316 3474   6.161   7.845  15.263
   27DOPE  H16X 3475   6.182   7.738  15.242
   27DOPE  H16Y 3476   6.226   7.879  15.347
   27DOPE  C317 3477   6.210   7.930  15.146
   27DOPE  H17X 3478   6.231   8.033  15.183
   27DOPE  H17Y 3479   6.307   7.885  15.116
   27DOPE  C318 3480   6.116   7.937  15.026
   27DOPE  H18X 3481   6.018   7.977  15.058
   27DOPE  H18Y 3482   6.157   8.006  14.949
   27DOPE  H18Z 3483   6.101   7.837  14.981
   28DOPE     N 3484   7.508   6.951  17.061
   28DOPE   HN1 3485   7.523   6.927  16.958
   28DOPE   HN2 3486   7.409   6.980  17.073
   28DOPE   HN3 3487   7.574   7.024  17.091
   28DOPE   C12 3488   7.531   6.815  17.124
   28DOPE  H12A 3489   7.546   6.830  17.232
   28DOPE  H12B 3490   7.624   6.774  17.080
   28DOPE   C11 3491   7.413   6.719  17.093
   28DOPE  H11A 3492   7.335   6.737  17.171
   28DOPE  H11B 3493   7.447   6.614  17.105
   28DOPE     P 3494   7.433   6.723  16.832
   28DOPE   O13 3495   7.546   6.820  16.836
   28DOPE   O14 3496   7.338   6.735  16.721
   28DOPE   O11 3497   7.486   6.575  16.849
   28DOPE   O12 3498   7.350   6.740  16.966
   28DOPE    C1 3499   7.399   6.466  16.820
   28DOPE    HA 3500   7.290   6.494  16.816
   28DOPE    HB 3501   7.412   6.390  16.898
   28DOPE    C2 3502   7.441   6.402  16.687
   28DOPE    HS 3503   7.548   6.372  16.703
   28DOPE   O21 3504   7.427   6.504  16.587
   28DOPE   C21 3505   7.528   6.508  16.504
   28DOPE   O22 3506   7.606   6.415  16.487
   28DOPE   C22 3507   7.538   6.645  16.439
   28DOPE   H2R 3508   7.645   6.669  16.429
   28DOPE   H2S 3509   7.491   6.723  16.502
   28DOPE    C3 3510   7.359   6.274  16.651
   28DOPE    HX 3511   7.314   6.232  16.744
   28DOPE    HY 3512   7.427   6.196  16.610
   28DOPE   O31 3513   7.253   6.308  16.561
   28DOPE   C31 3514   7.286   6.307  16.433
   28DOPE   O32 3515   7.377   6.245  16.383
   28DOPE   C32 3516   7.183   6.397  16.364
   28DOPE   H2X 3517   7.084   6.375  16.409
   28DOPE   H2Y 3518   7.209   6.502  16.389
   28DOPE   C23 3519   7.479   6.638  16.299
   28DOPE   H3R 3520   7.369   6.633  16.307
   28DOPE   H3S 3521   7.516   6.546  16.249
   28DOPE   C24 3522   7.520   6.755  16.210
   28DOPE   H4R 3523   7.629   6.746  16.189
   28DOPE   H4S 3524   7.502   6.852  16.263
   28DOPE   C25 3525   7.437   6.746  16.084
   28DOPE   H5R 3526   7.330   6.769  16.108
   28DOPE   H5S 3527   7.440   6.640  16.053
   28DOPE   C26 3528   7.483   6.824  15.962
   28DOPE   H6R 3529   7.580   6.785  15.925
   28DOPE   H6S 3530   7.498   6.930  15.987
   28DOPE   C27 3531   7.377   6.811  15.852
   28DOPE   H7R 3532   7.283   6.858  15.887
   28DOPE   H7S 3533   7.354   6.703  15.840
   28DOPE   C28 3534   7.421   6.876  15.719
   28DOPE   H8R 3535   7.506   6.944  15.740
   28DOPE   H8S 3536   7.335   6.938  15.683
   28DOPE   C29 3537   7.462   6.776  15.615
   28DOPE   H9R 3538   7.536   6.703  15.650
   28DOPE  C210 3539   7.434   6.780  15.485
   28DOPE  H10R 3540   7.457   6.693  15.422
   28DOPE  C211 3541   7.356   6.887  15.416
   28DOPE  H11R 3542   7.394   6.899  15.312
   28DOPE  H11S 3543   7.379   6.980  15.470
   28DOPE  C212 3544   7.204   6.874  15.411
   28DOPE  H12R 3545   7.158   6.975  15.398
   28DOPE  H12S 3546   7.166   6.831  15.506
   28DOPE  C213 3547   7.164   6.789  15.292
   28DOPE  H13R 3548   7.222   6.694  15.295
   28DOPE  H13S 3549   7.192   6.842  15.197
   28DOPE  C214 3550   7.016   6.756  15.289
   28DOPE  H14R 3551   6.956   6.848  15.304
   28DOPE  H14S 3552   6.993   6.686  15.373
   28DOPE  C215 3553   6.976   6.693  15.157
   28DOPE  H15R 3554   6.966   6.773  15.080
   28DOPE  H15S 3555   6.875   6.650  15.174
   28DOPE  C216 3556   7.067   6.580  15.104
   28DOPE  H16R 3557   6.999   6.505  15.056
   28DOPE  H16S 3558   7.116   6.530  15.190
   28DOPE  C217 3559   7.171   6.614  14.996
   28DOPE  H17R 3560   7.227   6.523  14.971
   28DOPE  H17S 3561   7.248   6.684  15.035
   28DOPE  C218 3562   7.114   6.663  14.863
   28DOPE  H18R 3563   7.049   6.585  14.817
   28DOPE  H18S 3564   7.194   6.689  14.792
   28DOPE  H18T 3565   7.053   6.753  14.881
   28DOPE   C33 3566   7.179   6.373  16.212
   28DOPE   H3X 3567   7.094   6.432  16.170
   28DOPE   H3Y 3568   7.159   6.266  16.191
   28DOPE   C34 3569   7.306   6.417  16.140
   28DOPE   H4X 3570   7.309   6.526  16.149
   28DOPE   H4Y 3571   7.398   6.373  16.186
   28DOPE   C35 3572   7.302   6.381  15.992
   28DOPE   H5X 3573   7.220   6.441  15.947
   28DOPE   H5Y 3574   7.276   6.273  15.986
   28DOPE   C36 3575   7.432   6.402  15.915
   28DOPE   H6X 3576   7.514   6.346  15.964
   28DOPE   H6Y 3577   7.464   6.508  15.914
   28DOPE   C37 3578   7.416   6.358  15.769
   28DOPE   H7X 3579   7.516   6.334  15.728
   28DOPE   H7Y 3580   7.350   6.269  15.761
   28DOPE   C38 3581   7.363   6.475  15.687
   28DOPE   H8X 3582   7.454   6.536  15.674
   28DOPE   H8Y 3583   7.292   6.532  15.750
   28DOPE   C39 3584   7.299   6.454  15.554
   28DOPE   H9X 3585   7.199   6.500  15.548
   28DOPE  C310 3586   7.343   6.394  15.443
   28DOPE  H10X 3587   7.277   6.408  15.358
   28DOPE  C311 3588   7.471   6.325  15.404
   28DOPE  H11X 3589   7.553   6.349  15.474
   28DOPE  H11Y 3590   7.457   6.214  15.404
   28DOPE  C312 3591   7.507   6.368  15.259
   28DOPE  H12X 3592   7.435   6.325  15.186
   28DOPE  H12Y 3593   7.606   6.326  15.233
   28DOPE  C313 3594   7.508   6.521  15.247
   28DOPE  H13X 3595   7.402   6.558  15.252
   28DOPE  H13Y 3596   7.564   6.559  15.336
   28DOPE  C314 3597   7.569   6.589  15.124
   28DOPE  H14X 3598   7.680   6.588  15.132
   28DOPE  H14Y 3599   7.537   6.696  15.126
   28DOPE  C315 3600   7.529   6.529  14.990
   28DOPE  H15X 3601   7.421   6.510  14.988
   28DOPE  H15Y 3602   7.579   6.430  14.976
   28DOPE  C316 3603   7.569   6.623  14.875
   28DOPE  H16X 3604   7.674   6.654  14.892
   28DOPE  H16Y 3605   7.506   6.714  14.878
   28DOPE  C317 3606   7.560   6.556  14.737
   28DOPE  H17X 3607   7.610   6.623  14.663
   28DOPE  H17Y 3608   7.618   6.461  14.741
   28DOPE  C318 3609   7.418   6.528  14.689
   28DOPE  H18X 3610   7.363   6.466  14.763
   28DOPE  H18Y 3611   7.363   6.623  14.673
   28DOPE  H18Z 3612   7.419   6.473  14.592
   29DOPE     N 3613   7.032   0.802  16.957
   29DOPE   HN1 3614   7.023   0.902  16.991
   29DOPE   HN2 3615   7.016   0.802  16.853
   29DOPE   HN3 3616   6.954   0.755  17.008
   29DOPE   C12 3617   7.171   0.756  16.990
   29DOPE  H12A 3618   7.185   0.658  16.939
   29DOPE  H12B 3619   7.174   0.742  17.100
   29DOPE   C11 3620   7.279   0.858  16.946
   29DOPE  H11A 3621   7.247   0.958  16.982
   29DOPE  H11B 3622   7.284   0.860  16.834
   29DOPE     P 3623   7.544   0.834  16.928
   29DOPE   O13 3624   7.653   0.806  17.025
   29DOPE   O14 3625   7.559   0.950  16.839
   29DOPE   O11 3626   7.512   0.707  16.839
   29DOPE   O12 3627   7.407   0.834  17.006
   29DOPE    C1 3628   7.603   0.602  16.814
   29DOPE    HA 3629   7.552   0.507  16.838
   29DOPE    HB 3630   7.693   0.607  16.880
   29DOPE    C2 3631   7.650   0.595  16.664
   29DOPE    HS 3632   7.728   0.516  16.658
   29DOPE   O21 3633   7.703   0.719  16.615
   29DOPE   C21 3634   7.816   0.761  16.670
   29DOPE   O22 3635   7.881   0.701  16.754
   29DOPE   C22 3636   7.865   0.890  16.607
   29DOPE   H2R 3637   7.942   0.873  16.529
   29DOPE   H2S 3638   7.912   0.952  16.686
   29DOPE    C3 3639   7.533   0.550  16.569
   29DOPE    HX 3640   7.476   0.474  16.627
   29DOPE    HY 3641   7.577   0.499  16.480
   29DOPE   O31 3642   7.441   0.654  16.534
   29DOPE   C31 3643   7.436   0.702  16.411
   29DOPE   O32 3644   7.498   0.659  16.314
   29DOPE   C32 3645   7.343   0.824  16.413
   29DOPE   H2X 3646   7.290   0.819  16.511
   29DOPE   H2Y 3647   7.405   0.916  16.414
   29DOPE   C23 3648   7.758   0.967  16.532
   29DOPE   H3R 3649   7.798   1.070  16.515
   29DOPE   H3S 3650   7.664   0.977  16.589
   29DOPE   C24 3651   7.737   0.911  16.393
   29DOPE   H4R 3652   7.675   0.819  16.398
   29DOPE   H4S 3653   7.832   0.884  16.343
   29DOPE   C25 3654   7.668   1.020  16.315
   29DOPE   H5R 3655   7.740   1.101  16.291
   29DOPE   H5S 3656   7.587   1.060  16.379
   29DOPE   C26 3657   7.608   0.963  16.191
   29DOPE   H6R 3658   7.530   1.033  16.153
   29DOPE   H6S 3659   7.556   0.869  16.218
   29DOPE   C27 3660   7.711   0.935  16.083
   29DOPE   H7R 3661   7.785   0.859  16.117
   29DOPE   H7S 3662   7.767   1.028  16.059
   29DOPE   C28 3663   7.636   0.887  15.962
   29DOPE   H8R 3664   7.700   0.898  15.872
   29DOPE   H8S 3665   7.556   0.962  15.947
   29DOPE   C29 3666   7.581   0.748  15.986
   29DOPE   H9R 3667   7.505   0.735  16.065
   29DOPE  C210 3668   7.627   0.641  15.924
   29DOPE  H10R 3669   7.591   0.540  15.948
   29DOPE  C211 3670   7.737   0.652  15.824
   29DOPE  H11R 3671   7.789   0.554  15.827
   29DOPE  H11S 3672   7.813   0.729  15.852
   29DOPE  C212 3673   7.694   0.678  15.680
   29DOPE  H12R 3674   7.596   0.631  15.654
   29DOPE  H12S 3675   7.775   0.622  15.632
   29DOPE  C213 3676   7.709   0.816  15.616
   29DOPE  H13R 3677   7.813   0.853  15.626
   29DOPE  H13S 3678   7.645   0.890  15.667
   29DOPE  C214 3679   7.668   0.813  15.467
   29DOPE  H14R 3680   7.605   0.902  15.450
   29DOPE  H14S 3681   7.603   0.724  15.450
   29DOPE  C215 3682   7.787   0.818  15.370
   29DOPE  H15R 3683   7.874   0.768  15.416
   29DOPE  H15S 3684   7.815   0.925  15.356
   29DOPE  C216 3685   7.765   0.754  15.232
   29DOPE  H16R 3686   7.739   0.834  15.160
   29DOPE  H16S 3687   7.677   0.686  15.237
   29DOPE  C217 3688   7.886   0.676  15.176
   29DOPE  H17R 3689   7.928   0.605  15.250
   29DOPE  H17S 3690   7.972   0.744  15.160
   29DOPE  C218 3691   7.855   0.595  15.049
   29DOPE  H18R 3692   7.929   0.513  15.037
   29DOPE  H18S 3693   7.859   0.657  14.958
   29DOPE  H18T 3694   7.754   0.552  15.050
   29DOPE   C33 3695   7.236   0.831  16.301
   29DOPE   H3X 3696   7.138   0.863  16.343
   29DOPE   H3Y 3697   7.223   0.729  16.259
   29DOPE   C34 3698   7.271   0.926  16.185
   29DOPE   H4X 3699   7.286   1.029  16.225
   29DOPE   H4Y 3700   7.367   0.889  16.145
   29DOPE   C35 3701   7.169   0.920  16.071
   29DOPE   H5X 3702   7.070   0.959  16.106
   29DOPE   H5Y 3703   7.156   0.813  16.047
   29DOPE   C36 3704   7.204   0.986  15.935
   29DOPE   H6X 3705   7.225   1.092  15.948
   29DOPE   H6Y 3706   7.108   0.981  15.882
   29DOPE   C37 3707   7.307   0.907  15.851
   29DOPE   H7X 3708   7.384   0.886  15.926
   29DOPE   H7Y 3709   7.264   0.807  15.832
   29DOPE   C38 3710   7.384   0.953  15.718
   29DOPE   H8X 3711   7.391   0.861  15.656
   29DOPE   H8Y 3712   7.487   0.958  15.755
   29DOPE   C39 3713   7.375   1.076  15.627
   29DOPE   H9X 3714   7.379   1.166  15.686
   29DOPE  C310 3715   7.332   1.098  15.499
   29DOPE  H10X 3716   7.353   1.198  15.456
   29DOPE  C311 3717   7.274   0.998  15.402
   29DOPE  H11X 3718   7.313   0.899  15.431
   29DOPE  H11Y 3719   7.163   0.998  15.413
   29DOPE  C312 3720   7.303   0.993  15.251
   29DOPE  H12X 3721   7.234   1.057  15.192
   29DOPE  H12Y 3722   7.288   0.888  15.217
   29DOPE  C313 3723   7.448   1.029  15.226
   29DOPE  H13X 3724   7.448   1.139  15.230
   29DOPE  H13Y 3725   7.513   0.995  15.308
   29DOPE  C314 3726   7.506   0.978  15.095
   29DOPE  H14X 3727   7.517   0.867  15.100
   29DOPE  H14Y 3728   7.607   1.021  15.085
   29DOPE  C315 3729   7.420   1.014  14.974
   29DOPE  H15X 3730   7.327   0.953  14.978
   29DOPE  H15Y 3731   7.473   0.987  14.880
   29DOPE  C316 3732   7.379   1.162  14.971
   29DOPE  H16X 3733   7.331   1.193  15.066
   29DOPE  H16Y 3734   7.305   1.179  14.892
   29DOPE  C317 3735   7.494   1.257  14.945
   29DOPE  H17X 3736   7.577   1.237  15.013
   29DOPE  H17Y 3737   7.536   1.229  14.847
   29DOPE  C318 3738   7.450   1.404  14.955
   29DOPE  H18X 3739   7.373   1.427  14.878
   29DOPE  H18Y 3740   7.406   1.422  15.055
   29DOPE  H18Z 3741   7.536   1.473  14.941
   30DOPE     N 3742   0.653   7.304  17.098
   30DOPE   HN1 3743   0.746   7.317  17.056
   30DOPE   HN2 3744   0.654   7.228  17.170
   30DOPE   HN3 3745   0.596   7.269  17.016
   30DOPE   C12 3746   0.586   7.434  17.136
   30DOPE  H12A 3747   0.663   7.506  17.167
   30DOPE  H12B 3748   0.517   7.414  17.221
   30DOPE   C11 3749   0.504   7.485  17.016
   30DOPE  H11A 3750   0.567   7.503  16.926
   30DOPE  H11B 3751   0.460   7.583  17.045
   30DOPE     P 3752   0.411   7.263  16.897
   30DOPE   O13 3753   0.359   7.149  16.975
   30DOPE   O14 3754   0.552   7.255  16.855
   30DOPE   O11 3755   0.308   7.300  16.784
   30DOPE   O12 3756   0.400   7.391  16.989
   30DOPE    C1 3757   0.177   7.325  16.841
   30DOPE    HA 3758   0.179   7.390  16.933
   30DOPE    HB 3759   0.128   7.229  16.868
   30DOPE    C2 3760   0.084   7.405  16.749
   30DOPE    HS 3761  -0.018   7.396  16.793
   30DOPE   O21 3762   0.088   7.352  16.615
   30DOPE   C21 3763   0.032   7.234  16.604
   30DOPE   O22 3764  -0.030   7.174  16.691
   30DOPE   C22 3765   0.039   7.194  16.456
   30DOPE   H2R 3766  -0.013   7.274  16.400
   30DOPE   H2S 3767  -0.019   7.100  16.444
   30DOPE    C3 3768   0.121   7.556  16.749
   30DOPE    HX 3769   0.100   7.594  16.852
   30DOPE    HY 3770   0.055   7.614  16.681
   30DOPE   O31 3771   0.262   7.575  16.722
   30DOPE   C31 3772   0.291   7.561  16.593
   30DOPE   O32 3773   0.213   7.576  16.500
   30DOPE   C32 3774   0.439   7.529  16.577
   30DOPE   H2X 3775   0.494   7.594  16.648
   30DOPE   H2Y 3776   0.454   7.423  16.605
   30DOPE   C23 3777   0.178   7.178  16.392
   30DOPE   H3R 3778   0.237   7.102  16.448
   30DOPE   H3S 3779   0.234   7.274  16.396
   30DOPE   C24 3780   0.162   7.133  16.246
   30DOPE   H4R 3781   0.125   7.220  16.186
   30DOPE   H4S 3782   0.085   7.053  16.241
   30DOPE   C25 3783   0.291   7.080  16.182
   30DOPE   H5R 3784   0.337   7.003  16.249
   30DOPE   H5S 3785   0.363   7.164  16.177
   30DOPE   C26 3786   0.273   7.017  16.042
   30DOPE   H6R 3787   0.223   6.918  16.053
   30DOPE   H6S 3788   0.374   7.000  15.998
   30DOPE   C27 3789   0.189   7.100  15.944
   30DOPE   H7R 3790   0.206   7.208  15.966
   30DOPE   H7S 3791   0.082   7.079  15.962
   30DOPE   C28 3792   0.220   7.076  15.794
   30DOPE   H8R 3793   0.317   7.126  15.773
   30DOPE   H8S 3794   0.141   7.130  15.735
   30DOPE   C29 3795   0.230   6.934  15.748
   30DOPE   H9R 3796   0.171   6.861  15.806
   30DOPE  C210 3797   0.307   6.890  15.645
   30DOPE  H10R 3798   0.305   6.784  15.619
   30DOPE  C211 3799   0.397   6.974  15.557
   30DOPE  H11R 3800   0.359   7.078  15.547
   30DOPE  H11S 3801   0.394   6.931  15.455
   30DOPE  C212 3802   0.544   6.981  15.603
   30DOPE  H12R 3803   0.573   6.887  15.655
   30DOPE  H12S 3804   0.550   7.063  15.678
   30DOPE  C213 3805   0.652   7.006  15.494
   30DOPE  H13R 3806   0.670   6.917  15.431
   30DOPE  H13S 3807   0.746   7.023  15.550
   30DOPE  C214 3808   0.635   7.127  15.400
   30DOPE  H14R 3809   0.735   7.151  15.357
   30DOPE  H14S 3810   0.604   7.213  15.464
   30DOPE  C215 3811   0.535   7.118  15.283
   30DOPE  H15R 3812   0.534   7.221  15.241
   30DOPE  H15S 3813   0.434   7.095  15.323
   30DOPE  C216 3814   0.558   7.028  15.160
   30DOPE  H16R 3815   0.494   7.069  15.078
   30DOPE  H16S 3816   0.518   6.928  15.178
   30DOPE  C217 3817   0.698   7.009  15.104
   30DOPE  H17R 3818   0.762   6.959  15.180
   30DOPE  H17S 3819   0.744   7.108  15.079
   30DOPE  C218 3820   0.692   6.922  14.978
   30DOPE  H18R 3821   0.650   6.821  15.001
   30DOPE  H18S 3822   0.792   6.909  14.932
   30DOPE  H18T 3823   0.624   6.968  14.903
   30DOPE   C33 3824   0.487   7.557  16.433
   30DOPE   H3X 3825   0.582   7.616  16.440
   30DOPE   H3Y 3826   0.414   7.618  16.376
   30DOPE   C34 3827   0.516   7.435  16.345
   30DOPE   H4X 3828   0.601   7.378  16.389
   30DOPE   H4Y 3829   0.428   7.368  16.339
   30DOPE   C35 3830   0.551   7.484  16.204
   30DOPE   H5X 3831   0.586   7.590  16.210
   30DOPE   H5Y 3832   0.460   7.485  16.142
   30DOPE   C36 3833   0.666   7.409  16.137
   30DOPE   H6X 3834   0.748   7.421  16.210
   30DOPE   H6Y 3835   0.699   7.461  16.045
   30DOPE   C37 3836   0.649   7.258  16.113
   30DOPE   H7X 3837   0.751   7.214  16.102
   30DOPE   H7Y 3838   0.604   7.210  16.203
   30DOPE   C38 3839   0.568   7.219  15.988
   30DOPE   H8X 3840   0.461   7.234  16.009
   30DOPE   H8Y 3841   0.582   7.110  15.971
   30DOPE   C39 3842   0.608   7.295  15.864
   30DOPE   H9X 3843   0.693   7.253  15.808
   30DOPE  C310 3844   0.549   7.408  15.820
   30DOPE  H10X 3845   0.587   7.456  15.729
   30DOPE  C311 3846   0.434   7.481  15.886
   30DOPE  H11X 3847   0.384   7.421  15.965
   30DOPE  H11Y 3848   0.472   7.571  15.937
   30DOPE  C312 3849   0.327   7.521  15.784
   30DOPE  H12X 3850   0.375   7.558  15.691
   30DOPE  H12Y 3851   0.262   7.602  15.825
   30DOPE  C313 3852   0.239   7.401  15.752
   30DOPE  H13X 3853   0.306   7.315  15.733
   30DOPE  H13Y 3854   0.179   7.378  15.842
   30DOPE  C314 3855   0.148   7.416  15.631
   30DOPE  H14X 3856   0.082   7.505  15.643
   30DOPE  H14Y 3857   0.083   7.326  15.626
   30DOPE  C315 3858   0.225   7.425  15.500
   30DOPE  H15X 3859   0.292   7.336  15.492
   30DOPE  H15Y 3860   0.288   7.516  15.498
   30DOPE  C316 3861   0.128   7.428  15.382
   30DOPE  H16X 3862   0.059   7.515  15.392
   30DOPE  H16Y 3863   0.068   7.335  15.387
   30DOPE  C317 3864   0.195   7.430  15.245
   30DOPE  H17X 3865   0.119   7.446  15.166
   30DOPE  H17Y 3866   0.267   7.515  15.241
   30DOPE  C318 3867   0.268   7.299  15.221
   30DOPE  H18X 3868   0.360   7.303  15.282
   30DOPE  H18Y 3869   0.208   7.212  15.256
   30DOPE  H18Z 3870   0.295   7.284  15.115
   31DOPE     N 3871   3.175   3.192  12.807
   31DOPE   HN1 3872   3.158   3.110  12.746
   31DOPE   HN2 3873   3.082   3.231  12.835
   31DOPE   HN3 3874   3.233   3.265  12.761
   31DOPE   C12 3875   3.244   3.148  12.934
   31DOPE  H12A 3876   3.322   3.223  12.958
   31DOPE  H12B 3877   3.292   3.051  12.914
   31DOPE   C11 3878   3.141   3.138  13.046
   31DOPE  H11A 3879   3.099   3.239  13.065
   31DOPE  H11B 3880   3.192   3.105  13.140
   31DOPE     P 3881   2.890   3.058  13.060
   31DOPE   O13 3882   2.804   2.994  12.958
   31DOPE   O14 3883   2.865   3.201  13.090
   31DOPE   O11 3884   2.887   2.975  13.190
   31DOPE   O12 3885   3.039   3.046  13.009
   31DOPE    C1 3886   2.994   2.888  13.221
   31DOPE    HA 3887   3.095   2.924  13.191
   31DOPE    HB 3888   2.979   2.789  13.174
   31DOPE    C2 3889   3.003   2.878  13.373
   31DOPE    HS 3890   3.068   2.794  13.396
   31DOPE   O21 3891   2.877   2.854  13.433
   31DOPE   C21 3892   2.819   2.744  13.396
   31DOPE   O22 3893   2.867   2.652  13.332
   31DOPE   C22 3894   2.690   2.743  13.474
   31DOPE   H2R 3895   2.647   2.643  13.453
   31DOPE   H2S 3896   2.619   2.820  13.438
   31DOPE    C3 3897   3.061   3.005  13.441
   31DOPE    HX 3898   3.162   3.027  13.400
   31DOPE    HY 3899   3.068   2.974  13.547
   31DOPE   O31 3900   2.975   3.121  13.432
   31DOPE   C31 3901   3.008   3.206  13.528
   31DOPE   O32 3902   3.116   3.205  13.586
   31DOPE   C32 3903   2.886   3.286  13.569
   31DOPE   H2X 3904   2.831   3.321  13.479
   31DOPE   H2Y 3905   2.819   3.219  13.627
   31DOPE   C23 3906   2.721   2.755  13.625
   31DOPE   H3R 3907   2.812   2.695  13.644
   31DOPE   H3S 3908   2.639   2.704  13.680
   31DOPE   C24 3909   2.737   2.893  13.693
   31DOPE   H4R 3910   2.682   2.972  13.637
   31DOPE   H4S 3911   2.845   2.920  13.695
   31DOPE   C25 3912   2.682   2.882  13.835
   31DOPE   H5R 3913   2.721   2.790  13.882
   31DOPE   H5S 3914   2.572   2.869  13.827
   31DOPE   C26 3915   2.717   2.987  13.940
   31DOPE   H6R 3916   2.687   3.088  13.907
   31DOPE   H6S 3917   2.827   2.990  13.955
   31DOPE   C27 3918   2.651   2.947  14.074
   31DOPE   H7R 3919   2.681   3.021  14.152
   31DOPE   H7S 3920   2.692   2.848  14.104
   31DOPE   C28 3921   2.498   2.931  14.072
   31DOPE   H8R 3922   2.458   2.917  14.175
   31DOPE   H8S 3923   2.466   2.843  14.012
   31DOPE   C29 3924   2.454   3.059  14.010
   31DOPE   H9R 3925   2.441   3.060  13.900
   31DOPE  C210 3926   2.437   3.172  14.079
   31DOPE  H10R 3927   2.419   3.263  14.020
   31DOPE  C211 3928   2.455   3.195  14.227
   31DOPE  H11R 3929   2.505   3.110  14.279
   31DOPE  H11S 3930   2.354   3.205  14.272
   31DOPE  C212 3931   2.534   3.324  14.254
   31DOPE  H12R 3932   2.532   3.393  14.166
   31DOPE  H12S 3933   2.638   3.295  14.274
   31DOPE  C213 3934   2.487   3.407  14.373
   31DOPE  H13R 3935   2.387   3.450  14.350
   31DOPE  H13S 3936   2.557   3.492  14.389
   31DOPE  C214 3937   2.476   3.325  14.500
   31DOPE  H14R 3938   2.395   3.250  14.487
   31DOPE  H14S 3939   2.445   3.392  14.584
   31DOPE  C215 3940   2.602   3.249  14.542
   31DOPE  H15R 3941   2.692   3.313  14.544
   31DOPE  H15S 3942   2.620   3.164  14.473
   31DOPE  C216 3943   2.572   3.197  14.682
   31DOPE  H16R 3944   2.469   3.156  14.674
   31DOPE  H16S 3945   2.571   3.279  14.755
   31DOPE  C217 3946   2.656   3.081  14.730
   31DOPE  H17R 3947   2.764   3.101  14.715
   31DOPE  H17S 3948   2.622   2.997  14.666
   31DOPE  C218 3949   2.627   3.037  14.871
   31DOPE  H18R 3950   2.523   2.998  14.876
   31DOPE  H18S 3951   2.636   3.120  14.944
   31DOPE  H18T 3952   2.696   2.955  14.900
   31DOPE   C33 3953   2.934   3.402  13.655
   31DOPE   H3X 3954   2.992   3.471  13.589
   31DOPE   H3Y 3955   3.002   3.366  13.735
   31DOPE   C34 3956   2.821   3.481  13.718
   31DOPE   H4X 3957   2.858   3.584  13.741
   31DOPE   H4Y 3958   2.743   3.488  13.640
   31DOPE   C35 3959   2.762   3.424  13.848
   31DOPE   H5X 3960   2.719   3.324  13.828
   31DOPE   H5Y 3961   2.679   3.489  13.883
   31DOPE   C36 3962   2.863   3.415  13.964
   31DOPE   H6X 3963   2.906   3.515  13.986
   31DOPE   H6Y 3964   2.946   3.350  13.931
   31DOPE   C37 3965   2.797   3.359  14.090
   31DOPE   H7X 3966   2.736   3.441  14.134
   31DOPE   H7Y 3967   2.727   3.277  14.058
   31DOPE   C38 3968   2.889   3.300  14.200
   31DOPE   H8X 3969   2.830   3.240  14.272
   31DOPE   H8Y 3970   2.935   3.383  14.258
   31DOPE   C39 3971   2.989   3.209  14.136
   31DOPE   H9X 3972   2.956   3.164  14.041
   31DOPE  C310 3973   3.111   3.181  14.182
   31DOPE  H10X 3974   3.179   3.121  14.119
   31DOPE  C311 3975   3.171   3.233  14.309
   31DOPE  H11X 3976   3.244   3.314  14.284
   31DOPE  H11Y 3977   3.097   3.278  14.378
   31DOPE  C312 3978   3.248   3.122  14.382
   31DOPE  H12X 3979   3.332   3.174  14.432
   31DOPE  H12Y 3980   3.294   3.048  14.313
   31DOPE  C313 3981   3.168   3.054  14.493
   31DOPE  H13X 3982   3.108   3.131  14.545
   31DOPE  H13Y 3983   3.097   2.979  14.451
   31DOPE  C314 3984   3.259   2.988  14.597
   31DOPE  H14X 3985   3.351   3.050  14.612
   31DOPE  H14Y 3986   3.291   2.890  14.559
   31DOPE  C315 3987   3.189   2.970  14.732
   31DOPE  H15X 3988   3.106   2.898  14.715
   31DOPE  H15Y 3989   3.142   3.066  14.764
   31DOPE  C316 3990   3.282   2.920  14.842
   31DOPE  H16X 3991   3.300   3.000  14.918
   31DOPE  H16Y 3992   3.382   2.899  14.797
   31DOPE  C317 3993   3.231   2.790  14.906
   31DOPE  H17X 3994   3.226   2.715  14.824
   31DOPE  H17Y 3995   3.306   2.753  14.979
   31DOPE  C318 3996   3.091   2.794  14.970
   31DOPE  H18X 3997   3.020   2.852  14.907
   31DOPE  H18Y 3998   3.050   2.691  14.978
   31DOPE  H18Z 3999   3.091   2.839  15.071
   32DOPE     N 4000   4.655   2.875  13.287
   32DOPE   HN1 4001   4.658   2.844  13.386
   32DOPE   HN2 4002   4.677   2.797  13.222
   32DOPE   HN3 4003   4.728   2.947  13.265
   32DOPE   C12 4004   4.524   2.932  13.238
   32DOPE  H12A 4005   4.506   3.027  13.291
   32DOPE  H12B 4006   4.443   2.860  13.259
   32DOPE   C11 4007   4.539   2.959  13.088
   32DOPE  H11A 4008   4.453   3.019  13.050
   32DOPE  H11B 4009   4.543   2.863  13.030
   32DOPE     P 4010   4.700   3.117  12.948
   32DOPE   O13 4011   4.624   3.072  12.830
   32DOPE   O14 4012   4.847   3.112  12.946
   32DOPE   O11 4013   4.649   3.258  12.997
   32DOPE   O12 4014   4.663   3.026  13.071
   32DOPE    C1 4015   4.707   3.378  12.943
   32DOPE    HA 4016   4.633   3.429  12.878
   32DOPE    HB 4017   4.793   3.356  12.876
   32DOPE    C2 4018   4.759   3.479  13.050
   32DOPE    HS 4019   4.801   3.565  12.992
   32DOPE   O21 4020   4.858   3.418  13.135
   32DOPE   C21 4021   4.974   3.390  13.081
   32DOPE   O22 4022   5.013   3.425  12.971
   32DOPE   C22 4023   5.053   3.305  13.179
   32DOPE   H2R 4024   5.155   3.289  13.138
   32DOPE   H2S 4025   5.002   3.207  13.183
   32DOPE    C3 4026   4.653   3.544  13.145
   32DOPE    HX 4027   4.576   3.592  13.082
   32DOPE    HY 4028   4.704   3.626  13.202
   32DOPE   O31 4029   4.589   3.450  13.232
   32DOPE   C31 4030   4.648   3.426  13.349
   32DOPE   O32 4031   4.740   3.488  13.397
   32DOPE   C32 4032   4.577   3.303  13.411
   32DOPE   H2X 4033   4.469   3.315  13.391
   32DOPE   H2Y 4034   4.612   3.213  13.356
   32DOPE   C23 4035   5.059   3.371  13.319
   32DOPE   H3R 4036   4.959   3.406  13.352
   32DOPE   H3S 4037   5.124   3.461  13.311
   32DOPE   C24 4038   5.115   3.279  13.428
   32DOPE   H4R 4039   5.133   3.341  13.519
   32DOPE   H4S 4040   5.211   3.238  13.389
   32DOPE   C25 4041   5.030   3.160  13.471
   32DOPE   H5R 4042   5.095   3.086  13.524
   32DOPE   H5S 4043   4.991   3.111  13.379
   32DOPE   C26 4044   4.912   3.197  13.563
   32DOPE   H6R 4045   4.824   3.166  13.504
   32DOPE   H6S 4046   4.905   3.307  13.577
   32DOPE   C27 4047   4.908   3.128  13.701
   32DOPE   H7R 4048   4.970   3.036  13.700
   32DOPE   H7S 4049   4.803   3.095  13.719
   32DOPE   C28 4050   4.947   3.221  13.818
   32DOPE   H8R 4051   4.887   3.314  13.809
   32DOPE   H8S 4052   5.053   3.251  13.806
   32DOPE   C29 4053   4.926   3.162  13.955
   32DOPE   H9R 4054   4.882   3.062  13.959
   32DOPE  C210 4055   4.956   3.225  14.071
   32DOPE  H10R 4056   4.934   3.175  14.166
   32DOPE  C211 4057   5.016   3.363  14.084
   32DOPE  H11R 4058   5.060   3.398  13.988
   32DOPE  H11S 4059   5.100   3.361  14.157
   32DOPE  C212 4060   4.913   3.469  14.129
   32DOPE  H12R 4061   4.832   3.476  14.052
   32DOPE  H12S 4062   4.963   3.568  14.134
   32DOPE  C213 4063   4.848   3.441  14.265
   32DOPE  H13R 4064   4.794   3.343  14.263
   32DOPE  H13S 4065   4.772   3.520  14.285
   32DOPE  C214 4066   4.948   3.440  14.381
   32DOPE  H14R 4067   5.003   3.537  14.382
   32DOPE  H14S 4068   5.022   3.358  14.369
   32DOPE  C215 4069   4.875   3.422  14.514
   32DOPE  H15R 4070   4.803   3.338  14.507
   32DOPE  H15S 4071   4.816   3.515  14.529
   32DOPE  C216 4072   4.967   3.397  14.633
   32DOPE  H16R 4073   5.025   3.304  14.618
   32DOPE  H16S 4074   4.904   3.383  14.724
   32DOPE  C217 4075   5.063   3.513  14.659
   32DOPE  H17R 4076   5.008   3.610  14.653
   32DOPE  H17S 4077   5.143   3.515  14.581
   32DOPE  C218 4078   5.126   3.498  14.796
   32DOPE  H18R 4079   5.047   3.486  14.873
   32DOPE  H18S 4080   5.186   3.586  14.822
   32DOPE  H18T 4081   5.195   3.411  14.801
   32DOPE   C33 4082   4.598   3.282  13.563
   32DOPE   H3X 4083   4.661   3.364  13.604
   32DOPE   H3Y 4084   4.650   3.186  13.583
   32DOPE   C34 4085   4.469   3.270  13.645
   32DOPE   H4X 4086   4.390   3.325  13.592
   32DOPE   H4Y 4087   4.436   3.165  13.655
   32DOPE   C35 4088   4.487   3.334  13.783
   32DOPE   H5X 4089   4.390   3.357  13.832
   32DOPE   H5Y 4090   4.537   3.430  13.760
   32DOPE   C36 4091   4.573   3.252  13.880
   32DOPE   H6X 4092   4.612   3.316  13.963
   32DOPE   H6Y 4093   4.662   3.214  13.827
   32DOPE   C37 4094   4.493   3.137  13.941
   32DOPE   H7X 4095   4.425   3.178  14.019
   32DOPE   H7Y 4096   4.430   3.093  13.861
   32DOPE   C38 4097   4.582   3.028  14.001
   32DOPE   H8X 4098   4.638   3.071  14.087
   32DOPE   H8Y 4099   4.657   2.999  13.924
   32DOPE   C39 4100   4.500   2.909  14.042
   32DOPE   H9X 4101   4.391   2.918  14.029
   32DOPE  C310 4102   4.552   2.796  14.090
   32DOPE  H10X 4103   4.486   2.712  14.117
   32DOPE  C311 4104   4.699   2.772  14.110
   32DOPE  H11X 4105   4.723   2.670  14.074
   32DOPE  H11Y 4106   4.763   2.842  14.051
   32DOPE  C312 4107   4.741   2.783  14.258
   32DOPE  H12X 4108   4.848   2.753  14.267
   32DOPE  H12Y 4109   4.682   2.712  14.320
   32DOPE  C313 4110   4.734   2.924  14.319
   32DOPE  H13X 4111   4.784   2.997  14.253
   32DOPE  H13Y 4112   4.628   2.954  14.331
   32DOPE  C314 4113   4.804   2.920  14.454
   32DOPE  H14X 4114   4.912   2.896  14.441
   32DOPE  H14Y 4115   4.758   2.834  14.508
   32DOPE  C315 4116   4.793   3.047  14.539
   32DOPE  H15X 4117   4.686   3.078  14.545
   32DOPE  H15Y 4118   4.848   3.129  14.488
   32DOPE  C316 4119   4.848   3.027  14.681
   32DOPE  H16X 4120   4.823   3.118  14.742
   32DOPE  H16Y 4121   4.959   3.020  14.676
   32DOPE  C317 4122   4.792   2.902  14.752
   32DOPE  H17X 4123   4.834   2.811  14.703
   32DOPE  H17Y 4124   4.832   2.901  14.856
   32DOPE  C318 4125   4.639   2.894  14.753
   32DOPE  H18X 4126   4.599   2.879  14.650
   32DOPE  H18Y 4127   4.605   2.809  14.816
   32DOPE  H18Z 4128   4.595   2.988  14.792
   33DOPE     N 4129   3.539   2.177  12.914
   33DOPE   HN1 4130   3.610   2.154  12.840
   33DOPE   HN2 4131   3.500   2.093  12.960
   33DOPE   HN3 4132   3.458   2.230  12.874
   33DOPE   C12 4133   3.595   2.273  13.015
   33DOPE  H12A 4134   3.635   2.360  12.958
   33DOPE  H12B 4135   3.676   2.223  13.072
   33DOPE   C11 4136   3.483   2.327  13.104
   33DOPE  H11A 4137   3.521   2.419  13.156
   33DOPE  H11B 4138   3.460   2.251  13.183
   33DOPE     P 4139   3.233   2.395  13.102
   33DOPE   O13 4140   3.146   2.275  13.097
   33DOPE   O14 4141   3.181   2.518  13.040
   33DOPE   O11 4142   3.291   2.419  13.247
   33DOPE   O12 4143   3.368   2.357  13.025
   33DOPE    C1 4144   3.222   2.378  13.364
   33DOPE    HA 4145   3.295   2.347  13.441
   33DOPE    HB 4146   3.154   2.292  13.345
   33DOPE    C2 4147   3.140   2.496  13.422
   33DOPE    HS 4148   3.080   2.540  13.339
   33DOPE   O21 4149   3.227   2.594  13.480
   33DOPE   C21 4150   3.282   2.688  13.405
   33DOPE   O22 4151   3.272   2.706  13.286
   33DOPE   C22 4152   3.341   2.791  13.501
   33DOPE   H2R 4153   3.351   2.885  13.442
   33DOPE   H2S 4154   3.441   2.759  13.532
   33DOPE    C3 4155   3.039   2.443  13.529
   33DOPE    HX 4156   2.982   2.362  13.478
   33DOPE    HY 4157   2.968   2.525  13.552
   33DOPE   O31 4158   3.104   2.397  13.652
   33DOPE   C31 4159   3.031   2.308  13.722
   33DOPE   O32 4160   2.931   2.253  13.680
   33DOPE   C32 4161   3.082   2.294  13.866
   33DOPE   H2X 4162   3.164   2.220  13.868
   33DOPE   H2Y 4163   3.128   2.391  13.894
   33DOPE   C23 4164   3.248   2.817  13.622
   33DOPE   H3R 4165   3.141   2.793  13.597
   33DOPE   H3S 4166   3.253   2.926  13.648
   33DOPE   C24 4167   3.278   2.739  13.748
   33DOPE   H4R 4168   3.240   2.634  13.740
   33DOPE   H4S 4169   3.222   2.793  13.827
   33DOPE   C25 4170   3.424   2.737  13.793
   33DOPE   H5R 4171   3.462   2.842  13.798
   33DOPE   H5S 4172   3.485   2.680  13.720
   33DOPE   C26 4173   3.436   2.668  13.928
   33DOPE   H6R 4174   3.392   2.567  13.916
   33DOPE   H6S 4175   3.376   2.722  14.005
   33DOPE   C27 4176   3.581   2.654  13.976
   33DOPE   H7R 4177   3.612   2.748  14.027
   33DOPE   H7S 4178   3.646   2.640  13.887
   33DOPE   C28 4179   3.603   2.533  14.068
   33DOPE   H8R 4180   3.703   2.543  14.116
   33DOPE   H8S 4181   3.607   2.441  14.006
   33DOPE   C29 4182   3.490   2.522  14.167
   33DOPE   H9R 4183   3.393   2.494  14.124
   33DOPE  C210 4184   3.496   2.545  14.298
   33DOPE  H10R 4185   3.404   2.536  14.357
   33DOPE  C211 4186   3.619   2.586  14.376
   33DOPE  H11R 4187   3.706   2.609  14.311
   33DOPE  H11S 4188   3.649   2.501  14.439
   33DOPE  C212 4189   3.596   2.711  14.464
   33DOPE  H12R 4190   3.585   2.800  14.398
   33DOPE  H12S 4191   3.687   2.730  14.525
   33DOPE  C213 4192   3.473   2.705  14.556
   33DOPE  H13R 4193   3.385   2.723  14.491
   33DOPE  H13S 4194   3.479   2.789  14.629
   33DOPE  C214 4195   3.444   2.575  14.633
   33DOPE  H14R 4196   3.432   2.489  14.564
   33DOPE  H14S 4197   3.346   2.590  14.682
   33DOPE  C215 4198   3.541   2.537  14.745
   33DOPE  H15R 4199   3.491   2.460  14.809
   33DOPE  H15S 4200   3.560   2.626  14.809
   33DOPE  C216 4201   3.672   2.479  14.693
   33DOPE  H16R 4202   3.724   2.558  14.635
   33DOPE  H16S 4203   3.652   2.394  14.624
   33DOPE  C217 4204   3.768   2.437  14.803
   33DOPE  H17R 4205   3.768   2.521  14.876
   33DOPE  H17S 4206   3.870   2.428  14.761
   33DOPE  C218 4207   3.732   2.306  14.874
   33DOPE  H18R 4208   3.744   2.220  14.805
   33DOPE  H18S 4209   3.628   2.308  14.912
   33DOPE  H18T 4210   3.801   2.287  14.959
   33DOPE   C33 4211   2.967   2.248  13.962
   33DOPE   H3X 4212   2.960   2.137  13.960
   33DOPE   H3Y 4213   2.869   2.286  13.927
   33DOPE   C34 4214   2.977   2.288  14.111
   33DOPE   H4X 4215   2.921   2.381  14.131
   33DOPE   H4Y 4216   2.916   2.217  14.169
   33DOPE   C35 4217   3.121   2.300  14.161
   33DOPE   H5X 4218   3.124   2.362  14.254
   33DOPE   H5Y 4219   3.187   2.353  14.090
   33DOPE   C36 4220   3.178   2.161  14.189
   33DOPE   H6X 4221   3.282   2.172  14.228
   33DOPE   H6Y 4222   3.188   2.106  14.094
   33DOPE   C37 4223   3.090   2.083  14.288
   33DOPE   H7X 4224   2.993   2.055  14.244
   33DOPE   H7Y 4225   3.139   1.984  14.308
   33DOPE   C38 4226   3.065   2.163  14.417
   33DOPE   H8X 4227   2.994   2.110  14.484
   33DOPE   H8Y 4228   3.024   2.264  14.400
   33DOPE   C39 4229   3.205   2.166  14.469
   33DOPE   H9X 4230   3.269   2.253  14.444
   33DOPE  C310 4231   3.251   2.069  14.546
   33DOPE  H10X 4232   3.351   2.076  14.585
   33DOPE  C311 4233   3.178   1.949  14.595
   33DOPE  H11X 4234   3.101   1.916  14.524
   33DOPE  H11Y 4235   3.248   1.865  14.614
   33DOPE  C312 4236   3.114   1.999  14.726
   33DOPE  H12X 4237   3.085   1.913  14.789
   33DOPE  H12Y 4238   3.021   2.053  14.699
   33DOPE  C313 4239   3.204   2.096  14.808
   33DOPE  H13X 4240   3.295   2.042  14.837
   33DOPE  H13Y 4241   3.239   2.185  14.751
   33DOPE  C314 4242   3.142   2.162  14.929
   33DOPE  H14X 4243   3.225   2.215  14.980
   33DOPE  H14Y 4244   3.105   2.081  14.995
   33DOPE  C315 4245   3.033   2.264  14.892
   33DOPE  H15X 4246   2.967   2.288  14.977
   33DOPE  H15Y 4247   2.969   2.219  14.813
   33DOPE  C316 4248   3.087   2.396  14.839
   33DOPE  H16X 4249   3.182   2.381  14.784
   33DOPE  H16Y 4250   3.106   2.466  14.923
   33DOPE  C317 4251   2.984   2.460  14.748
   33DOPE  H17X 4252   2.944   2.384  14.676
   33DOPE  H17Y 4253   2.900   2.491  14.813
   33DOPE  C318 4254   3.041   2.578  14.671
   33DOPE  H18X 4255   3.009   2.673  14.719
   33DOPE  H18Y 4256   3.151   2.575  14.673
   33DOPE  H18Z 4257   3.009   2.575  14.565
   34DOPE     N 4258   2.403   4.315  12.953
   34DOPE   HN1 4259   2.494   4.294  12.909
   34DOPE   HN2 4260   2.333   4.245  12.923
   34DOPE   HN3 4261   2.370   4.410  12.922
   34DOPE   C12 4262   2.407   4.332  13.103
   34DOPE  H12A 4263   2.486   4.407  13.126
   34DOPE  H12B 4264   2.432   4.236  13.150
   34DOPE   C11 4265   2.271   4.386  13.149
   34DOPE  H11A 4266   2.272   4.410  13.258
   34DOPE  H11B 4267   2.196   4.307  13.130
   34DOPE     P 4268   2.094   4.566  13.080
   34DOPE   O13 4269   2.032   4.539  12.949
   34DOPE   O14 4270   2.105   4.707  13.124
   34DOPE   O11 4271   2.016   4.482  13.189
   34DOPE   O12 4272   2.239   4.501  13.073
   34DOPE    C1 4273   1.930   4.548  13.284
   34DOPE    HA 4274   1.839   4.486  13.303
   34DOPE    HB 4275   1.894   4.647  13.248
   34DOPE    C2 4276   1.999   4.573  13.421
   34DOPE    HS 4277   1.945   4.653  13.476
   34DOPE   O21 4278   2.138   4.601  13.402
   34DOPE   C21 4279   2.179   4.718  13.438
   34DOPE   O22 4280   2.111   4.817  13.459
   34DOPE   C22 4281   2.328   4.703  13.470
   34DOPE   H2R 4282   2.379   4.800  13.458
   34DOPE   H2S 4283   2.374   4.632  13.398
   34DOPE    C3 4284   1.994   4.449  13.511
   34DOPE    HX 4285   2.051   4.367  13.460
   34DOPE    HY 4286   1.888   4.417  13.523
   34DOPE   O31 4287   2.056   4.482  13.637
   34DOPE   C31 4288   2.042   4.386  13.726
   34DOPE   O32 4289   1.976   4.285  13.712
   34DOPE   C32 4290   2.122   4.420  13.849
   34DOPE   H2X 4291   2.230   4.407  13.826
   34DOPE   H2Y 4292   2.104   4.526  13.877
   34DOPE   C23 4293   2.345   4.649  13.614
   34DOPE   H3R 4294   2.307   4.544  13.619
   34DOPE   H3S 4295   2.282   4.711  13.683
   34DOPE   C24 4296   2.488   4.652  13.666
   34DOPE   H4R 4297   2.525   4.757  13.658
   34DOPE   H4S 4298   2.557   4.590  13.604
   34DOPE   C25 4299   2.493   4.609  13.812
   34DOPE   H5R 4300   2.402   4.647  13.864
   34DOPE   H5S 4301   2.580   4.653  13.863
   34DOPE   C26 4302   2.521   4.461  13.840
   34DOPE   H6R 4303   2.616   4.434  13.788
   34DOPE   H6S 4304   2.440   4.398  13.798
   34DOPE   C27 4305   2.538   4.437  13.991
   34DOPE   H7R 4306   2.617   4.504  14.031
   34DOPE   H7S 4307   2.571   4.332  14.006
   34DOPE   C28 4308   2.407   4.461  14.069
   34DOPE   H8R 4309   2.332   4.395  14.021
   34DOPE   H8S 4310   2.371   4.565  14.052
   34DOPE   C29 4311   2.410   4.427  14.216
   34DOPE   H9R 4312   2.453   4.328  14.239
   34DOPE  C210 4313   2.362   4.502  14.317
   34DOPE  H10R 4314   2.362   4.459  14.418
   34DOPE  C211 4315   2.295   4.637  14.304
   34DOPE  H11R 4316   2.340   4.693  14.220
   34DOPE  H11S 4317   2.314   4.698  14.395
   34DOPE  C212 4318   2.142   4.631  14.276
   34DOPE  H12R 4319   2.125   4.570  14.185
   34DOPE  H12S 4320   2.104   4.732  14.253
   34DOPE  C213 4321   2.056   4.573  14.390
   34DOPE  H13R 4322   2.100   4.477  14.416
   34DOPE  H13S 4323   1.952   4.557  14.354
   34DOPE  C214 4324   2.052   4.655  14.519
   34DOPE  H14R 4325   2.007   4.754  14.497
   34DOPE  H14S 4326   2.157   4.671  14.553
   34DOPE  C215 4327   1.975   4.588  14.635
   34DOPE  H15R 4328   2.028   4.495  14.664
   34DOPE  H15S 4329   1.873   4.560  14.600
   34DOPE  C216 4330   1.961   4.681  14.757
   34DOPE  H16R 4331   1.919   4.776  14.719
   34DOPE  H16S 4332   2.062   4.703  14.800
   34DOPE  C217 4333   1.869   4.639  14.871
   34DOPE  H17R 4334   1.770   4.607  14.832
   34DOPE  H17S 4335   1.851   4.732  14.931
   34DOPE  C218 4336   1.927   4.537  14.968
   34DOPE  H18R 4337   1.911   4.572  15.071
   34DOPE  H18S 4338   2.036   4.525  14.954
   34DOPE  H18T 4339   1.877   4.437  14.958
   34DOPE   C33 4340   2.082   4.327  13.965
   34DOPE   H3X 4341   1.972   4.312  13.970
   34DOPE   H3Y 4342   2.111   4.377  14.060
   34DOPE   C34 4343   2.152   4.192  13.955
   34DOPE   H4X 4344   2.122   4.140  13.861
   34DOPE   H4Y 4345   2.262   4.206  13.951
   34DOPE   C35 4346   2.120   4.102  14.074
   34DOPE   H5X 4347   2.188   4.015  14.069
   34DOPE   H5Y 4348   2.016   4.064  14.069
   34DOPE   C36 4349   2.149   4.167  14.209
   34DOPE   H6X 4350   2.218   4.253  14.198
   34DOPE   H6Y 4351   2.206   4.091  14.266
   34DOPE   C37 4352   2.022   4.212  14.282
   34DOPE   H7X 4353   1.987   4.309  14.241
   34DOPE   H7Y 4354   1.942   4.137  14.262
   34DOPE   C38 4355   2.045   4.223  14.433
   34DOPE   H8X 4356   1.955   4.263  14.485
   34DOPE   H8Y 4357   2.127   4.295  14.449
   34DOPE   C39 4358   2.086   4.089  14.485
   34DOPE   H9X 4359   2.011   4.010  14.473
   34DOPE  C310 4360   2.208   4.058  14.534
   34DOPE  H10X 4361   2.228   3.953  14.561
   34DOPE  C311 4362   2.326   4.150  14.549
   34DOPE  H11X 4363   2.400   4.134  14.468
   34DOPE  H11Y 4364   2.296   4.256  14.547
   34DOPE  C312 4365   2.388   4.120  14.686
   34DOPE  H12X 4366   2.419   4.013  14.688
   34DOPE  H12Y 4367   2.311   4.130  14.765
   34DOPE  C313 4368   2.509   4.206  14.726
   34DOPE  H13X 4369   2.535   4.183  14.831
   34DOPE  H13Y 4370   2.595   4.176  14.663
   34DOPE  C314 4371   2.494   4.358  14.710
   34DOPE  H14X 4372   2.394   4.386  14.671
   34DOPE  H14Y 4373   2.571   4.392  14.637
   34DOPE  C315 4374   2.517   4.434  14.841
   34DOPE  H15X 4375   2.616   4.406  14.884
   34DOPE  H15Y 4376   2.441   4.407  14.917
   34DOPE  C316 4377   2.512   4.585  14.815
   34DOPE  H16X 4378   2.412   4.615  14.777
   34DOPE  H16Y 4379   2.584   4.604  14.733
   34DOPE  C317 4380   2.548   4.668  14.938
   34DOPE  H17X 4381   2.638   4.622  14.985
   34DOPE  H17Y 4382   2.574   4.773  14.912
   34DOPE  C318 4383   2.436   4.676  15.037
   34DOPE  H18X 4384   2.398   4.573  15.051
   34DOPE  H18Y 4385   2.472   4.717  15.134
   34DOPE  H18Z 4386   2.353   4.740  15.000
   35DOPE     N 4387   5.776   2.838  13.150
   35DOPE   HN1 4388   5.785   2.891  13.239
   35DOPE   HN2 4389   5.773   2.735  13.170
   35DOPE   HN3 4390   5.857   2.862  13.090
   35DOPE   C12 4391   5.649   2.883  13.082
   35DOPE  H12A 4392   5.577   2.798  13.082
   35DOPE  H12B 4393   5.673   2.910  12.977
   35DOPE   C11 4394   5.586   3.004  13.154
   35DOPE  H11A 4395   5.664   3.080  13.177
   35DOPE  H11B 4396   5.539   2.972  13.250
   35DOPE     P 4397   5.505   3.192  12.990
   35DOPE   O13 4398   5.387   3.224  12.907
   35DOPE   O14 4399   5.636   3.179  12.920
   35DOPE   O11 4400   5.516   3.295  13.109
   35DOPE   O12 4401   5.484   3.056  13.070
   35DOPE    C1 4402   5.612   3.400  13.096
   35DOPE    HA 4403   5.571   3.480  13.029
   35DOPE    HB 4404   5.708   3.366  13.051
   35DOPE    C2 4405   5.646   3.465  13.233
   35DOPE    HS 4406   5.727   3.538  13.213
   35DOPE   O21 4407   5.689   3.370  13.333
   35DOPE   C21 4408   5.807   3.313  13.313
   35DOPE   O22 4409   5.882   3.333  13.219
   35DOPE   C22 4410   5.828   3.210  13.429
   35DOPE   H2R 4411   5.735   3.150  13.426
   35DOPE   H2S 4412   5.823   3.272  13.520
   35DOPE    C3 4413   5.524   3.546  13.287
   35DOPE    HX 4414   5.459   3.571  13.201
   35DOPE    HY 4415   5.560   3.641  13.330
   35DOPE   O31 4416   5.440   3.481  13.381
   35DOPE   C31 4417   5.470   3.495  13.508
   35DOPE   O32 4418   5.556   3.566  13.558
   35DOPE   C32 4419   5.374   3.406  13.582
   35DOPE   H2X 4420   5.287   3.464  13.619
   35DOPE   H2Y 4421   5.338   3.334  13.506
   35DOPE   C23 4422   5.945   3.104  13.438
   35DOPE   H3R 4423   5.988   3.090  13.335
   35DOPE   H3S 4424   5.900   3.008  13.472
   35DOPE   C24 4425   6.065   3.123  13.537
   35DOPE   H4R 4426   6.094   3.224  13.525
   35DOPE   H4S 4427   6.155   3.085  13.485
   35DOPE   C25 4428   6.079   3.049  13.678
   35DOPE   H5R 4429   6.170   2.992  13.650
   35DOPE   H5S 4430   6.006   2.967  13.693
   35DOPE   C26 4431   6.136   3.097  13.823
   35DOPE   H6R 4432   6.237   3.123  13.802
   35DOPE   H6S 4433   6.145   3.003  13.878
   35DOPE   C27 4434   6.113   3.215  13.929
   35DOPE   H7R 4435   6.091   3.319  13.904
   35DOPE   H7S 4436   6.216   3.228  13.969
   35DOPE   C28 4437   6.032   3.184  14.056
   35DOPE   H8R 4438   6.100   3.144  14.133
   35DOPE   H8S 4439   5.978   3.108  14.003
   35DOPE   C29 4440   5.915   3.258  14.112
   35DOPE   H9R 4441   5.882   3.340  14.048
   35DOPE  C210 4442   5.832   3.228  14.213
   35DOPE  H10R 4443   5.744   3.295  14.222
   35DOPE  C211 4444   5.823   3.112  14.309
   35DOPE  H11R 4445   5.734   3.052  14.278
   35DOPE  H11S 4446   5.795   3.153  14.408
   35DOPE  C212 4447   5.936   3.005  14.325
   35DOPE  H12R 4448   6.009   3.013  14.242
   35DOPE  H12S 4449   5.887   2.906  14.311
   35DOPE  C213 4450   6.021   2.994  14.454
   35DOPE  H13R 4451   6.096   3.075  14.457
   35DOPE  H13S 4452   6.084   2.903  14.445
   35DOPE  C214 4453   5.943   2.985  14.585
   35DOPE  H14R 4454   5.910   2.880  14.602
   35DOPE  H14S 4455   5.851   3.048  14.577
   35DOPE  C215 4456   6.022   3.034  14.707
   35DOPE  H15R 4457   6.071   3.131  14.684
   35DOPE  H15S 4458   6.104   2.962  14.729
   35DOPE  C216 4459   5.930   3.055  14.827
   35DOPE  H16R 4460   5.827   3.021  14.805
   35DOPE  H16S 4461   5.922   3.164  14.846
   35DOPE  C217 4462   5.980   2.996  14.959
   35DOPE  H17R 4463   6.088   2.972  14.952
   35DOPE  H17S 4464   5.925   2.901  14.979
   35DOPE  C218 4465   5.959   3.097  15.072
   35DOPE  H18R 4466   5.850   3.117  15.085
   35DOPE  H18S 4467   6.008   3.193  15.046
   35DOPE  H18T 4468   6.002   3.062  15.167
   35DOPE   C33 4469   5.429   3.310  13.689
   35DOPE   H3X 4470   5.439   3.367  13.784
   35DOPE   H3Y 4471   5.528   3.269  13.659
   35DOPE   C34 4472   5.325   3.197  13.697
   35DOPE   H4X 4473   5.226   3.247  13.705
   35DOPE   H4Y 4474   5.324   3.139  13.602
   35DOPE   C35 4475   5.338   3.101  13.815
   35DOPE   H5X 4476   5.414   3.023  13.792
   35DOPE   H5Y 4477   5.240   3.050  13.828
   35DOPE   C36 4478   5.376   3.173  13.945
   35DOPE   H6X 4479   5.298   3.248  13.971
   35DOPE   H6Y 4480   5.473   3.226  13.931
   35DOPE   C37 4481   5.396   3.074  14.058
   35DOPE   H7X 4482   5.454   2.988  14.016
   35DOPE   H7Y 4483   5.458   3.120  14.138
   35DOPE   C38 4484   5.261   3.029  14.118
   35DOPE   H8X 4485   5.184   3.026  14.038
   35DOPE   H8Y 4486   5.228   3.106  14.191
   35DOPE   C39 4487   5.277   2.892  14.177
   35DOPE   H9X 4488   5.287   2.811  14.103
   35DOPE  C310 4489   5.285   2.863  14.308
   35DOPE  H10X 4490   5.301   2.759  14.338
   35DOPE  C311 4491   5.279   2.964  14.420
   35DOPE  H11X 4492   5.205   3.044  14.398
   35DOPE  H11Y 4493   5.245   2.914  14.513
   35DOPE  C312 4494   5.415   3.032  14.447
   35DOPE  H12X 4495   5.450   3.087  14.357
   35DOPE  H12Y 4496   5.491   2.954  14.471
   35DOPE  C313 4497   5.407   3.130  14.565
   35DOPE  H13X 4498   5.348   3.219  14.534
   35DOPE  H13Y 4499   5.352   3.081  14.649
   35DOPE  C314 4500   5.545   3.174  14.614
   35DOPE  H14X 4501   5.601   3.216  14.527
   35DOPE  H14Y 4502   5.602   3.087  14.653
   35DOPE  C315 4503   5.538   3.284  14.722
   35DOPE  H15X 4504   5.470   3.364  14.686
   35DOPE  H15Y 4505   5.640   3.327  14.735
   35DOPE  C316 4506   5.488   3.239  14.859
   35DOPE  H16X 4507   5.553   3.158  14.897
   35DOPE  H16Y 4508   5.385   3.198  14.849
   35DOPE  C317 4509   5.486   3.358  14.957
   35DOPE  H17X 4510   5.591   3.390  14.976
   35DOPE  H17Y 4511   5.434   3.442  14.907
   35DOPE  C318 4512   5.416   3.332  15.091
   35DOPE  H18X 4513   5.316   3.286  15.074
   35DOPE  H18Y 4514   5.475   3.266  15.156
   35DOPE  H18Z 4515   5.401   3.428  15.145
   36DOPE     N 4516   5.785   4.485  13.242
   36DOPE   HN1 4517   5.793   4.517  13.142
   36DOPE   HN2 4518   5.856   4.533  13.299
   36DOPE   HN3 4519   5.801   4.382  13.241
   36DOPE   C12 4520   5.641   4.514  13.275
   36DOPE  H12A 4521   5.626   4.624  13.264
   36DOPE  H12B 4522   5.618   4.482  13.378
   36DOPE   C11 4523   5.556   4.446  13.169
   36DOPE  H11A 4524   5.449   4.479  13.174
   36DOPE  H11B 4525   5.556   4.336  13.186
   36DOPE     P 4526   5.558   4.590  12.952
   36DOPE   O13 4527   5.417   4.557  12.930
   36DOPE   O14 4528   5.647   4.611  12.835
   36DOPE   O11 4529   5.569   4.714  13.051
   36DOPE   O12 4530   5.617   4.473  13.043
   36DOPE    C1 4531   5.477   4.825  13.029
   36DOPE    HA 4532   5.383   4.794  12.977
   36DOPE    HB 4533   5.528   4.900  12.963
   36DOPE    C2 4534   5.435   4.903  13.158
   36DOPE    HS 4535   5.430   5.011  13.132
   36DOPE   O21 4536   5.528   4.881  13.264
   36DOPE   C21 4537   5.641   4.946  13.250
   36DOPE   O22 4538   5.670   5.023  13.159
   36DOPE   C22 4539   5.729   4.915  13.372
   36DOPE   H2R 4540   5.740   5.011  13.425
   36DOPE   H2S 4541   5.829   4.883  13.338
   36DOPE    C3 4542   5.292   4.870  13.211
   36DOPE    HX 4543   5.222   4.872  13.125
   36DOPE    HY 4544   5.261   4.952  13.280
   36DOPE   O31 4545   5.285   4.741  13.273
   36DOPE   C31 4546   5.304   4.737  13.404
   36DOPE   O32 4547   5.303   4.831  13.481
   36DOPE   C32 4548   5.321   4.590  13.440
   36DOPE   H2X 4549   5.217   4.556  13.457
   36DOPE   H2Y 4550   5.360   4.538  13.351
   36DOPE   C23 4551   5.668   4.814  13.473
   36DOPE   H3R 4552   5.674   4.712  13.433
   36DOPE   H3S 4553   5.561   4.838  13.493
   36DOPE   C24 4554   5.737   4.813  13.609
   36DOPE   H4R 4555   5.713   4.910  13.656
   36DOPE   H4S 4556   5.847   4.805  13.599
   36DOPE   C25 4557   5.683   4.701  13.699
   36DOPE   H5R 4558   5.698   4.602  13.651
   36DOPE   H5S 4559   5.573   4.720  13.707
   36DOPE   C26 4560   5.735   4.696  13.843
   36DOPE   H6R 4561   5.844   4.674  13.840
   36DOPE   H6S 4562   5.687   4.615  13.901
   36DOPE   C27 4563   5.710   4.829  13.913
   36DOPE   H7R 4564   5.607   4.866  13.906
   36DOPE   H7S 4565   5.771   4.902  13.857
   36DOPE   C28 4566   5.762   4.832  14.057
   36DOPE   H8R 4567   5.798   4.937  14.061
   36DOPE   H8S 4568   5.852   4.767  14.060
   36DOPE   C29 4569   5.683   4.825  14.185
   36DOPE   H9R 4570   5.615   4.909  14.203
   36DOPE  C210 4571   5.696   4.732  14.279
   36DOPE  H10R 4572   5.643   4.745  14.375
   36DOPE  C211 4573   5.791   4.617  14.275
   36DOPE  H11R 4574   5.829   4.596  14.173
   36DOPE  H11S 4575   5.735   4.528  14.309
   36DOPE  C212 4576   5.911   4.630  14.367
   36DOPE  H12R 4577   5.965   4.725  14.347
   36DOPE  H12S 4578   5.977   4.544  14.340
   36DOPE  C213 4579   5.876   4.614  14.515
   36DOPE  H13R 4580   5.800   4.537  14.528
   36DOPE  H13S 4581   5.830   4.708  14.551
   36DOPE  C214 4582   5.996   4.563  14.595
   36DOPE  H14R 4583   6.064   4.649  14.608
   36DOPE  H14S 4584   6.047   4.485  14.535
   36DOPE  C215 4585   5.967   4.494  14.728
   36DOPE  H15R 4586   6.066   4.465  14.772
   36DOPE  H15S 4587   5.912   4.400  14.709
   36DOPE  C216 4588   5.891   4.578  14.830
   36DOPE  H16R 4589   5.785   4.588  14.801
   36DOPE  H16S 4590   5.935   4.680  14.833
   36DOPE  C217 4591   5.905   4.525  14.973
   36DOPE  H17R 4592   5.825   4.572  15.035
   36DOPE  H17S 4593   6.002   4.562  15.010
   36DOPE  C218 4594   5.904   4.373  14.989
   36DOPE  H18R 4595   5.809   4.331  14.951
   36DOPE  H18S 4596   5.914   4.347  15.096
   36DOPE  H18T 4597   5.988   4.327  14.934
   36DOPE   C33 4598   5.413   4.552  13.559
   36DOPE   H3X 4599   5.511   4.599  13.545
   36DOPE   H3Y 4600   5.428   4.442  13.555
   36DOPE   C34 4601   5.354   4.584  13.697
   36DOPE   H4X 4602   5.364   4.693  13.717
   36DOPE   H4Y 4603   5.246   4.563  13.690
   36DOPE   C35 4604   5.416   4.502  13.813
   36DOPE   H5X 4605   5.519   4.538  13.829
   36DOPE   H5Y 4606   5.425   4.395  13.784
   36DOPE   C36 4607   5.342   4.513  13.947
   36DOPE   H6X 4608   5.411   4.485  14.030
   36DOPE   H6Y 4609   5.260   4.439  13.952
   36DOPE   C37 4610   5.283   4.653  13.973
   36DOPE   H7X 4611   5.223   4.690  13.888
   36DOPE   H7Y 4612   5.208   4.645  14.053
   36DOPE   C38 4613   5.394   4.756  14.000
   36DOPE   H8X 4614   5.420   4.794  13.899
   36DOPE   H8Y 4615   5.482   4.699  14.036
   36DOPE   C39 4616   5.371   4.871  14.093
   36DOPE   H9X 4617   5.394   4.971  14.051
   36DOPE  C310 4618   5.327   4.861  14.220
   36DOPE  H10X 4619   5.317   4.952  14.281
   36DOPE  C311 4620   5.292   4.732  14.289
   36DOPE  H11X 4621   5.190   4.737  14.331
   36DOPE  H11Y 4622   5.287   4.648  14.218
   36DOPE  C312 4623   5.391   4.668  14.384
   36DOPE  H12X 4624   5.436   4.734  14.460
   36DOPE  H12Y 4625   5.472   4.632  14.316
   36DOPE  C313 4626   5.332   4.539  14.444
   36DOPE  H13X 4627   5.283   4.553  14.543
   36DOPE  H13Y 4628   5.255   4.504  14.374
   36DOPE  C314 4629   5.438   4.432  14.449
   36DOPE  H14X 4630   5.468   4.416  14.342
   36DOPE  H14Y 4631   5.401   4.335  14.487
   36DOPE  C315 4632   5.562   4.480  14.521
   36DOPE  H15X 4633   5.592   4.582  14.490
   36DOPE  H15Y 4634   5.647   4.422  14.487
   36DOPE  C316 4635   5.565   4.481  14.674
   36DOPE  H16X 4636   5.566   4.587  14.693
   36DOPE  H16Y 4637   5.664   4.447  14.709
   36DOPE  C317 4638   5.457   4.408  14.755
   36DOPE  H17X 4639   5.360   4.461  14.746
   36DOPE  H17Y 4640   5.443   4.305  14.716
   36DOPE  C318 4641   5.498   4.400  14.902
   36DOPE  H18X 4642   5.506   4.501  14.947
   36DOPE  H18Y 4643   5.427   4.340  14.961
   36DOPE  H18Z 4644   5.599   4.355  14.910
   37DOPE     N 4645   2.763   2.344  12.957
   37DOPE   HN1 4646   2.783   2.373  12.859
   37DOPE   HN2 4647   2.729   2.427  13.012
   37DOPE   HN3 4648   2.847   2.302  13.002
   37DOPE   C12 4649   2.642   2.254  12.955
   37DOPE  H12A 4650   2.633   2.208  13.055
   37DOPE  H12B 4651   2.656   2.175  12.879
   37DOPE   C11 4652   2.520   2.341  12.924
   37DOPE  H11A 4653   2.425   2.282  12.933
   37DOPE  H11B 4654   2.523   2.377  12.818
   37DOPE     P 4655   2.471   2.436  13.159
   37DOPE   O13 4656   2.591   2.473  13.240
   37DOPE   O14 4657   2.414   2.301  13.176
   37DOPE   O11 4658   2.362   2.550  13.157
   37DOPE   O12 4659   2.521   2.455  13.010
   37DOPE    C1 4660   2.390   2.678  13.214
   37DOPE    HA 4661   2.351   2.756  13.146
   37DOPE    HB 4662   2.499   2.699  13.228
   37DOPE    C2 4663   2.322   2.689  13.352
   37DOPE    HS 4664   2.359   2.782  13.401
   37DOPE   O21 4665   2.349   2.568  13.427
   37DOPE   C21 4666   2.414   2.584  13.540
   37DOPE   O22 4667   2.426   2.690  13.599
   37DOPE   C22 4668   2.476   2.450  13.589
   37DOPE   H2R 4669   2.554   2.422  13.515
   37DOPE   H2S 4670   2.394   2.375  13.584
   37DOPE    C3 4671   2.169   2.708  13.330
   37DOPE    HX 4672   2.131   2.622  13.270
   37DOPE    HY 4673   2.155   2.797  13.265
   37DOPE   O31 4674   2.103   2.731  13.456
   37DOPE   C31 4675   2.051   2.621  13.508
   37DOPE   O32 4676   2.027   2.520  13.445
   37DOPE   C32 4677   2.024   2.641  13.658
   37DOPE   H2X 4678   1.994   2.748  13.664
   37DOPE   H2Y 4679   1.939   2.579  13.690
   37DOPE   C23 4680   2.536   2.453  13.733
   37DOPE   H3R 4681   2.493   2.366  13.790
   37DOPE   H3S 4682   2.500   2.544  13.786
   37DOPE   C24 4683   2.690   2.447  13.746
   37DOPE   H4R 4684   2.736   2.489  13.655
   37DOPE   H4S 4685   2.720   2.340  13.752
   37DOPE   C25 4686   2.742   2.523  13.870
   37DOPE   H5R 4687   2.740   2.453  13.956
   37DOPE   H5S 4688   2.669   2.602  13.897
   37DOPE   C26 4689   2.883   2.588  13.863
   37DOPE   H6R 4690   2.882   2.693  13.828
   37DOPE   H6S 4691   2.948   2.534  13.791
   37DOPE   C27 4692   2.948   2.590  14.002
   37DOPE   H7R 4693   3.012   2.501  14.004
   37DOPE   H7S 4694   2.865   2.578  14.074
   37DOPE   C28 4695   3.046   2.699  14.044
   37DOPE   H8R 4696   3.100   2.734  13.956
   37DOPE   H8S 4697   3.122   2.652  14.111
   37DOPE   C29 4698   2.989   2.814  14.120
   37DOPE   H9R 4699   3.010   2.914  14.079
   37DOPE  C210 4700   2.917   2.805  14.232
   37DOPE  H10R 4701   2.881   2.900  14.273
   37DOPE  C211 4702   2.875   2.683  14.312
   37DOPE  H11R 4703   2.928   2.683  14.409
   37DOPE  H11S 4704   2.901   2.586  14.266
   37DOPE  C212 4705   2.723   2.686  14.341
   37DOPE  H12R 4706   2.698   2.604  14.412
   37DOPE  H12S 4707   2.666   2.666  14.247
   37DOPE  C213 4708   2.676   2.820  14.399
   37DOPE  H13R 4709   2.571   2.813  14.436
   37DOPE  H13S 4710   2.673   2.896  14.319
   37DOPE  C214 4711   2.769   2.876  14.508
   37DOPE  H14R 4712   2.744   2.983  14.519
   37DOPE  H14S 4713   2.875   2.881  14.476
   37DOPE  C215 4714   2.771   2.792  14.635
   37DOPE  H15R 4715   2.823   2.845  14.719
   37DOPE  H15S 4716   2.832   2.704  14.608
   37DOPE  C216 4717   2.640   2.730  14.685
   37DOPE  H16R 4718   2.586   2.680  14.602
   37DOPE  H16S 4719   2.571   2.803  14.732
   37DOPE  C217 4720   2.679   2.622  14.785
   37DOPE  H17R 4721   2.757   2.660  14.855
   37DOPE  H17S 4722   2.725   2.540  14.725
   37DOPE  C218 4723   2.562   2.568  14.862
   37DOPE  H18R 4724   2.471   2.574  14.798
   37DOPE  H18S 4725   2.543   2.624  14.954
   37DOPE  H18T 4726   2.583   2.462  14.889
   37DOPE   C33 4727   2.148   2.624  13.751
   37DOPE   H3X 4728   2.133   2.679  13.845
   37DOPE   H3Y 4729   2.231   2.679  13.704
   37DOPE   C34 4730   2.194   2.481  13.789
   37DOPE   H4X 4731   2.173   2.409  13.707
   37DOPE   H4Y 4732   2.303   2.484  13.802
   37DOPE   C35 4733   2.145   2.425  13.925
   37DOPE   H5X 4734   2.160   2.315  13.926
   37DOPE   H5Y 4735   2.036   2.446  13.934
   37DOPE   C36 4736   2.217   2.479  14.050
   37DOPE   H6X 4737   2.162   2.441  14.139
   37DOPE   H6Y 4738   2.213   2.590  14.050
   37DOPE   C37 4739   2.366   2.446  14.073
   37DOPE   H7X 4740   2.427   2.488  13.990
   37DOPE   H7Y 4741   2.393   2.504  14.165
   37DOPE   C38 4742   2.399   2.298  14.097
   37DOPE   H8X 4743   2.389   2.241  14.002
   37DOPE   H8Y 4744   2.326   2.255  14.169
   37DOPE   C39 4745   2.541   2.296  14.149
   37DOPE   H9X 4746   2.615   2.333  14.077
   37DOPE  C310 4747   2.583   2.256  14.270
   37DOPE  H10X 4748   2.690   2.269  14.293
   37DOPE  C311 4749   2.500   2.203  14.384
   37DOPE  H11X 4750   2.391   2.226  14.373
   37DOPE  H11Y 4751   2.508   2.092  14.386
   37DOPE  C312 4752   2.546   2.254  14.523
   37DOPE  H12X 4753   2.657   2.260  14.525
   37DOPE  H12Y 4754   2.517   2.179  14.600
   37DOPE  C313 4755   2.487   2.390  14.562
   37DOPE  H13X 4756   2.562   2.441  14.626
   37DOPE  H13Y 4757   2.475   2.452  14.470
   37DOPE  C314 4758   2.353   2.386  14.637
   37DOPE  H14X 4759   2.278   2.334  14.574
   37DOPE  H14Y 4760   2.318   2.491  14.651
   37DOPE  C315 4761   2.355   2.319  14.776
   37DOPE  H15X 4762   2.413   2.377  14.850
   37DOPE  H15Y 4763   2.406   2.222  14.774
   37DOPE  C316 4764   2.216   2.311  14.836
   37DOPE  H16X 4765   2.145   2.255  14.771
   37DOPE  H16Y 4766   2.178   2.416  14.841
   37DOPE  C317 4767   2.215   2.255  14.979
   37DOPE  H17X 4768   2.290   2.303  15.044
   37DOPE  H17Y 4769   2.123   2.291  15.021
   37DOPE  C318 4770   2.204   2.103  14.995
   37DOPE  H18X 4771   2.174   2.075  15.097
   37DOPE  H18Y 4772   2.126   2.062  14.928
   37DOPE  H18Z 4773   2.303   2.058  14.973
   38DOPE     N 4774   5.325   5.432  12.837
   38DOPE   HN1 4775   5.308   5.460  12.736
   38DOPE   HN2 4776   5.265   5.486  12.902
   38DOPE   HN3 4777   5.424   5.446  12.860
   38DOPE   C12 4778   5.293   5.288  12.854
   38DOPE  H12A 4779   5.361   5.230  12.788
   38DOPE  H12B 4780   5.188   5.271  12.822
   38DOPE   C11 4781   5.310   5.247  13.000
   38DOPE  H11A 4782   5.410   5.274  13.040
   38DOPE  H11B 4783   5.308   5.135  12.998
   38DOPE     P 4784   5.116   5.210  13.166
   38DOPE   O13 4785   5.100   5.084  13.088
   38DOPE   O14 4786   4.997   5.279  13.217
   38DOPE   O11 4787   5.221   5.190  13.282
   38DOPE   O12 4788   5.207   5.308  13.079
   38DOPE    C1 4789   5.237   5.303  13.371
   38DOPE    HA 4790   5.140   5.357  13.391
   38DOPE    HB 4791   5.308   5.377  13.329
   38DOPE    C2 4792   5.282   5.256  13.510
   38DOPE    HS 4793   5.371   5.189  13.496
   38DOPE   O21 4794   5.169   5.188  13.566
   38DOPE   C21 4795   5.197   5.094  13.652
   38DOPE   O22 4796   5.308   5.063  13.690
   38DOPE   C22 4797   5.064   5.043  13.710
   38DOPE   H2R 4798   5.009   4.993  13.628
   38DOPE   H2S 4799   5.008   5.133  13.742
   38DOPE    C3 4800   5.323   5.380  13.597
   38DOPE    HX 4801   5.235   5.448  13.600
   38DOPE    HY 4802   5.403   5.434  13.541
   38DOPE   O31 4803   5.375   5.347  13.729
   38DOPE   C31 4804   5.282   5.340  13.824
   38DOPE   O32 4805   5.164   5.366  13.810
   38DOPE   C32 4806   5.340   5.291  13.957
   38DOPE   H2X 4807   5.282   5.200  13.984
   38DOPE   H2Y 4808   5.445   5.261  13.942
   38DOPE   C23 4809   5.078   4.948  13.832
   38DOPE   H3R 4810   5.142   4.996  13.910
   38DOPE   H3S 4811   5.129   4.854  13.800
   38DOPE   C24 4812   4.941   4.915  13.892
   38DOPE   H4R 4813   4.883   4.858  13.816
   38DOPE   H4S 4814   4.885   5.010  13.911
   38DOPE   C25 4815   4.943   4.834  14.023
   38DOPE   H5R 4816   5.012   4.747  14.015
   38DOPE   H5S 4817   4.840   4.796  14.041
   38DOPE   C26 4818   4.982   4.918  14.144
   38DOPE   H6R 4819   4.928   5.014  14.135
   38DOPE   H6S 4820   5.090   4.942  14.140
   38DOPE   C27 4821   4.947   4.854  14.279
   38DOPE   H7R 4822   4.984   4.750  14.280
   38DOPE   H7S 4823   4.836   4.851  14.290
   38DOPE   C28 4824   5.009   4.932  14.396
   38DOPE   H8R 4825   4.972   5.036  14.386
   38DOPE   H8S 4826   5.119   4.936  14.385
   38DOPE   C29 4827   4.971   4.884  14.533
   38DOPE   H9R 4828   4.865   4.902  14.557
   38DOPE  C210 4829   5.050   4.833  14.630
   38DOPE  H10R 4830   5.005   4.822  14.729
   38DOPE  C211 4831   5.199   4.811  14.626
   38DOPE  H11R 4832   5.249   4.908  14.617
   38DOPE  H11S 4833   5.217   4.764  14.529
   38DOPE  C212 4834   5.280   4.729  14.731
   38DOPE  H12R 4835   5.370   4.695  14.675
   38DOPE  H12S 4836   5.233   4.636  14.764
   38DOPE  C213 4837   5.332   4.802  14.856
   38DOPE  H13R 4838   5.259   4.789  14.940
   38DOPE  H13S 4839   5.341   4.909  14.841
   38DOPE  C214 4840   5.473   4.759  14.895
   38DOPE  H14R 4841   5.516   4.703  14.815
   38DOPE  H14S 4842   5.463   4.693  14.985
   38DOPE  C215 4843   5.585   4.862  14.924
   38DOPE  H15R 4844   5.671   4.792  14.943
   38DOPE  H15S 4845   5.543   4.893  15.018
   38DOPE  C216 4846   5.635   4.981  14.829
   38DOPE  H16R 4847   5.607   4.965  14.723
   38DOPE  H16S 4848   5.730   4.926  14.835
   38DOPE  C217 4849   5.738   5.108  14.845
   38DOPE  H17R 4850   5.770   5.120  14.740
   38DOPE  H17S 4851   5.826   5.073  14.904
   38DOPE  C218 4852   5.725   5.257  14.893
   38DOPE  H18R 4853   5.649   5.273  14.971
   38DOPE  H18S 4854   5.701   5.325  14.809
   38DOPE  H18T 4855   5.822   5.293  14.934
   38DOPE   C33 4856   5.325   5.398  14.067
   38DOPE   H3X 4857   5.222   5.439  14.065
   38DOPE   H3Y 4858   5.390   5.485  14.041
   38DOPE   C34 4859   5.361   5.355  14.211
   38DOPE   H4X 4860   5.468   5.327  14.213
   38DOPE   H4Y 4861   5.349   5.443  14.278
   38DOPE   C35 4862   5.280   5.239  14.272
   38DOPE   H5X 4863   5.332   5.206  14.365
   38DOPE   H5Y 4864   5.280   5.152  14.203
   38DOPE   C36 4865   5.135   5.274  14.310
   38DOPE   H6X 4866   5.132   5.365  14.373
   38DOPE   H6Y 4867   5.097   5.191  14.373
   38DOPE   C37 4868   5.043   5.289  14.187
   38DOPE   H7X 4869   5.053   5.392  14.147
   38DOPE   H7Y 4870   5.077   5.218  14.109
   38DOPE   C38 4871   4.894   5.265  14.210
   38DOPE   H8X 4872   4.879   5.163  14.247
   38DOPE   H8Y 4873   4.843   5.272  14.111
   38DOPE   C39 4874   4.830   5.362  14.305
   38DOPE   H9X 4875   4.881   5.458  14.318
   38DOPE  C310 4876   4.722   5.333  14.380
   38DOPE  H10X 4877   4.685   5.408  14.450
   38DOPE  C311 4878   4.648   5.201  14.383
   38DOPE  H11X 4879   4.538   5.219  14.385
   38DOPE  H11Y 4880   4.668   5.139  14.293
   38DOPE  C312 4881   4.688   5.120  14.508
   38DOPE  H12X 4882   4.798   5.106  14.504
   38DOPE  H12Y 4883   4.641   5.019  14.507
   38DOPE  C313 4884   4.652   5.194  14.636
   38DOPE  H13X 4885   4.704   5.291  14.628
   38DOPE  H13Y 4886   4.543   5.212  14.642
   38DOPE  C314 4887   4.703   5.136  14.768
   38DOPE  H14X 4888   4.653   5.038  14.784
   38DOPE  H14Y 4889   4.674   5.200  14.854
   38DOPE  C315 4890   4.853   5.114  14.773
   38DOPE  H15X 4891   4.887   5.056  14.686
   38DOPE  H15Y 4892   4.860   5.048  14.860
   38DOPE  C316 4893   4.954   5.228  14.793
   38DOPE  H16X 4894   4.916   5.317  14.845
   38DOPE  H16Y 4895   4.996   5.259  14.694
   38DOPE  C317 4896   5.070   5.178  14.877
   38DOPE  H17X 4897   5.159   5.240  14.861
   38DOPE  H17Y 4898   5.046   5.183  14.984
   38DOPE  C318 4899   5.112   5.038  14.841
   38DOPE  H18X 4900   5.189   5.005  14.907
   38DOPE  H18Y 4901   5.037   4.960  14.860
   38DOPE  H18Z 4902   5.146   5.037  14.737
   39DOPE     N 4903   1.921   3.594  13.236
   39DOPE   HN1 4904   1.956   3.590  13.333
   39DOPE   HN2 4905   1.816   3.596  13.234
   39DOPE   HN3 4906   1.957   3.512  13.183
   39DOPE   C12 4907   1.963   3.718  13.164
   39DOPE  H12A 4908   2.072   3.721  13.151
   39DOPE  H12B 4909   1.926   3.801  13.226
   39DOPE   C11 4910   1.884   3.728  13.037
   39DOPE  H11A 4911   1.899   3.642  12.968
   39DOPE  H11B 4912   1.921   3.819  12.982
   39DOPE     P 4913   1.663   3.847  13.010
   39DOPE   O13 4914   1.530   3.850  13.069
   39DOPE   O14 4915   1.673   3.823  12.865
   39DOPE   O11 4916   1.744   3.976  13.043
   39DOPE   O12 4917   1.747   3.733  13.080
   39DOPE    C1 4918   1.692   4.103  13.002
   39DOPE    HA 4919   1.580   4.103  12.995
   39DOPE    HB 4920   1.733   4.129  12.902
   39DOPE    C2 4921   1.731   4.207  13.108
   39DOPE    HS 4922   1.709   4.307  13.068
   39DOPE   O21 4923   1.874   4.195  13.131
   39DOPE   C21 4924   1.930   4.185  13.249
   39DOPE   O22 4925   1.885   4.221  13.357
   39DOPE   C22 4926   2.064   4.113  13.236
   39DOPE   H2R 4927   2.146   4.180  13.268
   39DOPE   H2S 4928   2.076   4.084  13.129
   39DOPE    C3 4929   1.642   4.184  13.235
   39DOPE    HX 4930   1.535   4.186  13.202
   39DOPE    HY 4931   1.657   4.272  13.302
   39DOPE   O31 4932   1.670   4.058  13.300
   39DOPE   C31 4933   1.628   4.057  13.426
   39DOPE   O32 4934   1.565   4.147  13.478
   39DOPE   C32 4935   1.669   3.928  13.497
   39DOPE   H2X 4936   1.646   3.845  13.427
   39DOPE   H2Y 4937   1.778   3.930  13.516
   39DOPE   C23 4938   2.067   3.991  13.328
   39DOPE   H3R 4939   2.143   3.918  13.292
   39DOPE   H3S 4940   1.965   3.947  13.328
   39DOPE   C24 4941   2.093   4.019  13.477
   39DOPE   H4R 4942   2.014   4.087  13.516
   39DOPE   H4S 4943   2.191   4.070  13.489
   39DOPE   C25 4944   2.090   3.886  13.553
   39DOPE   H5R 4945   2.159   3.817  13.500
   39DOPE   H5S 4946   1.988   3.842  13.547
   39DOPE   C26 4947   2.137   3.894  13.698
   39DOPE   H6R 4948   2.190   3.990  13.717
   39DOPE   H6S 4949   2.213   3.813  13.710
   39DOPE   C27 4950   2.030   3.870  13.806
   39DOPE   H7R 4951   1.953   3.800  13.765
   39DOPE   H7S 4952   1.980   3.965  13.832
   39DOPE   C28 4953   2.095   3.801  13.928
   39DOPE   H8R 4954   2.185   3.857  13.960
   39DOPE   H8S 4955   2.135   3.708  13.885
   39DOPE   C29 4956   2.001   3.766  14.042
   39DOPE   H9R 4957   1.901   3.734  14.006
   39DOPE  C210 4958   2.022   3.765  14.175
   39DOPE  H10R 4959   1.939   3.733  14.240
   39DOPE  C211 4960   2.147   3.799  14.254
   39DOPE  H11R 4961   2.121   3.878  14.328
   39DOPE  H11S 4962   2.225   3.843  14.189
   39DOPE  C212 4963   2.214   3.684  14.333
   39DOPE  H12R 4964   2.287   3.727  14.405
   39DOPE  H12S 4965   2.274   3.627  14.258
   39DOPE  C213 4966   2.124   3.582  14.408
   39DOPE  H13R 4967   2.188   3.498  14.443
   39DOPE  H13S 4968   2.051   3.539  14.337
   39DOPE  C214 4969   2.045   3.634  14.529
   39DOPE  H14R 4970   1.963   3.560  14.548
   39DOPE  H14S 4971   1.995   3.729  14.500
   39DOPE  C215 4972   2.124   3.647  14.660
   39DOPE  H15R 4973   2.220   3.702  14.644
   39DOPE  H15S 4974   2.149   3.546  14.697
   39DOPE  C216 4975   2.041   3.722  14.767
   39DOPE  H16R 4976   2.083   3.705  14.868
   39DOPE  H16S 4977   1.937   3.683  14.764
   39DOPE  C217 4978   2.042   3.873  14.737
   39DOPE  H17R 4979   2.022   3.881  14.628
   39DOPE  H17S 4980   2.144   3.912  14.757
   39DOPE  C218 4981   1.941   3.963  14.805
   39DOPE  H18R 4982   1.926   4.056  14.747
   39DOPE  H18S 4983   1.978   3.992  14.906
   39DOPE  H18T 4984   1.842   3.915  14.814
   39DOPE   C33 4985   1.588   3.910  13.627
   39DOPE   H3X 4986   1.593   3.802  13.655
   39DOPE   H3Y 4987   1.482   3.937  13.604
   39DOPE   C34 4988   1.629   3.991  13.752
   39DOPE   H4X 4989   1.736   3.974  13.773
   39DOPE   H4Y 4990   1.614   4.100  13.733
   39DOPE   C35 4991   1.544   3.948  13.874
   39DOPE   H5X 4992   1.554   3.838  13.886
   39DOPE   H5Y 4993   1.437   3.971  13.854
   39DOPE   C36 4994   1.584   4.016  14.007
   39DOPE   H6X 4995   1.560   4.124  13.998
   39DOPE   H6Y 4996   1.694   4.007  14.021
   39DOPE   C37 4997   1.511   3.957  14.129
   39DOPE   H7X 4998   1.403   3.945  14.103
   39DOPE   H7Y 4999   1.551   3.855  14.150
   39DOPE   C38 5000   1.517   4.043  14.257
   39DOPE   H8X 5001   1.463   3.988  14.337
   39DOPE   H8Y 5002   1.456   4.135  14.240
   39DOPE   C39 5003   1.655   4.086  14.303
   39DOPE   H9X 5004   1.716   4.130  14.223
   39DOPE  C310 5005   1.715   4.066  14.423
   39DOPE  H10X 5006   1.818   4.101  14.434
   39DOPE  C311 5007   1.664   3.995  14.546
   39DOPE  H11X 5008   1.595   3.923  14.504
   39DOPE  H11Y 5009   1.754   3.940  14.578
   39DOPE  C312 5010   1.597   4.063  14.672
   39DOPE  H12X 5011   1.510   4.116  14.629
   39DOPE  H12Y 5012   1.673   4.137  14.710
   39DOPE  C313 5013   1.543   3.995  14.807
   39DOPE  H13X 5014   1.618   3.960  14.879
   39DOPE  H13Y 5015   1.526   4.100  14.841
   39DOPE  C314 5016   1.393   3.957  14.847
   39DOPE  H14X 5017   1.320   3.977  14.766
   39DOPE  H14Y 5018   1.366   4.035  14.924
   39DOPE  C315 5019   1.349   3.838  14.938
   39DOPE  H15X 5020   1.243   3.864  14.956
   39DOPE  H15Y 5021   1.397   3.849  15.037
   39DOPE  C316 5022   1.333   3.689  14.899
   39DOPE  H16X 5023   1.364   3.667  14.795
   39DOPE  H16Y 5024   1.223   3.666  14.903
   39DOPE  C317 5025   1.392   3.590  14.999
   39DOPE  H17X 5026   1.319   3.585  15.083
   39DOPE  H17Y 5027   1.394   3.489  14.950
   39DOPE  C318 5028   1.530   3.628  15.055
   39DOPE  H18X 5029   1.547   3.595  15.159
   39DOPE  H18Y 5030   1.609   3.587  14.992
   39DOPE  H18Z 5031   1.550   3.737  15.058
   40DOPE     N 5032   4.131   5.986  13.301
   40DOPE   HN1 5033   4.118   5.890  13.262
   40DOPE   HN2 5034   4.147   5.983  13.403
   40DOPE   HN3 5035   4.040   6.034  13.276
   40DOPE   C12 5036   4.244   6.046  13.222
   40DOPE  H12A 5037   4.327   5.973  13.223
   40DOPE  H12B 5038   4.275   6.140  13.271
   40DOPE   C11 5039   4.201   6.073  13.076
   40DOPE  H11A 5040   4.291   6.095  13.014
   40DOPE  H11B 5041   4.139   6.167  13.073
   40DOPE     P 5042   3.977   5.969  12.996
   40DOPE   O13 5043   3.921   5.839  12.958
   40DOPE   O14 5044   3.945   6.089  12.917
   40DOPE   O11 5045   3.933   5.996  13.144
   40DOPE   O12 5046   4.133   5.959  13.023
   40DOPE    C1 5047   3.821   5.930  13.201
   40DOPE    HA 5048   3.856   5.852  13.272
   40DOPE    HB 5049   3.754   5.880  13.126
   40DOPE    C2 5050   3.738   6.035  13.276
   40DOPE    HS 5051   3.670   6.082  13.200
   40DOPE   O21 5052   3.827   6.133  13.333
   40DOPE   C21 5053   3.760   6.240  13.374
   40DOPE   O22 5054   3.641   6.257  13.358
   40DOPE   C22 5055   3.855   6.339  13.441
   40DOPE   H2R 5056   3.792   6.406  13.503
   40DOPE   H2S 5057   3.898   6.401  13.359
   40DOPE    C3 5058   3.655   5.964  13.384
   40DOPE    HX 5059   3.596   5.884  13.332
   40DOPE    HY 5060   3.584   6.034  13.433
   40DOPE   O31 5061   3.748   5.910  13.480
   40DOPE   C31 5062   3.693   5.819  13.557
   40DOPE   O32 5063   3.579   5.777  13.545
   40DOPE   C32 5064   3.799   5.769  13.656
   40DOPE   H2X 5065   3.882   5.726  13.595
   40DOPE   H2Y 5066   3.838   5.853  13.716
   40DOPE   C23 5067   3.969   6.277  13.525
   40DOPE   H3R 5068   4.055   6.349  13.522
   40DOPE   H3S 5069   4.005   6.181  13.483
   40DOPE   C24 5070   3.934   6.259  13.674
   40DOPE   H4R 5071   3.906   6.358  13.715
   40DOPE   H4S 5072   4.025   6.225  13.728
   40DOPE   C25 5073   3.820   6.159  13.700
   40DOPE   H5R 5074   3.840   6.066  13.642
   40DOPE   H5S 5075   3.725   6.203  13.663
   40DOPE   C26 5076   3.804   6.122  13.848
   40DOPE   H6R 5077   3.883   6.049  13.875
   40DOPE   H6S 5078   3.705   6.073  13.862
   40DOPE   C27 5079   3.817   6.243  13.941
   40DOPE   H7R 5080   3.772   6.330  13.889
   40DOPE   H7S 5081   3.924   6.266  13.960
   40DOPE   C28 5082   3.741   6.230  14.075
   40DOPE   H8R 5083   3.640   6.194  14.050
   40DOPE   H8S 5084   3.727   6.333  14.115
   40DOPE   C29 5085   3.797   6.140  14.181
   40DOPE   H9R 5086   3.768   6.035  14.171
   40DOPE  C210 5087   3.877   6.178  14.282
   40DOPE  H10R 5088   3.907   6.102  14.356
   40DOPE  C211 5089   3.926   6.318  14.310
   40DOPE  H11R 5090   3.902   6.347  14.414
   40DOPE  H11S 5091   3.878   6.393  14.244
   40DOPE  C212 5092   4.079   6.328  14.287
   40DOPE  H12R 5093   4.111   6.433  14.302
   40DOPE  H12S 5094   4.101   6.301  14.181
   40DOPE  C213 5095   4.163   6.239  14.379
   40DOPE  H13R 5096   4.271   6.249  14.355
   40DOPE  H13S 5097   4.135   6.136  14.358
   40DOPE  C214 5098   4.139   6.261  14.528
   40DOPE  H14R 5099   4.033   6.235  14.553
   40DOPE  H14S 5100   4.156   6.368  14.551
   40DOPE  C215 5101   4.229   6.174  14.616
   40DOPE  H15R 5102   4.336   6.189  14.587
   40DOPE  H15S 5103   4.206   6.067  14.599
   40DOPE  C216 5104   4.209   6.210  14.763
   40DOPE  H16R 5105   4.101   6.198  14.789
   40DOPE  H16S 5106   4.235   6.317  14.777
   40DOPE  C217 5107   4.292   6.126  14.859
   40DOPE  H17R 5108   4.298   6.180  14.956
   40DOPE  H17S 5109   4.396   6.118  14.819
   40DOPE  C218 5110   4.235   5.986  14.884
   40DOPE  H18R 5111   4.284   5.934  14.968
   40DOPE  H18S 5112   4.253   5.922  14.796
   40DOPE  H18T 5113   4.127   5.990  14.908
   40DOPE   C33 5114   3.745   5.658  13.748
   40DOPE   H3X 5115   3.826   5.594  13.787
   40DOPE   H3Y 5116   3.676   5.597  13.685
   40DOPE   C34 5117   3.659   5.708  13.863
   40DOPE   H4X 5118   3.612   5.805  13.835
   40DOPE   H4Y 5119   3.578   5.632  13.876
   40DOPE   C35 5120   3.719   5.715  14.002
   40DOPE   H5X 5121   3.731   5.612  14.042
   40DOPE   H5Y 5122   3.642   5.764  14.065
   40DOPE   C36 5123   3.849   5.790  14.027
   40DOPE   H6X 5124   3.843   5.895  13.993
   40DOPE   H6Y 5125   3.934   5.741  13.976
   40DOPE   C37 5126   3.852   5.791  14.179
   40DOPE   H7X 5127   3.768   5.854  14.215
   40DOPE   H7Y 5128   3.825   5.686  14.213
   40DOPE   C38 5129   3.979   5.814  14.261
   40DOPE   H8X 5130   4.038   5.729  14.236
   40DOPE   H8Y 5131   3.932   5.794  14.358
   40DOPE   C39 5132   4.090   5.912  14.276
   40DOPE   H9X 5133   4.089   6.001  14.210
   40DOPE  C310 5134   4.190   5.890  14.365
   40DOPE  H10X 5135   4.279   5.955  14.365
   40DOPE  C311 5136   4.203   5.769  14.457
   40DOPE  H11X 5137   4.173   5.677  14.404
   40DOPE  H11Y 5138   4.311   5.754  14.481
   40DOPE  C312 5139   4.128   5.771  14.594
   40DOPE  H12X 5140   4.157   5.864  14.645
   40DOPE  H12Y 5141   4.162   5.685  14.656
   40DOPE  C313 5142   3.975   5.772  14.586
   40DOPE  H13X 5143   3.949   5.863  14.528
   40DOPE  H13Y 5144   3.939   5.681  14.533
   40DOPE  C314 5145   3.895   5.792  14.714
   40DOPE  H14X 5146   3.938   5.736  14.800
   40DOPE  H14Y 5147   3.792   5.753  14.697
   40DOPE  C315 5148   3.884   5.941  14.742
   40DOPE  H15X 5149   3.836   5.992  14.655
   40DOPE  H15Y 5150   3.986   5.984  14.752
   40DOPE  C316 5151   3.802   5.971  14.867
   40DOPE  H16X 5152   3.844   5.913  14.953
   40DOPE  H16Y 5153   3.698   5.936  14.850
   40DOPE  C317 5154   3.802   6.120  14.900
   40DOPE  H17X 5155   3.905   6.152  14.928
   40DOPE  H17Y 5156   3.775   6.177  14.808
   40DOPE  C318 5157   3.704   6.153  15.012
   40DOPE  H18X 5158   3.683   6.262  15.016
   40DOPE  H18Y 5159   3.607   6.100  14.994
   40DOPE  H18Z 5160   3.744   6.118  15.110
   41DOPE     N 5161   2.031   5.023  13.167
   41DOPE   HN1 5162   2.089   5.091  13.224
   41DOPE   HN2 5163   2.083   4.935  13.146
   41DOPE   HN3 5164   2.003   5.071  13.079
   41DOPE   C12 5165   1.902   4.998  13.239
   41DOPE  H12A 5166   1.873   5.093  13.290
   41DOPE  H12B 5167   1.920   4.922  13.317
   41DOPE   C11 5168   1.790   4.953  13.140
   41DOPE  H11A 5169   1.692   4.954  13.195
   41DOPE  H11B 5170   1.813   4.847  13.115
   41DOPE     P 5171   1.726   5.171  13.010
   41DOPE   O13 5172   1.598   5.183  13.082
   41DOPE   O14 5173   1.743   5.236  12.878
   41DOPE   O11 5174   1.844   5.224  13.100
   41DOPE   O12 5175   1.780   5.023  13.015
   41DOPE    C1 5176   1.947   5.316  13.068
   41DOPE    HA 5177   1.941   5.348  12.961
   41DOPE    HB 5178   2.048   5.271  13.080
   41DOPE    C2 5179   1.931   5.444  13.155
   41DOPE    HS 5180   1.966   5.530  13.093
   41DOPE   O21 5181   1.998   5.454  13.282
   41DOPE   C21 5182   2.038   5.350  13.348
   41DOPE   O22 5183   2.103   5.255  13.304
   41DOPE   C22 5184   1.986   5.364  13.489
   41DOPE   H2R 5185   1.877   5.378  13.481
   41DOPE   H2S 5186   2.032   5.457  13.531
   41DOPE    C3 5187   1.782   5.462  13.186
   41DOPE    HX 5188   1.730   5.433  13.093
   41DOPE    HY 5189   1.759   5.570  13.201
   41DOPE   O31 5190   1.731   5.376  13.292
   41DOPE   C31 5191   1.628   5.431  13.354
   41DOPE   O32 5192   1.597   5.548  13.348
   41DOPE   C32 5193   1.546   5.343  13.442
   41DOPE   H2X 5194   1.561   5.379  13.546
   41DOPE   H2Y 5195   1.440   5.366  13.413
   41DOPE   C23 5196   2.017   5.243  13.579
   41DOPE   H3R 5197   2.128   5.231  13.584
   41DOPE   H3S 5198   1.975   5.149  13.536
   41DOPE   C24 5199   1.965   5.257  13.723
   41DOPE   H4R 5200   1.854   5.253  13.727
   41DOPE   H4S 5201   1.998   5.356  13.762
   41DOPE   C25 5202   2.028   5.146  13.807
   41DOPE   H5R 5203   2.138   5.157  13.794
   41DOPE   H5S 5204   1.998   5.048  13.763
   41DOPE   C26 5205   2.002   5.141  13.957
   41DOPE   H6R 5206   1.909   5.196  13.985
   41DOPE   H6S 5207   2.087   5.192  14.007
   41DOPE   C27 5208   1.993   4.996  14.009
   41DOPE   H7R 5209   2.076   4.933  13.971
   41DOPE   H7S 5210   1.900   4.953  13.965
   41DOPE   C28 5211   1.983   4.983  14.162
   41DOPE   H8R 5212   1.937   4.885  14.187
   41DOPE   H8S 5213   1.910   5.061  14.190
   41DOPE   C29 5214   2.101   5.005  14.252
   41DOPE   H9R 5215   2.158   4.915  14.282
   41DOPE  C210 5216   2.147   5.124  14.293
   41DOPE  H10R 5217   2.234   5.126  14.360
   41DOPE  C211 5218   2.089   5.258  14.256
   41DOPE  H11R 5219   1.998   5.249  14.194
   41DOPE  H11S 5220   2.164   5.316  14.197
   41DOPE  C212 5221   2.049   5.339  14.379
   41DOPE  H12R 5222   1.983   5.276  14.441
   41DOPE  H12S 5223   1.987   5.425  14.348
   41DOPE  C213 5224   2.172   5.388  14.457
   41DOPE  H13R 5225   2.237   5.447  14.388
   41DOPE  H13S 5226   2.231   5.300  14.489
   41DOPE  C214 5227   2.139   5.471  14.582
   41DOPE  H14R 5228   2.102   5.572  14.555
   41DOPE  H14S 5229   2.232   5.482  14.642
   41DOPE  C215 5230   2.029   5.407  14.666
   41DOPE  H15R 5231   2.029   5.299  14.645
   41DOPE  H15S 5232   1.932   5.446  14.631
   41DOPE  C216 5233   2.050   5.423  14.816
   41DOPE  H16R 5234   2.073   5.530  14.834
   41DOPE  H16S 5235   2.141   5.366  14.846
   41DOPE  C217 5236   1.931   5.375  14.903
   41DOPE  H17R 5237   1.952   5.401  15.009
   41DOPE  H17S 5238   1.930   5.264  14.896
   41DOPE  C218 5239   1.791   5.427  14.866
   41DOPE  H18R 5240   1.780   5.534  14.892
   41DOPE  H18S 5241   1.713   5.370  14.922
   41DOPE  H18T 5242   1.770   5.415  14.758
   41DOPE   C33 5243   1.558   5.191  13.441
   41DOPE   H3X 5244   1.653   5.161  13.491
   41DOPE   H3Y 5245   1.557   5.144  13.341
   41DOPE   C34 5246   1.432   5.152  13.519
   41DOPE   H4X 5247   1.406   5.231  13.593
   41DOPE   H4Y 5248   1.346   5.146  13.448
   41DOPE   C35 5249   1.449   5.021  13.591
   41DOPE   H5X 5250   1.468   4.961  13.502
   41DOPE   H5Y 5251   1.355   4.987  13.641
   41DOPE   C36 5252   1.566   5.017  13.687
   41DOPE   H6X 5253   1.664   5.012  13.635
   41DOPE   H6Y 5254   1.560   4.922  13.745
   41DOPE   C37 5255   1.562   5.142  13.777
   41DOPE   H7X 5256   1.614   5.226  13.726
   41DOPE   H7Y 5257   1.456   5.174  13.792
   41DOPE   C38 5258   1.620   5.116  13.915
   41DOPE   H8X 5259   1.624   5.210  13.973
   41DOPE   H8Y 5260   1.725   5.079  13.903
   41DOPE   C39 5261   1.529   5.013  13.976
   41DOPE   H9X 5262   1.439   4.986  13.919
   41DOPE  C310 5263   1.550   4.952  14.092
   41DOPE  H10X 5264   1.482   4.874  14.129
   41DOPE  C311 5265   1.670   4.983  14.174
   41DOPE  H11X 5266   1.739   4.897  14.172
   41DOPE  H11Y 5267   1.723   5.073  14.136
   41DOPE  C312 5268   1.627   5.015  14.316
   41DOPE  H12X 5269   1.576   4.927  14.362
   41DOPE  H12Y 5270   1.558   5.103  14.316
   41DOPE  C313 5271   1.749   5.051  14.400
   41DOPE  H13X 5272   1.823   4.968  14.391
   41DOPE  H13Y 5273   1.797   5.143  14.359
   41DOPE  C314 5274   1.713   5.074  14.546
   41DOPE  H14X 5275   1.680   4.977  14.589
   41DOPE  H14Y 5276   1.628   5.145  14.552
   41DOPE  C315 5277   1.832   5.127  14.625
   41DOPE  H15X 5278   1.808   5.129  14.733
   41DOPE  H15Y 5279   1.846   5.232  14.592
   41DOPE  C316 5280   1.957   5.042  14.598
   41DOPE  H16X 5281   1.996   5.063  14.496
   41DOPE  H16Y 5282   1.922   4.936  14.595
   41DOPE  C317 5283   2.076   5.048  14.695
   41DOPE  H17X 5284   2.134   5.142  14.684
   41DOPE  H17Y 5285   2.039   5.042  14.800
   41DOPE  C318 5286   2.174   4.934  14.668
   41DOPE  H18X 5287   2.118   4.840  14.666
   41DOPE  H18Y 5288   2.222   4.945  14.569
   41DOPE  H18Z 5289   2.250   4.922  14.747
   42DOPE     N 5290   1.620   4.475  12.916
   42DOPE   HN1 5291   1.576   4.389  12.954
   42DOPE   HN2 5292   1.585   4.485  12.818
   42DOPE   HN3 5293   1.725   4.466  12.918
   42DOPE   C12 5294   1.571   4.588  13.001
   42DOPE  H12A 5295   1.617   4.682  12.964
   42DOPE  H12B 5296   1.604   4.569  13.106
   42DOPE   C11 5297   1.418   4.594  12.995
   42DOPE  H11A 5298   1.388   4.638  12.897
   42DOPE  H11B 5299   1.385   4.667  13.073
   42DOPE     P 5300   1.261   4.426  13.128
   42DOPE   O13 5301   1.348   4.398  13.244
   42DOPE   O14 5302   1.163   4.325  13.082
   42DOPE   O11 5303   1.193   4.565  13.151
   42DOPE   O12 5304   1.359   4.463  13.008
   42DOPE    C1 5305   1.107   4.636  13.063
   42DOPE    HA 5306   1.041   4.566  13.007
   42DOPE    HB 5307   1.167   4.692  12.989
   42DOPE    C2 5308   1.018   4.736  13.142
   42DOPE    HS 5309   0.963   4.801  13.071
   42DOPE   O21 5310   1.090   4.818  13.235
   42DOPE   C21 5311   1.203   4.872  13.202
   42DOPE   O22 5312   1.234   4.916  13.092
   42DOPE   C22 5313   1.289   4.876  13.330
   42DOPE   H2R 5314   1.220   4.884  13.417
   42DOPE   H2S 5315   1.351   4.967  13.325
   42DOPE    C3 5316   0.916   4.662  13.229
   42DOPE    HX 5317   0.844   4.612  13.160
   42DOPE    HY 5318   0.857   4.733  13.292
   42DOPE   O31 5319   0.981   4.560  13.307
   42DOPE   C31 5320   1.028   4.592  13.426
   42DOPE   O32 5321   1.020   4.701  13.479
   42DOPE   C32 5322   1.078   4.464  13.494
   42DOPE   H2X 5323   0.994   4.420  13.552
   42DOPE   H2Y 5324   1.107   4.391  13.415
   42DOPE   C23 5325   1.376   4.747  13.341
   42DOPE   H3R 5326   1.454   4.751  13.263
   42DOPE   H3S 5327   1.310   4.660  13.323
   42DOPE   C24 5328   1.442   4.716  13.476
   42DOPE   H4R 5329   1.365   4.711  13.555
   42DOPE   H4S 5330   1.516   4.791  13.507
   42DOPE   C25 5331   1.536   4.595  13.479
   42DOPE   H5R 5332   1.601   4.601  13.389
   42DOPE   H5S 5333   1.481   4.499  13.474
   42DOPE   C26 5334   1.627   4.603  13.603
   42DOPE   H6R 5335   1.697   4.688  13.589
   42DOPE   H6S 5336   1.686   4.510  13.607
   42DOPE   C27 5337   1.553   4.627  13.736
   42DOPE   H7R 5338   1.484   4.542  13.754
   42DOPE   H7S 5339   1.490   4.719  13.731
   42DOPE   C28 5340   1.648   4.645  13.855
   42DOPE   H8R 5341   1.589   4.672  13.945
   42DOPE   H8S 5342   1.718   4.729  13.837
   42DOPE   C29 5343   1.722   4.515  13.869
   42DOPE   H9R 5344   1.803   4.498  13.798
   42DOPE  C210 5345   1.688   4.416  13.953
   42DOPE  H10R 5346   1.745   4.322  13.951
   42DOPE  C211 5347   1.570   4.418  14.046
   42DOPE  H11R 5348   1.508   4.327  14.033
   42DOPE  H11S 5349   1.502   4.505  14.031
   42DOPE  C212 5350   1.625   4.425  14.188
   42DOPE  H12R 5351   1.689   4.515  14.203
   42DOPE  H12S 5352   1.689   4.336  14.208
   42DOPE  C213 5353   1.513   4.430  14.290
   42DOPE  H13R 5354   1.436   4.353  14.265
   42DOPE  H13S 5355   1.463   4.529  14.286
   42DOPE  C214 5356   1.566   4.404  14.431
   42DOPE  H14R 5357   1.629   4.489  14.464
   42DOPE  H14S 5358   1.630   4.314  14.431
   42DOPE  C215 5359   1.453   4.382  14.530
   42DOPE  H15R 5360   1.392   4.294  14.499
   42DOPE  H15S 5361   1.388   4.471  14.529
   42DOPE  C216 5362   1.508   4.363  14.671
   42DOPE  H16R 5363   1.614   4.333  14.665
   42DOPE  H16S 5364   1.450   4.280  14.720
   42DOPE  C217 5365   1.487   4.485  14.759
   42DOPE  H17R 5366   1.478   4.576  14.696
   42DOPE  H17S 5367   1.571   4.501  14.830
   42DOPE  C218 5368   1.358   4.461  14.835
   42DOPE  H18R 5369   1.364   4.393  14.921
   42DOPE  H18S 5370   1.291   4.407  14.764
   42DOPE  H18T 5371   1.309   4.555  14.865
   42DOPE   C33 5372   1.199   4.487  13.586
   42DOPE   H3X 5373   1.282   4.518  13.519
   42DOPE   H3Y 5374   1.230   4.390  13.630
   42DOPE   C34 5375   1.181   4.589  13.700
   42DOPE   H4X 5376   1.275   4.592  13.759
   42DOPE   H4Y 5377   1.168   4.692  13.659
   42DOPE   C35 5378   1.064   4.558  13.792
   42DOPE   H5X 5379   1.086   4.464  13.846
   42DOPE   H5Y 5380   0.973   4.539  13.730
   42DOPE   C36 5381   1.027   4.671  13.890
   42DOPE   H6X 5382   0.956   4.629  13.964
   42DOPE   H6Y 5383   0.971   4.748  13.832
   42DOPE   C37 5384   1.141   4.745  13.963
   42DOPE   H7X 5385   1.199   4.804  13.889
   42DOPE   H7Y 5386   1.092   4.818  14.032
   42DOPE   C38 5387   1.239   4.658  14.044
   42DOPE   H8X 5388   1.295   4.723  14.115
   42DOPE   H8Y 5389   1.314   4.616  13.974
   42DOPE   C39 5390   1.169   4.544  14.115
   42DOPE   H9X 5391   1.129   4.468  14.046
   42DOPE  C310 5392   1.156   4.519  14.246
   42DOPE  H10X 5393   1.103   4.427  14.274
   42DOPE  C311 5394   1.205   4.596  14.365
   42DOPE  H11X 5395   1.226   4.517  14.439
   42DOPE  H11Y 5396   1.300   4.650  14.347
   42DOPE  C312 5397   1.105   4.690  14.434
   42DOPE  H12X 5398   1.011   4.633  14.446
   42DOPE  H12Y 5399   1.086   4.781  14.373
   42DOPE  C313 5400   1.142   4.727  14.578
   42DOPE  H13X 5401   1.240   4.778  14.578
   42DOPE  H13Y 5402   1.067   4.795  14.621
   42DOPE  C314 5403   1.152   4.606  14.671
   42DOPE  H14X 5404   1.141   4.641  14.776
   42DOPE  H14Y 5405   1.253   4.568  14.649
   42DOPE  C315 5406   1.055   4.489  14.654
   42DOPE  H15X 5407   1.078   4.428  14.565
   42DOPE  H15Y 5408   0.959   4.543  14.641
   42DOPE  C316 5409   1.039   4.398  14.778
   42DOPE  H16X 5410   0.948   4.433  14.829
   42DOPE  H16Y 5411   1.117   4.421  14.851
   42DOPE  C317 5412   1.040   4.244  14.761
   42DOPE  H17X 5413   0.967   4.209  14.687
   42DOPE  H17Y 5414   1.140   4.212  14.725
   42DOPE  C318 5415   1.004   4.167  14.888
   42DOPE  H18X 5416   0.975   4.063  14.862
   42DOPE  H18Y 5417   1.089   4.166  14.960
   42DOPE  H18Z 5418   0.918   4.214  14.939
   43DOPE     N 5419   1.321   3.431  13.115
   43DOPE   HN1 5420   1.229   3.476  13.098
   43DOPE   HN2 5421   1.316   3.383  13.207
   43DOPE   HN3 5422   1.390   3.509  13.120
   43DOPE   C12 5423   1.357   3.333  13.006
   43DOPE  H12A 5424   1.451   3.281  13.037
   43DOPE  H12B 5425   1.379   3.391  12.915
   43DOPE   C11 5426   1.246   3.230  12.978
   43DOPE  H11A 5427   1.272   3.174  12.885
   43DOPE  H11B 5428   1.152   3.283  12.952
   43DOPE     P 5429   1.296   3.001  13.099
   43DOPE   O13 5430   1.404   3.014  13.200
   43DOPE   O14 5431   1.334   2.960  12.962
   43DOPE   O11 5432   1.181   2.906  13.150
   43DOPE   O12 5433   1.222   3.143  13.090
   43DOPE    C1 5434   1.072   2.952  13.230
   43DOPE    HA 5435   1.011   2.863  13.258
   43DOPE    HB 5436   1.006   3.020  13.173
   43DOPE    C2 5437   1.109   3.022  13.366
   43DOPE    HS 5438   1.157   3.119  13.340
   43DOPE   O21 5439   1.196   2.937  13.443
   43DOPE   C21 5440   1.297   2.999  13.503
   43DOPE   O22 5441   1.317   3.119  13.505
   43DOPE   C22 5442   1.387   2.898  13.575
   43DOPE   H2R 5443   1.468   2.955  13.625
   43DOPE   H2S 5444   1.432   2.834  13.496
   43DOPE    C3 5445   0.975   3.052  13.442
   43DOPE    HX 5446   0.921   2.954  13.440
   43DOPE    HY 5447   0.916   3.125  13.384
   43DOPE   O31 5448   0.995   3.100  13.576
   43DOPE   C31 5449   0.895   3.066  13.659
   43DOPE   O32 5450   0.795   3.005  13.626
   43DOPE   C32 5451   0.934   3.099  13.802
   43DOPE   H2X 5452   0.969   3.003  13.845
   43DOPE   H2Y 5453   1.018   3.171  13.802
   43DOPE   C23 5454   1.315   2.809  13.679
   43DOPE   H3R 5455   1.388   2.734  13.716
   43DOPE   H3S 5456   1.231   2.753  13.632
   43DOPE   C24 5457   1.262   2.884  13.802
   43DOPE   H4R 5458   1.175   2.947  13.771
   43DOPE   H4S 5459   1.339   2.952  13.845
   43DOPE   C25 5460   1.219   2.784  13.909
   43DOPE   H5R 5461   1.310   2.753  13.965
   43DOPE   H5S 5462   1.178   2.693  13.861
   43DOPE   C26 5463   1.113   2.837  14.006
   43DOPE   H6R 5464   1.012   2.805  13.973
   43DOPE   H6S 5465   1.116   2.948  14.007
   43DOPE   C27 5466   1.142   2.787  14.147
   43DOPE   H7R 5467   1.176   2.681  14.139
   43DOPE   H7S 5468   1.050   2.791  14.210
   43DOPE   C28 5469   1.251   2.870  14.212
   43DOPE   H8R 5470   1.208   2.971  14.231
   43DOPE   H8S 5471   1.334   2.884  14.139
   43DOPE   C29 5472   1.305   2.808  14.337
   43DOPE   H9R 5473   1.273   2.705  14.361
   43DOPE  C210 5474   1.387   2.874  14.419
   43DOPE  H10R 5475   1.420   2.827  14.512
   43DOPE  C211 5476   1.433   3.016  14.395
   43DOPE  H11R 5477   1.380   3.067  14.312
   43DOPE  H11S 5478   1.541   3.019  14.369
   43DOPE  C212 5479   1.408   3.094  14.523
   43DOPE  H12R 5480   1.307   3.079  14.567
   43DOPE  H12S 5481   1.423   3.203  14.501
   43DOPE  C213 5482   1.506   3.060  14.630
   43DOPE  H13R 5483   1.602   3.079  14.579
   43DOPE  H13S 5484   1.503   2.954  14.662
   43DOPE  C214 5485   1.494   3.156  14.745
   43DOPE  H14R 5486   1.448   3.251  14.709
   43DOPE  H14S 5487   1.598   3.181  14.771
   43DOPE  C215 5488   1.418   3.100  14.864
   43DOPE  H15R 5489   1.320   3.059  14.830
   43DOPE  H15S 5490   1.396   3.186  14.932
   43DOPE  C216 5491   1.497   2.993  14.941
   43DOPE  H16R 5492   1.605   3.014  14.936
   43DOPE  H16S 5493   1.482   2.895  14.891
   43DOPE  C217 5494   1.456   2.985  15.089
   43DOPE  H17R 5495   1.374   3.058  15.103
   43DOPE  H17S 5496   1.538   3.024  15.153
   43DOPE  C218 5497   1.424   2.843  15.140
   43DOPE  H18R 5498   1.320   2.822  15.168
   43DOPE  H18S 5499   1.487   2.820  15.229
   43DOPE  H18T 5500   1.450   2.770  15.061
   43DOPE   C33 5501   0.817   3.152  13.889
   43DOPE   H3X 5502   0.720   3.109  13.855
   43DOPE   H3Y 5503   0.811   3.262  13.878
   43DOPE   C34 5504   0.835   3.115  14.037
   43DOPE   H4X 5505   0.749   3.154  14.096
   43DOPE   H4Y 5506   0.840   3.005  14.048
   43DOPE   C35 5507   0.962   3.178  14.091
   43DOPE   H5X 5508   0.958   3.287  14.073
   43DOPE   H5Y 5509   1.052   3.141  14.038
   43DOPE   C36 5510   0.983   3.156  14.241
   43DOPE   H6X 5511   1.001   3.049  14.264
   43DOPE   H6Y 5512   0.894   3.189  14.299
   43DOPE   C37 5513   1.102   3.243  14.277
   43DOPE   H7X 5514   1.183   3.223  14.202
   43DOPE   H7Y 5515   1.072   3.348  14.268
   43DOPE   C38 5516   1.161   3.223  14.414
   43DOPE   H8X 5517   1.260   3.273  14.411
   43DOPE   H8Y 5518   1.178   3.114  14.419
   43DOPE   C39 5519   1.088   3.277  14.532
   43DOPE   H9X 5520   1.085   3.386  14.541
   43DOPE  C310 5521   1.031   3.201  14.627
   43DOPE  H10X 5522   0.992   3.253  14.714
   43DOPE  C311 5523   1.029   3.051  14.634
   43DOPE  H11X 5524   1.097   3.003  14.560
   43DOPE  H11Y 5525   1.066   3.020  14.732
   43DOPE  C312 5526   0.889   2.990  14.611
   43DOPE  H12X 5527   0.850   3.032  14.515
   43DOPE  H12Y 5528   0.819   3.020  14.692
   43DOPE  C313 5529   0.891   2.837  14.599
   43DOPE  H13X 5530   0.798   2.805  14.547
   43DOPE  H13Y 5531   0.976   2.807  14.533
   43DOPE  C314 5532   0.901   2.761  14.733
   43DOPE  H14X 5533   0.817   2.688  14.740
   43DOPE  H14Y 5534   0.887   2.833  14.817
   43DOPE  C315 5535   1.036   2.688  14.747
   43DOPE  H15X 5536   1.115   2.763  14.726
   43DOPE  H15Y 5537   1.042   2.613  14.665
   43DOPE  C316 5538   1.062   2.618  14.882
   43DOPE  H16X 5539   1.022   2.515  14.876
   43DOPE  H16Y 5540   1.004   2.663  14.964
   43DOPE  C317 5541   1.209   2.597  14.927
   43DOPE  H17X 5542   1.214   2.619  15.037
   43DOPE  H17Y 5543   1.234   2.489  14.916
   43DOPE  C318 5544   1.317   2.676  14.855
   43DOPE  H18X 5545   1.417   2.641  14.890
   43DOPE  H18Y 5546   1.311   2.662  14.745
   43DOPE  H18Z 5547   1.307   2.784  14.878
   44DOPE     N 5548   3.196   1.278  13.140
   44DOPE   HN1 5549   3.250   1.357  13.098
   44DOPE   HN2 5550   3.096   1.285  13.111
   44DOPE   HN3 5551   3.200   1.284  13.243
   44DOPE   C12 5552   3.257   1.146  13.096
   44DOPE  H12A 5553   3.317   1.104  13.179
   44DOPE  H12B 5554   3.324   1.165  13.010
   44DOPE   C11 5555   3.145   1.050  13.055
   44DOPE  H11A 5556   3.078   1.098  12.980
   44DOPE  H11B 5557   3.082   1.030  13.146
   44DOPE     P 5558   3.194   0.800  13.082
   44DOPE   O13 5559   3.260   0.684  13.018
   44DOPE   O14 5560   3.053   0.787  13.124
   44DOPE   O11 5561   3.282   0.847  13.206
   44DOPE   O12 5562   3.202   0.933  12.994
   44DOPE    C1 5563   3.319   0.753  13.306
   44DOPE    HA 5564   3.398   0.799  13.369
   44DOPE    HB 5565   3.362   0.660  13.262
   44DOPE    C2 5566   3.201   0.716  13.400
   44DOPE    HS 5567   3.140   0.640  13.344
   44DOPE   O21 5568   3.122   0.834  13.425
   44DOPE   C21 5569   3.001   0.811  13.467
   44DOPE   O22 5570   2.936   0.709  13.456
   44DOPE   C22 5571   2.962   0.933  13.552
   44DOPE   H2R 5572   2.866   0.910  13.601
   44DOPE   H2S 5573   2.949   1.019  13.484
   44DOPE    C3 5574   3.249   0.654  13.534
   44DOPE    HX 5575   3.344   0.602  13.511
   44DOPE    HY 5576   3.172   0.580  13.566
   44DOPE   O31 5577   3.279   0.752  13.636
   44DOPE   C31 5578   3.273   0.708  13.762
   44DOPE   O32 5579   3.241   0.596  13.796
   44DOPE   C32 5580   3.314   0.820  13.858
   44DOPE   H2X 5581   3.348   0.905  13.797
   44DOPE   H2Y 5582   3.225   0.852  13.915
   44DOPE   C23 5583   3.070   0.966  13.659
   44DOPE   H3R 5584   3.169   0.981  13.610
   44DOPE   H3S 5585   3.079   0.881  13.730
   44DOPE   C24 5586   3.039   1.091  13.740
   44DOPE   H4R 5587   2.979   1.065  13.828
   44DOPE   H4S 5588   2.967   1.142  13.676
   44DOPE   C25 5589   3.161   1.183  13.770
   44DOPE   H5R 5590   3.130   1.289  13.778
   44DOPE   H5S 5591   3.233   1.179  13.685
   44DOPE   C26 5592   3.234   1.162  13.904
   44DOPE   H6R 5593   3.305   1.246  13.920
   44DOPE   H6S 5594   3.295   1.071  13.897
   44DOPE   C27 5595   3.140   1.152  14.025
   44DOPE   H7R 5596   3.052   1.090  13.999
   44DOPE   H7S 5597   3.102   1.253  14.052
   44DOPE   C28 5598   3.205   1.082  14.144
   44DOPE   H8R 5599   3.273   1.153  14.196
   44DOPE   H8S 5600   3.267   1.000  14.104
   44DOPE   C29 5601   3.102   1.022  14.236
   44DOPE   H9R 5602   3.076   0.917  14.216
   44DOPE  C210 5603   3.038   1.088  14.333
   44DOPE  H10R 5604   2.965   1.035  14.396
   44DOPE  C211 5605   3.060   1.233  14.367
   44DOPE  H11R 5606   2.964   1.288  14.366
   44DOPE  H11S 5607   3.128   1.282  14.294
   44DOPE  C212 5608   3.125   1.246  14.505
   44DOPE  H12R 5609   3.164   1.349  14.521
   44DOPE  H12S 5610   3.213   1.179  14.510
   44DOPE  C213 5611   3.029   1.212  14.619
   44DOPE  H13R 5612   2.950   1.142  14.582
   44DOPE  H13S 5613   2.980   1.305  14.651
   44DOPE  C214 5614   3.101   1.145  14.736
   44DOPE  H14R 5615   3.162   1.221  14.789
   44DOPE  H14S 5616   3.165   1.069  14.692
   44DOPE  C215 5617   3.009   1.071  14.832
   44DOPE  H15R 5618   2.927   1.144  14.838
   44DOPE  H15S 5619   3.059   1.060  14.930
   44DOPE  C216 5620   2.949   0.936  14.786
   44DOPE  H16R 5621   2.990   0.850  14.842
   44DOPE  H16S 5622   2.975   0.923  14.678
   44DOPE  C217 5623   2.796   0.939  14.793
   44DOPE  H17R 5624   2.751   0.875  14.714
   44DOPE  H17S 5625   2.771   1.043  14.769
   44DOPE  C218 5626   2.724   0.910  14.924
   44DOPE  H18R 5627   2.740   0.805  14.956
   44DOPE  H18S 5628   2.616   0.925  14.908
   44DOPE  H18T 5629   2.753   0.979  15.006
   44DOPE   C33 5630   3.425   0.772  13.955
   44DOPE   H3X 5631   3.497   0.710  13.897
   44DOPE   H3Y 5632   3.376   0.706  14.030
   44DOPE   C34 5633   3.509   0.875  14.033
   44DOPE   H4X 5634   3.443   0.920  14.110
   44DOPE   H4Y 5635   3.587   0.819  14.090
   44DOPE   C35 5636   3.579   0.985  13.952
   44DOPE   H5X 5637   3.504   1.042  13.893
   44DOPE   H5Y 5638   3.651   0.941  13.880
   44DOPE   C36 5639   3.658   1.086  14.037
   44DOPE   H6X 5640   3.714   1.155  13.969
   44DOPE   H6Y 5641   3.731   1.035  14.102
   44DOPE   C37 5642   3.560   1.165  14.122
   44DOPE   H7X 5643   3.483   1.209  14.053
   44DOPE   H7Y 5644   3.507   1.093  14.188
   44DOPE   C38 5645   3.621   1.275  14.208
   44DOPE   H8X 5646   3.670   1.351  14.144
   44DOPE   H8Y 5647   3.700   1.233  14.274
   44DOPE   C39 5648   3.504   1.330  14.287
   44DOPE   H9X 5649   3.450   1.413  14.240
   44DOPE  C310 5650   3.458   1.279  14.401
   44DOPE  H10X 5651   3.369   1.323  14.448
   44DOPE  C311 5652   3.518   1.157  14.466
   44DOPE  H11X 5653   3.601   1.119  14.404
   44DOPE  H11Y 5654   3.562   1.186  14.564
   44DOPE  C312 5655   3.429   1.034  14.486
   44DOPE  H12X 5656   3.480   0.943  14.447
   44DOPE  H12Y 5657   3.333   1.042  14.429
   44DOPE  C313 5658   3.403   1.011  14.634
   44DOPE  H13X 5659   3.497   1.002  14.691
   44DOPE  H13Y 5660   3.356   1.104  14.672
   44DOPE  C314 5661   3.314   0.889  14.659
   44DOPE  H14X 5662   3.234   0.882  14.582
   44DOPE  H14Y 5663   3.263   0.908  14.755
   44DOPE  C315 5664   3.389   0.757  14.671
   44DOPE  H15X 5665   3.485   0.774  14.724
   44DOPE  H15Y 5666   3.412   0.717  14.570
   44DOPE  C316 5667   3.306   0.656  14.752
   44DOPE  H16X 5668   3.353   0.556  14.745
   44DOPE  H16Y 5669   3.204   0.647  14.709
   44DOPE  C317 5670   3.296   0.698  14.900
   44DOPE  H17X 5671   3.399   0.718  14.938
   44DOPE  H17Y 5672   3.240   0.793  14.912
   44DOPE  C318 5673   3.226   0.594  14.988
   44DOPE  H18X 5674   3.123   0.576  14.950
   44DOPE  H18Y 5675   3.282   0.498  14.990
   44DOPE  H18Z 5676   3.220   0.634  15.092
   45DOPE     N 5677   4.317   0.789  12.979
   45DOPE   HN1 5678   4.402   0.850  12.975
   45DOPE   HN2 5679   4.305   0.746  13.073
   45DOPE   HN3 5680   4.331   0.716  12.905
   45DOPE   C12 5681   4.196   0.867  12.939
   45DOPE  H12A 5682   4.183   0.854  12.830
   45DOPE  H12B 5683   4.215   0.974  12.964
   45DOPE   C11 5684   4.071   0.818  13.010
   45DOPE  H11A 5685   4.093   0.813  13.120
   45DOPE  H11B 5686   4.041   0.716  12.979
   45DOPE     P 5687   3.917   1.006  13.090
   45DOPE   O13 5688   3.786   1.062  13.053
   45DOPE   O14 5689   4.032   1.094  13.119
   45DOPE   O11 5690   3.903   0.897  13.203
   45DOPE   O12 5691   3.964   0.907  12.977
   45DOPE    C1 5692   3.783   0.887  13.276
   45DOPE    HA 5693   3.786   0.793  13.335
   45DOPE    HB 5694   3.693   0.883  13.210
   45DOPE    C2 5695   3.772   1.006  13.373
   45DOPE    HS 5696   3.780   1.100  13.315
   45DOPE   O21 5697   3.878   0.993  13.470
   45DOPE   C21 5698   3.928   1.109  13.511
   45DOPE   O22 5699   3.879   1.218  13.491
   45DOPE   C22 5700   4.057   1.083  13.591
   45DOPE   H2R 5701   4.130   1.036  13.521
   45DOPE   H2S 5702   4.035   1.010  13.672
   45DOPE    C3 5703   3.633   1.001  13.437
   45DOPE    HX 5704   3.557   1.038  13.364
   45DOPE    HY 5705   3.635   1.072  13.523
   45DOPE   O31 5706   3.606   0.863  13.471
   45DOPE   C31 5707   3.585   0.847  13.599
   45DOPE   O32 5708   3.540   0.932  13.674
   45DOPE   C32 5709   3.629   0.708  13.644
   45DOPE   H2X 5710   3.536   0.659  13.677
   45DOPE   H2Y 5711   3.669   0.653  13.557
   45DOPE   C23 5712   4.119   1.211  13.652
   45DOPE   H3R 5713   4.060   1.244  13.740
   45DOPE   H3S 5714   4.112   1.293  13.577
   45DOPE   C24 5715   4.268   1.199  13.689
   45DOPE   H4R 5716   4.305   1.299  13.719
   45DOPE   H4S 5717   4.324   1.169  13.597
   45DOPE   C25 5718   4.300   1.098  13.802
   45DOPE   H5R 5719   4.409   1.097  13.820
   45DOPE   H5S 5720   4.270   0.996  13.768
   45DOPE   C26 5721   4.230   1.129  13.935
   45DOPE   H6R 5722   4.259   1.051  14.009
   45DOPE   H6S 5723   4.120   1.121  13.920
   45DOPE   C27 5724   4.262   1.267  13.994
   45DOPE   H7R 5725   4.220   1.345  13.928
   45DOPE   H7S 5726   4.373   1.280  13.995
   45DOPE   C28 5727   4.209   1.286  14.138
   45DOPE   H8R 5728   4.251   1.380  14.180
   45DOPE   H8S 5729   4.246   1.201  14.200
   45DOPE   C29 5730   4.058   1.291  14.138
   45DOPE   H9R 5731   4.011   1.246  14.050
   45DOPE  C210 5732   3.977   1.334  14.236
   45DOPE  H10R 5733   3.869   1.331  14.218
   45DOPE  C211 5734   4.013   1.387  14.373
   45DOPE  H11R 5735   3.920   1.424  14.423
   45DOPE  H11S 5736   4.082   1.474  14.365
   45DOPE  C212 5737   4.075   1.279  14.464
   45DOPE  H12R 5738   4.081   1.316  14.568
   45DOPE  H12S 5739   4.180   1.263  14.429
   45DOPE  C213 5740   4.004   1.141  14.461
   45DOPE  H13R 5741   4.077   1.071  14.502
   45DOPE  H13S 5742   3.986   1.107  14.357
   45DOPE  C214 5743   3.875   1.127  14.544
   45DOPE  H14R 5744   3.803   1.201  14.502
   45DOPE  H14S 5745   3.893   1.155  14.650
   45DOPE  C215 5746   3.809   0.987  14.535
   45DOPE  H15R 5747   3.845   0.935  14.443
   45DOPE  H15S 5748   3.701   0.999  14.522
   45DOPE  C216 5749   3.816   0.892  14.656
   45DOPE  H16R 5750   3.913   0.840  14.663
   45DOPE  H16S 5751   3.740   0.812  14.638
   45DOPE  C217 5752   3.785   0.953  14.792
   45DOPE  H17R 5753   3.702   1.026  14.785
   45DOPE  H17S 5754   3.876   1.008  14.828
   45DOPE  C218 5755   3.749   0.842  14.890
   45DOPE  H18R 5756   3.835   0.772  14.900
   45DOPE  H18S 5757   3.661   0.785  14.853
   45DOPE  H18T 5758   3.721   0.880  14.991
   45DOPE   C33 5759   3.735   0.707  13.759
   45DOPE   H3X 5760   3.760   0.601  13.781
   45DOPE   H3Y 5761   3.696   0.749  13.853
   45DOPE   C34 5762   3.865   0.779  13.722
   45DOPE   H4X 5763   3.904   0.731  13.630
   45DOPE   H4Y 5764   3.845   0.886  13.698
   45DOPE   C35 5765   3.974   0.770  13.830
   45DOPE   H5X 5766   4.072   0.781  13.776
   45DOPE   H5Y 5767   3.974   0.670  13.877
   45DOPE   C36 5768   3.977   0.882  13.936
   45DOPE   H6X 5769   3.926   0.973  13.897
   45DOPE   H6Y 5770   4.084   0.909  13.951
   45DOPE   C37 5771   3.924   0.847  14.076
   45DOPE   H7X 5772   3.947   0.933  14.143
   45DOPE   H7Y 5773   3.813   0.837  14.072
   45DOPE   C38 5774   3.980   0.718  14.139
   45DOPE   H8X 5775   3.922   0.632  14.099
   45DOPE   H8Y 5776   3.958   0.722  14.248
   45DOPE   C39 5777   4.127   0.692  14.115
   45DOPE   H9X 5778   4.150   0.633  14.025
   45DOPE  C310 5779   4.229   0.735  14.191
   45DOPE  H10X 5780   4.333   0.706  14.165
   45DOPE  C311 5781   4.214   0.818  14.315
   45DOPE  H11X 5782   4.304   0.880  14.332
   45DOPE  H11Y 5783   4.129   0.890  14.303
   45DOPE  C312 5784   4.185   0.732  14.439
   45DOPE  H12X 5785   4.270   0.665  14.464
   45DOPE  H12Y 5786   4.097   0.666  14.419
   45DOPE  C313 5787   4.148   0.819  14.560
   45DOPE  H13X 5788   4.057   0.873  14.529
   45DOPE  H13Y 5789   4.123   0.753  14.645
   45DOPE  C314 5790   4.253   0.923  14.603
   45DOPE  H14X 5791   4.274   0.992  14.519
   45DOPE  H14Y 5792   4.347   0.870  14.628
   45DOPE  C315 5793   4.212   1.008  14.724
   45DOPE  H15X 5794   4.128   1.076  14.700
   45DOPE  H15Y 5795   4.300   1.072  14.752
   45DOPE  C316 5796   4.171   0.927  14.846
   45DOPE  H16X 5797   4.250   0.851  14.866
   45DOPE  H16Y 5798   4.076   0.872  14.829
   45DOPE  C317 5799   4.156   1.013  14.971
   45DOPE  H17X 5800   4.246   1.079  14.981
   45DOPE  H17Y 5801   4.066   1.079  14.967
   45DOPE  C318 5802   4.147   0.921  15.090
   45DOPE  H18X 5803   4.161   0.977  15.184
   45DOPE  H18Y 5804   4.050   0.868  15.091
   45DOPE  H18Z 5805   4.226   0.843  15.083
   46DOPE     N 5806   4.309   6.655  13.179
   46DOPE   HN1 5807   4.258   6.738  13.144
   46DOPE   HN2 5808   4.258   6.602  13.251
   46DOPE   HN3 5809   4.397   6.694  13.221
   46DOPE   C12 5810   4.359   6.574  13.062
   46DOPE  H12A 5811   4.335   6.631  12.969
   46DOPE  H12B 5812   4.309   6.475  13.059
   46DOPE   C11 5813   4.511   6.562  13.074
   46DOPE  H11A 5814   4.555   6.524  12.979
   46DOPE  H11B 5815   4.537   6.490  13.155
   46DOPE     P 5816   4.582   6.810  13.014
   46DOPE   O13 5817   4.502   6.918  13.074
   46DOPE   O14 5818   4.544   6.765  12.878
   46DOPE   O11 5819   4.738   6.835  13.025
   46DOPE   O12 5820   4.564   6.688  13.111
   46DOPE    C1 5821   4.825   6.722  13.004
   46DOPE    HA 5822   4.921   6.758  12.963
   46DOPE    HB 5823   4.783   6.652  12.927
   46DOPE    C2 5824   4.855   6.642  13.135
   46DOPE    HS 5825   4.760   6.629  13.193
   46DOPE   O21 5826   4.956   6.710  13.211
   46DOPE   C21 5827   4.906   6.788  13.305
   46DOPE   O22 5828   4.789   6.805  13.333
   46DOPE   C22 5829   5.018   6.852  13.386
   46DOPE   H2R 5830   4.978   6.947  13.427
   46DOPE   H2S 5831   5.103   6.874  13.319
   46DOPE    C3 5832   4.900   6.496  13.107
   46DOPE    HX 5833   4.979   6.499  13.030
   46DOPE    HY 5834   4.813   6.440  13.065
   46DOPE   O31 5835   4.953   6.431  13.225
   46DOPE   C31 5836   4.862   6.393  13.317
   46DOPE   O32 5837   4.742   6.406  13.304
   46DOPE   C32 5838   4.938   6.346  13.441
   46DOPE   H2X 5839   4.996   6.256  13.409
   46DOPE   H2Y 5840   5.009   6.427  13.466
   46DOPE   C23 5841   5.059   6.762  13.503
   46DOPE   H3R 5842   5.162   6.786  13.538
   46DOPE   H3S 5843   5.062   6.654  13.474
   46DOPE   C24 5844   4.962   6.783  13.618
   46DOPE   H4R 5845   4.865   6.740  13.587
   46DOPE   H4S 5846   4.941   6.891  13.631
   46DOPE   C25 5847   5.013   6.726  13.750
   46DOPE   H5R 5848   5.093   6.650  13.730
   46DOPE   H5S 5849   4.932   6.673  13.804
   46DOPE   C26 5850   5.067   6.839  13.839
   46DOPE   H6R 5851   5.059   6.933  13.781
   46DOPE   H6S 5852   5.175   6.826  13.860
   46DOPE   C27 5853   4.989   6.869  13.967
   46DOPE   H7R 5854   4.882   6.877  13.942
   46DOPE   H7S 5855   5.024   6.970  13.999
   46DOPE   C28 5856   5.007   6.769  14.082
   46DOPE   H8R 5857   5.113   6.738  14.094
   46DOPE   H8S 5858   4.951   6.677  14.058
   46DOPE   C29 5859   4.953   6.840  14.204
   46DOPE   H9R 5860   4.844   6.850  14.207
   46DOPE  C210 5861   5.024   6.881  14.311
   46DOPE  H10R 5862   4.971   6.938  14.389
   46DOPE  C211 5863   5.172   6.865  14.333
   46DOPE  H11R 5864   5.225   6.878  14.236
   46DOPE  H11S 5865   5.194   6.761  14.366
   46DOPE  C212 5866   5.237   6.961  14.436
   46DOPE  H12R 5867   5.201   7.065  14.419
   46DOPE  H12S 5868   5.347   6.962  14.416
   46DOPE  C213 5869   5.220   6.923  14.585
   46DOPE  H13R 5870   5.268   7.002  14.647
   46DOPE  H13S 5871   5.275   6.829  14.604
   46DOPE  C214 5872   5.074   6.905  14.632
   46DOPE  H14R 5873   5.022   6.836  14.562
   46DOPE  H14S 5874   5.021   7.002  14.631
   46DOPE  C215 5875   5.059   6.836  14.768
   46DOPE  H15R 5876   5.117   6.742  14.768
   46DOPE  H15S 5877   4.952   6.812  14.785
   46DOPE  C216 5878   5.112   6.916  14.887
   46DOPE  H16R 5879   5.045   7.003  14.900
   46DOPE  H16S 5880   5.211   6.956  14.862
   46DOPE  C217 5881   5.109   6.832  15.016
   46DOPE  H17R 5882   5.064   6.733  14.997
   46DOPE  H17S 5883   5.034   6.890  15.073
   46DOPE  C218 5884   5.232   6.819  15.108
   46DOPE  H18R 5885   5.201   6.780  15.207
   46DOPE  H18S 5886   5.284   6.914  15.122
   46DOPE  H18T 5887   5.313   6.755  15.072
   46DOPE   C33 5888   4.856   6.310  13.568
   46DOPE   H3X 5889   4.909   6.228  13.622
   46DOPE   H3Y 5890   4.756   6.269  13.538
   46DOPE   C34 5891   4.842   6.429  13.664
   46DOPE   H4X 5892   4.941   6.452  13.708
   46DOPE   H4Y 5893   4.811   6.515  13.601
   46DOPE   C35 5894   4.740   6.407  13.778
   46DOPE   H5X 5895   4.780   6.331  13.848
   46DOPE   H5Y 5896   4.646   6.367  13.733
   46DOPE   C36 5897   4.702   6.533  13.859
   46DOPE   H6X 5898   4.791   6.569  13.915
   46DOPE   H6Y 5899   4.626   6.506  13.936
   46DOPE   C37 5900   4.645   6.647  13.772
   46DOPE   H7X 5901   4.722   6.674  13.698
   46DOPE   H7Y 5902   4.558   6.610  13.714
   46DOPE   C38 5903   4.609   6.778  13.845
   46DOPE   H8X 5904   4.596   6.858  13.769
   46DOPE   H8Y 5905   4.696   6.809  13.906
   46DOPE   C39 5906   4.484   6.764  13.927
   46DOPE   H9X 5907   4.390   6.768  13.869
   46DOPE  C310 5908   4.479   6.743  14.060
   46DOPE  H10X 5909   4.381   6.731  14.108
   46DOPE  C311 5910   4.598   6.731  14.152
   46DOPE  H11X 5911   4.693   6.717  14.095
   46DOPE  H11Y 5912   4.610   6.823  14.213
   46DOPE  C312 5913   4.583   6.613  14.249
   46DOPE  H12X 5914   4.565   6.518  14.194
   46DOPE  H12Y 5915   4.495   6.632  14.315
   46DOPE  C313 5916   4.707   6.594  14.338
   46DOPE  H13X 5917   4.743   6.693  14.373
   46DOPE  H13Y 5918   4.678   6.536  14.428
   46DOPE  C314 5919   4.820   6.520  14.266
   46DOPE  H14X 5920   4.831   6.559  14.164
   46DOPE  H14Y 5921   4.791   6.413  14.255
   46DOPE  C315 5922   4.953   6.528  14.342
   46DOPE  H15X 5923   4.977   6.632  14.370
   46DOPE  H15Y 5924   5.036   6.491  14.278
   46DOPE  C316 5925   4.942   6.446  14.470
   46DOPE  H16X 5926   4.901   6.348  14.437
   46DOPE  H16Y 5927   4.870   6.494  14.539
   46DOPE  C317 5928   5.071   6.416  14.544
   46DOPE  H17X 5929   5.044   6.345  14.625
   46DOPE  H17Y 5930   5.142   6.364  14.477
   46DOPE  C318 5931   5.135   6.540  14.605
   46DOPE  H18X 5932   5.057   6.587  14.668
   46DOPE  H18Y 5933   5.222   6.516  14.669
   46DOPE  H18Z 5934   5.167   6.613  14.528
   47DOPE     N 5935   1.522   6.146  13.119
   47DOPE   HN1 5936   1.536   6.248  13.109
   47DOPE   HN2 5937   1.420   6.130  13.138
   47DOPE   HN3 5938   1.576   6.106  13.198
   47DOPE   C12 5939   1.544   6.068  12.995
   47DOPE  H12A 5940   1.646   6.023  12.997
   47DOPE  H12B 5941   1.535   6.138  12.910
   47DOPE   C11 5942   1.442   5.955  12.997
   47DOPE  H11A 5943   1.459   5.908  13.093
   47DOPE  H11B 5944   1.458   5.881  12.919
   47DOPE     P 5945   1.192   5.894  13.043
   47DOPE   O13 5946   1.103   5.872  12.928
   47DOPE   O14 5947   1.140   5.947  13.169
   47DOPE   O11 5948   1.271   5.763  13.077
   47DOPE   O12 5949   1.308   5.995  12.998
   47DOPE    C1 5950   1.297   5.667  12.974
   47DOPE    HA 5951   1.334   5.714  12.881
   47DOPE    HB 5952   1.202   5.616  12.949
   47DOPE    C2 5953   1.402   5.562  13.021
   47DOPE    HS 5954   1.427   5.494  12.937
   47DOPE   O21 5955   1.353   5.484  13.131
   47DOPE   C21 5956   1.224   5.463  13.149
   47DOPE   O22 5957   1.147   5.413  13.069
   47DOPE   C22 5958   1.207   5.481  13.301
   47DOPE   H2R 5959   1.297   5.535  13.340
   47DOPE   H2S 5960   1.211   5.379  13.345
   47DOPE    C3 5961   1.535   5.626  13.072
   47DOPE    HX 5962   1.613   5.655  12.999
   47DOPE    HY 5963   1.571   5.536  13.121
   47DOPE   O31 5964   1.510   5.721  13.176
   47DOPE   C31 5965   1.596   5.790  13.246
   47DOPE   O32 5966   1.709   5.822  13.212
   47DOPE   C32 5967   1.504   5.860  13.352
   47DOPE   H2X 5968   1.562   5.945  13.389
   47DOPE   H2Y 5969   1.416   5.901  13.298
   47DOPE   C23 5970   1.082   5.556  13.353
   47DOPE   H3R 5971   0.990   5.502  13.325
   47DOPE   H3S 5972   1.076   5.658  13.308
   47DOPE   C24 5973   1.093   5.566  13.506
   47DOPE   H4R 5974   1.195   5.604  13.530
   47DOPE   H4S 5975   1.090   5.463  13.546
   47DOPE   C25 5976   0.991   5.656  13.579
   47DOPE   H5R 5977   0.889   5.637  13.539
   47DOPE   H5S 5978   1.016   5.762  13.558
   47DOPE   C26 5979   0.993   5.632  13.732
   47DOPE   H6R 5980   1.097   5.619  13.768
   47DOPE   H6S 5981   0.937   5.538  13.754
   47DOPE   C27 5982   0.927   5.743  13.814
   47DOPE   H7R 5983   0.838   5.774  13.754
   47DOPE   H7S 5984   0.995   5.831  13.820
   47DOPE   C28 5985   0.877   5.707  13.957
   47DOPE   H8R 5986   0.784   5.646  13.944
   47DOPE   H8S 5987   0.843   5.803  14.002
   47DOPE   C29 5988   0.970   5.636  14.052
   47DOPE   H9R 5989   0.977   5.529  14.033
   47DOPE  C210 5990   1.050   5.689  14.148
   47DOPE  H10R 5991   1.106   5.622  14.215
   47DOPE  C211 5992   1.056   5.837  14.171
   47DOPE  H11R 5993   0.954   5.876  14.190
   47DOPE  H11S 5994   1.086   5.875  14.071
   47DOPE  C212 5995   1.154   5.918  14.263
   47DOPE  H12R 5996   1.128   6.023  14.238
   47DOPE  H12S 5997   1.260   5.903  14.237
   47DOPE  C213 5998   1.129   5.925  14.413
   47DOPE  H13R 5999   1.170   5.836  14.465
   47DOPE  H13S 6000   1.019   5.924  14.426
   47DOPE  C214 6001   1.185   6.055  14.478
   47DOPE  H14R 6002   1.099   6.116  14.513
   47DOPE  H14S 6003   1.240   6.117  14.405
   47DOPE  C215 6004   1.273   6.028  14.599
   47DOPE  H15R 6005   1.377   6.012  14.564
   47DOPE  H15S 6006   1.237   5.934  14.648
   47DOPE  C216 6007   1.271   6.136  14.708
   47DOPE  H16R 6008   1.251   6.237  14.666
   47DOPE  H16S 6009   1.371   6.139  14.758
   47DOPE  C217 6010   1.169   6.100  14.816
   47DOPE  H17R 6011   1.181   5.993  14.845
   47DOPE  H17S 6012   1.067   6.110  14.774
   47DOPE  C218 6013   1.178   6.188  14.938
   47DOPE  H18R 6014   1.186   6.295  14.911
   47DOPE  H18S 6015   1.265   6.159  15.000
   47DOPE  H18T 6016   1.084   6.177  14.996
   47DOPE   C33 6017   1.443   5.780  13.473
   47DOPE   H3X 6018   1.495   5.684  13.487
   47DOPE   H3Y 6019   1.336   5.758  13.453
   47DOPE   C34 6020   1.456   5.844  13.613
   47DOPE   H4X 6021   1.564   5.853  13.639
   47DOPE   H4Y 6022   1.412   5.945  13.614
   47DOPE   C35 6023   1.383   5.759  13.720
   47DOPE   H5X 6024   1.441   5.666  13.740
   47DOPE   H5Y 6025   1.285   5.726  13.678
   47DOPE   C36 6026   1.350   5.833  13.850
   47DOPE   H6X 6027   1.306   5.764  13.926
   47DOPE   H6Y 6028   1.268   5.904  13.826
   47DOPE   C37 6029   1.467   5.910  13.914
   47DOPE   H7X 6030   1.534   5.954  13.838
   47DOPE   H7Y 6031   1.424   5.995  13.972
   47DOPE   C38 6032   1.547   5.824  14.012
   47DOPE   H8X 6033   1.474   5.782  14.085
   47DOPE   H8Y 6034   1.617   5.888  14.071
   47DOPE   C39 6035   1.624   5.717  13.938
   47DOPE   H9X 6036   1.701   5.755  13.869
   47DOPE  C310 6037   1.601   5.585  13.946
   47DOPE  H10X 6038   1.659   5.516  13.883
   47DOPE  C311 6039   1.495   5.520  14.032
   47DOPE  H11X 6040   1.397   5.570  14.016
   47DOPE  H11Y 6041   1.482   5.413  14.003
   47DOPE  C312 6042   1.530   5.527  14.182
   47DOPE  H12X 6043   1.542   5.633  14.213
   47DOPE  H12Y 6044   1.627   5.476  14.200
   47DOPE  C313 6045   1.422   5.464  14.270
   47DOPE  H13X 6046   1.325   5.517  14.252
   47DOPE  H13Y 6047   1.409   5.358  14.240
   47DOPE  C314 6048   1.453   5.470  14.421
   47DOPE  H14X 6049   1.551   5.419  14.440
   47DOPE  H14Y 6050   1.374   5.412  14.475
   47DOPE  C315 6051   1.457   5.612  14.478
   47DOPE  H15X 6052   1.371   5.670  14.436
   47DOPE  H15Y 6053   1.550   5.663  14.444
   47DOPE  C316 6054   1.449   5.619  14.632
   47DOPE  H16X 6055   1.521   5.548  14.678
   47DOPE  H16Y 6056   1.346   5.589  14.663
   47DOPE  C317 6057   1.478   5.760  14.684
   47DOPE  H17X 6058   1.585   5.784  14.667
   47DOPE  H17Y 6059   1.420   5.828  14.620
   47DOPE  C318 6060   1.443   5.787  14.831
   47DOPE  H18X 6061   1.455   5.895  14.854
   47DOPE  H18Y 6062   1.338   5.759  14.852
   47DOPE  H18Z 6063   1.510   5.729  14.898
   48DOPE     N 6064   6.379   1.764  12.793
   48DOPE   HN1 6065   6.280   1.754  12.769
   48DOPE   HN2 6066   6.387   1.852  12.849
   48DOPE   HN3 6067   6.437   1.779  12.707
   48DOPE   C12 6068   6.434   1.660  12.883
   48DOPE  H12A 6069   6.477   1.576  12.824
   48DOPE  H12B 6070   6.352   1.623  12.948
   48DOPE   C11 6071   6.540   1.732  12.966
   48DOPE  H11A 6072   6.631   1.743  12.906
   48DOPE  H11B 6073   6.569   1.669  13.053
   48DOPE     P 6074   6.403   1.881  13.126
   48DOPE   O13 6075   6.283   1.800  13.103
   48DOPE   O14 6076   6.387   2.026  13.153
   48DOPE   O11 6077   6.499   1.815  13.232
   48DOPE   O12 6078   6.496   1.865  13.000
   48DOPE    C1 6079   6.633   1.868  13.230
   48DOPE    HA 6080   6.635   1.979  13.219
   48DOPE    HB 6081   6.694   1.825  13.147
   48DOPE    C2 6082   6.705   1.837  13.361
   48DOPE    HS 6083   6.815   1.855  13.345
   48DOPE   O21 6084   6.685   1.704  13.409
   48DOPE   C21 6085   6.705   1.611  13.320
   48DOPE   O22 6086   6.778   1.619  13.222
   48DOPE   C22 6087   6.630   1.486  13.369
   48DOPE   H2R 6088   6.670   1.464  13.470
   48DOPE   H2S 6089   6.653   1.402  13.300
   48DOPE    C3 6090   6.658   1.935  13.470
   48DOPE    HX 6091   6.690   2.037  13.443
   48DOPE    HY 6092   6.712   1.899  13.558
   48DOPE   O31 6093   6.516   1.939  13.493
   48DOPE   C31 6094   6.472   1.864  13.593
   48DOPE   O32 6095   6.534   1.776  13.649
   48DOPE   C32 6096   6.336   1.916  13.637
   48DOPE   H2X 6097   6.304   1.997  13.567
   48DOPE   H2Y 6098   6.263   1.833  13.630
   48DOPE   C23 6099   6.476   1.497  13.388
   48DOPE   H3R 6100   6.429   1.518  13.289
   48DOPE   H3S 6101   6.451   1.582  13.455
   48DOPE   C24 6102   6.416   1.366  13.445
   48DOPE   H4R 6103   6.458   1.281  13.388
   48DOPE   H4S 6104   6.307   1.367  13.426
   48DOPE   C25 6105   6.440   1.340  13.595
   48DOPE   H5R 6106   6.548   1.324  13.613
   48DOPE   H5S 6107   6.388   1.245  13.621
   48DOPE   C26 6108   6.390   1.450  13.691
   48DOPE   H6R 6109   6.285   1.475  13.662
   48DOPE   H6S 6110   6.449   1.543  13.677
   48DOPE   C27 6111   6.391   1.405  13.839
   48DOPE   H7R 6112   6.367   1.297  13.840
   48DOPE   H7S 6113   6.309   1.456  13.895
   48DOPE   C28 6114   6.526   1.426  13.913
   48DOPE   H8R 6115   6.603   1.371  13.855
   48DOPE   H8S 6116   6.519   1.376  14.012
   48DOPE   C29 6117   6.571   1.570  13.929
   48DOPE   H9R 6118   6.573   1.625  13.833
   48DOPE  C210 6119   6.612   1.638  14.038
   48DOPE  H10R 6120   6.635   1.744  14.025
   48DOPE  C211 6121   6.628   1.592  14.181
   48DOPE  H11R 6122   6.729   1.564  14.207
   48DOPE  H11S 6123   6.585   1.492  14.192
   48DOPE  C212 6124   6.595   1.690  14.297
   48DOPE  H12R 6125   6.628   1.642  14.391
   48DOPE  H12S 6126   6.486   1.704  14.311
   48DOPE  C213 6127   6.658   1.830  14.286
   48DOPE  H13R 6128   6.631   1.876  14.189
   48DOPE  H13S 6129   6.769   1.818  14.291
   48DOPE  C214 6130   6.614   1.926  14.398
   48DOPE  H14R 6131   6.503   1.932  14.400
   48DOPE  H14S 6132   6.653   2.028  14.375
   48DOPE  C215 6133   6.667   1.884  14.535
   48DOPE  H15R 6134   6.776   1.867  14.527
   48DOPE  H15S 6135   6.620   1.787  14.564
   48DOPE  C216 6136   6.638   1.988  14.644
   48DOPE  H16R 6137   6.530   2.014  14.637
   48DOPE  H16S 6138   6.696   2.080  14.622
   48DOPE  C217 6139   6.669   1.942  14.788
   48DOPE  H17R 6140   6.586   1.880  14.827
   48DOPE  H17S 6141   6.671   2.033  14.853
   48DOPE  C218 6142   6.797   1.862  14.807
   48DOPE  H18R 6143   6.814   1.789  14.726
   48DOPE  H18S 6144   6.794   1.805  14.902
   48DOPE  H18T 6145   6.884   1.931  14.809
   48DOPE   C33 6146   6.338   1.974  13.781
   48DOPE   H3X 6147   6.248   2.038  13.796
   48DOPE   H3Y 6148   6.427   2.039  13.797
   48DOPE   C34 6149   6.334   1.866  13.889
   48DOPE   H4X 6150   6.251   1.796  13.866
   48DOPE   H4Y 6151   6.428   1.807  13.886
   48DOPE   C35 6152   6.315   1.923  14.030
   48DOPE   H5X 6153   6.215   1.971  14.038
   48DOPE   H5Y 6154   6.392   2.001  14.050
   48DOPE   C36 6155   6.329   1.814  14.136
   48DOPE   H6X 6156   6.300   1.851  14.236
   48DOPE   H6Y 6157   6.437   1.793  14.139
   48DOPE   C37 6158   6.257   1.682  14.102
   48DOPE   H7X 6159   6.163   1.709  14.051
   48DOPE   H7Y 6160   6.313   1.628  14.024
   48DOPE   C38 6161   6.223   1.594  14.226
   48DOPE   H8X 6162   6.136   1.529  14.206
   48DOPE   H8Y 6163   6.200   1.656  14.315
   48DOPE   C39 6164   6.341   1.506  14.243
   48DOPE   H9X 6165   6.394   1.494  14.148
   48DOPE  C310 6166   6.398   1.449  14.350
   48DOPE  H10X 6167   6.486   1.386  14.334
   48DOPE  C311 6168   6.356   1.458  14.492
   48DOPE  H11X 6169   6.253   1.498  14.503
   48DOPE  H11Y 6170   6.361   1.357  14.539
   48DOPE  C312 6171   6.452   1.541  14.573
   48DOPE  H12X 6172   6.451   1.644  14.532
   48DOPE  H12Y 6173   6.556   1.504  14.562
   48DOPE  C313 6174   6.405   1.535  14.717
   48DOPE  H13X 6175   6.294   1.524  14.717
   48DOPE  H13Y 6176   6.448   1.446  14.768
   48DOPE  C314 6177   6.436   1.665  14.788
   48DOPE  H14X 6178   6.545   1.684  14.772
   48DOPE  H14Y 6179   6.420   1.652  14.897
   48DOPE  C315 6180   6.351   1.781  14.733
   48DOPE  H15X 6181   6.333   1.776  14.623
   48DOPE  H15Y 6182   6.406   1.875  14.750
   48DOPE  C316 6183   6.217   1.795  14.805
   48DOPE  H16X 6184   6.247   1.772  14.909
   48DOPE  H16Y 6185   6.141   1.721  14.775
   48DOPE  C317 6186   6.163   1.939  14.814
   48DOPE  H17X 6187   6.112   1.953  14.911
   48DOPE  H17Y 6188   6.253   2.001  14.815
   48DOPE  C318 6189   6.076   1.995  14.703
   48DOPE  H18X 6190   5.981   1.941  14.698
   48DOPE  H18Y 6191   6.052   2.102  14.720
   48DOPE  H18Z 6192   6.128   1.985  14.605
   49DOPE     N 6193   1.795   6.274  12.803
   49DOPE   HN1 6194   1.813   6.192  12.863
   49DOPE   HN2 6195   1.732   6.247  12.724
   49DOPE   HN3 6196   1.890   6.301  12.766
   49DOPE   C12 6197   1.745   6.397  12.875
   49DOPE  H12A 6198   1.643   6.377  12.913
   49DOPE  H12B 6199   1.739   6.480  12.801
   49DOPE   C11 6200   1.836   6.437  12.991
   49DOPE  H11A 6201   1.940   6.455  12.954
   49DOPE  H11B 6202   1.836   6.356  13.066
   49DOPE     P 6203   1.822   6.626  13.180
   49DOPE   O13 6204   1.697   6.651  13.255
   49DOPE   O14 6205   1.908   6.743  13.148
   49DOPE   O11 6206   1.906   6.516  13.256
   49DOPE   O12 6207   1.783   6.556  13.045
   49DOPE    C1 6208   2.049   6.523  13.258
   49DOPE    HA 6209   2.083   6.623  13.293
   49DOPE    HB 6210   2.090   6.507  13.156
   49DOPE    C2 6211   2.115   6.416  13.352
   49DOPE    HS 6212   2.205   6.375  13.301
   49DOPE   O21 6213   2.025   6.307  13.383
   49DOPE   C21 6214   1.977   6.246  13.277
   49DOPE   O22 6215   2.025   6.247  13.165
   49DOPE   C22 6216   1.843   6.177  13.312
   49DOPE   H2R 6217   1.868   6.088  13.373
   49DOPE   H2S 6218   1.798   6.142  13.217
   49DOPE    C3 6219   2.161   6.481  13.486
   49DOPE    HX 6220   2.256   6.535  13.464
   49DOPE    HY 6221   2.187   6.401  13.560
   49DOPE   O31 6222   2.065   6.575  13.537
   49DOPE   C31 6223   1.959   6.522  13.599
   49DOPE   O32 6224   1.954   6.409  13.644
   49DOPE   C32 6225   1.849   6.627  13.617
   49DOPE   H2X 6226   1.864   6.668  13.718
   49DOPE   H2Y 6227   1.861   6.708  13.543
   49DOPE   C23 6228   1.743   6.266  13.391
   49DOPE   H3R 6229   1.715   6.359  13.336
   49DOPE   H3S 6230   1.794   6.299  13.484
   49DOPE   C24 6231   1.619   6.187  13.433
   49DOPE   H4R 6232   1.656   6.092  13.478
   49DOPE   H4S 6233   1.550   6.166  13.351
   49DOPE   C25 6234   1.530   6.252  13.536
   49DOPE   H5R 6235   1.430   6.201  13.536
   49DOPE   H5S 6236   1.512   6.360  13.514
   49DOPE   C26 6237   1.590   6.231  13.673
   49DOPE   H6R 6238   1.694   6.271  13.675
   49DOPE   H6S 6239   1.599   6.123  13.697
   49DOPE   C27 6240   1.498   6.298  13.773
   49DOPE   H7R 6241   1.404   6.244  13.762
   49DOPE   H7S 6242   1.479   6.404  13.748
   49DOPE   C28 6243   1.542   6.282  13.916
   49DOPE   H8R 6244   1.542   6.173  13.940
   49DOPE   H8S 6245   1.470   6.333  13.983
   49DOPE   C29 6246   1.681   6.334  13.930
   49DOPE   H9R 6247   1.722   6.402  13.854
   49DOPE  C210 6248   1.746   6.317  14.044
   49DOPE  H10R 6249   1.846   6.360  14.055
   49DOPE  C211 6250   1.687   6.247  14.163
   49DOPE  H11R 6251   1.712   6.139  14.172
   49DOPE  H11S 6252   1.576   6.256  14.170
   49DOPE  C212 6253   1.744   6.330  14.277
   49DOPE  H12R 6254   1.681   6.421  14.285
   49DOPE  H12S 6255   1.851   6.359  14.259
   49DOPE  C213 6256   1.749   6.261  14.409
   49DOPE  H13R 6257   1.795   6.163  14.383
   49DOPE  H13S 6258   1.646   6.243  14.446
   49DOPE  C214 6259   1.835   6.340  14.511
   49DOPE  H14R 6260   1.845   6.444  14.474
   49DOPE  H14S 6261   1.938   6.302  14.521
   49DOPE  C215 6262   1.777   6.341  14.653
   49DOPE  H15R 6263   1.690   6.272  14.660
   49DOPE  H15S 6264   1.743   6.444  14.668
   49DOPE  C216 6265   1.872   6.317  14.772
   49DOPE  H16R 6266   1.890   6.208  14.785
   49DOPE  H16S 6267   1.818   6.352  14.862
   49DOPE  C217 6268   2.008   6.388  14.766
   49DOPE  H17R 6269   2.072   6.331  14.695
   49DOPE  H17S 6270   2.054   6.379  14.867
   49DOPE  C218 6271   2.011   6.536  14.722
   49DOPE  H18R 6272   2.114   6.576  14.734
   49DOPE  H18S 6273   1.942   6.598  14.783
   49DOPE  H18T 6274   1.983   6.546  14.615
   49DOPE   C33 6275   1.709   6.561  13.603
   49DOPE   H3X 6276   1.711   6.463  13.652
   49DOPE   H3Y 6277   1.689   6.545  13.494
   49DOPE   C34 6278   1.588   6.636  13.663
   49DOPE   H4X 6279   1.579   6.727  13.599
   49DOPE   H4Y 6280   1.494   6.579  13.651
   49DOPE   C35 6281   1.605   6.683  13.808
   49DOPE   H5X 6282   1.583   6.789  13.793
   49DOPE   H5Y 6283   1.708   6.671  13.845
   49DOPE   C36 6284   1.504   6.649  13.918
   49DOPE   H6X 6285   1.521   6.548  13.960
   49DOPE   H6Y 6286   1.401   6.652  13.878
   49DOPE   C37 6287   1.513   6.753  14.033
   49DOPE   H7X 6288   1.471   6.850  13.999
   49DOPE   H7Y 6289   1.449   6.718  14.116
   49DOPE   C38 6290   1.652   6.783  14.094
   49DOPE   H8X 6291   1.629   6.839  14.187
   49DOPE   H8Y 6292   1.710   6.859  14.041
   49DOPE   C39 6293   1.744   6.664  14.114
   49DOPE   H9X 6294   1.759   6.598  14.027
   49DOPE  C310 6295   1.801   6.630  14.230
   49DOPE  H10X 6296   1.879   6.553  14.232
   49DOPE  C311 6297   1.781   6.707  14.355
   49DOPE  H11X 6298   1.848   6.676  14.438
   49DOPE  H11Y 6299   1.815   6.806  14.322
   49DOPE  C312 6300   1.636   6.718  14.408
   49DOPE  H12X 6301   1.563   6.711  14.325
   49DOPE  H12Y 6302   1.617   6.813  14.461
   49DOPE  C313 6303   1.597   6.608  14.504
   49DOPE  H13X 6304   1.490   6.584  14.485
   49DOPE  H13Y 6305   1.655   6.518  14.480
   49DOPE  C314 6306   1.611   6.647  14.651
   49DOPE  H14X 6307   1.576   6.751  14.671
   49DOPE  H14Y 6308   1.718   6.645  14.680
   49DOPE  C315 6309   1.528   6.547  14.731
   49DOPE  H15X 6310   1.539   6.447  14.682
   49DOPE  H15Y 6311   1.420   6.569  14.725
   49DOPE  C316 6312   1.574   6.534  14.874
   49DOPE  H16X 6313   1.528   6.615  14.934
   49DOPE  H16Y 6314   1.685   6.547  14.881
   49DOPE  C317 6315   1.539   6.398  14.934
   49DOPE  H17X 6316   1.429   6.383  14.930
   49DOPE  H17Y 6317   1.585   6.316  14.874
   49DOPE  C318 6318   1.589   6.394  15.077
   49DOPE  H18X 6319   1.531   6.324  15.139
   49DOPE  H18Y 6320   1.697   6.369  15.080
   49DOPE  H18Z 6321   1.577   6.495  15.120
   50DOPE     N 6322   0.320   4.279  12.973
   50DOPE   HN1 6323   0.328   4.179  12.998
   50DOPE   HN2 6324   0.249   4.292  12.897
   50DOPE   HN3 6325   0.412   4.316  12.939
   50DOPE   C12 6326   0.285   4.369  13.087
   50DOPE  H12A 6327   0.357   4.351  13.170
   50DOPE  H12B 6328   0.182   4.348  13.121
   50DOPE   C11 6329   0.297   4.512  13.037
   50DOPE  H11A 6330   0.276   4.586  13.119
   50DOPE  H11B 6331   0.220   4.526  12.959
   50DOPE     P 6332   0.551   4.554  13.068
   50DOPE   O13 6333   0.506   4.604  13.198
   50DOPE   O14 6334   0.651   4.635  12.996
   50DOPE   O11 6335   0.597   4.403  13.079
   50DOPE   O12 6336   0.423   4.536  12.977
   50DOPE    C1 6337   0.702   4.354  13.162
   50DOPE    HA 6338   0.799   4.406  13.145
   50DOPE    HB 6339   0.719   4.249  13.130
   50DOPE    C2 6340   0.672   4.345  13.317
   50DOPE    HS 6341   0.722   4.251  13.352
   50DOPE   O21 6342   0.533   4.350  13.351
   50DOPE   C21 6343   0.485   4.233  13.374
   50DOPE   O22 6344   0.512   4.131  13.313
   50DOPE   C22 6345   0.392   4.237  13.494
   50DOPE   H2R 6346   0.367   4.133  13.513
   50DOPE   H2S 6347   0.299   4.290  13.466
   50DOPE    C3 6348   0.739   4.457  13.401
   50DOPE    HX 6349   0.718   4.554  13.351
   50DOPE    HY 6350   0.843   4.424  13.391
   50DOPE   O31 6351   0.709   4.460  13.542
   50DOPE   C31 6352   0.694   4.578  13.605
   50DOPE   O32 6353   0.696   4.687  13.553
   50DOPE   C32 6354   0.675   4.546  13.755
   50DOPE   H2X 6355   0.582   4.488  13.764
   50DOPE   H2Y 6356   0.764   4.486  13.782
   50DOPE   C23 6357   0.453   4.298  13.623
   50DOPE   H3R 6358   0.374   4.297  13.701
   50DOPE   H3S 6359   0.478   4.404  13.602
   50DOPE   C24 6360   0.577   4.224  13.679
   50DOPE   H4R 6361   0.667   4.254  13.622
   50DOPE   H4S 6362   0.568   4.116  13.660
   50DOPE   C25 6363   0.605   4.245  13.829
   50DOPE   H5R 6364   0.525   4.301  13.882
   50DOPE   H5S 6365   0.700   4.302  13.835
   50DOPE   C26 6366   0.631   4.116  13.906
   50DOPE   H6R 6367   0.712   4.059  13.855
   50DOPE   H6S 6368   0.540   4.053  13.907
   50DOPE   C27 6369   0.673   4.146  14.050
   50DOPE   H7R 6370   0.690   4.256  14.064
   50DOPE   H7S 6371   0.770   4.097  14.067
   50DOPE   C28 6372   0.576   4.090  14.154
   50DOPE   H8R 6373   0.572   3.980  14.142
   50DOPE   H8S 6374   0.474   4.130  14.136
   50DOPE   C29 6375   0.623   4.125  14.291
   50DOPE   H9R 6376   0.695   4.057  14.335
   50DOPE  C210 6377   0.594   4.235  14.358
   50DOPE  H10R 6378   0.638   4.246  14.457
   50DOPE  C211 6379   0.508   4.350  14.316
   50DOPE  H11R 6380   0.424   4.315  14.253
   50DOPE  H11S 6381   0.565   4.420  14.251
   50DOPE  C212 6382   0.451   4.422  14.439
   50DOPE  H12R 6383   0.527   4.483  14.492
   50DOPE  H12S 6384   0.414   4.348  14.513
   50DOPE  C213 6385   0.336   4.512  14.398
   50DOPE  H13R 6386   0.262   4.525  14.480
   50DOPE  H13S 6387   0.283   4.459  14.316
   50DOPE  C214 6388   0.383   4.648  14.346
   50DOPE  H14R 6389   0.298   4.709  14.311
   50DOPE  H14S 6390   0.443   4.627  14.255
   50DOPE  C215 6391   0.449   4.742  14.448
   50DOPE  H15R 6392   0.460   4.843  14.402
   50DOPE  H15S 6393   0.550   4.707  14.476
   50DOPE  C216 6394   0.361   4.747  14.572
   50DOPE  H16R 6395   0.373   4.653  14.630
   50DOPE  H16S 6396   0.257   4.748  14.531
   50DOPE  C217 6397   0.368   4.866  14.665
   50DOPE  H17R 6398   0.363   4.961  14.608
   50DOPE  H17S 6399   0.460   4.870  14.727
   50DOPE  C218 6400   0.251   4.850  14.760
   50DOPE  H18R 6401   0.279   4.774  14.835
   50DOPE  H18S 6402   0.164   4.808  14.705
   50DOPE  H18T 6403   0.221   4.945  14.809
   50DOPE   C33 6404   0.665   4.660  13.859
   50DOPE   H3X 6405   0.575   4.722  13.843
   50DOPE   H3Y 6406   0.753   4.726  13.843
   50DOPE   C34 6407   0.670   4.613  14.007
   50DOPE   H4X 6408   0.572   4.572  14.040
   50DOPE   H4Y 6409   0.748   4.534  14.020
   50DOPE   C35 6410   0.710   4.737  14.087
   50DOPE   H5X 6411   0.642   4.817  14.050
   50DOPE   H5Y 6412   0.816   4.755  14.061
   50DOPE   C36 6413   0.705   4.751  14.237
   50DOPE   H6X 6414   0.613   4.707  14.272
   50DOPE   H6Y 6415   0.700   4.858  14.266
   50DOPE   C37 6416   0.822   4.686  14.308
   50DOPE   H7X 6417   0.912   4.684  14.243
   50DOPE   H7Y 6418   0.848   4.747  14.398
   50DOPE   C38 6419   0.772   4.546  14.344
   50DOPE   H8X 6420   0.749   4.505  14.243
   50DOPE   H8Y 6421   0.676   4.563  14.396
   50DOPE   C39 6422   0.839   4.432  14.413
   50DOPE   H9X 6423   0.910   4.380  14.348
   50DOPE  C310 6424   0.819   4.378  14.534
   50DOPE  H10X 6425   0.880   4.290  14.550
   50DOPE  C311 6426   0.727   4.403  14.653
   50DOPE  H11X 6427   0.636   4.339  14.641
   50DOPE  H11Y 6428   0.778   4.359  14.741
   50DOPE  C312 6429   0.675   4.544  14.697
   50DOPE  H12X 6430   0.566   4.531  14.718
   50DOPE  H12Y 6431   0.686   4.614  14.613
   50DOPE  C313 6432   0.730   4.606  14.828
   50DOPE  H13X 6433   0.836   4.638  14.817
   50DOPE  H13Y 6434   0.670   4.697  14.851
   50DOPE  C314 6435   0.713   4.508  14.945
   50DOPE  H14X 6436   0.790   4.430  14.936
   50DOPE  H14Y 6437   0.613   4.462  14.931
   50DOPE  C315 6438   0.724   4.554  15.089
   50DOPE  H15X 6439   0.724   4.463  15.155
   50DOPE  H15Y 6440   0.633   4.610  15.117
   50DOPE  C316 6441   0.851   4.633  15.118
   50DOPE  H16X 6442   0.821   4.716  15.188
   50DOPE  H16Y 6443   0.891   4.681  15.026
   50DOPE  C317 6444   0.961   4.553  15.188
   50DOPE  H17X 6445   1.039   4.628  15.209
   50DOPE  H17Y 6446   0.923   4.509  15.283
   50DOPE  C318 6447   1.036   4.448  15.107
   50DOPE  H18X 6448   0.968   4.371  15.065
   50DOPE  H18Y 6449   1.090   4.500  15.026
   50DOPE  H18Z 6450   1.111   4.396  15.171
   51DOPE     N 6451   2.735   7.160  12.881
   51DOPE   HN1 6452   2.787   7.157  12.791
   51DOPE   HN2 6453   2.696   7.065  12.897
   51DOPE   HN3 6454   2.658   7.230  12.867
   51DOPE   C12 6455   2.832   7.202  12.990
   51DOPE  H12A 6456   2.778   7.199  13.087
   51DOPE  H12B 6457   2.864   7.306  12.970
   51DOPE   C11 6458   2.958   7.112  12.999
   51DOPE  H11A 6459   3.020   7.119  12.907
   51DOPE  H11B 6460   2.927   7.006  13.011
   51DOPE     P 6461   3.162   7.239  13.124
   51DOPE   O13 6462   3.151   7.321  13.247
   51DOPE   O14 6463   3.180   7.305  12.993
   51DOPE   O11 6464   3.278   7.132  13.144
   51DOPE   O12 6465   3.032   7.148  13.115
   51DOPE    C1 6466   3.258   7.002  13.197
   51DOPE    HA 6467   3.358   6.953  13.205
   51DOPE    HB 6468   3.197   6.940  13.128
   51DOPE    C2 6469   3.197   7.002  13.341
   51DOPE    HS 6470   3.090   7.031  13.328
   51DOPE   O21 6471   3.271   7.098  13.418
   51DOPE   C21 6472   3.196   7.163  13.505
   51DOPE   O22 6473   3.083   7.132  13.539
   51DOPE   C22 6474   3.275   7.279  13.561
   51DOPE   H2R 6475   3.294   7.347  13.475
   51DOPE   H2S 6476   3.372   7.242  13.601
   51DOPE    C3 6477   3.202   6.862  13.407
   51DOPE    HX 6478   3.308   6.843  13.437
   51DOPE    HY 6479   3.176   6.788  13.328
   51DOPE   O31 6480   3.107   6.845  13.514
   51DOPE   C31 6481   3.153   6.871  13.635
   51DOPE   O32 6482   3.268   6.903  13.662
   51DOPE   C32 6483   3.045   6.848  13.741
   51DOPE   H2X 6484   2.957   6.909  13.714
   51DOPE   H2Y 6485   3.016   6.741  13.741
   51DOPE   C23 6486   3.197   7.357  13.669
   51DOPE   H3R 6487   3.218   7.315  13.768
   51DOPE   H3S 6488   3.087   7.348  13.655
   51DOPE   C24 6489   3.229   7.507  13.663
   51DOPE   H4R 6490   3.166   7.558  13.738
   51DOPE   H4S 6491   3.198   7.544  13.563
   51DOPE   C25 6492   3.376   7.548  13.682
   51DOPE   H5R 6493   3.382   7.659  13.686
   51DOPE   H5S 6494   3.433   7.514  13.593
   51DOPE   C26 6495   3.443   7.490  13.806
   51DOPE   H6R 6496   3.543   7.536  13.822
   51DOPE   H6S 6497   3.460   7.382  13.784
   51DOPE   C27 6498   3.361   7.501  13.936
   51DOPE   H7R 6499   3.258   7.537  13.918
   51DOPE   H7S 6500   3.409   7.577  14.002
   51DOPE   C28 6501   3.355   7.365  14.005
   51DOPE   H8R 6502   3.310   7.293  13.935
   51DOPE   H8S 6503   3.284   7.359  14.089
   51DOPE   C29 6504   3.497   7.332  14.045
   51DOPE   H9R 6505   3.543   7.398  14.120
   51DOPE  C210 6506   3.557   7.218  14.010
   51DOPE  H10R 6507   3.658   7.194  14.047
   51DOPE  C211 6508   3.483   7.115  13.930
   51DOPE  H11R 6509   3.544   7.036  13.883
   51DOPE  H11S 6510   3.426   7.159  13.844
   51DOPE  C212 6511   3.390   7.059  14.039
   51DOPE  H12R 6512   3.308   7.003  13.989
   51DOPE  H12S 6513   3.339   7.136  14.101
   51DOPE  C213 6514   3.460   6.965  14.137
   51DOPE  H13R 6515   3.567   6.959  14.106
   51DOPE  H13S 6516   3.415   6.870  14.111
   51DOPE  C214 6517   3.456   6.994  14.290
   51DOPE  H14R 6518   3.500   7.096  14.304
   51DOPE  H14S 6519   3.522   6.922  14.343
   51DOPE  C215 6520   3.322   6.994  14.367
   51DOPE  H15R 6521   3.247   7.046  14.306
   51DOPE  H15S 6522   3.335   7.057  14.458
   51DOPE  C216 6523   3.262   6.859  14.416
   51DOPE  H16R 6524   3.238   6.795  14.328
   51DOPE  H16S 6525   3.163   6.885  14.460
   51DOPE  C217 6526   3.338   6.774  14.520
   51DOPE  H17R 6527   3.410   6.708  14.468
   51DOPE  H17S 6528   3.264   6.704  14.566
   51DOPE  C218 6529   3.418   6.843  14.632
   51DOPE  H18R 6530   3.466   6.766  14.696
   51DOPE  H18S 6531   3.354   6.905  14.697
   51DOPE  H18T 6532   3.497   6.908  14.590
   51DOPE   C33 6533   3.103   6.891  13.877
   51DOPE   H3X 6534   3.130   6.999  13.867
   51DOPE   H3Y 6535   3.197   6.835  13.897
   51DOPE   C34 6536   3.014   6.876  14.000
   51DOPE   H4X 6537   2.914   6.919  13.978
   51DOPE   H4Y 6538   3.001   6.768  14.025
   51DOPE   C35 6539   3.074   6.950  14.121
   51DOPE   H5X 6540   3.178   6.913  14.136
   51DOPE   H5Y 6541   3.019   6.922  14.214
   51DOPE   C36 6542   3.076   7.103  14.105
   51DOPE   H6X 6543   3.146   7.135  14.026
   51DOPE   H6Y 6544   3.110   7.151  14.200
   51DOPE   C37 6545   2.940   7.163  14.068
   51DOPE   H7X 6546   2.946   7.274  14.064
   51DOPE   H7Y 6547   2.914   7.129  13.966
   51DOPE   C38 6548   2.835   7.117  14.167
   51DOPE   H8X 6549   2.832   7.006  14.176
   51DOPE   H8Y 6550   2.735   7.143  14.130
   51DOPE   C39 6551   2.856   7.182  14.299
   51DOPE   H9X 6552   2.928   7.266  14.304
   51DOPE  C310 6553   2.795   7.141  14.409
   51DOPE  H10X 6554   2.810   7.197  14.502
   51DOPE  C311 6555   2.698   7.025  14.416
   51DOPE  H11X 6556   2.610   7.051  14.478
   51DOPE  H11Y 6557   2.659   6.992  14.317
   51DOPE  C312 6558   2.776   6.911  14.478
   51DOPE  H12X 6559   2.845   6.867  14.402
   51DOPE  H12Y 6560   2.706   6.831  14.512
   51DOPE  C313 6561   2.861   6.960  14.595
   51DOPE  H13X 6562   2.954   7.007  14.555
   51DOPE  H13Y 6563   2.805   7.039  14.651
   51DOPE  C314 6564   2.899   6.854  14.694
   51DOPE  H14X 6565   2.951   6.769  14.646
   51DOPE  H14Y 6566   2.805   6.817  14.742
   51DOPE  C315 6567   2.985   6.917  14.801
   51DOPE  H15X 6568   3.006   6.834  14.872
   51DOPE  H15Y 6569   2.924   6.997  14.851
   51DOPE  C316 6570   3.120   6.976  14.756
   51DOPE  H16X 6571   3.139   6.939  14.654
   51DOPE  H16Y 6572   3.198   6.931  14.821
   51DOPE  C317 6573   3.139   7.129  14.759
   51DOPE  H17X 6574   3.244   7.149  14.726
   51DOPE  H17Y 6575   3.073   7.171  14.680
   51DOPE  C318 6576   3.117   7.202  14.892
   51DOPE  H18X 6577   3.011   7.195  14.924
   51DOPE  H18Y 6578   3.182   7.162  14.972
   51DOPE  H18Z 6579   3.142   7.310  14.882
   52DOPE     N 6580   7.181   4.775  12.956
   52DOPE   HN1 6581   7.105   4.809  12.892
   52DOPE   HN2 6582   7.248   4.855  12.971
   52DOPE   HN3 6583   7.239   4.703  12.908
   52DOPE   C12 6584   7.144   4.708  13.085
   52DOPE  H12A 6585   7.062   4.636  13.062
   52DOPE  H12B 6586   7.113   4.783  13.160
   52DOPE   C11 6587   7.260   4.624  13.133
   52DOPE  H11A 6588   7.221   4.557  13.214
   52DOPE  H11B 6589   7.343   4.685  13.173
   52DOPE     P 6590   7.392   4.425  13.037
   52DOPE   O13 6591   7.527   4.481  13.063
   52DOPE   O14 6592   7.370   4.346  12.916
   52DOPE   O11 6593   7.327   4.360  13.163
   52DOPE   O12 6594   7.300   4.550  13.018
   52DOPE    C1 6595   7.386   4.264  13.251
   52DOPE    HA 6596   7.497   4.266  13.243
   52DOPE    HB 6597   7.349   4.163  13.225
   52DOPE    C2 6598   7.343   4.298  13.397
   52DOPE    HS 6599   7.232   4.285  13.400
   52DOPE   O21 6600   7.384   4.432  13.420
   52DOPE   C21 6601   7.297   4.511  13.479
   52DOPE   O22 6602   7.177   4.495  13.490
   52DOPE   C22 6603   7.379   4.623  13.539
   52DOPE   H2R 6604   7.403   4.694  13.457
   52DOPE   H2S 6605   7.474   4.575  13.572
   52DOPE    C3 6606   7.405   4.215  13.514
   52DOPE    HX 6607   7.516   4.227  13.504
   52DOPE    HY 6608   7.383   4.106  13.508
   52DOPE   O31 6609   7.375   4.270  13.644
   52DOPE   C31 6610   7.248   4.267  13.684
   52DOPE   O32 6611   7.159   4.201  13.635
   52DOPE   C32 6612   7.238   4.366  13.801
   52DOPE   H2X 6613   7.296   4.322  13.884
   52DOPE   H2Y 6614   7.293   4.455  13.768
   52DOPE   C23 6615   7.321   4.701  13.658
   52DOPE   H3R 6616   7.300   4.641  13.748
   52DOPE   H3S 6617   7.225   4.750  13.632
   52DOPE   C24 6618   7.428   4.803  13.697
   52DOPE   H4R 6619   7.387   4.877  13.769
   52DOPE   H4S 6620   7.455   4.859  13.606
   52DOPE   C25 6621   7.556   4.736  13.753
   52DOPE   H5R 6622   7.628   4.814  13.783
   52DOPE   H5S 6623   7.610   4.680  13.674
   52DOPE   C26 6624   7.535   4.649  13.877
   52DOPE   H6R 6625   7.637   4.622  13.911
   52DOPE   H6S 6626   7.483   4.555  13.853
   52DOPE   C27 6627   7.462   4.726  13.987
   52DOPE   H7R 6628   7.375   4.783  13.949
   52DOPE   H7S 6629   7.534   4.802  14.023
   52DOPE   C28 6630   7.407   4.635  14.098
   52DOPE   H8R 6631   7.471   4.544  14.106
   52DOPE   H8S 6632   7.304   4.602  14.074
   52DOPE   C29 6633   7.419   4.713  14.224
   52DOPE   H9R 6634   7.513   4.767  14.228
   52DOPE  C210 6635   7.332   4.736  14.323
   52DOPE  H10R 6636   7.367   4.791  14.410
   52DOPE  C211 6637   7.193   4.689  14.339
   52DOPE  H11R 6638   7.157   4.632  14.250
   52DOPE  H11S 6639   7.122   4.774  14.354
   52DOPE  C212 6640   7.189   4.599  14.463
   52DOPE  H12R 6641   7.243   4.503  14.448
   52DOPE  H12S 6642   7.081   4.581  14.465
   52DOPE  C213 6643   7.206   4.654  14.605
   52DOPE  H13R 6644   7.159   4.579  14.670
   52DOPE  H13S 6645   7.142   4.742  14.619
   52DOPE  C214 6646   7.350   4.671  14.654
   52DOPE  H14R 6647   7.389   4.770  14.630
   52DOPE  H14S 6648   7.412   4.599  14.595
   52DOPE  C215 6649   7.374   4.644  14.804
   52DOPE  H15R 6650   7.319   4.553  14.834
   52DOPE  H15S 6651   7.335   4.718  14.875
   52DOPE  C216 6652   7.525   4.628  14.824
   52DOPE  H16R 6653   7.571   4.581  14.734
   52DOPE  H16S 6654   7.542   4.558  14.909
   52DOPE  C217 6655   7.597   4.759  14.852
   52DOPE  H17R 6656   7.526   4.830  14.900
   52DOPE  H17S 6657   7.631   4.805  14.757
   52DOPE  C218 6658   7.715   4.732  14.948
   52DOPE  H18R 6659   7.814   4.766  14.976
   52DOPE  H18S 6660   7.768   4.663  14.878
   52DOPE  H18T 6661   7.725   4.844  14.948
   52DOPE   C33 6662   7.098   4.404  13.856
   52DOPE   H3X 6663   7.017   4.364  13.791
   52DOPE   H3Y 6664   7.084   4.515  13.859
   52DOPE   C34 6665   7.089   4.352  14.001
   52DOPE   H4X 6666   7.107   4.243  13.999
   52DOPE   H4Y 6667   7.173   4.398  14.060
   52DOPE   C35 6668   6.957   4.382  14.072
   52DOPE   H5X 6669   6.876   4.339  14.008
   52DOPE   H5Y 6670   6.943   4.492  14.076
   52DOPE   C36 6671   6.937   4.322  14.214
   52DOPE   H6X 6672   6.978   4.220  14.218
   52DOPE   H6Y 6673   6.827   4.314  14.230
   52DOPE   C37 6674   6.995   4.406  14.329
   52DOPE   H7X 6675   7.104   4.395  14.329
   52DOPE   H7Y 6676   6.971   4.512  14.299
   52DOPE   C38 6677   6.932   4.390  14.473
   52DOPE   H8X 6678   6.830   4.391  14.436
   52DOPE   H8Y 6679   6.937   4.484  14.531
   52DOPE   C39 6680   6.927   4.276  14.573
   52DOPE   H9X 6681   6.855   4.200  14.541
   52DOPE  C310 6682   6.987   4.252  14.692
   52DOPE  H10X 6683   6.955   4.159  14.741
   52DOPE  C311 6684   7.086   4.324  14.782
   52DOPE  H11X 6685   7.140   4.406  14.731
   52DOPE  H11Y 6686   7.040   4.366  14.873
   52DOPE  C312 6687   7.196   4.226  14.826
   52DOPE  H12X 6688   7.155   4.122  14.826
   52DOPE  H12Y 6689   7.235   4.246  14.928
   52DOPE  C313 6690   7.309   4.236  14.723
   52DOPE  H13X 6691   7.351   4.136  14.703
   52DOPE  H13Y 6692   7.258   4.270  14.630
   52DOPE  C314 6693   7.420   4.337  14.757
   52DOPE  H14X 6694   7.415   4.363  14.865
   52DOPE  H14Y 6695   7.390   4.425  14.698
   52DOPE  C315 6696   7.567   4.315  14.715
   52DOPE  H15X 6697   7.632   4.371  14.787
   52DOPE  H15Y 6698   7.584   4.362  14.616
   52DOPE  C316 6699   7.611   4.170  14.709
   52DOPE  H16X 6700   7.719   4.169  14.683
   52DOPE  H16Y 6701   7.559   4.119  14.626
   52DOPE  C317 6702   7.588   4.092  14.839
   52DOPE  H17X 6703   7.486   4.050  14.837
   52DOPE  H17Y 6704   7.657   4.004  14.837
   52DOPE  C318 6705   7.605   4.171  14.970
   52DOPE  H18X 6706   7.611   4.102  15.056
   52DOPE  H18Y 6707   7.698   4.233  14.969
   52DOPE  H18Z 6708   7.520   4.239  14.987
   53DOPE     N 6709   6.116   6.522  12.791
   53DOPE   HN1 6710   6.157   6.432  12.758
   53DOPE   HN2 6711   6.071   6.508  12.885
   53DOPE   HN3 6712   6.041   6.555  12.725
   53DOPE   C12 6713   6.221   6.628  12.815
   53DOPE  H12A 6714   6.177   6.725  12.783
   53DOPE  H12B 6715   6.311   6.605  12.754
   53DOPE   C11 6716   6.253   6.636  12.964
   53DOPE  H11A 6717   6.310   6.730  12.984
   53DOPE  H11B 6718   6.313   6.548  12.998
   53DOPE     P 6719   6.109   6.677  13.182
   53DOPE   O13 6720   6.092   6.548  13.251
   53DOPE   O14 6721   5.999   6.775  13.187
   53DOPE   O11 6722   6.249   6.740  13.224
   53DOPE   O12 6723   6.129   6.637  13.030
   53DOPE    C1 6724   6.249   6.843  13.324
   53DOPE    HA 6725   6.173   6.921  13.303
   53DOPE    HB 6726   6.347   6.894  13.321
   53DOPE    C2 6727   6.228   6.782  13.466
   53DOPE    HS 6728   6.288   6.690  13.467
   53DOPE   O21 6729   6.089   6.756  13.485
   53DOPE   C21 6730   6.057   6.640  13.536
   53DOPE   O22 6731   6.131   6.549  13.570
   53DOPE   C22 6732   5.911   6.653  13.577
   53DOPE   H2R 6733   5.864   6.553  13.571
   53DOPE   H2S 6734   5.858   6.721  13.506
   53DOPE    C3 6735   6.279   6.871  13.583
   53DOPE    HX 6736   6.220   6.962  13.601
   53DOPE    HY 6737   6.375   6.908  13.546
   53DOPE   O31 6738   6.296   6.795  13.704
   53DOPE   C31 6739   6.232   6.837  13.812
   53DOPE   O32 6740   6.173   6.942  13.822
   53DOPE   C32 6741   6.240   6.727  13.920
   53DOPE   H2X 6742   6.148   6.666  13.917
   53DOPE   H2Y 6743   6.326   6.662  13.894
   53DOPE   C23 6744   5.914   6.711  13.719
   53DOPE   H3R 6745   5.884   6.818  13.720
   53DOPE   H3S 6746   6.016   6.708  13.761
   53DOPE   C24 6747   5.832   6.629  13.816
   53DOPE   H4R 6748   5.843   6.521  13.791
   53DOPE   H4S 6749   5.725   6.657  13.804
   53DOPE   C25 6750   5.873   6.645  13.963
   53DOPE   H5R 6751   5.914   6.746  13.984
   53DOPE   H5S 6752   5.951   6.570  13.989
   53DOPE   C26 6753   5.749   6.621  14.046
   53DOPE   H6R 6754   5.670   6.687  14.006
   53DOPE   H6S 6755   5.763   6.645  14.154
   53DOPE   C27 6756   5.702   6.477  14.032
   53DOPE   H7R 6757   5.702   6.444  13.925
   53DOPE   H7S 6758   5.598   6.466  14.067
   53DOPE   C28 6759   5.791   6.382  14.110
   53DOPE   H8R 6760   5.896   6.386  14.073
   53DOPE   H8S 6761   5.742   6.288  14.080
   53DOPE   C29 6762   5.782   6.382  14.259
   53DOPE   H9R 6763   5.706   6.312  14.297
   53DOPE  C210 6764   5.863   6.440  14.347
   53DOPE  H10R 6765   5.832   6.437  14.453
   53DOPE  C211 6766   5.987   6.522  14.320
   53DOPE  H11R 6767   5.966   6.631  14.330
   53DOPE  H11S 6768   6.024   6.505  14.217
   53DOPE  C212 6769   6.096   6.481  14.420
   53DOPE  H12R 6770   6.194   6.523  14.389
   53DOPE  H12S 6771   6.107   6.370  14.415
   53DOPE  C213 6772   6.073   6.522  14.567
   53DOPE  H13R 6773   5.965   6.522  14.592
   53DOPE  H13S 6774   6.109   6.627  14.579
   53DOPE  C214 6775   6.146   6.426  14.661
   53DOPE  H14R 6776   6.249   6.410  14.622
   53DOPE  H14S 6777   6.094   6.329  14.656
   53DOPE  C215 6778   6.155   6.467  14.809
   53DOPE  H15R 6779   6.055   6.487  14.852
   53DOPE  H15S 6780   6.214   6.562  14.814
   53DOPE  C216 6781   6.224   6.363  14.899
   53DOPE  H16R 6782   6.296   6.301  14.842
   53DOPE  H16S 6783   6.145   6.293  14.937
   53DOPE  C217 6784   6.288   6.434  15.019
   53DOPE  H17R 6785   6.212   6.432  15.099
   53DOPE  H17S 6786   6.305   6.540  14.992
   53DOPE  C218 6787   6.420   6.378  15.073
   53DOPE  H18R 6788   6.418   6.267  15.076
   53DOPE  H18S 6789   6.437   6.416  15.175
   53DOPE  H18T 6790   6.506   6.411  15.011
   53DOPE   C33 6791   6.262   6.781  14.063
   53DOPE   H3X 6792   6.329   6.868  14.056
   53DOPE   H3Y 6793   6.313   6.702  14.124
   53DOPE   C34 6794   6.138   6.827  14.140
   53DOPE   H4X 6795   6.107   6.925  14.096
   53DOPE   H4Y 6796   6.054   6.755  14.133
   53DOPE   C35 6797   6.172   6.848  14.288
   53DOPE   H5X 6798   6.270   6.896  14.289
   53DOPE   H5Y 6799   6.178   6.753  14.345
   53DOPE   C36 6800   6.092   6.952  14.362
   53DOPE   H6X 6801   6.097   7.046  14.306
   53DOPE   H6Y 6802   6.141   6.972  14.460
   53DOPE   C37 6803   5.947   6.921  14.386
   53DOPE   H7X 6804   5.890   6.903  14.294
   53DOPE   H7Y 6805   5.936   6.826  14.441
   53DOPE   C38 6806   5.899   7.048  14.457
   53DOPE   H8X 6807   5.933   7.136  14.399
   53DOPE   H8Y 6808   5.953   7.058  14.553
   53DOPE   C39 6809   5.750   7.052  14.471
   53DOPE   H9X 6810   5.694   7.047  14.376
   53DOPE  C310 6811   5.687   7.065  14.587
   53DOPE  H10X 6812   5.577   7.064  14.590
   53DOPE  C311 6813   5.756   7.077  14.720
   53DOPE  H11X 6814   5.841   7.149  14.717
   53DOPE  H11Y 6815   5.682   7.121  14.789
   53DOPE  C312 6816   5.803   6.945  14.783
   53DOPE  H12X 6817   5.719   6.875  14.789
   53DOPE  H12Y 6818   5.834   6.969  14.886
   53DOPE  C313 6819   5.917   6.865  14.719
   53DOPE  H13X 6820   5.875   6.818  14.627
   53DOPE  H13Y 6821   6.001   6.929  14.690
   53DOPE  C314 6822   5.968   6.753  14.811
   53DOPE  H14X 6823   6.054   6.705  14.761
   53DOPE  H14Y 6824   5.888   6.677  14.825
   53DOPE  C315 6825   6.016   6.797  14.951
   53DOPE  H15X 6826   6.061   6.709  15.002
   53DOPE  H15Y 6827   5.926   6.825  15.008
   53DOPE  C316 6828   6.116   6.913  14.946
   53DOPE  H16X 6829   6.068   7.001  14.898
   53DOPE  H16Y 6830   6.201   6.881  14.880
   53DOPE  C317 6831   6.174   6.959  15.081
   53DOPE  H17X 6832   6.260   7.027  15.060
   53DOPE  H17Y 6833   6.098   7.022  15.133
   53DOPE  C318 6834   6.221   6.848  15.176
   53DOPE  H18X 6835   6.293   6.781  15.124
   53DOPE  H18Y 6836   6.270   6.891  15.265
   53DOPE  H18Z 6837   6.135   6.787  15.210
   54DOPE     N 6838   0.296   3.595  12.969
   54DOPE   HN1 6839   0.395   3.585  12.937
   54DOPE   HN2 6840   0.243   3.507  12.954
   54DOPE   HN3 6841   0.250   3.669  12.909
   54DOPE   C12 6842   0.276   3.643  13.109
   54DOPE  H12A 6843   0.346   3.727  13.127
   54DOPE  H12B 6844   0.295   3.561  13.180
   54DOPE   C11 6845   0.132   3.693  13.115
   54DOPE  H11A 6846   0.117   3.749  13.210
   54DOPE  H11B 6847   0.064   3.605  13.121
   54DOPE     P 6848  -0.042   3.832  12.988
   54DOPE   O13 6849  -0.134   3.717  13.000
   54DOPE   O14 6850  -0.054   3.921  12.870
   54DOPE   O11 6851  -0.044   3.915  13.123
   54DOPE   O12 6852   0.107   3.776  12.998
   54DOPE    C1 6853   0.035   4.032  13.142
   54DOPE    HA 6854  -0.030   4.120  13.123
   54DOPE    HB 6855   0.123   4.038  13.073
   54DOPE    C2 6856   0.090   4.044  13.288
   54DOPE    HS 6857   0.142   4.141  13.299
   54DOPE   O21 6858   0.184   3.937  13.311
   54DOPE   C21 6859   0.218   3.914  13.437
   54DOPE   O22 6860   0.195   3.988  13.531
   54DOPE   C22 6861   0.300   3.787  13.446
   54DOPE   H2R 6862   0.294   3.730  13.351
   54DOPE   H2S 6863   0.261   3.723  13.526
   54DOPE    C3 6864  -0.031   4.041  13.388
   54DOPE    HX 6865  -0.103   4.111  13.344
   54DOPE    HY 6866  -0.004   4.083  13.488
   54DOPE   O31 6867  -0.096   3.913  13.397
   54DOPE   C31 6868  -0.097   3.847  13.509
   54DOPE   O32 6869  -0.053   3.883  13.617
   54DOPE   C32 6870  -0.170   3.717  13.482
   54DOPE   H2X 6871  -0.278   3.737  13.496
   54DOPE   H2Y 6872  -0.153   3.686  13.377
   54DOPE   C23 6873   0.444   3.829  13.477
   54DOPE   H3R 6874   0.477   3.904  13.402
   54DOPE   H3S 6875   0.512   3.743  13.465
   54DOPE   C24 6876   0.463   3.889  13.617
   54DOPE   H4R 6877   0.407   3.983  13.623
   54DOPE   H4S 6878   0.569   3.921  13.623
   54DOPE   C25 6879   0.425   3.808  13.743
   54DOPE   H5R 6880   0.499   3.834  13.822
   54DOPE   H5S 6881   0.435   3.699  13.723
   54DOPE   C26 6882   0.288   3.844  13.802
   54DOPE   H6R 6883   0.273   3.785  13.895
   54DOPE   H6S 6884   0.210   3.811  13.728
   54DOPE   C27 6885   0.262   3.992  13.834
   54DOPE   H7R 6886   0.162   4.020  13.793
   54DOPE   H7S 6887   0.337   4.057  13.784
   54DOPE   C28 6888   0.267   4.026  13.983
   54DOPE   H8R 6889   0.363   3.985  14.022
   54DOPE   H8S 6890   0.186   3.973  14.035
   54DOPE   C29 6891   0.255   4.175  14.005
   54DOPE   H9R 6892   0.288   4.237  13.920
   54DOPE  C210 6893   0.199   4.235  14.113
   54DOPE  H10R 6894   0.205   4.344  14.121
   54DOPE  C211 6895   0.138   4.168  14.234
   54DOPE  H11R 6896   0.068   4.087  14.206
   54DOPE  H11S 6897   0.077   4.243  14.289
   54DOPE  C212 6898   0.241   4.114  14.336
   54DOPE  H12R 6899   0.307   4.197  14.366
   54DOPE  H12S 6900   0.303   4.035  14.290
   54DOPE  C213 6901   0.168   4.061  14.461
   54DOPE  H13R 6902   0.110   3.972  14.431
   54DOPE  H13S 6903   0.094   4.139  14.489
   54DOPE  C214 6904   0.247   4.023  14.588
   54DOPE  H14R 6905   0.329   3.951  14.569
   54DOPE  H14S 6906   0.171   3.971  14.651
   54DOPE  C215 6907   0.306   4.135  14.672
   54DOPE  H15R 6908   0.276   4.231  14.626
   54DOPE  H15S 6909   0.417   4.129  14.668
   54DOPE  C216 6910   0.263   4.142  14.821
   54DOPE  H16R 6911   0.174   4.209  14.825
   54DOPE  H16S 6912   0.342   4.205  14.862
   54DOPE  C217 6913   0.222   4.017  14.906
   54DOPE  H17R 6914   0.181   3.938  14.842
   54DOPE  H17S 6915   0.139   4.054  14.969
   54DOPE  C218 6916   0.305   3.947  15.016
   54DOPE  H18R 6917   0.399   3.904  14.977
   54DOPE  H18S 6918   0.246   3.865  15.062
   54DOPE  H18T 6919   0.330   4.018  15.097
   54DOPE   C33 6920  -0.124   3.607  13.578
   54DOPE   H3X 6921  -0.186   3.516  13.561
   54DOPE   H3Y 6922  -0.137   3.639  13.684
   54DOPE   C34 6923   0.022   3.568  13.553
   54DOPE   H4X 6924   0.039   3.547  13.445
   54DOPE   H4Y 6925   0.088   3.651  13.584
   54DOPE   C35 6926   0.056   3.443  13.632
   54DOPE   H5X 6927   0.155   3.402  13.601
   54DOPE   H5Y 6928  -0.023   3.370  13.605
   54DOPE   C36 6929   0.052   3.460  13.783
   54DOPE   H6X 6930   0.086   3.365  13.829
   54DOPE   H6Y 6931  -0.051   3.481  13.820
   54DOPE   C37 6932   0.148   3.562  13.841
   54DOPE   H7X 6933   0.245   3.558  13.786
   54DOPE   H7Y 6934   0.103   3.663  13.829
   54DOPE   C38 6935   0.176   3.531  13.989
   54DOPE   H8X 6936   0.250   3.608  14.021
   54DOPE   H8Y 6937   0.230   3.436  13.997
   54DOPE   C39 6938   0.051   3.524  14.074
   54DOPE   H9X 6939  -0.001   3.428  14.076
   54DOPE  C310 6940   0.007   3.627  14.148
   54DOPE  H10X 6941  -0.081   3.616  14.213
   54DOPE  C311 6942   0.080   3.757  14.151
   54DOPE  H11X 6943   0.112   3.785  14.048
   54DOPE  H11Y 6944   0.014   3.840  14.186
   54DOPE  C312 6945   0.203   3.744  14.242
   54DOPE  H12X 6946   0.256   3.841  14.246
   54DOPE  H12Y 6947   0.277   3.671  14.203
   54DOPE  C313 6948   0.167   3.698  14.383
   54DOPE  H13X 6949   0.087   3.765  14.422
   54DOPE  H13Y 6950   0.125   3.595  14.382
   54DOPE  C314 6951   0.286   3.701  14.478
   54DOPE  H14X 6952   0.344   3.793  14.459
   54DOPE  H14Y 6953   0.355   3.616  14.456
   54DOPE  C315 6954   0.234   3.691  14.621
   54DOPE  H15X 6955   0.180   3.594  14.628
   54DOPE  H15Y 6956   0.157   3.769  14.639
   54DOPE  C316 6957   0.339   3.699  14.732
   54DOPE  H16X 6958   0.382   3.802  14.738
   54DOPE  H16Y 6959   0.422   3.630  14.708
   54DOPE  C317 6960   0.279   3.659  14.867
   54DOPE  H17X 6961   0.348   3.684  14.949
   54DOPE  H17Y 6962   0.185   3.716  14.885
   54DOPE  C318 6963   0.252   3.509  14.872
   54DOPE  H18X 6964   0.337   3.453  14.829
   54DOPE  H18Y 6965   0.238   3.474  14.977
   54DOPE  H18Z 6966   0.161   3.484  14.813
   55DOPE     N 6967   0.352   5.679  13.204
   55DOPE   HN1 6968   0.291   5.594  13.186
   55DOPE   HN2 6969   0.439   5.638  13.242
   55DOPE   HN3 6970   0.304   5.739  13.276
   55DOPE   C12 6971   0.389   5.756  13.079
   55DOPE  H12A 6972   0.297   5.782  13.023
   55DOPE  H12B 6973   0.451   5.689  13.016
   55DOPE   C11 6974   0.469   5.885  13.109
   55DOPE  H11A 6975   0.530   5.872  13.202
   55DOPE  H11B 6976   0.399   5.968  13.129
   55DOPE     P 6977   0.706   5.880  12.998
   55DOPE   O13 6978   0.771   5.937  12.877
   55DOPE   O14 6979   0.711   5.733  13.025
   55DOPE   O11 6980   0.741   5.966  13.129
   55DOPE   O12 6981   0.551   5.920  12.997
   55DOPE    C1 6982   0.753   6.107  13.101
   55DOPE    HA 6983   0.674   6.143  13.032
   55DOPE    HB 6984   0.852   6.120  13.053
   55DOPE    C2 6985   0.752   6.205  13.224
   55DOPE    HS 6986   0.807   6.297  13.199
   55DOPE   O21 6987   0.811   6.143  13.339
   55DOPE   C21 6988   0.942   6.121  13.318
   55DOPE   O22 6989   1.006   6.169  13.226
   55DOPE   C22 6990   0.995   6.040  13.440
   55DOPE   H2R 6991   1.075   5.972  13.407
   55DOPE   H2S 6992   0.910   5.978  13.477
   55DOPE    C3 6993   0.608   6.257  13.258
   55DOPE    HX 6994   0.563   6.298  13.164
   55DOPE    HY 6995   0.617   6.345  13.325
   55DOPE   O31 6996   0.519   6.157  13.308
   55DOPE   C31 6997   0.513   6.152  13.440
   55DOPE   O32 6998   0.553   6.236  13.518
   55DOPE   C32 6999   0.455   6.018  13.480
   55DOPE   H2X 7000   0.346   6.023  13.461
   55DOPE   H2Y 7001   0.502   5.940  13.417
   55DOPE   C23 7002   1.045   6.129  13.558
   55DOPE   H3R 7003   0.956   6.158  13.619
   55DOPE   H3S 7004   1.092   6.221  13.516
   55DOPE   C24 7005   1.150   6.067  13.651
   55DOPE   H4R 7006   1.245   6.061  13.593
   55DOPE   H4S 7007   1.119   5.964  13.677
   55DOPE   C25 7008   1.177   6.146  13.781
   55DOPE   H5R 7009   1.214   6.247  13.756
   55DOPE   H5S 7010   1.263   6.101  13.834
   55DOPE   C26 7011   1.057   6.153  13.876
   55DOPE   H6R 7012   0.991   6.067  13.849
   55DOPE   H6S 7013   0.994   6.243  13.858
   55DOPE   C27 7014   1.093   6.132  14.024
   55DOPE   H7R 7015   1.187   6.072  14.029
   55DOPE   H7S 7016   1.011   6.070  14.068
   55DOPE   C28 7017   1.111   6.253  14.117
   55DOPE   H8R 7018   1.184   6.318  14.065
   55DOPE   H8S 7019   1.159   6.227  14.213
   55DOPE   C29 7020   0.973   6.313  14.139
   55DOPE   H9R 7021   0.927   6.346  14.045
   55DOPE  C210 7022   0.902   6.335  14.252
   55DOPE  H10R 7023   0.802   6.375  14.239
   55DOPE  C211 7024   0.934   6.309  14.397
   55DOPE  H11R 7025   0.922   6.405  14.451
   55DOPE  H11S 7026   1.039   6.279  14.410
   55DOPE  C212 7027   0.839   6.210  14.467
   55DOPE  H12R 7028   0.861   6.108  14.428
   55DOPE  H12S 7029   0.733   6.234  14.443
   55DOPE  C213 7030   0.853   6.210  14.621
   55DOPE  H13R 7031   0.791   6.292  14.663
   55DOPE  H13S 7032   0.958   6.231  14.647
   55DOPE  C214 7033   0.814   6.079  14.692
   55DOPE  H14R 7034   0.705   6.063  14.676
   55DOPE  H14S 7035   0.831   6.094  14.801
   55DOPE  C215 7036   0.893   5.955  14.646
   55DOPE  H15R 7037   0.997   5.989  14.629
   55DOPE  H15S 7038   0.853   5.917  14.551
   55DOPE  C216 7039   0.907   5.840  14.747
   55DOPE  H16R 7040   0.813   5.782  14.743
   55DOPE  H16S 7041   0.922   5.884  14.848
   55DOPE  C217 7042   1.018   5.738  14.718
   55DOPE  H17R 7043   1.112   5.771  14.768
   55DOPE  H17S 7044   1.036   5.737  14.609
   55DOPE  C218 7045   0.986   5.593  14.761
   55DOPE  H18R 7046   1.064   5.524  14.724
   55DOPE  H18S 7047   0.888   5.561  14.719
   55DOPE  H18T 7048   0.981   5.583  14.872
   55DOPE   C33 7049   0.480   5.987  13.629
   55DOPE   H3X 7050   0.424   5.896  13.658
   55DOPE   H3Y 7051   0.439   6.071  13.690
   55DOPE   C34 7052   0.629   5.966  13.658
   55DOPE   H4X 7053   0.666   5.877  13.602
   55DOPE   H4Y 7054   0.687   6.054  13.620
   55DOPE   C35 7055   0.660   5.951  13.807
   55DOPE   H5X 7056   0.771   5.957  13.820
   55DOPE   H5Y 7057   0.627   5.850  13.841
   55DOPE   C36 7058   0.599   6.059  13.896
   55DOPE   H6X 7059   0.489   6.048  13.901
   55DOPE   H6Y 7060   0.624   6.158  13.853
   55DOPE   C37 7061   0.655   6.051  14.039
   55DOPE   H7X 7062   0.766   6.053  14.033
   55DOPE   H7Y 7063   0.623   6.142  14.094
   55DOPE   C38 7064   0.608   5.926  14.115
   55DOPE   H8X 7065   0.631   5.833  14.058
   55DOPE   H8Y 7066   0.497   5.930  14.123
   55DOPE   C39 7067   0.672   5.921  14.250
   55DOPE   H9X 7068   0.764   5.861  14.259
   55DOPE  C310 7069   0.621   5.979  14.360
   55DOPE  H10X 7070   0.675   5.971  14.455
   55DOPE  C311 7071   0.493   6.057  14.366
   55DOPE  H11X 7072   0.503   6.144  14.434
   55DOPE  H11Y 7073   0.464   6.097  14.267
   55DOPE  C312 7074   0.380   5.964  14.415
   55DOPE  H12X 7075   0.364   5.884  14.339
   55DOPE  H12Y 7076   0.285   6.023  14.420
   55DOPE  C313 7077   0.407   5.899  14.551
   55DOPE  H13X 7078   0.322   5.831  14.576
   55DOPE  H13Y 7079   0.498   5.836  14.546
   55DOPE  C314 7080   0.423   6.001  14.665
   55DOPE  H14X 7081   0.326   6.055  14.672
   55DOPE  H14Y 7082   0.499   6.077  14.641
   55DOPE  C315 7083   0.452   5.937  14.802
   55DOPE  H15X 7084   0.386   5.848  14.812
   55DOPE  H15Y 7085   0.425   6.012  14.880
   55DOPE  C316 7086   0.598   5.893  14.829
   55DOPE  H16X 7087   0.655   5.981  14.864
   55DOPE  H16Y 7088   0.637   5.859  14.731
   55DOPE  C317 7089   0.617   5.782  14.935
   55DOPE  H17X 7090   0.560   5.817  15.022
   55DOPE  H17Y 7091   0.573   5.687  14.896
   55DOPE  C318 7092   0.753   5.751  15.000
   55DOPE  H18X 7093   0.804   5.844  15.034
   55DOPE  H18Y 7094   0.739   5.685  15.089
   55DOPE  H18Z 7095   0.818   5.695  14.932
   56DOPE     N 7096   0.898   6.390  12.793
   56DOPE   HN1 7097   0.852   6.480  12.772
   56DOPE   HN2 7098   1.002   6.398  12.779
   56DOPE   HN3 7099   0.865   6.314  12.729
   56DOPE   C12 7100   0.884   6.353  12.936
   56DOPE  H12A 7101   0.958   6.274  12.959
   56DOPE  H12B 7102   0.781   6.314  12.950
   56DOPE   C11 7103   0.904   6.474  13.027
   56DOPE  H11A 7104   0.912   6.439  13.133
   56DOPE  H11B 7105   0.814   6.538  13.015
   56DOPE     P 7106   1.042   6.676  13.092
   56DOPE   O13 7107   1.149   6.760  13.035
   56DOPE   O14 7108   1.055   6.625  13.230
   56DOPE   O11 7109   0.901   6.750  13.074
   56DOPE   O12 7110   1.020   6.549  12.994
   56DOPE    C1 7111   0.876   6.802  12.941
   56DOPE    HA 7112   0.873   6.720  12.866
   56DOPE    HB 7113   0.959   6.872  12.913
   56DOPE    C2 7114   0.745   6.887  12.921
   56DOPE    HS 7115   0.769   6.957  12.839
   56DOPE   O21 7116   0.703   6.959  13.036
   56DOPE   C21 7117   0.793   7.030  13.094
   56DOPE   O22 7118   0.881   7.097  13.039
   56DOPE   C22 7119   0.767   7.016  13.243
   56DOPE   H2R 7120   0.808   6.917  13.271
   56DOPE   H2S 7121   0.659   7.017  13.264
   56DOPE    C3 7122   0.623   6.804  12.876
   56DOPE    HX 7123   0.638   6.772  12.771
   56DOPE    HY 7124   0.532   6.868  12.877
   56DOPE   O31 7125   0.607   6.688  12.959
   56DOPE   C31 7126   0.557   6.711  13.079
   56DOPE   O32 7127   0.495   6.809  13.116
   56DOPE   C32 7128   0.579   6.590  13.165
   56DOPE   H2X 7129   0.482   6.536  13.170
   56DOPE   H2Y 7130   0.654   6.521  13.123
   56DOPE   C23 7131   0.840   7.126  13.318
   56DOPE   H3R 7132   0.793   7.221  13.289
   56DOPE   H3S 7133   0.942   7.128  13.278
   56DOPE   C24 7134   0.840   7.113  13.471
   56DOPE   H4R 7135   0.731   7.109  13.497
   56DOPE   H4S 7136   0.882   7.204  13.520
   56DOPE   C25 7137   0.902   6.986  13.529
   56DOPE   H5R 7138   1.004   7.003  13.570
   56DOPE   H5S 7139   0.915   6.909  13.449
   56DOPE   C26 7140   0.808   6.929  13.636
   56DOPE   H6R 7141   0.848   6.832  13.674
   56DOPE   H6S 7142   0.709   6.910  13.589
   56DOPE   C27 7143   0.793   7.021  13.756
   56DOPE   H7R 7144   0.801   7.128  13.727
   56DOPE   H7S 7145   0.882   6.994  13.817
   56DOPE   C28 7146   0.664   7.003  13.837
   56DOPE   H8R 7147   0.576   7.028  13.774
   56DOPE   H8S 7148   0.666   7.073  13.924
   56DOPE   C29 7149   0.659   6.860  13.880
   56DOPE   H9R 7150   0.601   6.794  13.814
   56DOPE  C210 7151   0.713   6.810  13.992
   56DOPE  H10R 7152   0.712   6.702  14.007
   56DOPE  C211 7153   0.789   6.885  14.098
   56DOPE  H11R 7154   0.757   6.991  14.105
   56DOPE  H11S 7155   0.897   6.889  14.074
   56DOPE  C212 7156   0.769   6.811  14.231
   56DOPE  H12R 7157   0.809   6.708  14.221
   56DOPE  H12S 7158   0.661   6.797  14.252
   56DOPE  C213 7159   0.839   6.878  14.351
   56DOPE  H13R 7160   0.946   6.872  14.328
   56DOPE  H13S 7161   0.821   6.817  14.443
   56DOPE  C214 7162   0.803   7.024  14.384
   56DOPE  H14R 7163   0.706   7.023  14.437
   56DOPE  H14S 7164   0.794   7.086  14.293
   56DOPE  C215 7165   0.905   7.088  14.478
   56DOPE  H15R 7166   0.994   7.115  14.420
   56DOPE  H15S 7167   0.935   7.016  14.557
   56DOPE  C216 7168   0.866   7.221  14.540
   56DOPE  H16R 7169   0.859   7.299  14.460
   56DOPE  H16S 7170   0.948   7.250  14.610
   56DOPE  C217 7171   0.736   7.222  14.618
   56DOPE  H17R 7172   0.651   7.194  14.553
   56DOPE  H17S 7173   0.722   7.327  14.644
   56DOPE  C218 7174   0.736   7.140  14.745
   56DOPE  H18R 7175   0.730   7.032  14.722
   56DOPE  H18S 7176   0.648   7.168  14.808
   56DOPE  H18T 7177   0.827   7.160  14.806
   56DOPE   C33 7178   0.621   6.631  13.306
   56DOPE   H3X 7179   0.602   6.539  13.365
   56DOPE   H3Y 7180   0.561   6.714  13.350
   56DOPE   C34 7181   0.766   6.637  13.342
   56DOPE   H4X 7182   0.817   6.548  13.301
   56DOPE   H4Y 7183   0.820   6.724  13.300
   56DOPE   C35 7184   0.771   6.638  13.495
   56DOPE   H5X 7185   0.678   6.681  13.539
   56DOPE   H5Y 7186   0.854   6.707  13.519
   56DOPE   C36 7187   0.800   6.502  13.555
   56DOPE   H6X 7188   0.728   6.425  13.520
   56DOPE   H6Y 7189   0.791   6.507  13.666
   56DOPE   C37 7190   0.943   6.464  13.521
   56DOPE   H7X 7191   0.950   6.356  13.539
   56DOPE   H7Y 7192   0.966   6.477  13.413
   56DOPE   C38 7193   1.044   6.549  13.601
   56DOPE   H8X 7194   1.007   6.649  13.626
   56DOPE   H8Y 7195   1.135   6.562  13.537
   56DOPE   C39 7196   1.078   6.472  13.723
   56DOPE   H9X 7197   1.097   6.370  13.694
   56DOPE  C310 7198   1.065   6.501  13.854
   56DOPE  H10X 7199   1.099   6.424  13.924
   56DOPE  C311 7200   1.010   6.623  13.921
   56DOPE  H11X 7201   0.981   6.701  13.847
   56DOPE  H11Y 7202   0.917   6.594  13.975
   56DOPE  C312 7203   1.106   6.683  14.026
   56DOPE  H12X 7204   1.054   6.772  14.065
   56DOPE  H12Y 7205   1.201   6.714  13.978
   56DOPE  C313 7206   1.131   6.593  14.148
   56DOPE  H13X 7207   1.031   6.570  14.191
   56DOPE  H13Y 7208   1.178   6.500  14.113
   56DOPE  C314 7209   1.223   6.644  14.259
   56DOPE  H14X 7210   1.229   6.754  14.253
   56DOPE  H14Y 7211   1.326   6.607  14.239
   56DOPE  C315 7212   1.182   6.597  14.400
   56DOPE  H15X 7213   1.263   6.626  14.470
   56DOPE  H15Y 7214   1.177   6.487  14.400
   56DOPE  C316 7215   1.049   6.655  14.449
   56DOPE  H16X 7216   0.968   6.622  14.381
   56DOPE  H16Y 7217   1.058   6.766  14.442
   56DOPE  C317 7218   1.005   6.625  14.594
   56DOPE  H17X 7219   1.020   6.717  14.654
   56DOPE  H17Y 7220   0.895   6.607  14.594
   56DOPE  C318 7221   1.075   6.508  14.664
   56DOPE  H18X 7222   1.047   6.505  14.772
   56DOPE  H18Y 7223   1.048   6.411  14.619
   56DOPE  H18Z 7224   1.185   6.519  14.658
   57DOPE     N 7225  -0.027   2.066  12.967
   57DOPE   HN1 7226   0.042   2.025  12.901
   57DOPE   HN2 7227   0.027   2.122  13.038
   57DOPE   HN3 7228  -0.088   1.995  13.012
   57DOPE   C12 7229  -0.110   2.174  12.905
   57DOPE  H12A 7230  -0.217   2.144  12.903
   57DOPE  H12B 7231  -0.071   2.192  12.803
   57DOPE   C11 7232  -0.087   2.299  12.988
   57DOPE  H11A 7233  -0.129   2.284  13.090
   57DOPE  H11B 7234  -0.145   2.383  12.940
   57DOPE     P 7235   0.086   2.478  13.035
   57DOPE   O13 7236  -0.023   2.520  13.124
   57DOPE   O14 7237   0.100   2.553  12.908
   57DOPE   O11 7238   0.226   2.481  13.113
   57DOPE   O12 7239   0.055   2.326  12.998
   57DOPE    C1 7240   0.337   2.561  13.065
   57DOPE    HA 7241   0.302   2.661  13.034
   57DOPE    HB 7242   0.378   2.511  12.974
   57DOPE    C2 7243   0.460   2.577  13.165
   57DOPE    HS 7244   0.553   2.568  13.105
   57DOPE   O21 7245   0.461   2.474  13.264
   57DOPE   C21 7246   0.443   2.349  13.228
   57DOPE   O22 7247   0.455   2.302  13.115
   57DOPE   C22 7248   0.434   2.264  13.358
   57DOPE   H2R 7249   0.484   2.321  13.439
   57DOPE   H2S 7250   0.497   2.175  13.339
   57DOPE    C3 7251   0.477   2.716  13.246
   57DOPE    HX 7252   0.533   2.787  13.184
   57DOPE    HY 7253   0.547   2.689  13.328
   57DOPE   O31 7254   0.356   2.782  13.299
   57DOPE   C31 7255   0.374   2.853  13.417
   57DOPE   O32 7256   0.484   2.869  13.465
   57DOPE   C32 7257   0.240   2.901  13.488
   57DOPE   H2X 7258   0.263   3.005  13.520
   57DOPE   H2Y 7259   0.167   2.912  13.408
   57DOPE   C23 7260   0.296   2.212  13.411
   57DOPE   H3R 7261   0.256   2.139  13.337
   57DOPE   H3S 7262   0.216   2.283  13.432
   57DOPE   C24 7263   0.311   2.144  13.547
   57DOPE   H4R 7264   0.411   2.101  13.541
   57DOPE   H4S 7265   0.233   2.066  13.558
   57DOPE   C25 7266   0.318   2.229  13.675
   57DOPE   H5R 7267   0.232   2.298  13.681
   57DOPE   H5S 7268   0.410   2.290  13.676
   57DOPE   C26 7269   0.321   2.135  13.797
   57DOPE   H6R 7270   0.428   2.125  13.829
   57DOPE   H6S 7271   0.288   2.037  13.759
   57DOPE   C27 7272   0.230   2.165  13.919
   57DOPE   H7R 7273   0.274   2.254  13.969
   57DOPE   H7S 7274   0.234   2.082  13.992
   57DOPE   C28 7275   0.082   2.192  13.883
   57DOPE   H8R 7276   0.079   2.206  13.773
   57DOPE   H8S 7277   0.057   2.292  13.921
   57DOPE   C29 7278  -0.034   2.101  13.915
   57DOPE   H9R 7279  -0.063   2.040  13.828
   57DOPE  C210 7280  -0.099   2.074  14.029
   57DOPE  H10R 7281  -0.189   2.012  14.018
   57DOPE  C211 7282  -0.086   2.119  14.172
   57DOPE  H11R 7283   0.019   2.129  14.205
   57DOPE  H11S 7284  -0.119   2.025  14.222
   57DOPE  C212 7285  -0.183   2.219  14.242
   57DOPE  H12R 7286  -0.280   2.215  14.188
   57DOPE  H12S 7287  -0.154   2.325  14.247
   57DOPE  C213 7288  -0.206   2.176  14.388
   57DOPE  H13R 7289  -0.258   2.081  14.369
   57DOPE  H13S 7290  -0.277   2.242  14.441
   57DOPE  C214 7291  -0.081   2.144  14.474
   57DOPE  H14R 7292   0.008   2.123  14.411
   57DOPE  H14S 7293  -0.098   2.049  14.529
   57DOPE  C215 7294  -0.046   2.249  14.579
   57DOPE  H15R 7295  -0.122   2.330  14.576
   57DOPE  H15S 7296   0.051   2.298  14.558
   57DOPE  C216 7297  -0.025   2.195  14.720
   57DOPE  H16R 7298   0.085   2.189  14.741
   57DOPE  H16S 7299  -0.064   2.093  14.731
   57DOPE  C217 7300  -0.093   2.285  14.822
   57DOPE  H17R 7301  -0.053   2.388  14.813
   57DOPE  H17S 7302  -0.064   2.246  14.922
   57DOPE  C218 7303  -0.245   2.288  14.807
   57DOPE  H18R 7304  -0.292   2.341  14.892
   57DOPE  H18S 7305  -0.284   2.184  14.806
   57DOPE  H18T 7306  -0.278   2.337  14.713
   57DOPE   C33 7307   0.176   2.822  13.613
   57DOPE   H3X 7308   0.212   2.862  13.710
   57DOPE   H3Y 7309   0.222   2.728  13.608
   57DOPE   C34 7310   0.028   2.765  13.628
   57DOPE   H4X 7311  -0.039   2.794  13.547
   57DOPE   H4Y 7312   0.035   2.654  13.626
   57DOPE   C35 7313  -0.037   2.791  13.765
   57DOPE   H5X 7314  -0.059   2.898  13.767
   57DOPE   H5Y 7315   0.042   2.768  13.839
   57DOPE   C36 7316  -0.171   2.731  13.818
   57DOPE   H6X 7317  -0.168   2.621  13.826
   57DOPE   H6Y 7318  -0.255   2.759  13.751
   57DOPE   C37 7319  -0.186   2.801  13.956
   57DOPE   H7X 7320  -0.080   2.818  13.989
   57DOPE   H7Y 7321  -0.231   2.901  13.936
   57DOPE   C38 7322  -0.252   2.739  14.081
   57DOPE   H8X 7323  -0.206   2.642  14.110
   57DOPE   H8Y 7324  -0.360   2.721  14.062
   57DOPE   C39 7325  -0.226   2.848  14.184
   57DOPE   H9X 7326  -0.313   2.913  14.203
   57DOPE  C310 7327  -0.112   2.871  14.256
   57DOPE  H10X 7328  -0.113   2.956  14.326
   57DOPE  C311 7329   0.019   2.792  14.257
   57DOPE  H11X 7330   0.000   2.760  14.359
   57DOPE  H11Y 7331   0.010   2.704  14.195
   57DOPE  C312 7332   0.171   2.843  14.264
   57DOPE  H12X 7333   0.169   2.904  14.354
   57DOPE  H12Y 7334   0.179   2.911  14.177
   57DOPE  C313 7335   0.318   2.771  14.269
   57DOPE  H13X 7336   0.348   2.769  14.162
   57DOPE  H13Y 7337   0.382   2.850  14.315
   57DOPE  C314 7338   0.383   2.635  14.326
   57DOPE  H14X 7339   0.485   2.629  14.281
   57DOPE  H14Y 7340   0.328   2.549  14.291
   57DOPE  C315 7341   0.406   2.608  14.477
   57DOPE  H15X 7342   0.302   2.621  14.499
   57DOPE  H15Y 7343   0.464   2.688  14.527
   57DOPE  C316 7344   0.440   2.466  14.540
   57DOPE  H16X 7345   0.547   2.445  14.521
   57DOPE  H16Y 7346   0.383   2.387  14.487
   57DOPE  C317 7347   0.416   2.442  14.695
   57DOPE  H17X 7348   0.462   2.343  14.721
   57DOPE  H17Y 7349   0.474   2.517  14.752
   57DOPE  C318 7350   0.272   2.435  14.750
   57DOPE  H18X 7351   0.254   2.416  14.856
   57DOPE  H18Y 7352   0.223   2.533  14.743
   57DOPE  H18Z 7353   0.213   2.358  14.696
   58DOPE     N 7354   7.490   5.867  12.783
   58DOPE   HN1 7355   7.411   5.811  12.824
   58DOPE   HN2 7356   7.477   5.863  12.679
   58DOPE   HN3 7357   7.581   5.823  12.802
   58DOPE   C12 7358   7.490   6.005  12.845
   58DOPE  H12A 7359   7.412   6.064  12.794
   58DOPE  H12B 7360   7.589   6.051  12.827
   58DOPE   C11 7361   7.462   6.002  12.997
   58DOPE  H11A 7362   7.447   6.105  13.036
   58DOPE  H11B 7363   7.554   5.966  13.048
   58DOPE     P 7364   7.285   5.910  13.168
   58DOPE   O13 7365   7.151   5.849  13.160
   58DOPE   O14 7366   7.305   6.039  13.237
   58DOPE   O11 7367   7.382   5.804  13.233
   58DOPE   O12 7368   7.347   5.919  13.021
   58DOPE    C1 7369   7.474   5.722  13.160
   58DOPE    HA 7370   7.545   5.781  13.099
   58DOPE    HB 7371   7.420   5.658  13.088
   58DOPE    C2 7372   7.569   5.638  13.252
   58DOPE    HS 7373   7.587   5.539  13.203
   58DOPE   O21 7374   7.521   5.631  13.389
   58DOPE   C21 7375   7.470   5.512  13.415
   58DOPE   O22 7376   7.456   5.424  13.333
   58DOPE   C22 7377   7.453   5.484  13.567
   58DOPE   H2R 7378   7.548   5.508  13.617
   58DOPE   H2S 7379   7.435   5.374  13.572
   58DOPE    C3 7380   7.709   5.704  13.253
   58DOPE    HX 7381   7.756   5.690  13.154
   58DOPE    HY 7382   7.769   5.648  13.330
   58DOPE   O31 7383   7.695   5.845  13.280
   58DOPE   C31 7384   7.782   5.893  13.365
   58DOPE   O32 7385   7.892   5.842  13.386
   58DOPE   C32 7386   7.724   6.022  13.427
   58DOPE   H2X 7387   7.804   6.097  13.441
   58DOPE   H2Y 7388   7.648   6.064  13.357
   58DOPE   C23 7389   7.334   5.546  13.642
   58DOPE   H3R 7390   7.301   5.476  13.722
   58DOPE   H3S 7391   7.248   5.558  13.574
   58DOPE   C24 7392   7.366   5.679  13.708
   58DOPE   H4R 7393   7.423   5.745  13.638
   58DOPE   H4S 7394   7.428   5.664  13.798
   58DOPE   C25 7395   7.237   5.751  13.746
   58DOPE   H5R 7396   7.172   5.685  13.808
   58DOPE   H5S 7397   7.182   5.777  13.653
   58DOPE   C26 7398   7.266   5.878  13.824
   58DOPE   H6R 7399   7.342   5.937  13.769
   58DOPE   H6S 7400   7.309   5.848  13.923
   58DOPE   C27 7401   7.141   5.963  13.848
   58DOPE   H7R 7402   7.053   5.896  13.858
   58DOPE   H7S 7403   7.124   6.028  13.759
   58DOPE   C28 7404   7.155   6.047  13.976
   58DOPE   H8R 7405   7.169   5.977  14.061
   58DOPE   H8S 7406   7.060   6.103  13.993
   58DOPE   C29 7407   7.274   6.140  13.965
   58DOPE   H9R 7408   7.355   6.105  13.901
   58DOPE  C210 7409   7.292   6.256  14.030
   58DOPE  H10R 7410   7.385   6.312  14.012
   58DOPE  C211 7411   7.199   6.320  14.128
   58DOPE  H11R 7412   7.111   6.257  14.152
   58DOPE  H11S 7413   7.160   6.411  14.080
   58DOPE  C212 7414   7.275   6.363  14.255
   58DOPE  H12R 7415   7.201   6.407  14.326
   58DOPE  H12S 7416   7.348   6.442  14.229
   58DOPE  C213 7417   7.343   6.247  14.330
   58DOPE  H13R 7418   7.408   6.288  14.410
   58DOPE  H13S 7419   7.407   6.189  14.261
   58DOPE  C214 7420   7.234   6.159  14.391
   58DOPE  H14R 7421   7.157   6.142  14.313
   58DOPE  H14S 7422   7.185   6.216  14.473
   58DOPE  C215 7423   7.275   6.020  14.437
   58DOPE  H15R 7424   7.334   6.025  14.531
   58DOPE  H15S 7425   7.338   5.969  14.360
   58DOPE  C216 7426   7.146   5.939  14.456
   58DOPE  H16R 7427   7.166   5.832  14.465
   58DOPE  H16S 7428   7.079   5.952  14.367
   58DOPE  C217 7429   7.073   5.979  14.581
   58DOPE  H17R 7430   6.978   5.921  14.581
   58DOPE  H17S 7431   7.051   6.088  14.578
   58DOPE  C218 7432   7.140   5.946  14.711
   58DOPE  H18R 7433   7.115   5.842  14.742
   58DOPE  H18S 7434   7.106   6.017  14.789
   58DOPE  H18T 7435   7.250   5.956  14.704
   58DOPE   C33 7436   7.651   5.995  13.560
   58DOPE   H3X 7437   7.555   5.941  13.543
   58DOPE   H3Y 7438   7.624   6.093  13.606
   58DOPE   C34 7439   7.736   5.916  13.660
   58DOPE   H4X 7440   7.730   5.808  13.636
   58DOPE   H4Y 7441   7.843   5.947  13.654
   58DOPE   C35 7442   7.685   5.941  13.802
   58DOPE   H5X 7443   7.580   5.906  13.806
   58DOPE   H5Y 7444   7.687   6.050  13.823
   58DOPE   C36 7445   7.769   5.870  13.907
   58DOPE   H6X 7446   7.876   5.900  13.897
   58DOPE   H6Y 7447   7.765   5.760  13.888
   58DOPE   C37 7448   7.722   5.901  14.050
   58DOPE   H7X 7449   7.788   5.847  14.120
   58DOPE   H7Y 7450   7.735   6.010  14.069
   58DOPE   C38 7451   7.575   5.865  14.076
   58DOPE   H8X 7452   7.506   5.918  14.007
   58DOPE   H8Y 7453   7.547   5.898  14.178
   58DOPE   C39 7454   7.563   5.716  14.059
   58DOPE   H9X 7455   7.568   5.679  13.956
   58DOPE  C310 7456   7.555   5.628  14.160
   58DOPE  H10X 7457   7.560   5.521  14.136
   58DOPE  C311 7458   7.556   5.664  14.305
   58DOPE  H11X 7459   7.478   5.740  14.328
   58DOPE  H11Y 7460   7.531   5.573  14.362
   58DOPE  C312 7461   7.692   5.715  14.359
   58DOPE  H12X 7462   7.710   5.817  14.320
   58DOPE  H12Y 7463   7.773   5.650  14.319
   58DOPE  C313 7464   7.696   5.718  14.513
   58DOPE  H13X 7465   7.617   5.651  14.550
   58DOPE  H13Y 7466   7.793   5.678  14.548
   58DOPE  C314 7467   7.677   5.862  14.566
   58DOPE  H14X 7468   7.575   5.897  14.540
   58DOPE  H14Y 7469   7.749   5.927  14.512
   58DOPE  C315 7470   7.701   5.885  14.717
   58DOPE  H15X 7471   7.795   5.837  14.750
   58DOPE  H15Y 7472   7.620   5.842  14.779
   58DOPE  C316 7473   7.703   6.036  14.749
   58DOPE  H16X 7474   7.647   6.089  14.668
   58DOPE  H16Y 7475   7.808   6.072  14.747
   58DOPE  C317 7476   7.636   6.076  14.882
   58DOPE  H17X 7477   7.638   6.187  14.891
   58DOPE  H17Y 7478   7.529   6.046  14.877
   58DOPE  C318 7479   7.701   6.016  15.007
   58DOPE  H18X 7480   7.646   6.047  15.099
   58DOPE  H18Y 7481   7.699   5.905  15.001
   58DOPE  H18Z 7482   7.806   6.048  15.015
   59DOPE     N 7483  -0.181   0.972  12.825
   59DOPE   HN1 7484  -0.228   0.984  12.917
   59DOPE   HN2 7485  -0.211   1.049  12.762
   59DOPE   HN3 7486  -0.203   0.877  12.787
   59DOPE   C12 7487  -0.038   0.989  12.864
   59DOPE  H12A 7488   0.025   0.995  12.773
   59DOPE  H12B 7489  -0.011   0.900  12.923
   59DOPE   C11 7490  -0.025   1.117  12.947
   59DOPE  H11A 7491  -0.036   1.204  12.878
   59DOPE  H11B 7492   0.077   1.125  12.992
   59DOPE     P 7493  -0.107   1.056  13.188
   59DOPE   O13 7494  -0.059   0.919  13.161
   59DOPE   O14 7495  -0.232   1.076  13.263
   59DOPE   O11 7496   0.012   1.141  13.250
   59DOPE   O12 7497  -0.128   1.125  13.046
   59DOPE    C1 7498   0.025   1.282  13.237
   59DOPE    HA 7499  -0.060   1.327  13.180
   59DOPE    HB 7500   0.119   1.304  13.182
   59DOPE    C2 7501   0.035   1.360  13.373
   59DOPE    HS 7502   0.063   1.465  13.348
   59DOPE   O21 7503   0.130   1.299  13.464
   59DOPE   C21 7504   0.244   1.361  13.486
   59DOPE   O22 7505   0.283   1.462  13.431
   59DOPE   C22 7506   0.326   1.279  13.586
   59DOPE   H2R 7507   0.433   1.297  13.565
   59DOPE   H2S 7508   0.303   1.173  13.565
   59DOPE    C3 7509  -0.105   1.369  13.442
   59DOPE    HX 7510  -0.178   1.400  13.365
   59DOPE    HY 7511  -0.103   1.449  13.520
   59DOPE   O31 7512  -0.148   1.242  13.494
   59DOPE   C31 7513  -0.104   1.213  13.615
   59DOPE   O32 7514  -0.054   1.293  13.693
   59DOPE   C32 7515  -0.138   1.070  13.652
   59DOPE   H2X 7516  -0.147   1.065  13.762
   59DOPE   H2Y 7517  -0.238   1.049  13.607
   59DOPE   C23 7518   0.292   1.310  13.734
   59DOPE   H3R 7519   0.182   1.320  13.746
   59DOPE   H3S 7520   0.339   1.406  13.764
   59DOPE   C24 7521   0.340   1.198  13.826
   59DOPE   H4R 7522   0.447   1.184  13.803
   59DOPE   H4S 7523   0.285   1.105  13.801
   59DOPE   C25 7524   0.325   1.220  13.977
   59DOPE   H5R 7525   0.328   1.121  14.028
   59DOPE   H5S 7526   0.226   1.267  13.998
   59DOPE   C26 7527   0.439   1.303  14.037
   59DOPE   H6R 7528   0.457   1.392  13.973
   59DOPE   H6S 7529   0.534   1.245  14.033
   59DOPE   C27 7530   0.415   1.345  14.183
   59DOPE   H7R 7531   0.308   1.360  14.207
   59DOPE   H7S 7532   0.464   1.441  14.198
   59DOPE   C28 7533   0.500   1.275  14.288
   59DOPE   H8R 7534   0.555   1.351  14.348
   59DOPE   H8S 7535   0.578   1.220  14.234
   59DOPE   C29 7536   0.426   1.187  14.382
   59DOPE   H9R 7537   0.316   1.183  14.374
   59DOPE  C210 7538   0.491   1.117  14.476
   59DOPE  H10R 7539   0.430   1.050  14.538
   59DOPE  C211 7540   0.642   1.116  14.500
   59DOPE  H11R 7541   0.692   1.201  14.447
   59DOPE  H11S 7542   0.685   1.023  14.458
   59DOPE  C212 7543   0.686   1.124  14.648
   59DOPE  H12R 7544   0.656   1.223  14.688
   59DOPE  H12S 7545   0.796   1.117  14.655
   59DOPE  C213 7546   0.621   1.014  14.732
   59DOPE  H13R 7547   0.658   0.914  14.705
   59DOPE  H13S 7548   0.517   1.014  14.700
   59DOPE  C214 7549   0.611   1.032  14.884
   59DOPE  H14R 7550   0.604   1.141  14.908
   59DOPE  H14S 7551   0.703   0.993  14.934
   59DOPE  C215 7552   0.488   0.959  14.942
   59DOPE  H15R 7553   0.484   0.973  15.051
   59DOPE  H15S 7554   0.508   0.852  14.935
   59DOPE  C216 7555   0.351   0.996  14.881
   59DOPE  H16R 7556   0.346   0.989  14.770
   59DOPE  H16S 7557   0.330   1.101  14.906
   59DOPE  C217 7558   0.237   0.906  14.926
   59DOPE  H17R 7559   0.247   0.890  15.035
   59DOPE  H17S 7560   0.250   0.812  14.871
   59DOPE  C218 7561   0.095   0.952  14.894
   59DOPE  H18R 7562   0.021   0.881  14.938
   59DOPE  H18S 7563   0.078   0.958  14.785
   59DOPE  H18T 7564   0.075   1.051  14.940
   59DOPE   C33 7565  -0.038   0.965  13.596
   59DOPE   H3X 7566   0.000   0.996  13.496
   59DOPE   H3Y 7567  -0.096   0.871  13.580
   59DOPE   C34 7568   0.080   0.928  13.688
   59DOPE   H4X 7569   0.121   0.833  13.649
   59DOPE   H4Y 7570   0.159   1.006  13.676
   59DOPE   C35 7571   0.048   0.906  13.836
   59DOPE   H5X 7572   0.022   1.004  13.882
   59DOPE   H5Y 7573   0.139   0.869  13.889
   59DOPE   C36 7574  -0.068   0.807  13.858
   59DOPE   H6X 7575  -0.046   0.710  13.810
   59DOPE   H6Y 7576  -0.159   0.844  13.806
   59DOPE   C37 7577  -0.103   0.783  14.005
   59DOPE   H7X 7578  -0.166   0.691  14.011
   59DOPE   H7Y 7579  -0.010   0.764  14.064
   59DOPE   C38 7580  -0.179   0.903  14.060
   59DOPE   H8X 7581  -0.259   0.931  13.987
   59DOPE   H8Y 7582  -0.106   0.987  14.062
   59DOPE   C39 7583  -0.242   0.879  14.195
   59DOPE   H9X 7584  -0.277   0.776  14.215
   59DOPE  C310 7585  -0.261   0.975  14.286
   59DOPE  H10X 7586  -0.306   0.950  14.383
   59DOPE  C311 7587  -0.223   1.120  14.266
   59DOPE  H11X 7588  -0.173   1.140  14.169
   59DOPE  H11Y 7589  -0.314   1.183  14.266
   59DOPE  C312 7590  -0.132   1.170  14.377
   59DOPE  H12X 7591  -0.088   1.267  14.344
   59DOPE  H12Y 7592  -0.047   1.101  14.396
   59DOPE  C313 7593  -0.210   1.196  14.505
   59DOPE  H13X 7594  -0.311   1.235  14.480
   59DOPE  H13Y 7595  -0.226   1.100  14.560
   59DOPE  C314 7596  -0.140   1.298  14.593
   59DOPE  H14X 7597  -0.200   1.307  14.685
   59DOPE  H14Y 7598  -0.140   1.399  14.548
   59DOPE  C315 7599   0.005   1.266  14.617
   59DOPE  H15X 7600   0.064   1.275  14.523
   59DOPE  H15Y 7601   0.011   1.160  14.650
   59DOPE  C316 7602   0.068   1.357  14.722
   59DOPE  H16X 7603  -0.006   1.382  14.801
   59DOPE  H16Y 7604   0.102   1.453  14.678
   59DOPE  C317 7605   0.182   1.282  14.787
   59DOPE  H17X 7606   0.211   1.334  14.880
   59DOPE  H17Y 7607   0.145   1.182  14.814
   59DOPE  C318 7608   0.299   1.269  14.693
   59DOPE  H18X 7609   0.325   1.370  14.662
   59DOPE  H18Y 7610   0.388   1.223  14.741
   59DOPE  H18Z 7611   0.270   1.211  14.603
   60DOPE     N 7612   7.687   7.601  13.218
   60DOPE   HN1 7613   7.706   7.534  13.140
   60DOPE   HN2 7614   7.694   7.698  13.182
   60DOPE   HN3 7615   7.755   7.582  13.295
   60DOPE   C12 7616   7.545   7.568  13.251
   60DOPE  H12A 7617   7.479   7.627  13.184
   60DOPE  H12B 7618   7.523   7.593  13.357
   60DOPE   C11 7619   7.527   7.421  13.220
   60DOPE  H11A 7620   7.417   7.405  13.219
   60DOPE  H11B 7621   7.571   7.360  13.303
   60DOPE     P 7622   7.587   7.230  13.058
   60DOPE   O13 7623   7.702   7.165  13.119
   60DOPE   O14 7624   7.565   7.204  12.915
   60DOPE   O11 7625   7.459   7.191  13.132
   60DOPE   O12 7626   7.587   7.387  13.093
   60DOPE    C1 7627   7.335   7.210  13.065
   60DOPE    HA 7628   7.337   7.180  12.957
   60DOPE    HB 7629   7.304   7.316  13.071
   60DOPE    C2 7630   7.241   7.117  13.138
   60DOPE    HS 7631   7.137   7.134  13.102
   60DOPE   O21 7632   7.248   7.138  13.279
   60DOPE   C21 7633   7.213   7.260  13.315
   60DOPE   O22 7634   7.157   7.342  13.244
   60DOPE   C22 7635   7.236   7.276  13.463
   60DOPE   H2R 7636   7.289   7.187  13.504
   60DOPE   H2S 7637   7.135   7.281  13.510
   60DOPE    C3 7638   7.286   6.973  13.103
   60DOPE    HX 7639   7.285   6.970  12.992
   60DOPE    HY 7640   7.205   6.910  13.142
   60DOPE   O31 7641   7.419   6.934  13.147
   60DOPE   C31 7642   7.417   6.879  13.269
   60DOPE   O32 7643   7.321   6.818  13.313
   60DOPE   C32 7644   7.545   6.900  13.348
   60DOPE   H2X 7645   7.627   6.843  13.299
   60DOPE   H2Y 7646   7.573   7.007  13.345
   60DOPE   C23 7647   7.314   7.402  13.496
   60DOPE   H3R 7648   7.266   7.494  13.456
   60DOPE   H3S 7649   7.418   7.397  13.456
   60DOPE   C24 7650   7.318   7.412  13.647
   60DOPE   H4R 7651   7.247   7.340  13.693
   60DOPE   H4S 7652   7.279   7.512  13.675
   60DOPE   C25 7653   7.457   7.382  13.701
   60DOPE   H5R 7654   7.533   7.439  13.643
   60DOPE   H5S 7655   7.478   7.274  13.687
   60DOPE   C26 7656   7.467   7.421  13.848
   60DOPE   H6R 7657   7.562   7.385  13.893
   60DOPE   H6S 7658   7.384   7.365  13.897
   60DOPE   C27 7659   7.456   7.573  13.865
   60DOPE   H7R 7660   7.386   7.618  13.792
   60DOPE   H7S 7661   7.555   7.618  13.843
   60DOPE   C28 7662   7.406   7.619  14.003
   60DOPE   H8R 7663   7.388   7.729  13.997
   60DOPE   H8S 7664   7.486   7.606  14.078
   60DOPE   C29 7665   7.278   7.547  14.040
   60DOPE   H9R 7666   7.190   7.566  13.976
   60DOPE  C210 7667   7.265   7.450  14.130
   60DOPE  H10R 7668   7.166   7.405  14.145
   60DOPE  C211 7669   7.378   7.394  14.211
   60DOPE  H11R 7670   7.475   7.419  14.164
   60DOPE  H11S 7671   7.370   7.284  14.210
   60DOPE  C212 7672   7.386   7.438  14.358
   60DOPE  H12R 7673   7.428   7.541  14.363
   60DOPE  H12S 7674   7.457   7.370  14.408
   60DOPE  C213 7675   7.252   7.431  14.433
   60DOPE  H13R 7676   7.207   7.332  14.421
   60DOPE  H13S 7677   7.182   7.506  14.390
   60DOPE  C214 7678   7.268   7.446  14.584
   60DOPE  H14R 7679   7.354   7.383  14.616
   60DOPE  H14S 7680   7.177   7.405  14.633
   60DOPE  C215 7681   7.290   7.591  14.624
   60DOPE  H15R 7682   7.370   7.633  14.559
   60DOPE  H15S 7683   7.326   7.595  14.729
   60DOPE  C216 7684   7.164   7.677  14.610
   60DOPE  H16R 7685   7.105   7.667  14.704
   60DOPE  H16S 7686   7.100   7.640  14.527
   60DOPE  C217 7687   7.195   7.824  14.584
   60DOPE  H17R 7688   7.099   7.881  14.577
   60DOPE  H17S 7689   7.246   7.833  14.485
   60DOPE  C218 7690   7.284   7.886  14.692
   60DOPE  H18R 7691   7.291   7.996  14.681
   60DOPE  H18S 7692   7.386   7.844  14.690
   60DOPE  H18T 7693   7.240   7.864  14.790
   60DOPE   C33 7694   7.534   6.849  13.495
   60DOPE   H3X 7695   7.637   6.858  13.532
   60DOPE   H3Y 7696   7.506   6.741  13.502
   60DOPE   C34 7697   7.463   6.929  13.606
   60DOPE   H4X 7698   7.479   7.038  13.589
   60DOPE   H4Y 7699   7.354   6.909  13.606
   60DOPE   C35 7700   7.524   6.888  13.742
   60DOPE   H5X 7701   7.633   6.907  13.734
   60DOPE   H5Y 7702   7.512   6.778  13.756
   60DOPE   C36 7703   7.479   6.960  13.870
   60DOPE   H6X 7704   7.390   6.908  13.911
   60DOPE   H6Y 7705   7.452   7.066  13.847
   60DOPE   C37 7706   7.595   6.954  13.970
   60DOPE   H7X 7707   7.629   6.849  13.971
   60DOPE   H7Y 7708   7.678   7.015  13.929
   60DOPE   C38 7709   7.571   6.997  14.115
   60DOPE   H8X 7710   7.649   6.949  14.178
   60DOPE   H8Y 7711   7.472   6.959  14.150
   60DOPE   C39 7712   7.580   7.147  14.123
   60DOPE   H9X 7713   7.507   7.198  14.058
   60DOPE  C310 7714   7.659   7.225  14.200
   60DOPE  H10X 7715   7.652   7.334  14.187
   60DOPE  C311 7716   7.764   7.188  14.301
   60DOPE  H11X 7717   7.803   7.085  14.286
   60DOPE  H11Y 7718   7.849   7.259  14.290
   60DOPE  C312 7719   7.711   7.194  14.444
   60DOPE  H12X 7720   7.640   7.278  14.457
   60DOPE  H12Y 7721   7.796   7.215  14.512
   60DOPE  C313 7722   7.653   7.060  14.492
   60DOPE  H13X 7723   7.544   7.057  14.473
   60DOPE  H13Y 7724   7.699   6.979  14.432
   60DOPE  C314 7725   7.685   7.030  14.639
   60DOPE  H14X 7726   7.795   7.046  14.655
   60DOPE  H14Y 7727   7.664   6.923  14.658
   60DOPE  C315 7728   7.607   7.113  14.742
   60DOPE  H15X 7729   7.642   7.081  14.843
   60DOPE  H15Y 7730   7.499   7.088  14.735
   60DOPE  C316 7731   7.625   7.265  14.732
   60DOPE  H16X 7732   7.563   7.306  14.649
   60DOPE  H16Y 7733   7.732   7.288  14.710
   60DOPE  C317 7734   7.589   7.336  14.862
   60DOPE  H17X 7735   7.485   7.308  14.890
   60DOPE  H17Y 7736   7.660   7.296  14.938
   60DOPE  C318 7737   7.604   7.488  14.863
   60DOPE  H18X 7738   7.710   7.517  14.847
   60DOPE  H18Y 7739   7.542   7.535  14.784
   60DOPE  H18Z 7740   7.572   7.529  14.962
   6123SM     N 7741   3.230   4.319  17.705
   6123SM   C15 7742   3.117   4.293  17.610
   6123SM  H15A 7743   3.020   4.297  17.657
   6123SM  H15B 7744   3.132   4.195  17.563
   6123SM  H15C 7745   3.120   4.365  17.529
   6123SM   C14 7746   3.196   4.434  17.794
   6123SM  H14A 7747   3.186   4.526  17.737
   6123SM  H14B 7748   3.271   4.447  17.872
   6123SM  H14C 7749   3.100   4.416  17.841
   6123SM   C13 7750   3.253   4.196  17.788
   6123SM  H13A 7751   3.168   4.166  17.847
   6123SM  H13B 7752   3.339   4.206  17.854
   6123SM  H13C 7753   3.275   4.113  17.722
   6123SM   C12 7754   3.355   4.352  17.625
   6123SM  H12A 7755   3.439   4.349  17.694
   6123SM  H12B 7756   3.348   4.453  17.586
   6123SM   C11 7757   3.392   4.257  17.509
   6123SM  H11A 7758   3.481   4.296  17.455
   6123SM  H11B 7759   3.309   4.252  17.434
   6123SM     P 7760   3.379   3.993  17.503
   6123SM   O13 7761   3.471   3.884  17.542
   6123SM   O14 7762   3.236   3.977  17.538
   6123SM   O11 7763   3.398   4.028  17.351
   6123SM   O12 7764   3.426   4.130  17.564
   6123SM   C1S 7765   3.299   4.021  17.251
   6123SM   H1S 7766   3.245   4.118  17.242
   6123SM   H1T 7767   3.223   3.943  17.274
   6123SM    NF 7768   3.472   4.085  17.085
   6123SM   HNF 7769   3.444   4.179  17.069
   6123SM   C2S 7770   3.367   3.989  17.115
   6123SM   H2S 7771   3.412   3.887  17.122
   6123SM   C3S 7772   3.258   3.989  17.007
   6123SM   H3S 7773   3.196   4.081  17.012
   6123SM    O3 7774   3.173   3.875  17.028
   6123SM   HO3 7775   3.202   3.841  17.113
   6123SM   C4S 7776   3.325   3.976  16.872
   6123SM   H4S 7777   3.362   3.875  16.855
   6123SM   C5S 7778   3.347   4.073  16.781
   6123SM   H5S 7779   3.310   4.174  16.803
   6123SM   C6S 7780   3.415   4.055  16.646
   6123SM   H6S 7781   3.357   4.112  16.572
   6123SM   H6T 7782   3.412   3.950  16.614
   6123SM   C7S 7783   3.564   4.093  16.628
   6123SM   H7S 7784   3.627   4.018  16.679
   6123SM   H7T 7785   3.583   4.191  16.678
   6123SM   C8S 7786   3.605   4.113  16.480
   6123SM   H8S 7787   3.713   4.138  16.474
   6123SM   H8T 7788   3.551   4.205  16.447
   6123SM   C9S 7789   3.572   4.004  16.374
   6123SM   H9S 7790   3.467   3.968  16.390
   6123SM   H9T 7791   3.639   3.917  16.387
   6123SM  C10S 7792   3.583   4.059  16.229
   6123SM  H10S 7793   3.687   4.095  16.213
   6123SM  H10T 7794   3.517   4.148  16.222
   6123SM  C11S 7795   3.545   3.963  16.112
   6123SM  H11S 7796   3.438   3.934  16.123
   6123SM  H11T 7797   3.603   3.870  16.121
   6123SM  C12S 7798   3.570   4.022  15.970
   6123SM  H12S 7799   3.667   4.074  15.969
   6123SM  H12T 7800   3.493   4.097  15.943
   6123SM  C13S 7801   3.570   3.917  15.857
   6123SM  H13S 7802   3.484   3.851  15.872
   6123SM  H13T 7803   3.662   3.854  15.867
   6123SM  C14S 7804   3.566   3.975  15.713
   6123SM  H14S 7805   3.631   3.913  15.648
   6123SM  H14T 7806   3.611   4.077  15.715
   6123SM  C15S 7807   3.425   3.985  15.648
   6123SM  H15S 7808   3.402   4.093  15.634
   6123SM  H15T 7809   3.348   3.945  15.717
   6123SM  C16S 7810   3.421   3.916  15.510
   6123SM  H16S 7811   3.473   3.819  15.526
   6123SM  H16T 7812   3.480   3.979  15.440
   6123SM  C17S 7813   3.287   3.881  15.440
   6123SM  H17S 7814   3.212   3.960  15.455
   6123SM  H17T 7815   3.246   3.788  15.485
   6123SM  C18S 7816   3.303   3.862  15.288
   6123SM  H18S 7817   3.331   3.958  15.240
   6123SM  H18T 7818   3.208   3.827  15.242
   6123SM  H18U 7819   3.383   3.789  15.264
   6123SM   C1F 7820   3.601   4.062  17.100
   6123SM    OF 7821   3.646   3.950  17.121
   6123SM   C2F 7822   3.690   4.180  17.077
   6123SM   H2F 7823   3.712   4.185  16.969
   6123SM   H2G 7824   3.787   4.159  17.128
   6123SM   C3F 7825   3.634   4.317  17.126
   6123SM   H3F 7826   3.719   4.389  17.121
   6123SM   H3G 7827   3.606   4.309  17.234
   6123SM   C4F 7828   3.518   4.382  17.048
   6123SM   H4F 7829   3.510   4.488  17.081
   6123SM   H4G 7830   3.421   4.335  17.074
   6123SM   C5F 7831   3.532   4.379  16.895
   6123SM   H5F 7832   3.539   4.274  16.862
   6123SM   H5G 7833   3.625   4.432  16.865
   6123SM   C6F 7834   3.412   4.443  16.821
   6123SM   H6F 7835   3.404   4.551  16.848
   6123SM   H6G 7836   3.317   4.394  16.853
   6123SM   C7F 7837   3.424   4.430  16.668
   6123SM   H7F 7838   3.419   4.324  16.639
   6123SM   H7G 7839   3.523   4.468  16.637
   6123SM   C8F 7840   3.315   4.504  16.588
   6123SM   H8F 7841   3.323   4.612  16.611
   6123SM   H8G 7842   3.215   4.469  16.620
   6123SM   C9F 7843   3.329   4.483  16.436
   6123SM   H9F 7844   3.436   4.486  16.407
   6123SM   H9G 7845   3.278   4.567  16.383
   6123SM  C10F 7846   3.265   4.353  16.389
   6123SM  H10F 7847   3.157   4.353  16.417
   6123SM  H10G 7848   3.314   4.268  16.442
   6123SM  C11F 7849   3.277   4.329  16.239
   6123SM  H11F 7850   3.385   4.326  16.212
   6123SM  H11G 7851   3.230   4.412  16.182
   6123SM  C12F 7852   3.211   4.196  16.201
   6123SM  H12F 7853   3.102   4.199  16.221
   6123SM  H12G 7854   3.256   4.116  16.265
   6123SM  C13F 7855   3.238   4.160  16.055
   6123SM  H13F 7856   3.223   4.050  16.042
   6123SM  H13G 7857   3.344   4.184  16.034
   6123SM  C14F 7858   3.152   4.235  15.953
   6123SM  H14F 7859   3.178   4.343  15.953
   6123SM  H14G 7860   3.045   4.225  15.981
   6123SM  C15F 7861   3.173   4.176  15.813
   6123SM  H15F 7862   3.165   4.065  15.822
   6123SM  H15G 7863   3.276   4.199  15.779
   6123SM  C16F 7864   3.071   4.222  15.709
   6123SM  H16F 7865   3.089   4.329  15.683
   6123SM  H16G 7866   2.969   4.215  15.753
   6123SM  C17F 7867   3.076   4.135  15.583
   6123SM  H17F 7868   3.067   4.028  15.616
   6123SM  H17G 7869   3.174   4.148  15.533
   6123SM  C18F 7870   2.963   4.165  15.484
   6123SM  H18F 7871   2.986   4.258  15.428
   6123SM  H18G 7872   2.871   4.186  15.544
   6123SM  C19F 7873   2.927   4.048  15.389
   6123SM  H19F 7874   2.817   4.052  15.371
   6123SM  H19G 7875   2.948   3.951  15.440
   6123SM  C20F 7876   2.994   4.050  15.250
   6123SM  H20F 7877   2.951   3.968  15.188
   6123SM  H20G 7878   3.103   4.032  15.261
   6123SM  C21F 7879   2.976   4.183  15.177
   6123SM  H21F 7880   3.049   4.254  15.224
   6123SM  H21G 7881   2.873   4.220  15.192
   6123SM  C22F 7882   3.008   4.181  15.027
   6123SM  H22F 7883   2.946   4.104  14.977
   6123SM  H22G 7884   3.113   4.150  15.018
   6123SM  C23F 7885   2.994   4.317  14.957
   6123SM  H23F 7886   3.045   4.315  14.857
   6123SM  H23G 7887   3.043   4.396  15.017
   6123SM  H23H 7888   2.888   4.344  14.942
   6223SM     N 7889   3.416   3.228  17.745
   6223SM   C15 7890   3.308   3.127  17.725
   6223SM  H15A 7891   3.212   3.167  17.756
   6223SM  H15B 7892   3.326   3.032  17.773
   6223SM  H15C 7893   3.299   3.111  17.617
   6223SM   C14 7894   3.437   3.250  17.892
   6223SM  H14A 7895   3.485   3.161  17.934
   6223SM  H14B 7896   3.344   3.267  17.945
   6223SM  H14C 7897   3.501   3.334  17.915
   6223SM   C13 7898   3.545   3.176  17.690
   6223SM  H13A 7899   3.626   3.246  17.705
   6223SM  H13B 7900   3.536   3.161  17.583
   6223SM  H13C 7901   3.571   3.081  17.735
   6223SM   C12 7902   3.379   3.357  17.671
   6223SM  H12A 7903   3.454   3.432  17.694
   6223SM  H12B 7904   3.282   3.396  17.703
   6223SM   C11 7905   3.369   3.350  17.515
   6223SM  H11A 7906   3.469   3.326  17.473
   6223SM  H11B 7907   3.344   3.452  17.477
   6223SM     P 7908   3.121   3.284  17.454
   6223SM   O13 7909   3.051   3.153  17.456
   6223SM   O14 7910   3.089   3.383  17.559
   6223SM   O11 7911   3.112   3.349  17.308
   6223SM   O12 7912   3.276   3.252  17.470
   6223SM   C1S 7913   3.185   3.288  17.202
   6223SM   H1S 7914   3.170   3.177  17.204
   6223SM   H1T 7915   3.295   3.306  17.212
   6223SM    NF 7916   3.200   3.452  17.005
   6223SM   HNF 7917   3.140   3.522  16.970
   6223SM   C2S 7918   3.136   3.331  17.059
   6223SM   H2S 7919   3.159   3.247  16.990
   6223SM   C3S 7920   2.981   3.350  17.062
   6223SM   H3S 7921   2.953   3.426  17.138
   6223SM    O3 7922   2.905   3.233  17.093
   6223SM   HO3 7923   2.961   3.177  17.147
   6223SM   C4S 7924   2.941   3.402  16.926
   6223SM   H4S 7925   2.952   3.510  16.916
   6223SM   C5S 7926   2.891   3.333  16.821
   6223SM   H5S 7927   2.868   3.226  16.834
   6223SM   C6S 7928   2.858   3.393  16.688
   6223SM   H6S 7929   2.877   3.503  16.684
   6223SM   H6T 7930   2.751   3.378  16.660
   6223SM   C7S 7931   2.952   3.322  16.586
   6223SM   H7S 7932   2.917   3.218  16.572
   6223SM   H7T 7933   3.057   3.320  16.624
   6223SM   C8S 7934   2.954   3.397  16.452
   6223SM   H8S 7935   3.015   3.487  16.472
   6223SM   H8T 7936   2.852   3.433  16.435
   6223SM   C9S 7937   3.011   3.323  16.329
   6223SM   H9S 7938   2.970   3.219  16.325
   6223SM   H9T 7939   3.121   3.316  16.341
   6223SM  C10S 7940   2.979   3.390  16.193
   6223SM  H10S 7941   2.994   3.500  16.200
   6223SM  H10T 7942   2.872   3.374  16.170
   6223SM  C11S 7943   3.060   3.339  16.072
   6223SM  H11S 7944   3.071   3.229  16.079
   6223SM  H11T 7945   3.162   3.384  16.077
   6223SM  C12S 7946   2.995   3.375  15.936
   6223SM  H12S 7947   2.945   3.474  15.947
   6223SM  H12T 7948   2.916   3.301  15.912
   6223SM  C13S 7949   3.096   3.386  15.819
   6223SM  H13S 7950   3.136   3.286  15.793
   6223SM  H13T 7951   3.181   3.445  15.861
   6223SM  C14S 7952   3.048   3.460  15.691
   6223SM  H14S 7953   3.137   3.506  15.642
   6223SM  H14T 7954   2.980   3.543  15.720
   6223SM  C15S 7955   2.984   3.372  15.583
   6223SM  H15S 7956   2.904   3.311  15.631
   6223SM  H15T 7957   3.061   3.302  15.544
   6223SM  C16S 7958   2.920   3.448  15.463
   6223SM  H16S 7959   2.833   3.503  15.503
   6223SM  H16T 7960   2.883   3.372  15.391
   6223SM  C17S 7961   3.003   3.552  15.385
   6223SM  H17S 7962   3.101   3.509  15.360
   6223SM  H17T 7963   3.022   3.641  15.449
   6223SM  C18S 7964   2.936   3.598  15.254
   6223SM  H18S 7965   2.910   3.511  15.190
   6223SM  H18T 7966   3.004   3.663  15.194
   6223SM  H18U 7967   2.843   3.655  15.274
   6223SM   C1F 7968   3.328   3.456  16.968
   6223SM    OF 7969   3.409   3.371  17.004
   6223SM   C2F 7970   3.364   3.571  16.877
   6223SM   H2F 7971   3.449   3.539  16.813
   6223SM   H2G 7972   3.398   3.656  16.940
   6223SM   C3F 7973   3.247   3.619  16.786
   6223SM   H3F 7974   3.176   3.680  16.847
   6223SM   H3G 7975   3.190   3.532  16.745
   6223SM   C4F 7976   3.293   3.703  16.665
   6223SM   H4F 7977   3.326   3.635  16.583
   6223SM   H4G 7978   3.384   3.758  16.696
   6223SM   C5F 7979   3.190   3.806  16.612
   6223SM   H5F 7980   3.240   3.883  16.550
   6223SM   H5G 7981   3.141   3.857  16.697
   6223SM   C6F 7982   3.081   3.752  16.517
   6223SM   H6F 7983   3.008   3.833  16.494
   6223SM   H6G 7984   3.024   3.676  16.575
   6223SM   C7F 7985   3.132   3.688  16.386
   6223SM   H7F 7986   3.044   3.638  16.341
   6223SM   H7G 7987   3.206   3.609  16.413
   6223SM   C8F 7988   3.191   3.773  16.271
   6223SM   H8F 7989   3.255   3.855  16.311
   6223SM   H8G 7990   3.106   3.820  16.216
   6223SM   C9F 7991   3.274   3.682  16.176
   6223SM   H9F 7992   3.231   3.579  16.184
   6223SM   H9G 7993   3.378   3.676  16.215
   6223SM  C10F 7994   3.275   3.715  16.025
   6223SM  H10F 7995   3.301   3.821  16.008
   6223SM  H10G 7996   3.172   3.700  15.985
   6223SM  C11F 7997   3.371   3.626  15.942
   6223SM  H11F 7998   3.354   3.519  15.967
   6223SM  H11G 7999   3.477   3.649  15.966
   6223SM  C12F 8000   3.348   3.642  15.791
   6223SM  H12F 8001   3.369   3.744  15.755
   6223SM  H12G 8002   3.240   3.628  15.770
   6223SM  C13F 8003   3.430   3.547  15.703
   6223SM  H13F 8004   3.400   3.572  15.600
   6223SM  H13G 8005   3.402   3.441  15.724
   6223SM  C14F 8006   3.582   3.561  15.720
   6223SM  H14F 8007   3.604   3.500  15.811
   6223SM  H14G 8008   3.610   3.665  15.742
   6223SM  C15F 8009   3.667   3.501  15.605
   6223SM  H15F 8010   3.623   3.404  15.573
   6223SM  H15G 8011   3.766   3.475  15.651
   6223SM  C16F 8012   3.702   3.587  15.482
   6223SM  H16F 8013   3.787   3.535  15.431
   6223SM  H16G 8014   3.741   3.687  15.513
   6223SM  C17F 8015   3.595   3.605  15.371
   6223SM  H17F 8016   3.647   3.619  15.274
   6223SM  H17G 8017   3.539   3.698  15.389
   6223SM  C18F 8018   3.496   3.488  15.355
   6223SM  H18F 8019   3.447   3.462  15.450
   6223SM  H18G 8020   3.554   3.397  15.327
   6223SM  C19F 8021   3.381   3.511  15.255
   6223SM  H19F 8022   3.423   3.541  15.157
   6223SM  H19G 8023   3.313   3.591  15.291
   6223SM  C20F 8024   3.297   3.382  15.241
   6223SM  H20F 8025   3.240   3.363  15.334
   6223SM  H20G 8026   3.371   3.300  15.233
   6223SM  C21F 8027   3.204   3.381  15.119
   6223SM  H21F 8028   3.265   3.400  15.029
   6223SM  H21G 8029   3.132   3.466  15.124
   6223SM  C22F 8030   3.127   3.249  15.098
   6223SM  H22F 8031   3.111   3.236  14.989
   6223SM  H22G 8032   3.026   3.256  15.145
   6223SM  C23F 8033   3.200   3.126  15.153
   6223SM  H23F 8034   3.309   3.133  15.132
   6223SM  H23G 8035   3.164   3.033  15.106
   6223SM  H23H 8036   3.187   3.119  15.263
   6323SM     N 8037   4.738   4.952  17.765
   6323SM   C15 8038   4.649   4.868  17.677
   6323SM  H15A 8039   4.612   4.778  17.721
   6323SM  H15B 8040   4.703   4.844  17.586
   6323SM  H15C 8041   4.564   4.929  17.641
   6323SM   C14 8042   4.656   4.991  17.883
   6323SM  H14A 8043   4.633   4.901  17.940
   6323SM  H14B 8044   4.563   5.036  17.849
   6323SM  H14C 8045   4.710   5.057  17.950
   6323SM   C13 8046   4.857   4.879  17.820
   6323SM  H13A 8047   4.828   4.784  17.863
   6323SM  H13B 8048   4.905   4.937  17.899
   6323SM  H13C 8049   4.933   4.863  17.744
   6323SM   C12 8050   4.779   5.073  17.682
   6323SM  H12A 8051   4.842   5.137  17.741
   6323SM  H12B 8052   4.687   5.127  17.657
   6323SM   C11 8053   4.847   5.048  17.545
   6323SM  H11A 8054   4.927   4.972  17.557
   6323SM  H11B 8055   4.897   5.142  17.511
   6323SM     P 8056   4.636   5.097  17.397
   6323SM   O13 8057   4.530   5.084  17.499
   6323SM   O14 8058   4.693   5.232  17.370
   6323SM   O11 8059   4.589   5.026  17.265
   6323SM   O12 8060   4.756   5.002  17.445
   6323SM   C1S 8061   4.667   5.037  17.148
   6323SM   H1S 8062   4.751   4.964  17.153
   6323SM   H1T 8063   4.710   5.139  17.134
   6323SM    NF 8064   4.662   5.024  16.911
   6323SM   HNF 8065   4.635   5.094  16.845
   6323SM   C2S 8066   4.579   5.006  17.027
   6323SM   H2S 8067   4.547   4.899  17.034
   6323SM   C3S 8068   4.450   5.093  17.022
   6323SM   H3S 8069   4.474   5.200  17.040
   6323SM    O3 8070   4.352   5.053  17.119
   6323SM   HO3 8071   4.407   5.020  17.191
   6323SM   C4S 8072   4.394   5.074  16.883
   6323SM   H4S 8073   4.340   4.980  16.868
   6323SM   C5S 8074   4.406   5.161  16.781
   6323SM   H5S 8075   4.450   5.261  16.799
   6323SM   C6S 8076   4.351   5.138  16.642
   6323SM   H6S 8077   4.287   5.224  16.612
   6323SM   H6T 8078   4.285   5.048  16.640
   6323SM   C7S 8079   4.461   5.120  16.535
   6323SM   H7S 8080   4.525   5.033  16.560
   6323SM   H7T 8081   4.525   5.211  16.532
   6323SM   C8S 8082   4.400   5.099  16.395
   6323SM   H8S 8083   4.345   5.192  16.367
   6323SM   H8T 8084   4.326   5.016  16.399
   6323SM   C9S 8085   4.502   5.068  16.285
   6323SM   H9S 8086   4.570   4.985  16.314
   6323SM   H9T 8087   4.565   5.159  16.273
   6323SM  C10S 8088   4.433   5.034  16.152
   6323SM  H10S 8089   4.351   5.106  16.135
   6323SM  H10T 8090   4.388   4.933  16.160
   6323SM  C11S 8091   4.525   5.041  16.030
   6323SM  H11S 8092   4.616   4.979  16.046
   6323SM  H11T 8093   4.557   5.146  16.019
   6323SM  C12S 8094   4.456   4.999  15.900
   6323SM  H12S 8095   4.361   5.056  15.887
   6323SM  H12T 8096   4.430   4.891  15.906
   6323SM  C13S 8097   4.545   5.024  15.778
   6323SM  H13S 8098   4.646   4.983  15.799
   6323SM  H13T 8099   4.556   5.134  15.762
   6323SM  C14S 8100   4.491   4.959  15.651
   6323SM  H14S 8101   4.394   5.006  15.622
   6323SM  H14T 8102   4.472   4.851  15.671
   6323SM  C15S 8103   4.591   4.972  15.537
   6323SM  H15S 8104   4.691   4.937  15.574
   6323SM  H15T 8105   4.603   5.080  15.513
   6323SM  C16S 8106   4.556   4.891  15.412
   6323SM  H16S 8107   4.554   4.783  15.436
   6323SM  H16T 8108   4.639   4.906  15.340
   6323SM  C17S 8109   4.426   4.929  15.340
   6323SM  H17S 8110   4.404   5.038  15.354
   6323SM  H17T 8111   4.343   4.872  15.385
   6323SM  C18S 8112   4.434   4.901  15.190
   6323SM  H18S 8113   4.476   4.988  15.134
   6323SM  H18T 8114   4.334   4.877  15.148
   6323SM  H18U 8115   4.502   4.815  15.171
   6323SM   C1F 8116   4.764   4.945  16.884
   6323SM    OF 8117   4.780   4.839  16.942
   6323SM   C2F 8118   4.856   4.990  16.776
   6323SM   H2F 8119   4.845   4.922  16.689
   6323SM   H2G 8120   4.958   4.981  16.815
   6323SM   C3F 8121   4.842   5.137  16.729
   6323SM   H3F 8122   4.858   5.207  16.814
   6323SM   H3G 8123   4.742   5.156  16.685
   6323SM   C4F 8124   4.949   5.162  16.621
   6323SM   H4F 8125   4.929   5.085  16.543
   6323SM   H4G 8126   5.050   5.143  16.663
   6323SM   C5F 8127   4.948   5.298  16.552
   6323SM   H5F 8128   5.026   5.363  16.599
   6323SM   H5G 8129   4.850   5.350  16.564
   6323SM   C6F 8130   4.978   5.282  16.401
   6323SM   H6F 8131   5.064   5.214  16.386
   6323SM   H6G 8132   5.008   5.381  16.362
   6323SM   C7F 8133   4.857   5.237  16.319
   6323SM   H7F 8134   4.769   5.297  16.354
   6323SM   H7G 8135   4.833   5.130  16.336
   6323SM   C8F 8136   4.872   5.264  16.168
   6323SM   H8F 8137   4.898   5.170  16.115
   6323SM   H8G 8138   4.956   5.336  16.153
   6323SM   C9F 8139   4.745   5.329  16.110
   6323SM   H9F 8140   4.741   5.434  16.147
   6323SM   H9G 8141   4.655   5.280  16.148
   6323SM  C10F 8142   4.738   5.330  15.958
   6323SM  H10F 8143   4.714   5.230  15.917
   6323SM  H10G 8144   4.840   5.351  15.919
   6323SM  C11F 8145   4.638   5.435  15.905
   6323SM  H11F 8146   4.646   5.528  15.966
   6323SM  H11G 8147   4.534   5.398  15.915
   6323SM  C12F 8148   4.674   5.469  15.761
   6323SM  H12F 8149   4.679   5.376  15.701
   6323SM  H12G 8150   4.773   5.513  15.767
   6323SM  C13F 8151   4.598   5.578  15.685
   6323SM  H13F 8152   4.599   5.674  15.741
   6323SM  H13G 8153   4.494   5.543  15.676
   6323SM  C14F 8154   4.670   5.600  15.549
   6323SM  H14F 8155   4.723   5.506  15.523
   6323SM  H14G 8156   4.750   5.677  15.560
   6323SM  C15F 8157   4.579   5.632  15.430
   6323SM  H15F 8158   4.637   5.618  15.336
   6323SM  H15G 8159   4.547   5.739  15.435
   6323SM  C16F 8160   4.454   5.542  15.426
   6323SM  H16F 8161   4.394   5.562  15.336
   6323SM  H16G 8162   4.389   5.574  15.509
   6323SM  C17F 8163   4.485   5.391  15.427
   6323SM  H17F 8164   4.400   5.330  15.461
   6323SM  H17G 8165   4.567   5.367  15.497
   6323SM  C18F 8166   4.516   5.341  15.286
   6323SM  H18F 8167   4.548   5.428  15.225
   6323SM  H18G 8168   4.424   5.299  15.240
   6323SM  C19F 8169   4.627   5.239  15.281
   6323SM  H19F 8170   4.592   5.142  15.319
   6323SM  H19G 8171   4.711   5.273  15.345
   6323SM  C20F 8172   4.679   5.219  15.139
   6323SM  H20F 8173   4.699   5.318  15.093
   6323SM  H20G 8174   4.606   5.166  15.074
   6323SM  C21F 8175   4.811   5.146  15.143
   6323SM  H21F 8176   4.878   5.191  15.220
   6323SM  H21G 8177   4.856   5.166  15.044
   6323SM  C22F 8178   4.806   4.994  15.160
   6323SM  H22F 8179   4.711   4.951  15.123
   6323SM  H22G 8180   4.817   4.965  15.267
   6323SM  C23F 8181   4.922   4.939  15.081
   6323SM  H23F 8182   4.887   4.906  14.982
   6323SM  H23G 8183   4.978   4.858  15.125
   6323SM  H23H 8184   4.999   5.017  15.072
   6423SM     N 8185   5.449   3.835  17.747
   6423SM   C15 8186   5.349   3.728  17.778
   6423SM  H15A 8187   5.276   3.726  17.695
   6423SM  H15B 8188   5.294   3.744  17.869
   6423SM  H15C 8189   5.396   3.631  17.779
   6423SM   C14 8190   5.379   3.966  17.728
   6423SM  H14A 8191   5.305   3.955  17.648
   6423SM  H14B 8192   5.452   4.040  17.699
   6423SM  H14C 8193   5.332   3.995  17.820
   6423SM   C13 8194   5.544   3.849  17.860
   6423SM  H13A 8195   5.492   3.890  17.948
   6423SM  H13B 8196   5.620   3.924  17.838
   6423SM  H13C 8197   5.589   3.756  17.892
   6423SM   C12 8198   5.523   3.793  17.621
   6423SM  H12A 8199   5.540   3.685  17.625
   6423SM  H12B 8200   5.620   3.842  17.616
   6423SM   C11 8201   5.449   3.820  17.488
   6423SM  H11A 8202   5.510   3.780  17.403
   6423SM  H11B 8203   5.441   3.930  17.471
   6423SM     P 8204   5.298   3.611  17.453
   6423SM   O13 8205   5.413   3.538  17.512
   6423SM   O14 8206   5.162   3.572  17.491
   6423SM   O11 8207   5.318   3.615  17.296
   6423SM   O12 8208   5.317   3.764  17.492
   6423SM   C1S 8209   5.263   3.727  17.225
   6423SM   H1S 8210   5.300   3.824  17.267
   6423SM   H1T 8211   5.152   3.727  17.233
   6423SM    NF 8212   5.277   3.859  17.020
   6423SM   HNF 8213   5.190   3.874  16.972
   6423SM   C2S 8214   5.304   3.727  17.075
   6423SM   H2S 8215   5.414   3.709  17.068
   6423SM   C3S 8216   5.230   3.613  17.000
   6423SM   H3S 8217   5.123   3.611  17.030
   6423SM    O3 8218   5.284   3.483  17.028
   6423SM   HO3 8219   5.308   3.481  17.122
   6423SM   C4S 8220   5.243   3.633  16.852
   6423SM   H4S 8221   5.325   3.574  16.806
   6423SM   C5S 8222   5.163   3.707  16.773
   6423SM   H5S 8223   5.079   3.764  16.816
   6423SM   C6S 8224   5.181   3.723  16.624
   6423SM   H6S 8225   5.133   3.818  16.590
   6423SM   H6T 8226   5.130   3.641  16.571
   6423SM   C7S 8227   5.323   3.715  16.569
   6423SM   H7S 8228   5.371   3.620  16.601
   6423SM   H7T 8229   5.386   3.798  16.608
   6423SM   C8S 8230   5.317   3.713  16.416
   6423SM   H8S 8231   5.264   3.620  16.386
   6423SM   H8T 8232   5.420   3.703  16.376
   6423SM   C9S 8233   5.242   3.831  16.350
   6423SM   H9S 8234   5.264   3.927  16.401
   6423SM   H9T 8235   5.133   3.812  16.363
   6423SM  C10S 8236   5.274   3.842  16.201
   6423SM  H10S 8237   5.281   3.739  16.159
   6423SM  H10T 8238   5.373   3.890  16.188
   6423SM  C11S 8239   5.170   3.918  16.117
   6423SM  H11S 8240   5.168   4.025  16.146
   6423SM  H11T 8241   5.070   3.878  16.139
   6423SM  C12S 8242   5.197   3.903  15.967
   6423SM  H12S 8243   5.193   3.796  15.938
   6423SM  H12T 8244   5.301   3.938  15.949
   6423SM  C13S 8245   5.100   3.983  15.878
   6423SM  H13S 8246   5.076   4.080  15.927
   6423SM  H13T 8247   5.005   3.925  15.870
   6423SM  C14S 8248   5.153   4.007  15.735
   6423SM  H14S 8249   5.192   3.911  15.697
   6423SM  H14T 8250   5.236   4.082  15.738
   6423SM  C15S 8251   5.043   4.043  15.635
   6423SM  H15S 8252   5.009   4.146  15.660
   6423SM  H15T 8253   4.960   3.971  15.649
   6423SM  C16S 8254   5.079   4.036  15.484
   6423SM  H16S 8255   5.189   4.045  15.469
   6423SM  H16T 8256   5.032   4.125  15.438
   6423SM  C17S 8257   5.026   3.912  15.409
   6423SM  H17S 8258   4.917   3.920  15.386
   6423SM  H17T 8259   5.036   3.823  15.475
   6423SM  C18S 8260   5.099   3.888  15.277
   6423SM  H18S 8261   5.068   3.963  15.202
   6423SM  H18T 8262   5.074   3.789  15.234
   6423SM  H18U 8263   5.209   3.896  15.291
   6423SM   C1F 8264   5.356   3.964  17.041
   6423SM    OF 8265   5.448   3.957  17.123
   6423SM   C2F 8266   5.326   4.088  16.963
   6423SM   H2F 8267   5.295   4.165  17.036
   6423SM   H2G 8268   5.240   4.070  16.895
   6423SM   C3F 8269   5.446   4.138  16.878
   6423SM   H3F 8270   5.539   4.140  16.939
   6423SM   H3G 8271   5.424   4.243  16.847
   6423SM   C4F 8272   5.473   4.057  16.750
   6423SM   H4F 8273   5.378   4.042  16.695
   6423SM   H4G 8274   5.512   3.957  16.777
   6423SM   C5F 8275   5.572   4.129  16.656
   6423SM   H5F 8276   5.648   4.180  16.719
   6423SM   H5G 8277   5.519   4.208  16.598
   6423SM   C6F 8278   5.647   4.037  16.557
   6423SM   H6F 8279   5.690   3.950  16.612
   6423SM   H6G 8280   5.731   4.094  16.512
   6423SM   C7F 8281   5.560   3.986  16.441
   6423SM   H7F 8282   5.525   4.072  16.380
   6423SM   H7G 8283   5.470   3.939  16.484
   6423SM   C8F 8284   5.631   3.883  16.351
   6423SM   H8F 8285   5.555   3.819  16.301
   6423SM   H8G 8286   5.694   3.816  16.413
   6423SM   C9F 8287   5.712   3.942  16.235
   6423SM   H9F 8288   5.773   3.861  16.189
   6423SM   H9G 8289   5.780   4.020  16.274
   6423SM  C10F 8290   5.621   4.003  16.126
   6423SM  H10F 8291   5.554   4.079  16.172
   6423SM  H10G 8292   5.556   3.923  16.083
   6423SM  C11F 8293   5.700   4.070  16.013
   6423SM  H11F 8294   5.782   4.129  16.058
   6423SM  H11G 8295   5.633   4.142  15.960
   6423SM  C12F 8296   5.756   3.970  15.912
   6423SM  H12F 8297   5.755   3.868  15.957
   6423SM  H12G 8298   5.862   3.995  15.889
   6423SM  C13F 8299   5.677   3.965  15.780
   6423SM  H13F 8300   5.729   3.896  15.710
   6423SM  H13G 8301   5.675   4.066  15.733
   6423SM  C14F 8302   5.534   3.916  15.804
   6423SM  H14F 8303   5.480   3.993  15.864
   6423SM  H14G 8304   5.537   3.822  15.863
   6423SM  C15F 8305   5.452   3.888  15.678
   6423SM  H15F 8306   5.423   3.983  15.627
   6423SM  H15G 8307   5.362   3.835  15.714
   6423SM  C16F 8308   5.516   3.793  15.577
   6423SM  H16F 8309   5.551   3.702  15.632
   6423SM  H16G 8310   5.603   3.843  15.531
   6423SM  C17F 8311   5.415   3.749  15.471
   6423SM  H17F 8312   5.368   3.839  15.426
   6423SM  H17G 8313   5.332   3.692  15.518
   6423SM  C18F 8314   5.481   3.662  15.363
   6423SM  H18F 8315   5.404   3.619  15.296
   6423SM  H18G 8316   5.534   3.578  15.413
   6423SM  C19F 8317   5.579   3.741  15.276
   6423SM  H19F 8318   5.628   3.671  15.204
   6423SM  H19G 8319   5.659   3.786  15.338
   6423SM  C20F 8320   5.508   3.851  15.197
   6423SM  H20F 8321   5.461   3.925  15.265
   6423SM  H20G 8322   5.428   3.806  15.135
   6423SM  C21F 8323   5.604   3.926  15.106
   6423SM  H21F 8324   5.637   3.856  15.026
   6423SM  H21G 8325   5.695   3.958  15.162
   6423SM  C22F 8326   5.536   4.047  15.044
   6423SM  H22F 8327   5.536   4.133  15.115
   6423SM  H22G 8328   5.430   4.021  15.023
   6423SM  C23F 8329   5.603   4.085  14.913
   6423SM  H23F 8330   5.693   4.147  14.932
   6423SM  H23G 8331   5.532   4.139  14.849
   6423SM  H23H 8332   5.636   3.994  14.859
   6523SM     N 8333   5.338   4.472  17.776
   6523SM   C15 8334   5.221   4.502  17.688
   6523SM  H15A 8335   5.125   4.478  17.730
   6523SM  H15B 8336   5.233   4.454  17.591
   6523SM  H15C 8337   5.224   4.608  17.662
   6523SM   C14 8338   5.316   4.545  17.905
   6523SM  H14A 8339   5.228   4.507  17.956
   6523SM  H14B 8340   5.303   4.651  17.887
   6523SM  H14C 8341   5.399   4.528  17.972
   6523SM   C13 8342   5.352   4.327  17.808
   6523SM  H13A 8343   5.440   4.310  17.872
   6523SM  H13B 8344   5.371   4.270  17.717
   6523SM  H13C 8345   5.265   4.289  17.860
   6523SM   C12 8346   5.464   4.526  17.708
   6523SM  H12A 8347   5.548   4.517  17.775
   6523SM  H12B 8348   5.452   4.633  17.690
   6523SM   C11 8349   5.501   4.468  17.569
   6523SM  H11A 8350   5.511   4.358  17.576
   6523SM  H11B 8351   5.603   4.507  17.541
   6523SM     P 8352   5.393   4.653  17.415
   6523SM   O13 8353   5.267   4.658  17.338
   6523SM   O14 8354   5.411   4.744  17.530
   6523SM   O11 8355   5.521   4.649  17.319
   6523SM   O12 8356   5.404   4.503  17.469
   6523SM   C1S 8357   5.574   4.766  17.254
   6523SM   H1S 8358   5.683   4.774  17.274
   6523SM   H1T 8359   5.530   4.861  17.294
   6523SM    NF 8360   5.411   4.757  17.075
   6523SM   HNF 8361   5.371   4.666  17.066
   6523SM   C2S 8362   5.551   4.763  17.099
   6523SM   H2S 8363   5.591   4.858  17.057
   6523SM   C3S 8364   5.625   4.646  17.029
   6523SM   H3S 8365   5.586   4.549  17.066
   6523SM    O3 8366   5.765   4.645  17.053
   6523SM   HO3 8367   5.779   4.710  17.123
   6523SM   C4S 8368   5.596   4.650  16.879
   6523SM   H4S 8369   5.514   4.584  16.847
   6523SM   C5S 8370   5.659   4.723  16.785
   6523SM   H5S 8371   5.742   4.788  16.816
   6523SM   C6S 8372   5.628   4.727  16.636
   6523SM   H6S 8373   5.723   4.715  16.578
   6523SM   H6T 8374   5.587   4.827  16.612
   6523SM   C7S 8375   5.526   4.632  16.570
   6523SM   H7S 8376   5.430   4.640  16.626
   6523SM   H7T 8377   5.561   4.527  16.576
   6523SM   C8S 8378   5.498   4.670  16.423
   6523SM   H8S 8379   5.480   4.779  16.413
   6523SM   H8T 8380   5.406   4.616  16.392
   6523SM   C9S 8381   5.605   4.626  16.323
   6523SM   H9S 8382   5.625   4.517  16.340
   6523SM   H9T 8383   5.699   4.681  16.343
   6523SM  C10S 8384   5.562   4.642  16.176
   6523SM  H10S 8385   5.562   4.751  16.149
   6523SM  H10T 8386   5.460   4.602  16.158
   6523SM  C11S 8387   5.659   4.565  16.086
   6523SM  H11S 8388   5.653   4.457  16.106
   6523SM  H11T 8389   5.756   4.598  16.126
   6523SM  C12S 8390   5.644   4.593  15.935
   6523SM  H12S 8391   5.678   4.696  15.915
   6523SM  H12T 8392   5.536   4.587  15.910
   6523SM  C13S 8393   5.723   4.496  15.846
   6523SM  H13S 8394   5.686   4.393  15.865
   6523SM  H13T 8395   5.830   4.499  15.877
   6523SM  C14S 8396   5.716   4.524  15.694
   6523SM  H14S 8397   5.789   4.457  15.644
   6523SM  H14T 8398   5.748   4.629  15.673
   6523SM  C15S 8399   5.577   4.500  15.631
   6523SM  H15S 8400   5.525   4.597  15.630
   6523SM  H15T 8401   5.519   4.430  15.695
   6523SM  C16S 8402   5.582   4.442  15.487
   6523SM  H16S 8403   5.489   4.385  15.464
   6523SM  H16T 8404   5.667   4.371  15.479
   6523SM  C17S 8405   5.600   4.553  15.383
   6523SM  H17S 8406   5.693   4.603  15.415
   6523SM  H17T 8407   5.519   4.628  15.392
   6523SM  C18S 8408   5.615   4.508  15.236
   6523SM  H18S 8409   5.717   4.469  15.219
   6523SM  H18T 8410   5.602   4.598  15.171
   6523SM  H18U 8411   5.543   4.431  15.205
   6523SM   C1F 8412   5.329   4.856  17.101
   6523SM    OF 8413   5.369   4.967  17.136
   6523SM   C2F 8414   5.185   4.821  17.090
   6523SM   H2F 8415   5.128   4.879  17.166
   6523SM   H2G 8416   5.173   4.712  17.113
   6523SM   C3F 8417   5.133   4.851  16.949
   6523SM   H3F 8418   5.136   4.961  16.930
   6523SM   H3G 8419   5.026   4.819  16.953
   6523SM   C4F 8420   5.197   4.777  16.829
   6523SM   H4F 8421   5.209   4.669  16.852
   6523SM   H4G 8422   5.298   4.819  16.808
   6523SM   C5F 8423   5.105   4.793  16.706
   6523SM   H5F 8424   5.102   4.900  16.678
   6523SM   H5G 8425   5.003   4.764  16.741
   6523SM   C6F 8426   5.135   4.708  16.583
   6523SM   H6F 8427   5.041   4.662  16.546
   6523SM   H6G 8428   5.203   4.625  16.613
   6523SM   C7F 8429   5.197   4.787  16.467
   6523SM   H7F 8430   5.234   4.714  16.392
   6523SM   H7G 8431   5.284   4.842  16.508
   6523SM   C8F 8432   5.105   4.885  16.391
   6523SM   H8F 8433   5.165   4.931  16.308
   6523SM   H8G 8434   5.073   4.967  16.458
   6523SM   C9F 8435   4.988   4.822  16.316
   6523SM   H9F 8436   4.936   4.903  16.259
   6523SM   H9G 8437   4.914   4.779  16.387
   6523SM  C10F 8438   5.034   4.714  16.216
   6523SM  H10F 8439   5.071   4.625  16.272
   6523SM  H10G 8440   5.119   4.754  16.157
   6523SM  C11F 8441   4.923   4.670  16.121
   6523SM  H11F 8442   4.893   4.756  16.057
   6523SM  H11G 8443   4.834   4.642  16.181
   6523SM  C12F 8444   4.962   4.550  16.033
   6523SM  H12F 8445   4.877   4.525  15.966
   6523SM  H12G 8446   4.981   4.462  16.099
   6523SM  C13F 8447   5.086   4.573  15.946
   6523SM  H13F 8448   5.104   4.480  15.886
   6523SM  H13G 8449   5.176   4.588  16.009
   6523SM  C14F 8450   5.070   4.692  15.851
   6523SM  H14F 8451   5.046   4.784  15.910
   6523SM  H14G 8452   4.986   4.673  15.782
   6523SM  C15F 8453   5.197   4.722  15.772
   6523SM  H15F 8454   5.281   4.742  15.843
   6523SM  H15G 8455   5.181   4.814  15.711
   6523SM  C16F 8456   5.239   4.610  15.678
   6523SM  H16F 8457   5.260   4.516  15.733
   6523SM  H16G 8458   5.334   4.643  15.629
   6523SM  C17F 8459   5.139   4.585  15.565
   6523SM  H17F 8460   5.125   4.682  15.512
   6523SM  H17G 8461   5.040   4.551  15.603
   6523SM  C18F 8462   5.196   4.482  15.468
   6523SM  H18F 8463   5.170   4.379  15.498
   6523SM  H18G 8464   5.307   4.491  15.475
   6523SM  C19F 8465   5.160   4.510  15.323
   6523SM  H19F 8466   5.165   4.620  15.306
   6523SM  H19G 8467   5.057   4.475  15.304
   6523SM  C20F 8468   5.261   4.446  15.229
   6523SM  H20F 8469   5.359   4.481  15.266
   6523SM  H20G 8470   5.249   4.484  15.126
   6523SM  C21F 8471   5.255   4.292  15.229
   6523SM  H21F 8472   5.267   4.252  15.331
   6523SM  H21G 8473   5.341   4.255  15.170
   6523SM  C22F 8474   5.126   4.238  15.166
   6523SM  H22F 8475   5.059   4.321  15.137
   6523SM  H22G 8476   5.071   4.178  15.241
   6523SM  C23F 8477   5.152   4.151  15.043
   6523SM  H23F 8478   5.207   4.209  14.965
   6523SM  H23G 8479   5.057   4.114  15.000
   6523SM  H23H 8480   5.215   4.064  15.071
   6623SM     N 8481   4.125   1.962  17.749
   6623SM   C15 8482   4.210   2.053  17.667
   6623SM  H15A 8483   4.289   1.999  17.614
   6623SM  H15B 8484   4.261   2.121  17.732
   6623SM  H15C 8485   4.147   2.104  17.595
   6623SM   C14 8486   4.209   1.901  17.857
   6623SM  H14A 8487   4.293   1.848  17.814
   6623SM  H14B 8488   4.148   1.829  17.912
   6623SM  H14C 8489   4.244   1.975  17.928
   6623SM   C13 8490   4.016   2.041  17.810
   6623SM  H13A 8491   3.945   2.072  17.733
   6623SM  H13B 8492   4.055   2.128  17.862
   6623SM  H13C 8493   3.962   1.982  17.883
   6623SM   C12 8494   4.070   1.852  17.660
   6623SM  H12A 8495   3.990   1.799  17.712
   6623SM  H12B 8496   4.147   1.777  17.644
   6623SM   C11 8497   4.014   1.892  17.523
   6623SM  H11A 8498   4.009   1.800  17.462
   6623SM  H11B 8499   4.088   1.958  17.471
   6623SM     P 8500   3.836   2.074  17.449
   6623SM   O13 8501   3.715   2.034  17.372
   6623SM   O14 8502   3.823   2.188  17.543
   6623SM   O11 8503   3.959   2.102  17.351
   6623SM   O12 8504   3.884   1.949  17.536
   6623SM   C1S 8505   3.982   2.024  17.233
   6623SM   H1S 8506   3.895   1.962  17.205
   6623SM   H1T 8507   4.067   1.955  17.251
   6623SM    NF 8508   3.902   2.119  17.024
   6623SM   HNF 8509   3.904   2.069  16.938
   6623SM   C2S 8510   4.015   2.116  17.112
   6623SM   H2S 8511   4.034   2.219  17.150
   6623SM   C3S 8512   4.142   2.069  17.037
   6623SM   H3S 8513   4.132   1.962  17.009
   6623SM    O3 8514   4.258   2.077  17.118
   6623SM   HO3 8515   4.225   2.080  17.209
   6623SM   C4S 8516   4.152   2.151  16.909
   6623SM   H4S 8517   4.146   2.259  16.927
   6623SM   C5S 8518   4.155   2.104  16.783
   6623SM   H5S 8519   4.158   1.996  16.762
   6623SM   C6S 8520   4.163   2.192  16.660
   6623SM   H6S 8521   4.262   2.241  16.654
   6623SM   H6T 8522   4.084   2.270  16.665
   6623SM   C7S 8523   4.146   2.111  16.530
   6623SM   H7S 8524   4.047   2.063  16.530
   6623SM   H7T 8525   4.215   2.025  16.525
   6623SM   C8S 8526   4.162   2.195  16.401
   6623SM   H8S 8527   4.263   2.239  16.394
   6623SM   H8T 8528   4.085   2.275  16.406
   6623SM   C9S 8529   4.129   2.115  16.275
   6623SM   H9S 8530   4.056   2.039  16.305
   6623SM   H9T 8531   4.216   2.059  16.236
   6623SM  C10S 8532   4.073   2.199  16.159
   6623SM  H10S 8533   4.157   2.252  16.109
   6623SM  H10T 8534   4.005   2.278  16.198
   6623SM  C11S 8535   3.996   2.113  16.057
   6623SM  H11S 8536   3.895   2.089  16.097
   6623SM  H11T 8537   4.050   2.018  16.041
   6623SM  C12S 8538   3.980   2.185  15.924
   6623SM  H12S 8539   4.083   2.205  15.885
   6623SM  H12T 8540   3.929   2.282  15.939
   6623SM  C13S 8541   3.905   2.105  15.816
   6623SM  H13S 8542   3.800   2.085  15.845
   6623SM  H13T 8543   3.957   2.009  15.800
   6623SM  C14S 8544   3.909   2.185  15.686
   6623SM  H14S 8545   4.011   2.231  15.685
   6623SM  H14T 8546   3.836   2.269  15.689
   6623SM  C15S 8547   3.899   2.107  15.555
   6623SM  H15S 8548   3.793   2.105  15.519
   6623SM  H15T 8549   3.931   2.001  15.570
   6623SM  C16S 8550   3.990   2.171  15.450
   6623SM  H16S 8551   3.981   2.121  15.351
   6623SM  H16T 8552   4.096   2.158  15.484
   6623SM  C17S 8553   3.964   2.320  15.435
   6623SM  H17S 8554   3.929   2.368  15.529
   6623SM  H17T 8555   3.883   2.335  15.361
   6623SM  C18S 8556   4.087   2.397  15.391
   6623SM  H18S 8557   4.059   2.504  15.381
   6623SM  H18T 8558   4.120   2.360  15.292
   6623SM  H18U 8559   4.171   2.389  15.464
   6623SM   C1F 8560   3.789   2.182  17.056
   6623SM    OF 8561   3.784   2.271  17.141
   6623SM   C2F 8562   3.672   2.139  16.977
   6623SM   H2F 8563   3.591   2.107  17.047
   6623SM   H2G 8564   3.697   2.052  16.913
   6623SM   C3F 8565   3.623   2.256  16.891
   6623SM   H3F 8566   3.570   2.323  16.962
   6623SM   H3G 8567   3.550   2.214  16.819
   6623SM   C4F 8568   3.726   2.341  16.815
   6623SM   H4F 8569   3.794   2.392  16.887
   6623SM   H4G 8570   3.671   2.422  16.761
   6623SM   C5F 8571   3.808   2.262  16.713
   6623SM   H5F 8572   3.867   2.185  16.767
   6623SM   H5G 8573   3.882   2.330  16.666
   6623SM   C6F 8574   3.725   2.190  16.604
   6623SM   H6F 8575   3.646   2.254  16.562
   6623SM   H6G 8576   3.674   2.105  16.655
   6623SM   C7F 8577   3.818   2.134  16.496
   6623SM   H7F 8578   3.853   2.036  16.534
   6623SM   H7G 8579   3.904   2.205  16.493
   6623SM   C8F 8580   3.779   2.113  16.348
   6623SM   H8F 8581   3.857   2.168  16.291
   6623SM   H8G 8582   3.686   2.161  16.315
   6623SM   C9F 8583   3.794   1.964  16.305
   6623SM   H9F 8584   3.782   1.898  16.393
   6623SM   H9G 8585   3.896   1.945  16.267
   6623SM  C10F 8586   3.698   1.921  16.195
   6623SM  H10F 8587   3.682   2.008  16.128
   6623SM  H10G 8588   3.602   1.893  16.241
   6623SM  C11F 8589   3.740   1.801  16.112
   6623SM  H11F 8590   3.651   1.735  16.102
   6623SM  H11G 8591   3.821   1.741  16.159
   6623SM  C12F 8592   3.775   1.842  15.970
   6623SM  H12F 8593   3.880   1.878  15.964
   6623SM  H12G 8594   3.708   1.925  15.938
   6623SM  C13F 8595   3.750   1.726  15.875
   6623SM  H13F 8596   3.750   1.766  15.772
   6623SM  H13G 8597   3.649   1.684  15.892
   6623SM  C14F 8598   3.853   1.614  15.891
   6623SM  H14F 8599   3.812   1.531  15.952
   6623SM  H14G 8600   3.942   1.650  15.947
   6623SM  C15F 8601   3.893   1.565  15.753
   6623SM  H15F 8602   3.800   1.537  15.699
   6623SM  H15G 8603   3.957   1.474  15.763
   6623SM  C16F 8604   3.968   1.669  15.668
   6623SM  H16F 8605   3.898   1.745  15.627
   6623SM  H16G 8606   4.010   1.616  15.581
   6623SM  C17F 8607   4.076   1.740  15.751
   6623SM  H17F 8608   4.130   1.664  15.812
   6623SM  H17G 8609   4.026   1.810  15.822
   6623SM  C18F 8610   4.177   1.818  15.669
   6623SM  H18F 8611   4.244   1.876  15.737
   6623SM  H18G 8612   4.120   1.893  15.610
   6623SM  C19F 8613   4.260   1.725  15.580
   6623SM  H19F 8614   4.194   1.658  15.521
   6623SM  H19G 8615   4.322   1.658  15.646
   6623SM  C20F 8616   4.349   1.797  15.479
   6623SM  H20F 8617   4.388   1.722  15.406
   6623SM  H20G 8618   4.437   1.839  15.532
   6623SM  C21F 8619   4.278   1.911  15.404
   6623SM  H21F 8620   4.343   1.938  15.319
   6623SM  H21G 8621   4.271   1.999  15.472
   6623SM  C22F 8622   4.141   1.886  15.339
   6623SM  H22F 8623   4.119   1.977  15.278
   6623SM  H22G 8624   4.060   1.879  15.415
   6623SM  C23F 8625   4.135   1.764  15.249
   6623SM  H23F 8626   4.060   1.778  15.168
   6623SM  H23G 8627   4.110   1.674  15.308
   6623SM  H23H 8628   4.234   1.746  15.204
   6723SM     N 8629   3.336   5.968  17.739
   6723SM   C15 8630   3.352   6.115  17.731
   6723SM  H15A 8631   3.450   6.142  17.768
   6723SM  H15B 8632   3.278   6.163  17.795
   6723SM  H15C 8633   3.340   6.148  17.628
   6723SM   C14 8634   3.445   5.906  17.656
   6723SM  H14A 8635   3.428   5.930  17.550
   6723SM  H14B 8636   3.437   5.798  17.662
   6723SM  H14C 8637   3.543   5.940  17.684
   6723SM   C13 8638   3.345   5.928  17.883
   6723SM  H13A 8639   3.437   5.960  17.931
   6723SM  H13B 8640   3.339   5.820  17.890
   6723SM  H13C 8641   3.262   5.969  17.939
   6723SM   C12 8642   3.202   5.922  17.684
   6723SM  H12A 8643   3.121   5.960  17.745
   6723SM  H12B 8644   3.197   5.813  17.691
   6723SM   C11 8645   3.168   5.952  17.536
   6723SM  H11A 8646   3.178   6.060  17.517
   6723SM  H11B 8647   3.060   5.928  17.519
   6723SM     P 8648   3.213   5.721  17.430
   6723SM   O13 8649   3.334   5.650  17.382
   6723SM   O14 8650   3.156   5.673  17.558
   6723SM   O11 8651   3.106   5.723  17.313
   6723SM   O12 8652   3.251   5.877  17.447
   6723SM   C1S 8653   3.076   5.838  17.234
   6723SM   H1S 8654   3.115   5.932  17.277
   6723SM   H1T 8655   2.966   5.850  17.231
   6723SM    NF 8656   3.138   5.969  17.036
   6723SM   HNF 8657   3.081   5.999  16.961
   6723SM   C2S 8658   3.126   5.831  17.086
   6723SM   H2S 8659   3.226   5.782  17.081
   6723SM   C3S 8660   3.028   5.744  17.005
   6723SM   H3S 8661   2.922   5.772  17.027
   6723SM    O3 8662   3.047   5.607  17.039
   6723SM   HO3 8663   3.097   5.612  17.121
   6723SM   C4S 8664   3.051   5.752  16.858
   6723SM   H4S 8665   3.140   5.697  16.826
   6723SM   C5S 8666   2.974   5.814  16.766
   6723SM   H5S 8667   2.882   5.865  16.797
   6723SM   C6S 8668   3.003   5.818  16.618
   6723SM   H6S 8669   3.032   5.922  16.589
   6723SM   H6T 8670   2.912   5.794  16.559
   6723SM   C7S 8671   3.112   5.719  16.571
   6723SM   H7S 8672   3.076   5.615  16.583
   6723SM   H7T 8673   3.203   5.733  16.633
   6723SM   C8S 8674   3.156   5.744  16.427
   6723SM   H8S 8675   3.251   5.689  16.406
   6723SM   H8T 8676   3.179   5.852  16.421
   6723SM   C9S 8677   3.054   5.711  16.317
   6723SM   H9S 8678   2.962   5.769  16.338
   6723SM   H9T 8679   3.027   5.603  16.320
   6723SM  C10S 8680   3.106   5.751  16.178
   6723SM  H10S 8681   3.192   5.821  16.189
   6723SM  H10T 8682   3.023   5.807  16.129
   6723SM  C11S 8683   3.147   5.637  16.084
   6723SM  H11S 8684   3.074   5.554  16.095
   6723SM  H11T 8685   3.247   5.597  16.112
   6723SM  C12S 8686   3.149   5.681  15.936
   6723SM  H12S 8687   3.242   5.739  15.916
   6723SM  H12T 8688   3.064   5.750  15.918
   6723SM  C13S 8689   3.136   5.563  15.838
   6723SM  H13S 8690   3.038   5.565  15.788
   6723SM  H13T 8691   3.137   5.468  15.895
   6723SM  C14S 8692   3.243   5.556  15.729
   6723SM  H14S 8693   3.280   5.451  15.724
   6723SM  H14T 8694   3.330   5.620  15.756
   6723SM  C15S 8695   3.195   5.589  15.588
   6723SM  H15S 8696   3.165   5.696  15.580
   6723SM  H15T 8697   3.105   5.527  15.564
   6723SM  C16S 8698   3.306   5.555  15.489
   6723SM  H16S 8699   3.339   5.450  15.504
   6723SM  H16T 8700   3.393   5.621  15.509
   6723SM  C17S 8701   3.262   5.570  15.344
   6723SM  H17S 8702   3.226   5.674  15.330
   6723SM  H17T 8703   3.180   5.496  15.325
   6723SM  C18S 8704   3.369   5.544  15.241
   6723SM  H18S 8705   3.450   5.618  15.254
   6723SM  H18T 8706   3.330   5.553  15.137
   6723SM  H18U 8707   3.410   5.441  15.255
   6723SM   C1F 8708   3.243   6.039  17.082
   6723SM    OF 8709   3.337   5.982  17.136
   6723SM   C2F 8710   3.244   6.188  17.067
   6723SM   H2F 8711   3.316   6.230  17.141
   6723SM   H2G 8712   3.144   6.231  17.087
   6723SM   C3F 8713   3.297   6.224  16.929
   6723SM   H3F 8714   3.393   6.170  16.911
   6723SM   H3G 8715   3.324   6.332  16.923
   6723SM   C4F 8716   3.200   6.186  16.819
   6723SM   H4F 8717   3.098   6.228  16.834
   6723SM   H4G 8718   3.189   6.075  16.816
   6723SM   C5F 8719   3.259   6.226  16.687
   6723SM   H5F 8720   3.370   6.215  16.693
   6723SM   H5G 8721   3.237   6.332  16.662
   6723SM   C6F 8722   3.214   6.133  16.576
   6723SM   H6F 8723   3.104   6.146  16.561
   6723SM   H6G 8724   3.232   6.026  16.603
   6723SM   C7F 8725   3.293   6.168  16.453
   6723SM   H7F 8726   3.401   6.147  16.469
   6723SM   H7G 8727   3.281   6.278  16.440
   6723SM   C8F 8728   3.246   6.097  16.328
   6723SM   H8F 8729   3.279   5.991  16.330
   6723SM   H8G 8730   3.299   6.142  16.241
   6723SM   C9F 8731   3.094   6.106  16.304
   6723SM   H9F 8732   3.055   6.204  16.340
   6723SM   H9G 8733   3.041   6.026  16.361
   6723SM  C10F 8734   3.072   6.095  16.153
   6723SM  H10F 8735   3.125   6.004  16.119
   6723SM  H10G 8736   3.123   6.181  16.106
   6723SM  C11F 8737   2.930   6.089  16.098
   6723SM  H11F 8738   2.880   6.186  16.115
   6723SM  H11G 8739   2.871   6.011  16.151
   6723SM  C12F 8740   2.936   6.056  15.947
   6723SM  H12F 8741   2.835   6.033  15.909
   6723SM  H12G 8742   2.997   5.963  15.934
   6723SM  C13F 8743   2.999   6.168  15.862
   6723SM  H13F 8744   3.105   6.178  15.889
   6723SM  H13G 8745   2.946   6.262  15.890
   6723SM  C14F 8746   2.984   6.150  15.708
   6723SM  H14F 8747   2.988   6.250  15.660
   6723SM  H14G 8748   2.881   6.111  15.693
   6723SM  C15F 8749   3.081   6.054  15.637
   6723SM  H15F 8750   3.019   5.978  15.585
   6723SM  H15G 8751   3.145   6.001  15.711
   6723SM  C16F 8752   3.171   6.111  15.524
   6723SM  H16F 8753   3.254   6.169  15.566
   6723SM  H16G 8754   3.114   6.181  15.459
   6723SM  C17F 8755   3.234   6.001  15.436
   6723SM  H17F 8756   3.157   5.928  15.401
   6723SM  H17G 8757   3.304   5.944  15.502
   6723SM  C18F 8758   3.315   6.057  15.317
   6723SM  H18F 8759   3.371   5.972  15.271
   6723SM  H18G 8760   3.390   6.129  15.357
   6723SM  C19F 8761   3.235   6.123  15.202
   6723SM  H19F 8762   3.299   6.200  15.152
   6723SM  H19G 8763   3.150   6.181  15.242
   6723SM  C20F 8764   3.200   6.013  15.100
   6723SM  H20F 8765   3.184   5.921  15.161
   6723SM  H20G 8766   3.291   5.995  15.039
   6723SM  C21F 8767   3.076   6.013  15.007
   6723SM  H21F 8768   2.994   5.966  15.066
   6723SM  H21G 8769   3.100   5.944  14.923
   6723SM  C22F 8770   3.010   6.139  14.948
   6723SM  H22F 8771   3.030   6.140  14.838
   6723SM  H22G 8772   3.050   6.233  14.991
   6723SM  C23F 8773   2.857   6.128  14.965
   6723SM  H23F 8774   2.801   6.205  14.910
   6723SM  H23G 8775   2.827   6.138  15.071
   6723SM  H23H 8776   2.822   6.028  14.932
   6823SM     N 8777   3.392   1.410  17.678
   6823SM   C15 8778   3.323   1.438  17.809
   6823SM  H15A 8779   3.285   1.347  17.855
   6823SM  H15B 8780   3.239   1.506  17.797
   6823SM  H15C 8781   3.390   1.483  17.882
   6823SM   C14 8782   3.496   1.305  17.699
   6823SM  H14A 8783   3.552   1.287  17.607
   6823SM  H14B 8784   3.450   1.211  17.729
   6823SM  H14C 8785   3.564   1.333  17.778
   6823SM   C13 8786   3.289   1.357  17.581
   6823SM  H13A 8787   3.225   1.440  17.550
   6823SM  H13B 8788   3.230   1.278  17.624
   6823SM  H13C 8789   3.333   1.318  17.489
   6823SM   C12 8790   3.459   1.532  17.617
   6823SM  H12A 8791   3.497   1.508  17.517
   6823SM  H12B 8792   3.547   1.560  17.673
   6823SM   C11 8793   3.372   1.658  17.600
   6823SM  H11A 8794   3.438   1.742  17.569
   6823SM  H11B 8795   3.327   1.682  17.699
   6823SM     P 8796   3.162   1.747  17.487
   6823SM   O13 8797   3.082   1.754  17.610
   6823SM   O14 8798   3.221   1.873  17.441
   6823SM   O11 8799   3.068   1.692  17.374
   6823SM   O12 8800   3.273   1.633  17.500
   6823SM   C1S 8801   3.104   1.588  17.284
   6823SM   H1S 8802   3.061   1.492  17.321
   6823SM   H1T 8803   3.214   1.574  17.274
   6823SM    NF 8804   3.058   1.508  17.055
   6823SM   HNF 8805   3.105   1.528  16.969
   6823SM   C2S 8806   3.045   1.620  17.145
   6823SM   H2S 8807   2.936   1.642  17.157
   6823SM   C3S 8808   3.112   1.747  17.085
   6823SM   H3S 8809   3.222   1.733  17.085
   6823SM    O3 8810   3.087   1.867  17.156
   6823SM   HO3 8811   3.070   1.840  17.247
   6823SM   C4S 8812   3.065   1.756  16.941
   6823SM   H4S 8813   3.139   1.716  16.871
   6823SM   C5S 8814   2.950   1.806  16.894
   6823SM   H5S 8815   2.882   1.856  16.966
   6823SM   C6S 8816   2.907   1.809  16.749
   6823SM   H6S 8817   2.894   1.915  16.717
   6823SM   H6T 8818   2.806   1.762  16.746
   6823SM   C7S 8819   2.991   1.737  16.640
   6823SM   H7S 8820   2.990   1.627  16.659
   6823SM   H7T 8821   3.097   1.770  16.645
   6823SM   C8S 8822   2.937   1.764  16.498
   6823SM   H8S 8823   2.942   1.874  16.480
   6823SM   H8T 8824   2.829   1.734  16.496
   6823SM   C9S 8825   3.008   1.694  16.380
   6823SM   H9S 8826   2.996   1.585  16.393
   6823SM   H9T 8827   3.117   1.715  16.384
   6823SM  C10S 8828   2.954   1.739  16.240
   6823SM  H10S 8829   3.003   1.833  16.209
   6823SM  H10T 8830   2.846   1.756  16.256
   6823SM  C11S 8831   2.954   1.633  16.128
   6823SM  H11S 8832   2.864   1.574  16.148
   6823SM  H11T 8833   3.040   1.564  16.139
   6823SM  C12S 8834   2.934   1.670  15.979
   6823SM  H12S 8835   2.996   1.757  15.951
   6823SM  H12T 8836   2.828   1.697  15.964
   6823SM  C13S 8837   2.963   1.546  15.891
   6823SM  H13S 8838   2.916   1.457  15.937
   6823SM  H13T 8839   3.072   1.530  15.890
   6823SM  C14S 8840   2.919   1.555  15.744
   6823SM  H14S 8841   2.957   1.652  15.704
   6823SM  H14T 8842   2.809   1.557  15.736
   6823SM  C15S 8843   2.976   1.441  15.654
   6823SM  H15S 8844   2.914   1.350  15.667
   6823SM  H15T 8845   3.080   1.416  15.685
   6823SM  C16S 8846   2.977   1.486  15.507
   6823SM  H16S 8847   3.053   1.566  15.495
   6823SM  H16T 8848   2.877   1.529  15.486
   6823SM  C17S 8849   3.006   1.383  15.396
   6823SM  H17S 8850   2.936   1.297  15.405
   6823SM  H17T 8851   3.110   1.345  15.408
   6823SM  C18S 8852   2.991   1.446  15.257
   6823SM  H18S 8853   3.025   1.378  15.176
   6823SM  H18T 8854   3.050   1.540  15.250
   6823SM  H18U 8855   2.885   1.473  15.237
   6823SM   C1F 8856   2.995   1.393  17.069
   6823SM    OF 8857   2.924   1.371  17.166
   6823SM   C2F 8858   3.006   1.300  16.953
   6823SM   H2F 8859   3.007   1.359  16.858
   6823SM   H2G 8860   2.914   1.237  16.952
   6823SM   C3F 8861   3.128   1.205  16.957
   6823SM   H3F 8862   3.136   1.159  16.856
   6823SM   H3G 8863   3.103   1.122  17.028
   6823SM   C4F 8864   3.265   1.263  16.996
   6823SM   H4F 8865   3.337   1.178  16.987
   6823SM   H4G 8866   3.264   1.294  17.103
   6823SM   C5F 8867   3.317   1.377  16.908
   6823SM   H5F 8868   3.274   1.474  16.939
   6823SM   H5G 8869   3.285   1.358  16.802
   6823SM   C6F 8870   3.470   1.392  16.913
   6823SM   H6F 8871   3.516   1.295  16.887
   6823SM   H6G 8872   3.500   1.417  17.018
   6823SM   C7F 8873   3.523   1.500  16.818
   6823SM   H7F 8874   3.629   1.517  16.844
   6823SM   H7G 8875   3.470   1.596  16.834
   6823SM   C8F 8876   3.513   1.460  16.669
   6823SM   H8F 8877   3.407   1.475  16.638
   6823SM   H8G 8878   3.537   1.352  16.657
   6823SM   C9F 8879   3.605   1.540  16.576
   6823SM   H9F 8880   3.710   1.508  16.592
   6823SM   H9G 8881   3.599   1.648  16.601
   6823SM  C10F 8882   3.581   1.518  16.427
   6823SM  H10F 8883   3.603   1.412  16.401
   6823SM  H10G 8884   3.652   1.583  16.370
   6823SM  C11F 8885   3.440   1.544  16.378
   6823SM  H11F 8886   3.404   1.642  16.415
   6823SM  H11G 8887   3.370   1.466  16.415
   6823SM  C12F 8888   3.438   1.545  16.225
   6823SM  H12F 8889   3.468   1.445  16.184
   6823SM  H12G 8890   3.512   1.619  16.189
   6823SM  C13F 8891   3.300   1.584  16.178
   6823SM  H13F 8892   3.275   1.683  16.222
   6823SM  H13G 8893   3.226   1.513  16.222
   6823SM  C14F 8894   3.278   1.594  16.027
   6823SM  H14F 8895   3.185   1.653  16.021
   6823SM  H14G 8896   3.260   1.494  15.983
   6823SM  C15F 8897   3.376   1.673  15.942
   6823SM  H15F 8898   3.456   1.607  15.903
   6823SM  H15G 8899   3.424   1.754  16.003
   6823SM  C16F 8900   3.302   1.742  15.826
   6823SM  H16F 8901   3.361   1.832  15.798
   6823SM  H16G 8902   3.202   1.777  15.857
   6823SM  C17F 8903   3.290   1.659  15.698
   6823SM  H17F 8904   3.203   1.591  15.704
   6823SM  H17G 8905   3.381   1.597  15.685
   6823SM  C18F 8906   3.275   1.750  15.576
   6823SM  H18F 8907   3.329   1.846  15.590
   6823SM  H18G 8908   3.167   1.775  15.565
   6823SM  C19F 8909   3.324   1.685  15.447
   6823SM  H19F 8910   3.289   1.579  15.447
   6823SM  H19G 8911   3.435   1.684  15.446
   6823SM  C20F 8912   3.271   1.753  15.321
   6823SM  H20F 8913   3.160   1.757  15.323
   6823SM  H20G 8914   3.300   1.686  15.238
   6823SM  C21F 8915   3.325   1.895  15.298
   6823SM  H21F 8916   3.435   1.897  15.312
   6823SM  H21G 8917   3.280   1.965  15.372
   6823SM  C22F 8918   3.293   1.944  15.156
   6823SM  H22F 8919   3.330   2.049  15.145
   6823SM  H22G 8920   3.183   1.945  15.143
   6823SM  C23F 8921   3.357   1.859  15.046
   6823SM  H23F 8922   3.321   1.889  14.947
   6823SM  H23G 8923   3.330   1.752  15.055
   6823SM  H23H 8924   3.467   1.869  15.048
   6923SM     N 8925   5.424   2.074  17.791
   6923SM   C15 8926   5.278   2.040  17.792
   6923SM  H15A 8927   5.226   2.085  17.875
   6923SM  H15B 8928   5.266   1.933  17.798
   6923SM  H15C 8929   5.234   2.071  17.697
   6923SM   C14 8930   5.445   2.222  17.802
   6923SM  H14A 8931   5.397   2.274  17.719
   6923SM  H14B 8932   5.551   2.248  17.808
   6923SM  H14C 8933   5.403   2.262  17.894
   6923SM   C13 8934   5.486   2.009  17.910
   6923SM  H13A 8935   5.435   2.044  18.000
   6923SM  H13B 8936   5.589   2.042  17.924
   6923SM  H13C 8937   5.486   1.901  17.907
   6923SM   C12 8938   5.484   2.017  17.663
   6923SM  H12A 8939   5.449   1.914  17.652
   6923SM  H12B 8940   5.592   2.014  17.671
   6923SM   C11 8941   5.446   2.087  17.531
   6923SM  H11A 8942   5.503   2.033  17.451
   6923SM  H11B 8943   5.485   2.191  17.534
   6923SM     P 8944   5.237   1.976  17.416
   6923SM   O13 8945   5.249   1.849  17.491
   6923SM   O14 8946   5.101   2.017  17.378
   6923SM   O11 8947   5.328   1.974  17.285
   6923SM   O12 8948   5.306   2.090  17.506
   6923SM   C1S 8949   5.371   2.098  17.226
   6923SM   H1S 8950   5.480   2.113  17.247
   6923SM   H1T 8951   5.316   2.187  17.265
   6923SM    NF 8952   5.211   2.095  17.043
   6923SM   HNF 8953   5.163   2.009  17.048
   6923SM   C2S 8954   5.354   2.098  17.072
   6923SM   H2S 8955   5.396   2.193  17.032
   6923SM   C3S 8956   5.431   1.980  17.007
   6923SM   H3S 8957   5.399   1.883  17.048
   6923SM    O3 8958   5.574   1.985  17.023
   6923SM   HO3 8959   5.593   2.062  17.077
   6923SM   C4S 8960   5.405   1.989  16.859
   6923SM   H4S 8961   5.456   2.072  16.809
   6923SM   C5S 8962   5.334   1.902  16.785
   6923SM   H5S 8963   5.288   1.814  16.832
   6923SM   C6S 8964   5.311   1.920  16.637
   6923SM   H6S 8965   5.315   2.029  16.611
   6923SM   H6T 8966   5.208   1.884  16.615
   6923SM   C7S 8967   5.404   1.850  16.538
   6923SM   H7S 8968   5.406   1.742  16.563
   6923SM   H7T 8969   5.506   1.892  16.553
   6923SM   C8S 8970   5.369   1.865  16.388
   6923SM   H8S 8971   5.394   1.967  16.353
   6923SM   H8T 8972   5.261   1.848  16.368
   6923SM   C9S 8973   5.455   1.762  16.314
   6923SM   H9S 8974   5.435   1.660  16.352
   6923SM   H9T 8975   5.557   1.788  16.340
   6923SM  C10S 8976   5.458   1.764  16.162
   6923SM  H10S 8977   5.566   1.761  16.130
   6923SM  H10T 8978   5.415   1.860  16.125
   6923SM  C11S 8979   5.390   1.642  16.101
   6923SM  H11S 8980   5.317   1.601  16.172
   6923SM  H11T 8981   5.468   1.564  16.084
   6923SM  C12S 8982   5.320   1.677  15.971
   6923SM  H12S 8983   5.245   1.757  15.992
   6923SM  H12T 8984   5.266   1.589  15.929
   6923SM  C13S 8985   5.421   1.732  15.872
   6923SM  H13S 8986   5.499   1.656  15.854
   6923SM  H13T 8987   5.471   1.822  15.915
   6923SM  C14S 8988   5.361   1.775  15.740
   6923SM  H14S 8989   5.288   1.859  15.756
   6923SM  H14T 8990   5.305   1.691  15.693
   6923SM  C15S 8991   5.475   1.821  15.649
   6923SM  H15S 8992   5.550   1.740  15.639
   6923SM  H15T 8993   5.525   1.908  15.696
   6923SM  C16S 8994   5.421   1.858  15.513
   6923SM  H16S 8995   5.357   1.948  15.528
   6923SM  H16T 8996   5.356   1.775  15.477
   6923SM  C17S 8997   5.526   1.887  15.407
   6923SM  H17S 8998   5.584   1.796  15.382
   6923SM  H17T 8999   5.596   1.966  15.443
   6923SM  C18S 9000   5.456   1.935  15.282
   6923SM  H18S 9001   5.413   1.852  15.222
   6923SM  H18T 9002   5.523   1.994  15.216
   6923SM  H18U 9003   5.374   2.000  15.315
   6923SM   C1F 9004   5.143   2.210  17.047
   6923SM    OF 9005   5.195   2.313  17.089
   6923SM   C2F 9006   5.005   2.208  16.992
   6923SM   H2F 9007   4.930   2.244  17.066
   6923SM   H2G 9008   4.974   2.107  16.957
   6923SM   C3F 9009   5.000   2.302  16.871
   6923SM   H3F 9010   5.016   2.409  16.896
   6923SM   H3G 9011   4.892   2.294  16.850
   6923SM   C4F 9012   5.086   2.257  16.753
   6923SM   H4F 9013   5.193   2.248  16.784
   6923SM   H4G 9014   5.083   2.334  16.672
   6923SM   C5F 9015   5.040   2.123  16.695
   6923SM   H5F 9016   4.930   2.114  16.704
   6923SM   H5G 9017   5.085   2.040  16.754
   6923SM   C6F 9018   5.077   2.113  16.547
   6923SM   H6F 9019   5.089   2.009  16.511
   6923SM   H6G 9020   5.175   2.166  16.533
   6923SM   C7F 9021   4.974   2.181  16.458
   6923SM   H7F 9022   4.921   2.256  16.519
   6923SM   H7G 9023   4.898   2.107  16.425
   6923SM   C8F 9024   5.039   2.257  16.344
   6923SM   H8F 9025   5.103   2.337  16.386
   6923SM   H8G 9026   4.960   2.307  16.285
   6923SM   C9F 9027   5.122   2.165  16.256
   6923SM   H9F 9028   5.190   2.104  16.320
   6923SM   H9G 9029   5.186   2.224  16.187
   6923SM  C10F 9030   5.032   2.071  16.177
   6923SM  H10F 9031   4.962   2.018  16.245
   6923SM  H10G 9032   5.094   1.994  16.125
   6923SM  C11F 9033   4.950   2.144  16.072
   6923SM  H11F 9034   4.881   2.220  16.114
   6923SM  H11G 9035   4.885   2.064  16.031
   6923SM  C12F 9036   5.039   2.210  15.967
   6923SM  H12F 9037   5.130   2.147  15.952
   6923SM  H12G 9038   5.075   2.309  16.004
   6923SM  C13F 9039   4.969   2.228  15.833
   6923SM  H13F 9040   5.041   2.266  15.757
   6923SM  H13G 9041   4.889   2.305  15.844
   6923SM  C14F 9042   4.904   2.098  15.783
   6923SM  H14F 9043   4.853   2.119  15.688
   6923SM  H14G 9044   4.822   2.066  15.850
   6923SM  C15F 9045   4.995   1.977  15.769
   6923SM  H15F 9046   4.934   1.890  15.802
   6923SM  H15G 9047   5.085   1.982  15.833
   6923SM  C16F 9048   5.031   1.953  15.624
   6923SM  H16F 9049   4.936   1.945  15.568
   6923SM  H16G 9050   5.086   1.857  15.609
   6923SM  C17F 9051   5.109   2.068  15.560
   6923SM  H17F 9052   5.207   2.079  15.609
   6923SM  H17G 9053   5.052   2.162  15.570
   6923SM  C18F 9054   5.118   2.031  15.414
   6923SM  H18F 9055   5.016   2.001  15.382
   6923SM  H18G 9056   5.182   1.940  15.405
   6923SM  C19F 9057   5.163   2.135  15.313
   6923SM  H19F 9058   5.264   2.171  15.344
   6923SM  H19G 9059   5.096   2.223  15.310
   6923SM  C20F 9060   5.166   2.059  15.180
   6923SM  H20F 9061   5.213   1.960  15.196
   6923SM  H20G 9062   5.227   2.107  15.102
   6923SM  C21F 9063   5.030   2.031  15.119
   6923SM  H21F 9064   4.974   2.128  15.118
   6923SM  H21G 9065   4.973   1.959  15.180
   6923SM  C22F 9066   5.049   1.986  14.974
   6923SM  H22F 9067   5.090   2.079  14.931
   6923SM  H22G 9068   4.955   1.973  14.921
   6923SM  C23F 9069   5.147   1.871  14.939
   6923SM  H23F 9070   5.221   1.907  14.865
   6923SM  H23G 9071   5.095   1.784  14.893
   6923SM  H23H 9072   5.201   1.835  15.029
   7023SM     N 9073   4.759   1.594  17.786
   7023SM   C15 9074   4.819   1.467  17.734
   7023SM  H15A 9075   4.788   1.450  17.630
   7023SM  H15B 9076   4.787   1.379  17.791
   7023SM  H15C 9077   4.927   1.472  17.738
   7023SM   C14 9078   4.614   1.567  17.810
   7023SM  H14A 9079   4.570   1.525  17.719
   7023SM  H14B 9080   4.559   1.656  17.832
   7023SM  H14C 9081   4.600   1.495  17.889
   7023SM   C13 9082   4.830   1.624  17.912
   7023SM  H13A 9083   4.933   1.651  17.892
   7023SM  H13B 9084   4.835   1.536  17.976
   7023SM  H13C 9085   4.781   1.703  17.968
   7023SM   C12 9086   4.781   1.705  17.685
   7023SM  H12A 9087   4.883   1.695  17.648
   7023SM  H12B 9088   4.771   1.803  17.731
   7023SM   C11 9089   4.692   1.704  17.559
   7023SM  H11A 9090   4.724   1.787  17.491
   7023SM  H11B 9091   4.587   1.725  17.588
   7023SM     P 9092   4.588   1.512  17.418
   7023SM   O13 9093   4.620   1.369  17.397
   7023SM   O14 9094   4.465   1.546  17.491
   7023SM   O11 9095   4.590   1.589  17.279
   7023SM   O12 9096   4.711   1.579  17.492
   7023SM   C1S 9097   4.716   1.636  17.229
   7023SM   H1S 9098   4.802   1.570  17.258
   7023SM   H1T 9099   4.736   1.738  17.269
   7023SM    NF 9100   4.831   1.571  17.019
   7023SM   HNF 9101   4.914   1.625  17.005
   7023SM   C2S 9102   4.717   1.645  17.074
   7023SM   H2S 9103   4.622   1.600  17.035
   7023SM   C3S 9104   4.720   1.794  17.031
   7023SM   H3S 9105   4.810   1.844  17.073
   7023SM    O3 9106   4.608   1.873  17.073
   7023SM   HO3 9107   4.573   1.830  17.152
   7023SM   C4S 9108   4.723   1.796  16.882
   7023SM   H4S 9109   4.625   1.775  16.836
   7023SM   C5S 9110   4.828   1.825  16.804
   7023SM   H5S 9111   4.925   1.851  16.849
   7023SM   C6S 9112   4.821   1.823  16.654
   7023SM   H6S 9113   4.837   1.925  16.613
   7023SM   H6T 9114   4.721   1.790  16.617
   7023SM   C7S 9115   4.926   1.728  16.596
   7023SM   H7S 9116   4.913   1.625  16.633
   7023SM   H7T 9117   5.027   1.762  16.626
   7023SM   C8S 9118   4.916   1.729  16.443
   7023SM   H8S 9119   4.919   1.837  16.413
   7023SM   H8T 9120   4.819   1.688  16.409
   7023SM   C9S 9121   5.031   1.660  16.371
   7023SM   H9S 9122   5.017   1.549  16.367
   7023SM   H9T 9123   5.126   1.681  16.424
   7023SM  C10S 9124   5.043   1.718  16.230
   7023SM  H10S 9125   5.136   1.682  16.183
   7023SM  H10T 9126   5.052   1.828  16.240
   7023SM  C11S 9127   4.928   1.685  16.135
   7023SM  H11S 9128   4.836   1.743  16.158
   7023SM  H11T 9129   4.904   1.577  16.145
   7023SM  C12S 9130   4.976   1.710  15.991
   7023SM  H12S 9131   5.068   1.651  15.978
   7023SM  H12T 9132   5.000   1.818  15.979
   7023SM  C13S 9133   4.875   1.657  15.891
   7023SM  H13S 9134   4.780   1.715  15.901
   7023SM  H13T 9135   4.859   1.554  15.929
   7023SM  C14S 9136   4.912   1.639  15.742
   7023SM  H14S 9137   4.943   1.533  15.724
   7023SM  H14T 9138   5.000   1.701  15.715
   7023SM  C15S 9139   4.789   1.672  15.656
   7023SM  H15S 9140   4.747   1.768  15.695
   7023SM  H15T 9141   4.710   1.596  15.669
   7023SM  C16S 9142   4.803   1.695  15.506
   7023SM  H16S 9143   4.825   1.803  15.493
   7023SM  H16T 9144   4.705   1.678  15.456
   7023SM  C17S 9145   4.910   1.627  15.422
   7023SM  H17S 9146   4.881   1.523  15.396
   7023SM  H17T 9147   5.009   1.625  15.473
   7023SM  C18S 9148   4.916   1.712  15.297
   7023SM  H18S 9149   4.967   1.662  15.213
   7023SM  H18T 9150   4.973   1.805  15.321
   7023SM  H18U 9151   4.814   1.741  15.263
   7023SM   C1F 9152   4.822   1.440  16.997
   7023SM    OF 9153   4.740   1.370  17.054
   7023SM   C2F 9154   4.911   1.381  16.892
   7023SM   H2F 9155   4.977   1.305  16.939
   7023SM   H2G 9156   4.973   1.461  16.846
   7023SM   C3F 9157   4.822   1.314  16.784
   7023SM   H3F 9158   4.770   1.226  16.828
   7023SM   H3G 9159   4.889   1.275  16.704
   7023SM   C4F 9160   4.715   1.409  16.726
   7023SM   H4F 9161   4.763   1.500  16.685
   7023SM   H4G 9162   4.647   1.443  16.807
   7023SM   C5F 9163   4.626   1.348  16.618
   7023SM   H5F 9164   4.542   1.417  16.596
   7023SM   H5G 9165   4.583   1.253  16.658
   7023SM   C6F 9166   4.700   1.320  16.488
   7023SM   H6F 9167   4.793   1.266  16.516
   7023SM   H6G 9168   4.731   1.413  16.436
   7023SM   C7F 9169   4.618   1.229  16.397
   7023SM   H7F 9170   4.573   1.154  16.465
   7023SM   H7G 9171   4.685   1.177  16.324
   7023SM   C8F 9172   4.500   1.293  16.323
   7023SM   H8F 9173   4.433   1.343  16.397
   7023SM   H8G 9174   4.441   1.213  16.273
   7023SM   C9F 9175   4.543   1.394  16.218
   7023SM   H9F 9176   4.626   1.457  16.257
   7023SM   H9G 9177   4.459   1.461  16.194
   7023SM  C10F 9178   4.589   1.325  16.089
   7023SM  H10F 9179   4.506   1.270  16.044
   7023SM  H10G 9180   4.670   1.252  16.110
   7023SM  C11F 9181   4.640   1.431  15.993
   7023SM  H11F 9182   4.718   1.487  16.050
   7023SM  H11G 9183   4.559   1.504  15.968
   7023SM  C12F 9184   4.701   1.372  15.866
   7023SM  H12F 9185   4.790   1.311  15.892
   7023SM  H12G 9186   4.737   1.456  15.805
   7023SM  C13F 9187   4.608   1.294  15.775
   7023SM  H13F 9188   4.511   1.350  15.767
   7023SM  H13G 9189   4.587   1.194  15.817
   7023SM  C14F 9190   4.666   1.284  15.633
   7023SM  H14F 9191   4.671   1.387  15.590
   7023SM  H14G 9192   4.594   1.224  15.573
   7023SM  C15F 9193   4.808   1.222  15.621
   7023SM  H15F 9194   4.802   1.114  15.647
   7023SM  H15G 9195   4.878   1.270  15.692
   7023SM  C16F 9196   4.869   1.236  15.480
   7023SM  H16F 9197   4.959   1.172  15.470
   7023SM  H16G 9198   4.903   1.341  15.470
   7023SM  C17F 9199   4.770   1.204  15.368
   7023SM  H17F 9200   4.672   1.252  15.388
   7023SM  H17G 9201   4.754   1.094  15.366
   7023SM  C18F 9202   4.805   1.255  15.230
   7023SM  H18F 9203   4.900   1.211  15.192
   7023SM  H18G 9204   4.817   1.366  15.234
   7023SM  C19F 9205   4.690   1.224  15.135
   7023SM  H19F 9206   4.593   1.260  15.177
   7023SM  H19G 9207   4.681   1.116  15.125
   7023SM  C20F 9208   4.708   1.280  14.996
   7023SM  H20F 9209   4.803   1.242  14.952
   7023SM  H20G 9210   4.720   1.389  15.003
   7023SM  C21F 9211   4.588   1.244  14.908
   7023SM  H21F 9212   4.493   1.261  14.963
   7023SM  H21G 9213   4.593   1.136  14.881
   7023SM  C22F 9214   4.590   1.329  14.782
   7023SM  H22F 9215   4.523   1.284  14.705
   7023SM  H22G 9216   4.694   1.327  14.746
   7023SM  C23F 9217   4.556   1.477  14.799
   7023SM  H23F 9218   4.580   1.536  14.709
   7023SM  H23G 9219   4.610   1.522  14.885
   7023SM  H23H 9220   4.448   1.483  14.821
   7123SM     N 9221   4.596   6.549  17.693
   7123SM   C15 9222   4.736   6.567  17.744
   7123SM  H15A 9223   4.771   6.668  17.719
   7123SM  H15B 9224   4.804   6.500  17.694
   7123SM  H15C 9225   4.744   6.552  17.851
   7123SM   C14 9226   4.543   6.416  17.736
   7123SM  H14A 9227   4.599   6.335  17.690
   7123SM  H14B 9228   4.438   6.402  17.714
   7123SM  H14C 9229   4.560   6.399  17.842
   7123SM   C13 9230   4.511   6.659  17.748
   7123SM  H13A 9231   4.544   6.753  17.703
   7123SM  H13B 9232   4.518   6.669  17.856
   7123SM  H13C 9233   4.408   6.645  17.720
   7123SM   C12 9234   4.598   6.561  17.541
   7123SM  H12A 9235   4.502   6.532  17.501
   7123SM  H12B 9236   4.674   6.495  17.501
   7123SM   C11 9237   4.633   6.699  17.480
   7123SM  H11A 9238   4.568   6.779  17.522
   7123SM  H11B 9239   4.612   6.694  17.370
   7123SM     P 9240   4.830   6.869  17.471
   7123SM   O13 9241   4.731   6.968  17.519
   7123SM   O14 9242   4.967   6.880  17.527
   7123SM   O11 9243   4.842   6.876  17.311
   7123SM   O12 9244   4.771   6.725  17.502
   7123SM   C1S 9245   4.890   6.760  17.243
   7123SM   H1S 9246   4.853   6.666  17.290
   7123SM   H1T 9247   5.001   6.757  17.245
   7123SM    NF 9248   4.832   6.621  17.040
   7123SM   HNF 9249   4.872   6.611  16.950
   7123SM   C2S 9250   4.839   6.757  17.096
   7123SM   H2S 9251   4.736   6.799  17.095
   7123SM   C3S 9252   4.929   6.846  17.005
   7123SM   H3S 9253   5.033   6.807  17.009
   7123SM    O3 9254   4.936   6.985  17.040
   7123SM   HO3 9255   4.908   6.989  17.133
   7123SM   C4S 9256   4.874   6.829  16.865
   7123SM   H4S 9257   4.774   6.872  16.852
   7123SM   C5S 9258   4.932   6.768  16.760
   7123SM   H5S 9259   5.035   6.729  16.767
   7123SM   C6S 9260   4.864   6.756  16.626
   7123SM   H6S 9261   4.754   6.772  16.635
   7123SM   H6T 9262   4.877   6.653  16.586
   7123SM   C7S 9263   4.915   6.855  16.522
   7123SM   H7S 9264   5.023   6.835  16.505
   7123SM   H7T 9265   4.902   6.959  16.559
   7123SM   C8S 9266   4.841   6.841  16.388
   7123SM   H8S 9267   4.732   6.853  16.405
   7123SM   H8T 9268   4.858   6.739  16.347
   7123SM   C9S 9269   4.888   6.945  16.287
   7123SM   H9S 9270   4.997   6.933  16.267
   7123SM   H9T 9271   4.872   7.047  16.329
   7123SM  C10S 9272   4.814   6.933  16.154
   7123SM  H10S 9273   4.713   6.889  16.172
   7123SM  H10T 9274   4.873   6.861  16.093
   7123SM  C11S 9275   4.796   7.067  16.084
   7123SM  H11S 9276   4.887   7.128  16.106
   7123SM  H11T 9277   4.711   7.121  16.131
   7123SM  C12S 9278   4.777   7.067  15.931
   7123SM  H12S 9279   4.819   7.163  15.896
   7123SM  H12T 9280   4.669   7.067  15.904
   7123SM  C13S 9281   4.849   6.957  15.854
   7123SM  H13S 9282   4.789   6.866  15.842
   7123SM  H13T 9283   4.942   6.927  15.906
   7123SM  C14S 9284   4.885   7.007  15.714
   7123SM  H14S 9285   4.914   7.114  15.717
   7123SM  H14T 9286   4.797   6.997  15.648
   7123SM  C15S 9287   5.004   6.932  15.656
   7123SM  H15S 9288   4.993   6.823  15.669
   7123SM  H15T 9289   5.093   6.955  15.714
   7123SM  C16S 9290   5.016   6.967  15.508
   7123SM  H16S 9291   5.123   6.972  15.479
   7123SM  H16T 9292   4.966   7.063  15.486
   7123SM  C17S 9293   4.949   6.854  15.434
   7123SM  H17S 9294   4.855   6.831  15.490
   7123SM  H17T 9295   5.024   6.775  15.448
   7123SM  C18S 9296   4.913   6.862  15.288
   7123SM  H18S 9297   4.918   6.965  15.249
   7123SM  H18T 9298   4.812   6.820  15.270
   7123SM  H18U 9299   4.983   6.794  15.234
   7123SM   C1F 9300   4.755   6.521  17.083
   7123SM    OF 9301   4.685   6.528  17.182
   7123SM   C2F 9302   4.757   6.402  16.995
   7123SM   H2F 9303   4.785   6.312  17.054
   7123SM   H2G 9304   4.833   6.418  16.915
   7123SM   C3F 9305   4.618   6.384  16.932
   7123SM   H3F 9306   4.583   6.476  16.881
   7123SM   H3G 9307   4.544   6.360  17.012
   7123SM   C4F 9308   4.620   6.269  16.832
   7123SM   H4F 9309   4.517   6.248  16.795
   7123SM   H4G 9310   4.652   6.179  16.889
   7123SM   C5F 9311   4.716   6.285  16.712
   7123SM   H5F 9312   4.699   6.199  16.643
   7123SM   H5G 9313   4.821   6.276  16.748
   7123SM   C6F 9314   4.701   6.418  16.637
   7123SM   H6F 9315   4.781   6.424  16.560
   7123SM   H6G 9316   4.716   6.502  16.708
   7123SM   C7F 9317   4.566   6.440  16.566
   7123SM   H7F 9318   4.482   6.422  16.637
   7123SM   H7G 9319   4.557   6.366  16.484
   7123SM   C8F 9320   4.559   6.583  16.510
   7123SM   H8F 9321   4.652   6.603  16.453
   7123SM   H8G 9322   4.558   6.654  16.596
   7123SM   C9F 9323   4.437   6.611  16.420
   7123SM   H9F 9324   4.423   6.720  16.408
   7123SM   H9G 9325   4.347   6.570  16.472
   7123SM  C10F 9326   4.448   6.545  16.282
   7123SM  H10F 9327   4.352   6.557  16.227
   7123SM  H10G 9328   4.462   6.436  16.301
   7123SM  C11F 9329   4.562   6.591  16.188
   7123SM  H11F 9330   4.593   6.501  16.132
   7123SM  H11G 9331   4.650   6.625  16.246
   7123SM  C12F 9332   4.526   6.697  16.083
   7123SM  H12F 9333   4.512   6.796  16.134
   7123SM  H12G 9334   4.430   6.674  16.032
   7123SM  C13F 9335   4.636   6.717  15.977
   7123SM  H13F 9336   4.731   6.733  16.031
   7123SM  H13G 9337   4.612   6.807  15.917
   7123SM  C14F 9338   4.670   6.601  15.884
   7123SM  H14F 9339   4.699   6.515  15.947
   7123SM  H14G 9340   4.761   6.628  15.824
   7123SM  C15F 9341   4.557   6.561  15.789
   7123SM  H15F 9342   4.466   6.541  15.847
   7123SM  H15G 9343   4.581   6.464  15.745
   7123SM  C16F 9344   4.526   6.659  15.675
   7123SM  H16F 9345   4.480   6.748  15.723
   7123SM  H16G 9346   4.451   6.614  15.607
   7123SM  C17F 9347   4.645   6.710  15.590
   7123SM  H17F 9348   4.717   6.763  15.656
   7123SM  H17G 9349   4.605   6.787  15.520
   7123SM  C18F 9350   4.722   6.607  15.504
   7123SM  H18F 9351   4.742   6.658  15.407
   7123SM  H18G 9352   4.661   6.519  15.475
   7123SM  C19F 9353   4.862   6.574  15.562
   7123SM  H19F 9354   4.864   6.503  15.646
   7123SM  H19G 9355   4.895   6.667  15.610
   7123SM  C20F 9356   4.969   6.547  15.457
   7123SM  H20F 9357   5.067   6.588  15.491
   7123SM  H20G 9358   4.938   6.600  15.364
   7123SM  C21F 9359   4.999   6.405  15.420
   7123SM  H21F 9360   4.904   6.351  15.410
   7123SM  H21G 9361   5.065   6.354  15.494
   7123SM  C22F 9362   5.054   6.402  15.281
   7123SM  H22F 9363   5.157   6.445  15.273
   7123SM  H22G 9364   4.986   6.462  15.215
   7123SM  C23F 9365   5.048   6.260  15.235
   7123SM  H23F 9366   5.143   6.208  15.256
   7123SM  H23G 9367   5.024   6.258  15.127
   7123SM  H23H 9368   4.966   6.206  15.285
   7223SM     N 9369   6.727   2.663  17.673
   7223SM   C15 9370   6.753   2.766  17.779
   7223SM  H15A 9371   6.665   2.777  17.842
   7223SM  H15B 9372   6.767   2.862  17.730
   7223SM  H15C 9373   6.840   2.740  17.836
   7223SM   C14 9374   6.843   2.654  17.582
   7223SM  H14A 9375   6.935   2.636  17.636
   7223SM  H14B 9376   6.852   2.747  17.526
   7223SM  H14C 9377   6.828   2.576  17.508
   7223SM   C13 9378   6.705   2.531  17.735
   7223SM  H13A 9379   6.698   2.457  17.655
   7223SM  H13B 9380   6.613   2.528  17.791
   7223SM  H13C 9381   6.789   2.503  17.797
   7223SM   C12 9382   6.610   2.706  17.584
   7223SM  H12A 9383   6.517   2.665  17.622
   7223SM  H12B 9384   6.625   2.664  17.485
   7223SM   C11 9385   6.589   2.857  17.565
   7223SM  H11A 9386   6.542   2.898  17.658
   7223SM  H11B 9387   6.517   2.871  17.480
   7223SM     P 9388   6.711   3.077  17.514
   7223SM   O13 9389   6.598   3.118  17.429
   7223SM   O14 9390   6.730   3.143  17.646
   7223SM   O11 9391   6.842   3.102  17.429
   7223SM   O12 9392   6.712   2.922  17.536
   7223SM   C1S 9393   6.896   3.008  17.336
   7223SM   H1S 9394   6.900   2.906  17.380
   7223SM   H1T 9395   7.001   3.037  17.313
   7223SM    NF 9396   6.878   2.881  17.125
   7223SM   HNF 9397   6.931   2.905  17.044
   7223SM   C2S 9398   6.820   2.994  17.199
   7223SM   H2S 9399   6.713   2.975  17.221
   7223SM   C3S 9400   6.824   3.124  17.112
   7223SM   H3S 9401   6.930   3.151  17.092
   7223SM    O3 9402   6.763   3.242  17.163
   7223SM   HO3 9403   6.744   3.222  17.255
   7223SM   C4S 9404   6.765   3.081  16.979
   7223SM   H4S 9405   6.844   3.049  16.910
   7223SM   C5S 9406   6.637   3.069  16.938
   7223SM   H5S 9407   6.555   3.099  17.007
   7223SM   C6S 9408   6.596   3.022  16.800
   7223SM   H6S 9409   6.496   3.063  16.774
   7223SM   H6T 9410   6.587   2.911  16.798
   7223SM   C7S 9411   6.694   3.068  16.691
   7223SM   H7S 9412   6.802   3.052  16.715
   7223SM   H7T 9413   6.677   3.176  16.684
   7223SM   C8S 9414   6.674   3.013  16.550
   7223SM   H8S 9415   6.568   3.024  16.517
   7223SM   H8T 9416   6.702   2.906  16.545
   7223SM   C9S 9417   6.767   3.087  16.454
   7223SM   H9S 9418   6.872   3.063  16.480
   7223SM   H9T 9419   6.757   3.197  16.468
   7223SM  C10S 9420   6.746   3.045  16.308
   7223SM  H10S 9421   6.640   3.017  16.289
   7223SM  H10T 9422   6.808   2.955  16.292
   7223SM  C11S 9423   6.788   3.160  16.215
   7223SM  H11S 9424   6.893   3.186  16.242
   7223SM  H11T 9425   6.723   3.246  16.239
   7223SM  C12S 9426   6.782   3.134  16.064
   7223SM  H12S 9427   6.678   3.113  16.031
   7223SM  H12T 9428   6.841   3.043  16.041
   7223SM  C13S 9429   6.840   3.253  15.985
   7223SM  H13S 9430   6.926   3.295  16.042
   7223SM  H13T 9431   6.764   3.334  15.977
   7223SM  C14S 9432   6.888   3.206  15.847
   7223SM  H14S 9433   6.800   3.165  15.794
   7223SM  H14T 9434   6.959   3.122  15.864
   7223SM  C15S 9435   6.959   3.305  15.752
   7223SM  H15S 9436   7.050   3.348  15.799
   7223SM  H15T 9437   6.891   3.390  15.728
   7223SM  C16S 9438   6.993   3.225  15.625
   7223SM  H16S 9439   6.909   3.155  15.608
   7223SM  H16T 9440   7.084   3.163  15.643
   7223SM  C17S 9441   7.010   3.303  15.494
   7223SM  H17S 9442   7.117   3.329  15.487
   7223SM  H17T 9443   6.956   3.399  15.495
   7223SM  C18S 9444   6.962   3.221  15.373
   7223SM  H18S 9445   7.037   3.144  15.344
   7223SM  H18T 9446   6.942   3.285  15.284
   7223SM  H18U 9447   6.867   3.168  15.396
   7223SM   C1F 9448   6.822   2.761  17.134
   7223SM    OF 9449   6.726   2.740  17.206
   7223SM   C2F 9450   6.872   2.652  17.042
   7223SM   H2F 9451   6.816   2.559  17.067
   7223SM   H2G 9452   6.979   2.632  17.060
   7223SM   C3F 9453   6.845   2.688  16.894
   7223SM   H3F 9454   6.899   2.781  16.865
   7223SM   H3G 9455   6.736   2.708  16.880
   7223SM   C4F 9456   6.885   2.574  16.799
   7223SM   H4F 9457   6.821   2.486  16.824
   7223SM   H4G 9458   6.989   2.541  16.817
   7223SM   C5F 9459   6.866   2.606  16.650
   7223SM   H5F 9460   6.759   2.634  16.633
   7223SM   H5G 9461   6.885   2.512  16.592
   7223SM   C6F 9462   6.956   2.715  16.590
   7223SM   H6F 9463   7.063   2.693  16.612
   7223SM   H6G 9464   6.932   2.814  16.635
   7223SM   C7F 9465   6.938   2.725  16.437
   7223SM   H7F 9466   6.836   2.763  16.415
   7223SM   H7G 9467   6.945   2.623  16.394
   7223SM   C8F 9468   7.041   2.814  16.365
   7223SM   H8F 9469   7.144   2.788  16.396
   7223SM   H8G 9470   7.023   2.920  16.394
   7223SM   C9F 9471   7.029   2.801  16.212
   7223SM   H9F 9472   6.921   2.799  16.186
   7223SM   H9G 9473   7.072   2.703  16.180
   7223SM  C10F 9474   7.095   2.916  16.134
   7223SM  H10F 9475   7.099   3.006  16.200
   7223SM  H10G 9476   7.031   2.943  16.047
   7223SM  C11F 9477   7.235   2.883  16.082
   7223SM  H11F 9478   7.291   2.833  16.165
   7223SM  H11G 9479   7.288   2.978  16.057
   7223SM  C12F 9480   7.238   2.791  15.959
   7223SM  H12F 9481   7.184   2.697  15.981
   7223SM  H12G 9482   7.345   2.764  15.939
   7223SM  C13F 9483   7.180   2.855  15.832
   7223SM  H13F 9484   7.226   2.955  15.816
   7223SM  H13G 9485   7.070   2.869  15.845
   7223SM  C14F 9486   7.207   2.768  15.709
   7223SM  H14F 9487   7.167   2.665  15.726
   7223SM  H14G 9488   7.317   2.759  15.695
   7223SM  C15F 9489   7.145   2.824  15.580
   7223SM  H15F 9490   7.186   2.767  15.494
   7223SM  H15G 9491   7.175   2.930  15.567
   7223SM  C16F 9492   6.992   2.815  15.577
   7223SM  H16F 9493   6.952   2.879  15.659
   7223SM  H16G 9494   6.960   2.711  15.599
   7223SM  C17F 9495   6.931   2.864  15.445
   7223SM  H17F 9496   6.976   2.964  15.424
   7223SM  H17G 9497   6.822   2.879  15.457
   7223SM  C18F 9498   6.957   2.774  15.323
   7223SM  H18F 9499   7.067   2.771  15.306
   7223SM  H18G 9500   6.913   2.820  15.232
   7223SM  C19F 9501   6.904   2.631  15.340
   7223SM  H19F 9502   6.949   2.588  15.432
   7223SM  H19G 9503   6.936   2.568  15.255
   7223SM  C20F 9504   6.752   2.618  15.351
   7223SM  H20F 9505   6.706   2.701  15.408
   7223SM  H20G 9506   6.734   2.525  15.410
   7223SM  C21F 9507   6.685   2.598  15.215
   7223SM  H21F 9508   6.597   2.532  15.228
   7223SM  H21G 9509   6.756   2.544  15.148
   7223SM  C22F 9510   6.637   2.724  15.144
   7223SM  H22F 9511   6.717   2.802  15.144
   7223SM  H22G 9512   6.550   2.766  15.198
   7223SM  C23F 9513   6.599   2.692  14.999
   7223SM  H23F 9514   6.530   2.605  14.997
   7223SM  H23G 9515   6.690   2.665  14.941
   7223SM  H23H 9516   6.550   2.778  14.950
   7323SM     N 9517   5.338   1.069  17.772
   7323SM   C15 9518   5.419   1.193  17.756
   7323SM  H15A 9519   5.481   1.212  17.843
   7323SM  H15B 9520   5.359   1.281  17.738
   7323SM  H15C 9521   5.481   1.182  17.667
   7323SM   C14 9522   5.436   0.961  17.804
   7323SM  H14A 9523   5.492   0.986  17.894
   7323SM  H14B 9524   5.507   0.952  17.723
   7323SM  H14C 9525   5.388   0.864  17.818
   7323SM   C13 9526   5.238   1.082  17.883
   7323SM  H13A 9527   5.284   1.057  17.978
   7323SM  H13B 9528   5.154   1.014  17.867
   7323SM  H13C 9529   5.198   1.183  17.887
   7323SM   C12 9530   5.265   1.036  17.642
   7323SM  H12A 9531   5.198   1.119  17.617
   7323SM  H12B 9532   5.198   0.951  17.661
   7323SM   C11 9533   5.354   1.008  17.518
   7323SM  H11A 9534   5.292   0.962  17.438
   7323SM  H11B 9535   5.431   0.932  17.544
   7323SM     P 9536   5.336   1.246  17.414
   7323SM   O13 9537   5.200   1.199  17.377
   7323SM   O14 9538   5.344   1.358  17.509
   7323SM   O11 9539   5.417   1.279  17.283
   7323SM   O12 9540   5.421   1.124  17.468
   7323SM   C1S 9541   5.444   1.174  17.190
   7323SM   H1S 9542   5.408   1.074  17.223
   7323SM   H1T 9543   5.554   1.164  17.175
   7323SM    NF 9544   5.399   1.092  16.960
   7323SM   HNF 9545   5.459   1.110  16.882
   7323SM   C2S 9546   5.380   1.203  17.052
   7323SM   H2S 9547   5.270   1.218  17.065
   7323SM   C3S 9548   5.441   1.335  16.998
   7323SM   H3S 9549   5.552   1.328  17.004
   7323SM    O3 9550   5.405   1.449  17.074
   7323SM   HO3 9551   5.412   1.418  17.166
   7323SM   C4S 9552   5.403   1.354  16.855
   7323SM   H4S 9553   5.487   1.340  16.785
   7323SM   C5S 9554   5.282   1.388  16.807
   7323SM   H5S 9555   5.200   1.406  16.879
   7323SM   C6S 9556   5.248   1.407  16.663
   7323SM   H6S 9557   5.229   1.515  16.645
   7323SM   H6T 9558   5.153   1.353  16.640
   7323SM   C7S 9559   5.354   1.361  16.560
   7323SM   H7S 9560   5.365   1.251  16.563
   7323SM   H7T 9561   5.452   1.408  16.582
   7323SM   C8S 9562   5.311   1.408  16.421
   7323SM   H8S 9563   5.291   1.517  16.425
   7323SM   H8T 9564   5.216   1.360  16.394
   7323SM   C9S 9565   5.411   1.381  16.308
   7323SM   H9S 9566   5.498   1.449  16.319
   7323SM   H9T 9567   5.358   1.406  16.213
   7323SM  C10S 9568   5.459   1.238  16.293
   7323SM  H10S 9569   5.373   1.169  16.281
   7323SM  H10T 9570   5.515   1.205  16.383
   7323SM  C11S 9571   5.548   1.225  16.170
   7323SM  H11S 9572   5.585   1.120  16.165
   7323SM  H11T 9573   5.637   1.292  16.180
   7323SM  C12S 9574   5.479   1.263  16.039
   7323SM  H12S 9575   5.499   1.370  16.014
   7323SM  H12T 9576   5.369   1.249  16.045
   7323SM  C13S 9577   5.532   1.184  15.922
   7323SM  H13S 9578   5.490   1.229  15.830
   7323SM  H13T 9579   5.502   1.077  15.925
   7323SM  C14S 9580   5.684   1.192  15.918
   7323SM  H14S 9581   5.732   1.157  16.012
   7323SM  H14T 9582   5.715   1.297  15.903
   7323SM  C15S 9583   5.737   1.106  15.806
   7323SM  H15S 9584   5.716   0.999  15.823
   7323SM  H15T 9585   5.844   1.125  15.821
   7323SM  C16S 9586   5.691   1.154  15.669
   7323SM  H16S 9587   5.740   1.251  15.651
   7323SM  H16T 9588   5.582   1.169  15.667
   7323SM  C17S 9589   5.722   1.067  15.549
   7323SM  H17S 9590   5.728   0.959  15.574
   7323SM  H17T 9591   5.817   1.101  15.507
   7323SM  C18S 9592   5.631   1.095  15.433
   7323SM  H18S 9593   5.664   1.188  15.384
   7323SM  H18T 9594   5.525   1.106  15.462
   7323SM  H18U 9595   5.643   1.012  15.360
   7323SM   C1F 9596   5.349   0.971  16.976
   7323SM    OF 9597   5.275   0.941  17.070
   7323SM   C2F 9598   5.399   0.871  16.877
   7323SM   H2F 9599   5.461   0.798  16.931
   7323SM   H2G 9600   5.465   0.923  16.804
   7323SM   C3F 9601   5.286   0.803  16.798
   7323SM   H3F 9602   5.217   0.748  16.866
   7323SM   H3G 9603   5.331   0.729  16.727
   7323SM   C4F 9604   5.203   0.902  16.715
   7323SM   H4F 9605   5.271   0.970  16.660
   7323SM   H4G 9606   5.141   0.965  16.783
   7323SM   C5F 9607   5.111   0.829  16.617
   7323SM   H5F 9608   5.010   0.875  16.623
   7323SM   H5G 9609   5.098   0.723  16.649
   7323SM   C6F 9610   5.161   0.834  16.473
   7323SM   H6F 9611   5.097   0.768  16.409
   7323SM   H6G 9612   5.265   0.793  16.469
   7323SM   C7F 9613   5.159   0.975  16.411
   7323SM   H7F 9614   5.203   0.968  16.309
   7323SM   H7G 9615   5.224   1.043  16.470
   7323SM   C8F 9616   5.018   1.036  16.402
   7323SM   H8F 9617   4.968   1.032  16.502
   7323SM   H8G 9618   4.957   0.978  16.331
   7323SM   C9F 9619   5.019   1.184  16.363
   7323SM   H9F 9620   5.074   1.238  16.443
   7323SM   H9G 9621   4.916   1.225  16.362
   7323SM  C10F 9622   5.079   1.213  16.225
   7323SM  H10F 9623   5.173   1.156  16.211
   7323SM  H10G 9624   5.105   1.321  16.216
   7323SM  C11F 9625   4.980   1.179  16.113
   7323SM  H11F 9626   4.891   1.246  16.123
   7323SM  H11G 9627   4.946   1.074  16.125
   7323SM  C12F 9628   5.041   1.198  15.975
   7323SM  H12F 9629   5.086   1.299  15.965
   7323SM  H12G 9630   4.960   1.189  15.899
   7323SM  C13F 9631   5.144   1.090  15.943
   7323SM  H13F 9632   5.099   0.990  15.962
   7323SM  H13G 9633   5.234   1.098  16.008
   7323SM  C14F 9634   5.187   1.096  15.796
   7323SM  H14F 9635   5.251   1.186  15.780
   7323SM  H14G 9636   5.096   1.107  15.732
   7323SM  C15F 9637   5.260   0.969  15.756
   7323SM  H15F 9638   5.187   0.885  15.757
   7323SM  H15G 9639   5.340   0.945  15.830
   7323SM  C16F 9640   5.323   0.980  15.618
   7323SM  H16F 9641   5.419   1.035  15.627
   7323SM  H16G 9642   5.256   1.039  15.551
   7323SM  C17F 9643   5.345   0.841  15.560
   7323SM  H17F 9644   5.245   0.793  15.545
   7323SM  H17G 9645   5.401   0.781  15.634
   7323SM  C18F 9646   5.420   0.837  15.427
   7323SM  H18F 9647   5.419   0.731  15.398
   7323SM  H18G 9648   5.526   0.863  15.445
   7323SM  C19F 9649   5.361   0.927  15.316
   7323SM  H19F 9650   5.358   1.031  15.354
   7323SM  H19G 9651   5.256   0.899  15.296
   7323SM  C20F 9652   5.439   0.934  15.183
   7323SM  H20F 9653   5.546   0.950  15.202
   7323SM  H20G 9654   5.401   1.022  15.126
   7323SM  C21F 9655   5.428   0.813  15.089
   7323SM  H21F 9656   5.486   0.842  14.999
   7323SM  H21G 9657   5.323   0.796  15.059
   7323SM  C22F 9658   5.489   0.684  15.146
   7323SM  H22F 9659   5.422   0.648  15.227
   7323SM  H22G 9660   5.589   0.706  15.188
   7323SM  C23F 9661   5.498   0.567  15.047
   7323SM  H23F 9662   5.572   0.589  14.967
   7323SM  H23G 9663   5.399   0.548  15.001
   7323SM  H23H 9664   5.530   0.476  15.101
   7423SM     N 9665   0.493   4.462  17.697
   7423SM   C15 9666   0.560   4.474  17.830
   7423SM  H15A 9667   0.652   4.529  17.827
   7423SM  H15B 9668   0.583   4.376  17.871
   7423SM  H15C 9669   0.495   4.523  17.903
   7423SM   C14 9670   0.375   4.372  17.707
   7423SM  H14A 9671   0.404   4.268  17.717
   7423SM  H14B 9672   0.321   4.373  17.611
   7423SM  H14C 9673   0.306   4.397  17.785
   7423SM   C13 9674   0.444   4.595  17.646
   7423SM  H13A 9675   0.403   4.583  17.546
   7423SM  H13B 9676   0.522   4.671  17.644
   7423SM  H13C 9677   0.362   4.634  17.705
   7423SM   C12 9678   0.586   4.405  17.592
   7423SM  H12A 9679   0.647   4.324  17.634
   7423SM  H12B 9680   0.654   4.484  17.563
   7423SM   C11 9681   0.515   4.343  17.469
   7423SM  H11A 9682   0.587   4.336  17.384
   7423SM  H11B 9683   0.435   4.411  17.433
   7423SM     P 9684   0.553   4.094  17.512
   7423SM   O13 9685   0.653   4.131  17.612
   7423SM   O14 9686   0.481   3.965  17.531
   7423SM   O11 9687   0.624   4.090  17.369
   7423SM   O12 9688   0.454   4.216  17.501
   7423SM   C1S 9689   0.532   4.061  17.262
   7423SM   H1S 9690   0.442   4.124  17.273
   7423SM   H1T 9691   0.498   3.954  17.264
   7423SM    NF 9692   0.493   4.092  17.020
   7423SM   HNF 9693   0.523   4.050  16.934
   7423SM   C2S 9694   0.596   4.092  17.125
   7423SM   H2S 9695   0.640   4.194  17.129
   7423SM   C3S 9696   0.710   3.989  17.093
   7423SM   H3S 9697   0.667   3.886  17.102
   7423SM    O3 9698   0.823   3.988  17.183
   7423SM   HO3 9699   0.794   4.040  17.258
   7423SM   C4S 9700   0.752   4.014  16.951
   7423SM   H4S 9701   0.803   4.110  16.933
   7423SM   C5S 9702   0.731   3.927  16.850
   7423SM   H5S 9703   0.692   3.827  16.873
   7423SM   C6S 9704   0.767   3.943  16.705
   7423SM   H6S 9705   0.685   3.901  16.642
   7423SM   H6T 9706   0.856   3.881  16.680
   7423SM   C7S 9707   0.797   4.085  16.657
   7423SM   H7S 9708   0.883   4.123  16.717
   7423SM   H7T 9709   0.711   4.153  16.675
   7423SM   C8S 9710   0.836   4.087  16.509
   7423SM   H8S 9711   0.905   4.003  16.488
   7423SM   H8T 9712   0.892   4.179  16.483
   7423SM   C9S 9713   0.716   4.079  16.414
   7423SM   H9S 9714   0.650   4.168  16.426
   7423SM   H9T 9715   0.657   3.989  16.440
   7423SM  C10S 9716   0.762   4.068  16.269
   7423SM  H10S 9717   0.835   3.984  16.261
   7423SM  H10T 9718   0.815   4.161  16.238
   7423SM  C11S 9719   0.645   4.041  16.175
   7423SM  H11S 9720   0.574   4.126  16.179
   7423SM  H11T 9721   0.592   3.949  16.209
   7423SM  C12S 9722   0.695   4.021  16.032
   7423SM  H12S 9723   0.765   3.934  16.030
   7423SM  H12T 9724   0.752   4.111  16.000
   7423SM  C13S 9725   0.581   3.996  15.934
   7423SM  H13S 9726   0.507   4.080  15.940
   7423SM  H13T 9727   0.528   3.903  15.962
   7423SM  C14S 9728   0.632   3.987  15.790
   7423SM  H14S 9729   0.714   3.913  15.783
   7423SM  H14T 9730   0.675   4.084  15.759
   7423SM  C15S 9731   0.523   3.942  15.693
   7423SM  H15S 9732   0.437   4.012  15.699
   7423SM  H15T 9733   0.484   3.843  15.725
   7423SM  C16S 9734   0.576   3.937  15.550
   7423SM  H16S 9735   0.657   3.861  15.542
   7423SM  H16T 9736   0.623   4.034  15.526
   7423SM  C17S 9737   0.469   3.904  15.445
   7423SM  H17S 9738   0.384   3.976  15.454
   7423SM  H17T 9739   0.426   3.804  15.464
   7423SM  C18S 9740   0.526   3.909  15.304
   7423SM  H18S 9741   0.614   3.842  15.294
   7423SM  H18T 9742   0.560   4.012  15.280
   7423SM  H18U 9743   0.450   3.878  15.229
   7423SM   C1F 9744   0.378   4.163  17.017
   7423SM    OF 9745   0.338   4.235  17.108
   7423SM   C2F 9746   0.298   4.146  16.891
   7423SM   H2F 9747   0.224   4.064  16.911
   7423SM   H2G 9748   0.364   4.113  16.808
   7423SM   C3F 9749   0.222   4.274  16.849
   7423SM   H3F 9750   0.292   4.346  16.802
   7423SM   H3G 9751   0.181   4.325  16.939
   7423SM   C4F 9752   0.104   4.243  16.756
   7423SM   H4F 9753   0.037   4.332  16.752
   7423SM   H4G 9754   0.046   4.159  16.801
   7423SM   C5F 9755   0.137   4.197  16.614
   7423SM   H5F 9756   0.041   4.182  16.560
   7423SM   H5G 9757   0.189   4.099  16.619
   7423SM   C6F 9758   0.224   4.295  16.534
   7423SM   H6F 9759   0.239   4.251  16.432
   7423SM   H6G 9760   0.324   4.304  16.582
   7423SM   C7F 9761   0.164   4.435  16.519
   7423SM   H7F 9762   0.137   4.475  16.619
   7423SM   H7G 9763   0.070   4.429  16.460
   7423SM   C8F 9764   0.264   4.533  16.455
   7423SM   H8F 9765   0.354   4.541  16.520
   7423SM   H8G 9766   0.220   4.633  16.448
   7423SM   C9F 9767   0.306   4.499  16.312
   7423SM   H9F 9768   0.347   4.396  16.306
   7423SM   H9G 9769   0.386   4.570  16.281
   7423SM  C10F 9770   0.187   4.515  16.217
   7423SM  H10F 9771   0.146   4.619  16.224
   7423SM  H10G 9772   0.106   4.445  16.248
   7423SM  C11F 9773   0.223   4.487  16.072
   7423SM  H11F 9774   0.130   4.477  16.012
   7423SM  H11G 9775   0.277   4.390  16.068
   7423SM  C12F 9776   0.310   4.595  16.008
   7423SM  H12F 9777   0.411   4.595  16.055
   7423SM  H12G 9778   0.264   4.695  16.025
   7423SM  C13F 9779   0.326   4.571  15.858
   7423SM  H13F 9780   0.392   4.648  15.813
   7423SM  H13G 9781   0.226   4.579  15.809
   7423SM  C14F 9782   0.381   4.432  15.829
   7423SM  H14F 9783   0.307   4.354  15.860
   7423SM  H14G 9784   0.475   4.413  15.885
   7423SM  C15F 9785   0.405   4.414  15.681
   7423SM  H15F 9786   0.490   4.477  15.647
   7423SM  H15G 9787   0.314   4.450  15.627
   7423SM  C16F 9788   0.429   4.269  15.645
   7423SM  H16F 9789   0.348   4.204  15.685
   7423SM  H16G 9790   0.525   4.236  15.692
   7423SM  C17F 9791   0.436   4.259  15.495
   7423SM  H17F 9792   0.488   4.167  15.464
   7423SM  H17G 9793   0.497   4.345  15.459
   7423SM  C18F 9794   0.299   4.260  15.428
   7423SM  H18F 9795   0.246   4.355  15.449
   7423SM  H18G 9796   0.236   4.177  15.469
   7423SM  C19F 9797   0.308   4.241  15.277
   7423SM  H19F 9798   0.226   4.298  15.229
   7423SM  H19G 9799   0.290   4.133  15.256
   7423SM  C20F 9800   0.445   4.283  15.219
   7423SM  H20F 9801   0.527   4.220  15.261
   7423SM  H20G 9802   0.466   4.389  15.248
   7423SM  C21F 9803   0.447   4.270  15.068
   7423SM  H21F 9804   0.464   4.369  15.020
   7423SM  H21G 9805   0.342   4.244  15.046
   7423SM  C22F 9806   0.542   4.162  15.010
   7423SM  H22F 9807   0.480   4.088  14.958
   7423SM  H22G 9808   0.597   4.107  15.088
   7423SM  C23F 9809   0.631   4.199  14.893
   7423SM  H23F 9810   0.723   4.246  14.930
   7423SM  H23G 9811   0.577   4.270  14.827
   7423SM  H23H 9812   0.659   4.110  14.833
   7523SM     N 9813   6.765   5.433  17.690
   7523SM   C15 9814   6.701   5.392  17.817
   7523SM  H15A 9815   6.601   5.355  17.801
   7523SM  H15B 9816   6.693   5.476  17.886
   7523SM  H15C 9817   6.758   5.315  17.868
   7523SM   C14 9818   6.787   5.318  17.597
   7523SM  H14A 9819   6.814   5.355  17.498
   7523SM  H14B 9820   6.696   5.262  17.582
   7523SM  H14C 9821   6.870   5.255  17.627
   7523SM   C13 9822   6.671   5.522  17.615
   7523SM  H13A 9823   6.655   5.618  17.664
   7523SM  H13B 9824   6.575   5.473  17.603
   7523SM  H13C 9825   6.711   5.542  17.516
   7523SM   C12 9826   6.897   5.500  17.721
   7523SM  H12A 9827   6.959   5.426  17.773
   7523SM  H12B 9828   6.880   5.584  17.787
   7523SM   C11 9829   6.984   5.543  17.604
   7523SM  H11A 9830   7.055   5.621  17.643
   7523SM  H11B 9831   6.923   5.590  17.523
   7523SM     P 9832   7.171   5.460  17.457
   7523SM   O13 9833   7.261   5.558  17.521
   7523SM   O14 9834   7.232   5.334  17.407
   7523SM   O11 9835   7.088   5.532  17.347
   7523SM   O12 9836   7.054   5.427  17.558
   7523SM   C1S 9837   6.991   5.466  17.266
   7523SM   H1S 9838   6.895   5.516  17.284
   7523SM   H1T 9839   6.975   5.360  17.295
   7523SM    NF 9840   7.114   5.365  17.081
   7523SM   HNF 9841   7.211   5.367  17.099
   7523SM   C2S 9842   7.035   5.481  17.117
   7523SM   H2S 9843   6.944   5.485  17.052
   7523SM   C3S 9844   7.111   5.616  17.104
   7523SM   H3S 9845   7.208   5.610  17.157
   7523SM    O3 9846   7.038   5.723  17.164
   7523SM   HO3 9847   6.997   5.679  17.239
   7523SM   C4S 9848   7.134   5.658  16.962
   7523SM   H4S 9849   7.083   5.748  16.926
   7523SM   C5S 9850   7.229   5.601  16.887
   7523SM   H5S 9851   7.290   5.523  16.934
   7523SM   C6S 9852   7.273   5.633  16.748
   7523SM   H6S 9853   7.360   5.567  16.730
   7523SM   H6T 9854   7.325   5.731  16.743
   7523SM   C7S 9855   7.163   5.637  16.643
   7523SM   H7S 9856   7.104   5.720  16.681
   7523SM   H7T 9857   7.097   5.548  16.639
   7523SM   C8S 9858   7.203   5.683  16.503
   7523SM   H8S 9859   7.309   5.671  16.481
   7523SM   H8T 9860   7.195   5.794  16.509
   7523SM   C9S 9861   7.106   5.652  16.386
   7523SM   H9S 9862   7.150   5.735  16.330
   7523SM   H9T 9863   7.004   5.686  16.407
   7523SM  C10S 9864   7.104   5.542  16.274
   7523SM  H10S 9865   7.012   5.479  16.284
   7523SM  H10T 9866   7.185   5.468  16.259
   7523SM  C11S 9867   7.099   5.618  16.141
   7523SM  H11S 9868   7.132   5.724  16.150
   7523SM  H11T 9869   6.991   5.622  16.114
   7523SM  C12S 9870   7.191   5.580  16.025
   7523SM  H12S 9871   7.189   5.471  16.009
   7523SM  H12T 9872   7.297   5.610  16.044
   7523SM  C13S 9873   7.133   5.666  15.912
   7523SM  H13S 9874   7.140   5.773  15.945
   7523SM  H13T 9875   7.026   5.637  15.901
   7523SM  C14S 9876   7.201   5.664  15.779
   7523SM  H14S 9877   7.207   5.561  15.742
   7523SM  H14T 9878   7.302   5.707  15.799
   7523SM  C15S 9879   7.133   5.745  15.667
   7523SM  H15S 9880   7.076   5.830  15.710
   7523SM  H15T 9881   7.063   5.677  15.613
   7523SM  C16S 9882   7.236   5.798  15.568
   7523SM  H16S 9883   7.265   5.712  15.507
   7523SM  H16T 9884   7.326   5.833  15.624
   7523SM  C17S 9885   7.193   5.911  15.474
   7523SM  H17S 9886   7.137   5.988  15.531
   7523SM  H17T 9887   7.125   5.870  15.396
   7523SM  C18S 9888   7.314   5.981  15.413
   7523SM  H18S 9889   7.380   6.018  15.494
   7523SM  H18T 9890   7.281   6.068  15.353
   7523SM  H18U 9891   7.374   5.915  15.347
   7523SM   C1F 9892   7.048   5.250  17.073
   7523SM    OF 9893   6.927   5.246  17.093
   7523SM   C2F 9894   7.123   5.127  17.034
   7523SM   H2F 9895   7.149   5.070  17.125
   7523SM   H2G 9896   7.215   5.155  16.979
   7523SM   C3F 9897   7.024   5.048  16.946
   7523SM   H3F 9898   6.983   5.121  16.872
   7523SM   H3G 9899   6.942   5.012  17.012
   7523SM   C4F 9900   7.069   4.931  16.859
   7523SM   H4F 9901   6.974   4.883  16.825
   7523SM   H4G 9902   7.122   4.853  16.914
   7523SM   C5F 9903   7.133   4.976  16.728
   7523SM   H5F 9904   7.069   5.055  16.683
   7523SM   H5G 9905   7.131   4.889  16.658
   7523SM   C6F 9906   7.274   5.035  16.732
   7523SM   H6F 9907   7.326   5.016  16.828
   7523SM   H6G 9908   7.265   5.146  16.727
   7523SM   C7F 9909   7.353   4.988  16.609
   7523SM   H7F 9910   7.354   4.877  16.606
   7523SM   H7G 9911   7.458   5.025  16.613
   7523SM   C8F 9912   7.283   5.045  16.484
   7523SM   H8F 9913   7.268   5.148  16.506
   7523SM   H8G 9914   7.180   5.006  16.476
   7523SM   C9F 9915   7.346   5.046  16.343
   7523SM   H9F 9916   7.271   5.098  16.279
   7523SM   H9G 9917   7.359   4.942  16.310
   7523SM  C10F 9918   7.480   5.114  16.317
   7523SM  H10F 9919   7.555   5.032  16.318
   7523SM  H10G 9920   7.504   5.177  16.404
   7523SM  C11F 9921   7.500   5.207  16.195
   7523SM  H11F 9922   7.603   5.189  16.160
   7523SM  H11G 9923   7.488   5.314  16.220
   7523SM  C12F 9924   7.427   5.197  16.063
   7523SM  H12F 9925   7.317   5.208  16.067
   7523SM  H12G 9926   7.452   5.099  16.022
   7523SM  C13F 9927   7.482   5.300  15.966
   7523SM  H13F 9928   7.595   5.292  15.974
   7523SM  H13G 9929   7.442   5.400  16.001
   7523SM  C14F 9930   7.433   5.264  15.824
   7523SM  H14F 9931   7.447   5.155  15.821
   7523SM  H14G 9932   7.498   5.313  15.747
   7523SM  C15F 9933   7.282   5.301  15.805
   7523SM  H15F 9934   7.295   5.411  15.805
   7523SM  H15G 9935   7.219   5.279  15.893
   7523SM  C16F 9936   7.201   5.260  15.677
   7523SM  H16F 9937   7.270   5.218  15.601
   7523SM  H16G 9938   7.158   5.353  15.634
   7523SM  C17F 9939   7.083   5.161  15.703
   7523SM  H17F 9940   7.048   5.175  15.807
   7523SM  H17G 9941   7.124   5.059  15.692
   7523SM  C18F 9942   6.955   5.142  15.616
   7523SM  H18F 9943   6.882   5.085  15.678
   7523SM  H18G 9944   6.977   5.073  15.532
   7523SM  C19F 9945   6.888   5.267  15.561
   7523SM  H19F 9946   6.957   5.353  15.570
   7523SM  H19G 9947   6.796   5.291  15.620
   7523SM  C20F 9948   6.852   5.246  15.414
   7523SM  H20F 9949   6.789   5.331  15.380
   7523SM  H20G 9950   6.789   5.155  15.402
   7523SM  C21F 9951   6.977   5.233  15.325
   7523SM  H21F 9952   7.041   5.148  15.357
   7523SM  H21G 9953   7.039   5.325  15.335
   7523SM  C22F 9954   6.936   5.211  15.180
   7523SM  H22F 9955   6.901   5.310  15.146
   7523SM  H22G 9956   6.847   5.144  15.174
   7523SM  C23F 9957   7.044   5.155  15.087
   7523SM  H23F 9958   7.003   5.135  14.985
   7523SM  H23G 9959   7.081   5.058  15.127
   7523SM  H23H 9960   7.128   5.226  15.077
   7623SM     N 9961   0.587   5.952  17.740
   7623SM   C15 9962   0.516   5.824  17.778
   7623SM  H15A 9963   0.441   5.801  17.702
   7623SM  H15B 9964   0.472   5.827  17.876
   7623SM  H15C 9965   0.586   5.741  17.771
   7623SM   C14 9966   0.483   6.059  17.732
   7623SM  H14A 9967   0.416   6.059  17.818
   7623SM  H14B 9968   0.419   6.039  17.646
   7623SM  H14C 9969   0.524   6.158  17.718
   7623SM   C13 9970   0.691   5.979  17.843
   7623SM  H13A 9971   0.752   5.889  17.858
   7623SM  H13B 9972   0.644   6.003  17.938
   7623SM  H13C 9973   0.756   6.061  17.814
   7623SM   C12 9974   0.653   5.927  17.606
   7623SM  H12A 9975   0.709   5.832  17.610
   7623SM  H12B 9976   0.726   6.003  17.581
   7623SM   C11 9977   0.558   5.912  17.487
   7623SM  H11A 9978   0.627   5.916  17.399
   7623SM  H11B 9979   0.491   5.999  17.476
   7623SM     P 9980   0.558   5.657  17.456
   7623SM   O13 9981   0.676   5.643  17.544
   7623SM   O14 9982   0.467   5.540  17.452
   7623SM   O11 9983   0.608   5.691  17.311
   7623SM   O12 9984   0.480   5.791  17.496
   7623SM   C1S 9985   0.525   5.772  17.225
   7623SM   H1S 9986   0.571   5.872  17.211
   7623SM   H1T 9987   0.422   5.789  17.264
   7623SM    NF 9988   0.478   5.567  17.111
   7623SM   HNF 9989   0.547   5.498  17.089
   7623SM   C2S 9990   0.512   5.705  17.089
   7623SM   H2S 9991   0.429   5.753  17.032
   7623SM   C3S 9992   0.645   5.726  17.012
   7623SM   H3S 9993   0.731   5.702  17.077
   7623SM    O3 9994   0.667   5.861  16.973
   7623SM   HO3 9995   0.630   5.913  17.045
   7623SM   C4S 9996   0.650   5.643  16.888
   7623SM   H4S 9997   0.570   5.659  16.814
   7623SM   C5S 9998   0.747   5.554  16.864
   7623SM   H5S 9999   0.829   5.545  16.938
   7623SM   C6S10000   0.765   5.465  16.745
   7623SM   H6S10001   0.731   5.361  16.767
   7623SM   H6T10002   0.875   5.457  16.730
   7623SM   C7S10003   0.705   5.512  16.612
   7623SM   H7S10004   0.694   5.623  16.610
   7623SM   H7T10005   0.604   5.468  16.599
   7623SM   C8S10006   0.799   5.475  16.496
   7623SM   H8S10007   0.830   5.370  16.500
   7623SM   H8T10008   0.888   5.532  16.526
   7623SM   C9S10009   0.751   5.525  16.358
   7623SM   H9S10010   0.800   5.623  16.342
   7623SM   H9T10011   0.644   5.550  16.370
   7623SM  C10S10012   0.771   5.438  16.228
   7623SM  H10S10013   0.704   5.354  16.232
   7623SM  H10T10014   0.870   5.391  16.228
   7623SM  C11S10015   0.736   5.520  16.100
   7623SM  H11S10016   0.768   5.623  16.128
   7623SM  H11T10017   0.627   5.512  16.084
   7623SM  C12S10018   0.795   5.506  15.957
   7623SM  H12S10019   0.886   5.444  15.957
   7623SM  H12T10020   0.822   5.610  15.927
   7623SM  C13S10021   0.705   5.462  15.840
   7623SM  H13S10022   0.617   5.529  15.828
   7623SM  H13T10023   0.664   5.361  15.855
   7623SM  C14S10024   0.786   5.463  15.708
   7623SM  H14S10025   0.861   5.382  15.709
   7623SM  H14T10026   0.842   5.560  15.701
   7623SM  C15S10027   0.697   5.451  15.584
   7623SM  H15S10028   0.636   5.543  15.580
   7623SM  H15T10029   0.627   5.365  15.596
   7623SM  C16S10030   0.777   5.437  15.454
   7623SM  H16S10031   0.826   5.337  15.451
   7623SM  H16T10032   0.858   5.514  15.455
   7623SM  C17S10033   0.693   5.459  15.328
   7623SM  H17S10034   0.727   5.552  15.278
   7623SM  H17T10035   0.588   5.475  15.359
   7623SM  C18S10036   0.693   5.343  15.228
   7623SM  H18S10037   0.652   5.376  15.130
   7623SM  H18T10038   0.627   5.262  15.266
   7623SM  H18U10039   0.795   5.303  15.213
   7623SM   C1F10040   0.361   5.529  17.159
   7623SM    OF10041   0.278   5.607  17.205
   7623SM   C2F10042   0.331   5.385  17.138
   7623SM   H2F10043   0.300   5.333  17.231
   7623SM   H2G10044   0.418   5.330  17.104
   7623SM   C3F10045   0.224   5.382  17.029
   7623SM   H3F10046   0.136   5.438  17.069
   7623SM   H3G10047   0.190   5.279  17.011
   7623SM   C4F10048   0.272   5.448  16.897
   7623SM   H4F10049   0.362   5.510  16.908
   7623SM   H4G10050   0.196   5.522  16.864
   7623SM   C5F10051   0.297   5.351  16.784
   7623SM   H5F10052   0.268   5.247  16.811
   7623SM   H5G10053   0.406   5.352  16.763
   7623SM   C6F10054   0.219   5.393  16.660
   7623SM   H6F10055   0.231   5.503  16.647
   7623SM   H6G10056   0.111   5.371  16.674
   7623SM   C7F10057   0.268   5.319  16.536
   7623SM   H7F10058   0.216   5.221  16.534
   7623SM   H7G10059   0.376   5.302  16.549
   7623SM   C8F10060   0.259   5.393  16.403
   7623SM   H8F10061   0.156   5.434  16.391
   7623SM   H8G10062   0.277   5.323  16.320
   7623SM   C9F10063   0.368   5.501  16.399
   7623SM   H9F10064   0.459   5.468  16.453
   7623SM   H9G10065   0.330   5.587  16.456
   7623SM  C10F10066   0.414   5.547  16.260
   7623SM  H10F10067   0.343   5.512  16.182
   7623SM  H10G10068   0.505   5.490  16.236
   7623SM  C11F10069   0.434   5.701  16.255
   7623SM  H11F10070   0.433   5.742  16.359
   7623SM  H11G10071   0.350   5.746  16.201
   7623SM  C12F10072   0.557   5.750  16.181
   7623SM  H12F10073   0.557   5.689  16.091
   7623SM  H12G10074   0.645   5.732  16.245
   7623SM  C13F10075   0.563   5.895  16.131
   7623SM  H13F10076   0.663   5.935  16.159
   7623SM  H13G10077   0.487   5.956  16.184
   7623SM  C14F10078   0.549   5.912  15.977
   7623SM  H14F10079   0.572   6.017  15.952
   7623SM  H14G10080   0.443   5.892  15.949
   7623SM  C15F10081   0.641   5.822  15.891
   7623SM  H15F10082   0.615   5.716  15.909
   7623SM  H15G10083   0.745   5.835  15.926
   7623SM  C16F10084   0.633   5.840  15.738
   7623SM  H16F10085   0.722   5.789  15.694
   7623SM  H16G10086   0.638   5.947  15.710
   7623SM  C17F10087   0.508   5.772  15.680
   7623SM  H17F10088   0.417   5.822  15.720
   7623SM  H17G10089   0.506   5.667  15.716
   7623SM  C18F10090   0.499   5.767  15.526
   7623SM  H18F10091   0.598   5.747  15.481
   7623SM  H18G10092   0.464   5.866  15.489
   7623SM  C19F10093   0.401   5.658  15.480
   7623SM  H19F10094   0.315   5.654  15.552
   7623SM  H19G10095   0.448   5.558  15.484
   7623SM  C20F10096   0.342   5.682  15.342
   7623SM  H20F10097   0.289   5.780  15.344
   7623SM  H20G10098   0.268   5.601  15.322
   7623SM  C21F10099   0.436   5.686  15.223
   7623SM  H21F10100   0.489   5.589  15.213
   7623SM  H21G10101   0.511   5.767  15.235
   7623SM  C22F10102   0.350   5.709  15.098
   7623SM  H22F10103   0.257   5.650  15.107
   7623SM  H22G10104   0.401   5.668  15.009
   7623SM  C23F10105   0.315   5.857  15.079
   7623SM  H23F10106   0.253   5.869  14.988
   7623SM  H23G10107   0.405   5.921  15.068
   7623SM  H23H10108   0.262   5.898  15.166
   7723SM     N10109   0.290   1.950  17.785
   7723SM   C1510110   0.329   1.814  17.735
   7723SM  H15A10111   0.241   1.750  17.721
   7723SM  H15B10112   0.392   1.762  17.806
   7723SM  H15C10113   0.382   1.821  17.642
   7723SM   C1410114   0.203   1.931  17.906
   7723SM  H14A10115   0.262   1.893  17.989
   7723SM  H14B10116   0.125   1.858  17.884
   7723SM  H14C10117   0.156   2.023  17.936
   7723SM   C1310118   0.415   2.020  17.824
   7723SM  H13A10119   0.475   1.961  17.893
   7723SM  H13B10120   0.395   2.117  17.870
   7723SM  H13C10121   0.476   2.039  17.735
   7723SM   C1210122   0.216   2.026  17.677
   7723SM  H12A10123   0.223   2.131  17.703
   7723SM  H12B10124   0.112   1.996  17.677
   7723SM   C1110125   0.265   2.017  17.532
   7723SM  H11A10126   0.196   2.081  17.471
   7723SM  H11B10127   0.258   1.912  17.496
   7723SM     P10128   0.467   2.081  17.378
   7723SM   O1310129   0.435   2.213  17.321
   7723SM   O1410130   0.609   2.045  17.389
   7723SM   O1110131   0.393   1.972  17.286
   7723SM   O1210132   0.398   2.066  17.521
   7723SM   C1S10133   0.284   2.008  17.201
   7723SM   H1S10134   0.224   2.091  17.243
   7723SM   H1T10135   0.215   1.921  17.192
   7723SM    NF10136   0.218   2.081  16.967
   7723SM   HNF10137   0.212   2.034  16.879
   7723SM   C2S10138   0.329   2.043  17.055
   7723SM   H2S10139   0.399   2.130  17.060
   7723SM   C3S10140   0.408   1.919  17.000
   7723SM   H3S10141   0.344   1.829  17.012
   7723SM    O310142   0.527   1.894  17.073
   7723SM   HO310143   0.505   1.934  17.159
   7723SM   C4S10144   0.445   1.938  16.855
   7723SM   H4S10145   0.519   2.017  16.835
   7723SM   C5S10146   0.400   1.863  16.752
   7723SM   H5S10147   0.334   1.776  16.772
   7723SM   C6S10148   0.434   1.878  16.606
   7723SM   H6S10149   0.339   1.878  16.548
   7723SM   H6T10150   0.489   1.787  16.572
   7723SM   C7S10151   0.514   2.003  16.564
   7723SM   H7S10152   0.611   2.008  16.617
   7723SM   H7T10153   0.454   2.093  16.593
   7723SM   C8S10154   0.539   2.011  16.411
   7723SM   H8S10155   0.560   2.116  16.382
   7723SM   H8T10156   0.444   1.981  16.360
   7723SM   C9S10157   0.654   1.921  16.362
   7723SM   H9S10158   0.657   1.837  16.435
   7723SM   H9T10159   0.752   1.972  16.371
   7723SM  C10S10160   0.633   1.855  16.224
   7723SM  H10S10161   0.524   1.843  16.210
   7723SM  H10T10162   0.682   1.754  16.229
   7723SM  C11S10163   0.682   1.922  16.096
   7723SM  H11S10164   0.792   1.939  16.099
   7723SM  H11T10165   0.634   2.022  16.089
   7723SM  C12S10166   0.646   1.837  15.971
   7723SM  H12S10167   0.540   1.806  15.977
   7723SM  H12T10168   0.710   1.747  15.966
   7723SM  C13S10169   0.662   1.924  15.847
   7723SM  H13S10170   0.767   1.956  15.846
   7723SM  H13T10171   0.598   2.011  15.874
   7723SM  C14S10172   0.617   1.884  15.705
   7723SM  H14S10173   0.553   1.969  15.673
   7723SM  H14T10174   0.552   1.797  15.707
   7723SM  C15S10175   0.721   1.887  15.589
   7723SM  H15S10176   0.801   1.811  15.600
   7723SM  H15T10177   0.769   1.987  15.589
   7723SM  C16S10178   0.649   1.871  15.454
   7723SM  H16S10179   0.542   1.889  15.477
   7723SM  H16T10180   0.658   1.767  15.415
   7723SM  C17S10181   0.674   1.971  15.341
   7723SM  H17S10182   0.782   1.994  15.330
   7723SM  H17T10183   0.621   2.065  15.370
   7723SM  C18S10184   0.616   1.922  15.208
   7723SM  H18S10185   0.695   1.880  15.142
   7723SM  H18T10186   0.564   2.004  15.155
   7723SM  H18U10187   0.540   1.842  15.226
   7723SM   C1F10188   0.145   2.191  16.984
   7723SM    OF10189   0.130   2.247  17.091
   7723SM   C2F10190   0.082   2.244  16.860
   7723SM   H2F10191  -0.022   2.270  16.883
   7723SM   H2G10192   0.081   2.164  16.783
   7723SM   C3F10193   0.156   2.371  16.813
   7723SM   H3F10194   0.263   2.344  16.799
   7723SM   H3G10195   0.151   2.449  16.892
   7723SM   C4F10196   0.102   2.426  16.681
   7723SM   H4F10197   0.159   2.516  16.650
   7723SM   H4G10198  -0.006   2.453  16.690
   7723SM   C5F10199   0.116   2.319  16.572
   7723SM   H5F10200   0.039   2.242  16.590
   7723SM   H5G10201   0.217   2.273  16.583
   7723SM   C6F10202   0.100   2.369  16.429
   7723SM   H6F10203   0.173   2.448  16.405
   7723SM   H6G10204   0.003   2.421  16.418
   7723SM   C7F10205   0.108   2.253  16.327
   7723SM   H7F10206   0.168   2.284  16.239
   7723SM   H7G10207   0.005   2.235  16.289
   7723SM   C8F10208   0.161   2.119  16.382
   7723SM   H8F10209   0.100   2.089  16.469
   7723SM   H8G10210   0.267   2.128  16.415
   7723SM   C9F10211   0.147   2.007  16.280
   7723SM   H9F10212   0.232   2.009  16.209
   7723SM   H9G10213   0.053   2.026  16.222
   7723SM  C10F10214   0.133   1.868  16.344
   7723SM  H10F10215   0.072   1.874  16.437
   7723SM  H10G10216   0.233   1.828  16.371
   7723SM  C11F10217   0.063   1.773  16.248
   7723SM  H11F10218  -0.033   1.819  16.216
   7723SM  H11G10219   0.040   1.676  16.297
   7723SM  C12F10220   0.149   1.746  16.124
   7723SM  H12F10221   0.230   1.677  16.150
   7723SM  H12G10222   0.196   1.840  16.087
   7723SM  C13F10223   0.064   1.691  16.013
   7723SM  H13F10224  -0.041   1.685  16.050
   7723SM  H13G10225   0.094   1.586  15.988
   7723SM  C14F10226   0.066   1.786  15.892
   7723SM  H14F10227   0.165   1.835  15.881
   7723SM  H14G10228  -0.010   1.864  15.912
   7723SM  C15F10229   0.041   1.705  15.766
   7723SM  H15F10230  -0.060   1.659  15.772
   7723SM  H15G10231   0.112   1.621  15.776
   7723SM  C16F10232   0.065   1.756  15.623
   7723SM  H16F10233  -0.030   1.778  15.572
   7723SM  H16G10234   0.105   1.666  15.572
   7723SM  C17F10235   0.167   1.866  15.587
   7723SM  H17F10236   0.257   1.865  15.651
   7723SM  H17G10237   0.119   1.964  15.603
   7723SM  C18F10238   0.206   1.846  15.438
   7723SM  H18F10239   0.112   1.831  15.382
   7723SM  H18G10240   0.261   1.750  15.427
   7723SM  C19F10241   0.286   1.959  15.373
   7723SM  H19F10242   0.391   1.928  15.358
   7723SM  H19G10243   0.283   2.041  15.446
   7723SM  C20F10244   0.237   2.025  15.242
   7723SM  H20F10245   0.314   2.095  15.204
   7723SM  H20G10246   0.151   2.089  15.273
   7723SM  C21F10247   0.188   1.935  15.128
   7723SM  H21F10248   0.088   1.976  15.102
   7723SM  H21G10249   0.175   1.830  15.160
   7723SM  C22F10250   0.264   1.942  14.995
   7723SM  H22F10251   0.352   1.875  14.998
   7723SM  H22G10252   0.300   2.046  14.980
   7723SM  C23F10253   0.173   1.905  14.876
   7723SM  H23F10254   0.137   1.801  14.886
   7723SM  H23G10255   0.227   1.915  14.780
   7723SM  H23H10256   0.084   1.972  14.873
   7823SM     N10257   1.239   7.094  17.774
   7823SM   C1510258   1.349   6.994  17.754
   7823SM  H15A10259   1.363   6.976  17.647
   7823SM  H15B10260   1.324   6.899  17.799
   7823SM  H15C10261   1.442   7.029  17.798
   7823SM   C1410262   1.110   7.040  17.720
   7823SM  H14A10263   1.119   7.029  17.612
   7823SM  H14B10264   1.027   7.106  17.739
   7823SM  H14C10265   1.087   6.941  17.759
   7823SM   C1310266   1.225   7.117  17.921
   7823SM  H13A10267   1.186   7.027  17.969
   7823SM  H13B10268   1.158   7.198  17.946
   7823SM  H13C10269   1.323   7.136  17.964
   7823SM   C1210270   1.273   7.223  17.700
   7823SM  H12A10271   1.357   7.272  17.747
   7823SM  H12B10272   1.189   7.291  17.705
   7823SM   C1110273   1.308   7.210  17.549
   7823SM  H11A10274   1.403   7.151  17.540
   7823SM  H11B10275   1.332   7.313  17.512
   7823SM     P10276   1.224   7.044  17.366
   7823SM   O1310277   1.274   6.927  17.441
   7823SM   O1410278   1.105   7.022  17.281
   7823SM   O1110279   1.337   7.104  17.272
   7823SM   O1210280   1.200   7.160  17.472
   7823SM   C1S10281   1.334   7.242  17.234
   7823SM   H1S10282   1.427   7.289  17.274
   7823SM   H1T10283   1.248   7.299  17.278
   7823SM    NF10284   1.200   7.247  17.025
   7823SM   HNF10285   1.186   7.164  16.972
   7823SM   C2S10286   1.334   7.262  17.080
   7823SM   H2S10287   1.367   7.367  17.060
   7823SM   C3S10288   1.435   7.164  17.013
   7823SM   H3S10289   1.405   7.058  17.029
   7823SM    O310290   1.572   7.178  17.056
   7823SM   HO310291   1.577   7.267  17.091
   7823SM   C4S10292   1.435   7.194  16.865
   7823SM   H4S10293   1.463   7.298  16.843
   7823SM   C5S10294   1.408   7.110  16.763
   7823SM   H5S10295   1.384   7.004  16.785
   7823SM   C6S10296   1.409   7.147  16.616
   7823SM   H6S10297   1.316   7.108  16.568
   7823SM   H6T10298   1.494   7.100  16.564
   7823SM   C7S10299   1.410   7.298  16.582
   7823SM   H7S10300   1.504   7.346  16.617
   7823SM   H7T10301   1.327   7.349  16.636
   7823SM   C8S10302   1.392   7.323  16.431
   7823SM   H8S10303   1.294   7.284  16.399
   7823SM   H8T10304   1.470   7.273  16.370
   7823SM   C9S10305   1.397   7.473  16.403
   7823SM   H9S10306   1.501   7.508  16.414
   7823SM   H9T10307   1.340   7.525  16.483
   7823SM  C10S10308   1.339   7.517  16.269
   7823SM  H10S10309   1.358   7.624  16.264
   7823SM  H10T10310   1.230   7.504  16.262
   7823SM  C11S10311   1.391   7.462  16.138
   7823SM  H11S10312   1.352   7.360  16.117
   7823SM  H11T10313   1.501   7.457  16.137
   7823SM  C12S10314   1.348   7.561  16.031
   7823SM  H12S10315   1.387   7.662  16.057
   7823SM  H12T10316   1.237   7.568  16.025
   7823SM  C13S10317   1.408   7.524  15.898
   7823SM  H13S10318   1.367   7.426  15.866
   7823SM  H13T10319   1.518   7.515  15.909
   7823SM  C14S10320   1.379   7.628  15.791
   7823SM  H14S10321   1.414   7.729  15.822
   7823SM  H14T10322   1.268   7.634  15.779
   7823SM  C15S10323   1.449   7.585  15.663
   7823SM  H15S10324   1.484   7.480  15.678
   7823SM  H15T10325   1.539   7.647  15.644
   7823SM  C16S10326   1.352   7.584  15.545
   7823SM  H16S10327   1.377   7.669  15.478
   7823SM  H16T10328   1.249   7.601  15.582
   7823SM  C17S10329   1.346   7.451  15.467
   7823SM  H17S10330   1.266   7.387  15.510
   7823SM  H17T10331   1.442   7.395  15.472
   7823SM  C18S10332   1.318   7.480  15.322
   7823SM  H18S10333   1.321   7.393  15.254
   7823SM  H18T10334   1.404   7.541  15.293
   7823SM  H18U10335   1.224   7.538  15.309
   7823SM   C1F10336   1.095   7.323  17.051
   7823SM    OF10337   1.098   7.420  17.127
   7823SM   C2F10338   0.966   7.275  16.987
   7823SM   H2F10339   0.897   7.250  17.070
   7823SM   H2G10340   0.986   7.181  16.932
   7823SM   C3F10341   0.899   7.374  16.889
   7823SM   H3F10342   0.883   7.472  16.937
   7823SM   H3G10343   0.800   7.332  16.858
   7823SM   C4F10344   0.976   7.396  16.758
   7823SM   H4F10345   0.995   7.298  16.707
   7823SM   H4G10346   1.076   7.441  16.781
   7823SM   C5F10347   0.900   7.489  16.663
   7823SM   H5F10348   0.850   7.569  16.722
   7823SM   H5G10349   0.821   7.431  16.609
   7823SM   C6F10350   0.993   7.559  16.564
   7823SM   H6F10351   1.078   7.603  16.620
   7823SM   H6G10352   0.940   7.642  16.512
   7823SM   C7F10353   1.048   7.464  16.458
   7823SM   H7F10354   1.087   7.370  16.503
   7823SM   H7G10355   1.134   7.521  16.419
   7823SM   C8F10356   0.949   7.436  16.345
   7823SM   H8F10357   0.911   7.533  16.306
   7823SM   H8G10358   0.863   7.380  16.389
   7823SM   C9F10359   1.002   7.354  16.225
   7823SM   H9F10360   1.088   7.403  16.177
   7823SM   H9G10361   0.925   7.348  16.145
   7823SM  C10F10362   1.036   7.211  16.265
   7823SM  H10F10363   0.942   7.158  16.294
   7823SM  H10G10364   1.102   7.212  16.355
   7823SM  C11F10365   1.106   7.132  16.156
   7823SM  H11F10366   1.200   7.185  16.128
   7823SM  H11G10367   1.043   7.129  16.064
   7823SM  C12F10368   1.137   6.991  16.206
   7823SM  H12F10369   1.044   6.934  16.226
   7823SM  H12G10370   1.192   7.002  16.302
   7823SM  C13F10371   1.227   6.913  16.111
   7823SM  H13F10372   1.293   6.844  16.169
   7823SM  H13G10373   1.292   6.987  16.063
   7823SM  C14F10374   1.154   6.831  16.004
   7823SM  H14F10375   1.093   6.754  16.056
   7823SM  H14G10376   1.232   6.778  15.944
   7823SM  C15F10377   1.065   6.907  15.905
   7823SM  H15F10378   1.123   6.987  15.856
   7823SM  H15G10379   0.978   6.953  15.957
   7823SM  C16F10380   1.013   6.810  15.798
   7823SM  H16F10381   0.945   6.736  15.846
   7823SM  H16G10382   1.100   6.751  15.762
   7823SM  C17F10383   0.939   6.878  15.682
   7823SM  H17F10384   0.888   6.970  15.718
   7823SM  H17G10385   0.860   6.808  15.647
   7823SM  C18F10386   1.028   6.909  15.560
   7823SM  H18F10387   1.107   6.982  15.586
   7823SM  H18G10388   0.965   6.953  15.480
   7823SM  C19F10389   1.090   6.778  15.510
   7823SM  H19F10390   1.009   6.701  15.511
   7823SM  H19G10391   1.172   6.745  15.577
   7823SM  C20F10392   1.147   6.778  15.369
   7823SM  H20F10393   1.232   6.848  15.359
   7823SM  H20G10394   1.068   6.810  15.297
   7823SM  C21F10395   1.190   6.634  15.338
   7823SM  H21F10396   1.115   6.561  15.375
   7823SM  H21G10397   1.287   6.613  15.387
   7823SM  C22F10398   1.201   6.618  15.188
   7823SM  H22F10399   1.269   6.701  15.163
   7823SM  H22G10400   1.105   6.642  15.138
   7823SM  C23F10401   1.254   6.485  15.136
   7823SM  H23F10402   1.179   6.405  15.151
   7823SM  H23G10403   1.348   6.455  15.188
   7823SM  H23H10404   1.275   6.493  15.028
   7923SM     N10405   6.848   0.496  17.781
   7923SM   C1510406   6.793   0.628  17.827
   7923SM  H15A10407   6.708   0.618  17.892
   7923SM  H15B10408   6.768   0.688  17.740
   7923SM  H15C10409   6.865   0.688  17.882
   7923SM   C1410410   6.954   0.518  17.678
   7923SM  H14A10411   6.969   0.425  17.622
   7923SM  H14B10412   7.051   0.548  17.715
   7923SM  H14C10413   6.919   0.587  17.601
   7923SM   C1310414   6.904   0.421  17.897
   7923SM  H13A10415   6.958   0.333  17.860
   7923SM  H13B10416   6.827   0.383  17.964
   7923SM  H13C10417   6.974   0.480  17.954
   7923SM   C1210418   6.737   0.413  17.716
   7923SM  H12A10419   6.668   0.379  17.791
   7923SM  H12B10420   6.782   0.322  17.674
   7923SM   C1110421   6.659   0.478  17.600
   7923SM  H11A10422   6.630   0.582  17.627
   7923SM  H11B10423   6.563   0.424  17.582
   7923SM     P10424   6.755   0.347  17.399
   7923SM   O1310425   6.786   0.236  17.493
   7923SM   O1410426   6.636   0.332  17.312
   7923SM   O1110427   6.886   0.366  17.314
   7923SM   O1210428   6.739   0.481  17.482
   7923SM   C1S10429   6.933   0.492  17.264
   7923SM   H1S10430   7.044   0.492  17.268
   7923SM   H1T10431   6.901   0.578  17.328
   7923SM    NF10432   6.751   0.555  17.116
   7923SM   HNF10433   6.685   0.483  17.136
   7923SM   C2S10434   6.890   0.515  17.116
   7923SM   H2S10435   6.952   0.596  17.073
   7923SM   C3S10436   6.921   0.386  17.034
   7923SM   H3S10437   6.873   0.298  17.081
   7923SM    O310438   7.061   0.358  17.026
   7923SM   HO310439   7.101   0.403  17.100
   7923SM   C4S10440   6.872   0.394  16.891
   7923SM   H4S10441   6.780   0.337  16.873
   7923SM   C5S10442   6.929   0.458  16.787
   7923SM   H5S10443   7.023   0.514  16.802
   7923SM   C6S10444   6.874   0.456  16.647
   7923SM   H6S10445   6.812   0.546  16.628
   7923SM   H6T10446   6.810   0.366  16.630
   7923SM   C7S10447   6.991   0.450  16.547
   7923SM   H7S10448   7.047   0.354  16.559
   7923SM   H7T10449   7.061   0.533  16.570
   7923SM   C8S10450   6.950   0.463  16.399
   7923SM   H8S10451   6.852   0.515  16.395
   7923SM   H8T10452   6.937   0.363  16.351
   7923SM   C9S10453   7.052   0.549  16.322
   7923SM   H9S10454   7.152   0.500  16.317
   7923SM   H9T10455   7.064   0.640  16.387
   7923SM  C10S10456   7.007   0.598  16.183
   7923SM  H10S10457   7.028   0.707  16.178
   7923SM  H10T10458   6.897   0.587  16.173
   7923SM  C11S10459   7.071   0.534  16.058
   7923SM  H11S10460   7.035   0.429  16.053
   7923SM  H11T10461   7.182   0.532  16.062
   7923SM  C12S10462   7.027   0.614  15.933
   7923SM  H12S10463   7.106   0.680  15.894
   7923SM  H12T10464   6.950   0.685  15.968
   7923SM  C13S10465   6.969   0.525  15.822
   7923SM  H13S10466   6.907   0.455  15.879
   7923SM  H13T10467   7.050   0.470  15.770
   7923SM  C14S10468   6.877   0.594  15.720
   7923SM  H14S10469   6.946   0.636  15.646
   7923SM  H14T10470   6.824   0.677  15.768
   7923SM  C15S10471   6.779   0.513  15.633
   7923SM  H15S10472   6.703   0.459  15.694
   7923SM  H15T10473   6.832   0.438  15.571
   7923SM  C16S10474   6.711   0.609  15.535
   7923SM  H16S10475   6.788   0.675  15.490
   7923SM  H16T10476   6.645   0.676  15.594
   7923SM  C17S10477   6.636   0.537  15.421
   7923SM  H17S10478   6.560   0.469  15.465
   7923SM  H17T10479   6.709   0.474  15.366
   7923SM  C18S10480   6.569   0.630  15.321
   7923SM  H18S10481   6.644   0.699  15.276
   7923SM  H18T10482   6.491   0.695  15.365
   7923SM  H18U10483   6.520   0.572  15.240
   7923SM   C1F10484   6.727   0.680  17.156
   7923SM    OF10485   6.819   0.755  17.183
   7923SM   C2F10486   6.586   0.725  17.166
   7923SM   H2F10487   6.570   0.775  17.264
   7923SM   H2G10488   6.516   0.640  17.156
   7923SM   C3F10489   6.568   0.827  17.053
   7923SM   H3F10490   6.633   0.915  17.072
   7923SM   H3G10491   6.465   0.865  17.055
   7923SM   C4F10492   6.604   0.771  16.914
   7923SM   H4F10493   6.714   0.762  16.901
   7923SM   H4G10494   6.567   0.843  16.838
   7923SM   C5F10495   6.537   0.639  16.878
   7923SM   H5F10496   6.441   0.633  16.933
   7923SM   H5G10497   6.598   0.552  16.909
   7923SM   C6F10498   6.511   0.632  16.728
   7923SM   H6F10499   6.607   0.645  16.674
   7923SM   H6G10500   6.444   0.717  16.699
   7923SM   C7F10501   6.448   0.501  16.681
   7923SM   H7F10502   6.345   0.491  16.721
   7923SM   H7G10503   6.506   0.415  16.721
   7923SM   C8F10504   6.445   0.498  16.528
   7923SM   H8F10505   6.447   0.601  16.488
   7923SM   H8G10506   6.350   0.453  16.492
   7923SM   C9F10507   6.563   0.420  16.470
   7923SM   H9F10508   6.610   0.358  16.550
   7923SM   H9G10509   6.641   0.493  16.438
   7923SM  C10F10510   6.524   0.327  16.354
   7923SM  H10F10511   6.428   0.276  16.374
   7923SM  H10G10512   6.603   0.249  16.343
   7923SM  C11F10513   6.521   0.412  16.227
   7923SM  H11F10514   6.626   0.444  16.218
   7923SM  H11G10515   6.453   0.498  16.248
   7923SM  C12F10516   6.481   0.351  16.093
   7923SM  H12F10517   6.451   0.435  16.025
   7923SM  H12G10518   6.390   0.289  16.109
   7923SM  C13F10519   6.586   0.267  16.017
   7923SM  H13F10520   6.554   0.269  15.911
   7923SM  H13G10521   6.580   0.163  16.056
   7923SM  C14F10522   6.733   0.308  16.008
   7923SM  H14F10523   6.773   0.334  16.108
   7923SM  H14G10524   6.739   0.399  15.945
   7923SM  C15F10525   6.818   0.196  15.942
   7923SM  H15F10526   6.755   0.104  15.943
   7923SM  H15G10527   6.906   0.177  16.007
   7923SM  C16F10528   6.865   0.218  15.796
   7923SM  H16F10529   6.946   0.292  15.792
   7923SM  H16G10530   6.780   0.252  15.733
   7923SM  C17F10531   6.938   0.102  15.727
   7923SM  H17F10532   6.871   0.015  15.736
   7923SM  H17G10533   7.033   0.082  15.782
   7923SM  C18F10534   6.969   0.117  15.575
   7923SM  H18F10535   6.871   0.119  15.522
   7923SM  H18G10536   7.023   0.025  15.545
   7923SM  C19F10537   7.048   0.240  15.524
   7923SM  H19F10538   7.125   0.272  15.598
   7923SM  H19G10539   6.977   0.324  15.511
   7923SM  C20F10540   7.114   0.223  15.384
   7923SM  H20F10541   7.197   0.149  15.390
   7923SM  H20G10542   7.159   0.320  15.354
   7923SM  C21F10543   7.015   0.180  15.275
   7923SM  H21F10544   6.938   0.259  15.259
   7923SM  H21G10545   6.963   0.091  15.315
   7923SM  C22F10546   7.078   0.139  15.140
   7923SM  H22F10547   7.005   0.074  15.087
   7923SM  H22G10548   7.168   0.077  15.158
   7923SM  C23F10549   7.112   0.255  15.046
   7923SM  H23F10550   7.155   0.215  14.953
   7923SM  H23G10551   7.187   0.324  15.090
   7923SM  H23H10552   7.021   0.312  15.018
   8023SM     N10553   0.590   0.507  17.713
   8023SM   C1510554   0.696   0.553  17.808
   8023SM  H15A10555   0.752   0.467  17.844
   8023SM  H15B10556   0.653   0.602  17.896
   8023SM  H15C10557   0.765   0.622  17.761
   8023SM   C1410558   0.648   0.429  17.597
   8023SM  H14A10559   0.711   0.487  17.532
   8023SM  H14B10560   0.566   0.394  17.532
   8023SM  H14C10561   0.701   0.339  17.629
   8023SM   C1310562   0.500   0.409  17.780
   8023SM  H13A10563   0.554   0.315  17.795
   8023SM  H13B10564   0.416   0.382  17.714
   8023SM  H13C10565   0.461   0.442  17.874
   8023SM   C1210566   0.518   0.626  17.656
   8023SM  H12A10567   0.582   0.673  17.582
   8023SM  H12B10568   0.501   0.700  17.734
   8023SM   C1110569   0.383   0.598  17.588
   8023SM  H11A10570   0.356   0.694  17.540
   8023SM  H11B10571   0.306   0.574  17.664
   8023SM     P10572   0.304   0.373  17.473
   8023SM   O1310573   0.391   0.258  17.458
   8023SM   O1410574   0.210   0.369  17.587
   8023SM   O1110575   0.221   0.403  17.340
   8023SM   O1210576   0.394   0.500  17.488
   8023SM   C1S10577   0.288   0.469  17.232
   8023SM   H1S10578   0.372   0.534  17.263
   8023SM   H1T10579   0.217   0.538  17.182
   8023SM    NF10580   0.464   0.400  17.068
   8023SM   HNF10581   0.469   0.391  16.969
   8023SM   C2S10582   0.337   0.363  17.130
   8023SM   H2S10583   0.354   0.266  17.181
   8023SM   C3S10584   0.220   0.348  17.027
   8023SM   H3S10585   0.189   0.447  16.989
   8023SM    O310586   0.104   0.295  17.093
   8023SM   HO310587   0.102   0.344  17.177
   8023SM   C4S10588   0.260   0.260  16.910
   8023SM   H4S10589   0.288   0.157  16.936
   8023SM   C5S10590   0.264   0.297  16.779
   8023SM   H5S10591   0.236   0.401  16.750
   8023SM   C6S10592   0.305   0.208  16.663
   8023SM   H6S10593   0.215   0.162  16.617
   8023SM   H6T10594   0.370   0.125  16.698
   8023SM   C7S10595   0.380   0.280  16.548
   8023SM   H7S10596   0.473   0.326  16.588
   8023SM   H7T10597   0.314   0.359  16.507
   8023SM   C8S10598   0.420   0.192  16.428
   8023SM   H8S10599   0.335   0.124  16.406
   8023SM   H8T10600   0.510   0.134  16.458
   8023SM   C9S10601   0.454   0.266  16.297
   8023SM   H9S10602   0.531   0.344  16.316
   8023SM   H9T10603   0.363   0.317  16.260
   8023SM  C10S10604   0.508   0.172  16.188
   8023SM  H10S10605   0.446   0.080  16.184
   8023SM  H10T10606   0.612   0.143  16.216
   8023SM  C11S10607   0.514   0.234  16.047
   8023SM  H11S10608   0.568   0.330  16.057
   8023SM  H11T10609   0.410   0.252  16.009
   8023SM  C12S10610   0.594   0.155  15.943
   8023SM  H12S10611   0.633   0.064  15.993
   8023SM  H12T10612   0.682   0.215  15.909
   8023SM  C13S10613   0.514   0.112  15.821
   8023SM  H13S10614   0.410   0.085  15.849
   8023SM  H13T10615   0.564   0.019  15.785
   8023SM  C14S10616   0.512   0.205  15.700
   8023SM  H14S10617   0.607   0.262  15.693
   8023SM  H14T10618   0.428   0.278  15.709
   8023SM  C15S10619   0.496   0.117  15.574
   8023SM  H15S10620   0.404   0.056  15.588
   8023SM  H15T10621   0.583   0.049  15.567
   8023SM  C16S10622   0.478   0.191  15.442
   8023SM  H16S10623   0.554   0.271  15.429
   8023SM  H16T10624   0.377   0.234  15.450
   8023SM  C17S10625   0.473   0.097  15.321
   8023SM  H17S10626   0.398   0.018  15.342
   8023SM  H17T10627   0.572   0.049  15.310
   8023SM  C18S10628   0.434   0.167  15.191
   8023SM  H18S10629   0.472   0.109  15.104
   8023SM  H18T10630   0.474   0.270  15.187
   8023SM  H18U10631   0.324   0.173  15.180
   8023SM   C1F10632   0.578   0.427  17.132
   8023SM    OF10633   0.589   0.438  17.253
   8023SM   C2F10634   0.699   0.447  17.047
   8023SM   H2F10635   0.675   0.424  16.941
   8023SM   H2G10636   0.778   0.378  17.081
   8023SM   C3F10637   0.747   0.593  17.061
   8023SM   H3F10638   0.829   0.609  16.988
   8023SM   H3G10639   0.790   0.608  17.163
   8023SM   C4F10640   0.636   0.698  17.039
   8023SM   H4F10641   0.683   0.799  17.040
   8023SM   H4G10642   0.565   0.694  17.125
   8023SM   C5F10643   0.557   0.681  16.907
   8023SM   H5F10644   0.477   0.757  16.901
   8023SM   H5G10645   0.502   0.585  16.905
   8023SM   C6F10646   0.649   0.691  16.784
   8023SM   H6F10647   0.711   0.600  16.776
   8023SM   H6G10648   0.718   0.778  16.799
   8023SM   C7F10649   0.571   0.711  16.654
   8023SM   H7F10650   0.640   0.745  16.574
   8023SM   H7G10651   0.497   0.793  16.673
   8023SM   C8F10652   0.498   0.585  16.606
   8023SM   H8F10653   0.449   0.536  16.694
   8023SM   H8G10654   0.569   0.512  16.562
   8023SM   C9F10655   0.385   0.618  16.506
   8023SM   H9F10656   0.356   0.718  16.537
   8023SM   H9G10657   0.296   0.554  16.522
   8023SM  C10F10658   0.421   0.626  16.357
   8023SM  H10F10659   0.494   0.546  16.333
   8023SM  H10G10660   0.471   0.724  16.341
   8023SM  C11F10661   0.299   0.616  16.262
   8023SM  H11F10662   0.223   0.691  16.293
   8023SM  H11G10663   0.251   0.516  16.271
   8023SM  C12F10664   0.331   0.642  16.112
   8023SM  H12F10665   0.401   0.727  16.112
   8023SM  H12G10666   0.238   0.672  16.059
   8023SM  C13F10667   0.393   0.521  16.042
   8023SM  H13F10668   0.318   0.439  16.042
   8023SM  H13G10669   0.475   0.493  16.111
   8023SM  C14F10670   0.455   0.531  15.900
   8023SM  H14F10671   0.515   0.439  15.881
   8023SM  H14G10672   0.526   0.614  15.893
   8023SM  C15F10673   0.361   0.545  15.780
   8023SM  H15F10674   0.306   0.640  15.792
   8023SM  H15G10675   0.290   0.460  15.778
   8023SM  C16F10676   0.434   0.556  15.644
   8023SM  H16F10677   0.501   0.470  15.627
   8023SM  H16G10678   0.496   0.648  15.648
   8023SM  C17F10679   0.334   0.574  15.528
   8023SM  H17F10680   0.389   0.605  15.436
   8023SM  H17G10681   0.271   0.658  15.559
   8023SM  C18F10682   0.249   0.450  15.494
   8023SM  H18F10683   0.243   0.382  15.582
   8023SM  H18G10684   0.307   0.401  15.413
   8023SM  C19F10685   0.107   0.464  15.432
   8023SM  H19F10686   0.111   0.505  15.332
   8023SM  H19G10687   0.039   0.531  15.485
   8023SM  C20F10688   0.029   0.332  15.422
   8023SM  H20F10689  -0.078   0.358  15.409
   8023SM  H20G10690   0.042   0.278  15.517
   8023SM  C21F10691   0.075   0.248  15.302
   8023SM  H21F10692   0.046   0.142  15.317
   8023SM  H21G10693   0.186   0.253  15.300
   8023SM  C22F10694   0.017   0.297  15.168
   8023SM  H22F10695   0.008   0.408  15.173
   8023SM  H22G10696  -0.087   0.259  15.157
   8023SM  C23F10697   0.099   0.260  15.044
   8023SM  H23F10698   0.202   0.300  15.050
   8023SM  H23G10699   0.052   0.303  14.953
   8023SM  H23H10700   0.106   0.150  15.031
   8123SM     N10701   3.407   3.740  12.185
   8123SM   C1510702   3.319   3.619  12.191
   8123SM  H15A10703   3.368   3.535  12.141
   8123SM  H15B10704   3.223   3.638  12.147
   8123SM  H15C10705   3.304   3.589  12.295
   8123SM   C1410706   3.437   3.773  12.042
   8123SM  H14A10707   3.518   3.844  12.032
   8123SM  H14B10708   3.351   3.812  11.989
   8123SM  H14C10709   3.461   3.682  11.987
   8123SM   C1310710   3.340   3.855  12.253
   8123SM  H13A10711   3.243   3.876  12.210
   8123SM  H13B10712   3.402   3.943  12.248
   8123SM  H13C10713   3.328   3.834  12.359
   8123SM   C1210714   3.537   3.709  12.259
   8123SM  H12A10715   3.596   3.800  12.267
   8123SM  H12B10716   3.594   3.637  12.201
   8123SM   C1110717   3.526   3.654  12.404
   8123SM  H11A10718   3.630   3.632  12.441
   8123SM  H11B10719   3.473   3.557  12.403
   8123SM     P10720   3.538   3.867  12.551
   8123SM   O1310721   3.663   3.883  12.473
   8123SM   O1410722   3.452   3.988  12.553
   8123SM   O1110723   3.568   3.816  12.699
   8123SM   O1210724   3.457   3.746  12.489
   8123SM   C1S10725   3.473   3.730  12.766
   8123SM   H1S10726   3.467   3.631  12.715
   8123SM   H1T10727   3.371   3.775  12.764
   8123SM    NF10728   3.388   3.646  12.988
   8123SM   HNF10729   3.354   3.703  13.062
   8123SM   C2S10730   3.505   3.700  12.917
   8123SM   H2S10731   3.586   3.624  12.921
   8123SM   C3S10732   3.557   3.830  12.988
   8123SM   H3S10733   3.475   3.906  12.987
   8123SM    O310734   3.672   3.891  12.931
   8123SM   HO310735   3.678   3.850  12.844
   8123SM   C4S10736   3.588   3.801  13.133
   8123SM   H4S10737   3.520   3.854  13.201
   8123SM   C5S10738   3.686   3.725  13.186
   8123SM   H5S10739   3.755   3.671  13.119
   8123SM   C6S10740   3.707   3.705  13.335
   8123SM   H6S10741   3.817   3.703  13.355
   8123SM   H6T10742   3.668   3.606  13.367
   8123SM   C7S10743   3.646   3.816  13.424
   8123SM   H7S10744   3.536   3.821  13.410
   8123SM   H7T10745   3.690   3.914  13.393
   8123SM   C8S10746   3.672   3.798  13.574
   8123SM   H8S10747   3.780   3.778  13.591
   8123SM   H8T10748   3.614   3.711  13.611
   8123SM   C9S10749   3.632   3.924  13.653
   8123SM   H9S10750   3.528   3.953  13.626
   8123SM   H9T10751   3.700   4.007  13.622
   8123SM  C10S10752   3.641   3.909  13.806
   8123SM  H10S10753   3.655   4.010  13.851
   8123SM  H10T10754   3.729   3.847  13.834
   8123SM  C11S10755   3.513   3.849  13.866
   8123SM  H11S10756   3.515   3.739  13.848
   8123SM  H11T10757   3.424   3.890  13.814
   8123SM  C12S10758   3.494   3.873  14.016
   8123SM  H12S10759   3.398   3.825  14.047
   8123SM  H12T10760   3.483   3.982  14.036
   8123SM  C13S10761   3.608   3.817  14.102
   8123SM  H13S10762   3.699   3.878  14.087
   8123SM  H13T10763   3.631   3.713  14.068
   8123SM  C14S10764   3.569   3.813  14.250
   8123SM  H14S10765   3.485   3.741  14.262
   8123SM  H14T10766   3.534   3.913  14.283
   8123SM  C15S10767   3.685   3.767  14.338
   8123SM  H15S10768   3.763   3.846  14.346
   8123SM  H15T10769   3.732   3.678  14.288
   8123SM  C16S10770   3.639   3.720  14.476
   8123SM  H16S10771   3.721   3.658  14.519
   8123SM  H16T10772   3.549   3.656  14.462
   8123SM  C17S10773   3.604   3.828  14.578
   8123SM  H17S10774   3.516   3.887  14.541
   8123SM  H17T10775   3.690   3.898  14.589
   8123SM  C18S10776   3.571   3.765  14.713
   8123SM  H18S10777   3.660   3.710  14.752
   8123SM  H18T10778   3.489   3.691  14.702
   8123SM  H18U10779   3.540   3.841  14.788
   8123SM   C1F10780   3.321   3.531  12.968
   8123SM    OF10781   3.342   3.461  12.870
   8123SM   C2F10782   3.212   3.500  13.068
   8123SM   H2F10783   3.128   3.452  13.013
   8123SM   H2G10784   3.172   3.594  13.111
   8123SM   C3F10785   3.256   3.406  13.183
   8123SM   H3F10786   3.304   3.315  13.143
   8123SM   H3G10787   3.166   3.373  13.240
   8123SM   C4F10788   3.355   3.464  13.285
   8123SM   H4F10789   3.444   3.508  13.234
   8123SM   H4G10790   3.393   3.379  13.346
   8123SM   C5F10791   3.291   3.564  13.380
   8123SM   H5F10792   3.187   3.531  13.405
   8123SM   H5G10793   3.284   3.664  13.331
   8123SM   C6F10794   3.369   3.575  13.511
   8123SM   H6F10795   3.477   3.588  13.485
   8123SM   H6G10796   3.362   3.479  13.568
   8123SM   C7F10797   3.323   3.692  13.597
   8123SM   H7F10798   3.320   3.784  13.535
   8123SM   H7G10799   3.399   3.709  13.675
   8123SM   C8F10800   3.186   3.671  13.665
   8123SM   H8F10801   3.110   3.652  13.587
   8123SM   H8G10802   3.158   3.766  13.717
   8123SM   C9F10803   3.184   3.558  13.769
   8123SM   H9F10804   3.204   3.460  13.720
   8123SM   H9G10805   3.083   3.554  13.815
   8123SM  C10F10806   3.286   3.577  13.882
   8123SM  H10F10807   3.267   3.678  13.924
   8123SM  H10G10808   3.389   3.574  13.842
   8123SM  C11F10809   3.276   3.474  13.995
   8123SM  H11F10810   3.350   3.393  13.979
   8123SM  H11G10811   3.175   3.427  13.996
   8123SM  C12F10812   3.297   3.542  14.130
   8123SM  H12F10813   3.364   3.629  14.117
   8123SM  H12G10814   3.347   3.475  14.203
   8123SM  C13F10815   3.161   3.588  14.184
   8123SM  H13F10816   3.098   3.499  14.203
   8123SM  H13G10817   3.111   3.647  14.104
   8123SM  C14F10818   3.170   3.675  14.310
   8123SM  H14F10819   3.072   3.724  14.328
   8123SM  H14G10820   3.245   3.755  14.291
   8123SM  C15F10821   3.210   3.597  14.434
   8123SM  H15F10822   3.310   3.551  14.414
   8123SM  H15G10823   3.139   3.514  14.455
   8123SM  C16F10824   3.226   3.687  14.557
   8123SM  H16F10825   3.280   3.778  14.524
   8123SM  H16G10826   3.290   3.635  14.631
   8123SM  C17F10827   3.096   3.725  14.631
   8123SM  H17F10828   3.034   3.634  14.646
   8123SM  H17G10829   3.038   3.795  14.567
   8123SM  C18F10830   3.126   3.791  14.767
   8123SM  H18F10831   3.170   3.715  14.836
   8123SM  H18G10832   3.031   3.825  14.813
   8123SM  C19F10833   3.220   3.911  14.753
   8123SM  H19F10834   3.167   3.987  14.692
   8123SM  H19G10835   3.312   3.882  14.697
   8123SM  C20F10836   3.271   3.977  14.882
   8123SM  H20F10837   3.354   3.917  14.925
   8123SM  H20G10838   3.191   3.979  14.958
   8123SM  C21F10839   3.322   4.118  14.846
   8123SM  H21F10840   3.235   4.184  14.824
   8123SM  H21G10841   3.379   4.108  14.750
   8123SM  C22F10842   3.416   4.188  14.946
   8123SM  H22F10843   3.452   4.282  14.898
   8123SM  H22G10844   3.505   4.123  14.962
   8123SM  C23F10845   3.353   4.224  15.080
   8123SM  H23F10846   3.428   4.265  15.150
   8123SM  H23G10847   3.308   4.134  15.127
   8123SM  H23H10848   3.273   4.299  15.067
   8223SM     N10849   3.941   4.324  12.275
   8223SM   C1510850   3.821   4.409  12.244
   8223SM  H15A10851   3.803   4.418  12.138
   8223SM  H15B10852   3.840   4.510  12.281
   8223SM  H15C10853   3.733   4.375  12.297
   8223SM   C1410854   3.910   4.181  12.248
   8223SM  H14A10855   3.996   4.118  12.271
   8223SM  H14B10856   3.881   4.166  12.145
   8223SM  H14C10857   3.826   4.149  12.309
   8223SM   C1310858   4.057   4.370  12.195
   8223SM  H13A10859   4.040   4.364  12.089
   8223SM  H13B10860   4.148   4.316  12.220
   8223SM  H13C10861   4.079   4.475  12.219
   8223SM   C1210862   3.972   4.335  12.424
   8223SM  H12A10863   4.044   4.257  12.450
   8223SM  H12B10864   3.881   4.312  12.479
   8223SM   C1110865   4.019   4.469  12.480
   8223SM  H11A10866   4.116   4.493  12.429
   8223SM  H11B10867   4.040   4.459  12.589
   8223SM     P10868   3.964   4.716  12.451
   8223SM   O1310869   4.081   4.724  12.358
   8223SM   O1410870   3.846   4.802  12.421
   8223SM   O1110871   4.013   4.738  12.603
   8223SM   O1210872   3.917   4.567  12.458
   8223SM   C1S10873   3.904   4.725  12.697
   8223SM   H1S10874   3.834   4.641  12.669
   8223SM   H1T10875   3.845   4.819  12.699
   8223SM    NF10876   3.817   4.665  12.911
   8223SM   HNF10877   3.766   4.744  12.945
   8223SM   C2S10878   3.942   4.689  12.844
   8223SM   H2S10879   4.004   4.597  12.843
   8223SM   C3S10880   4.025   4.799  12.912
   8223SM   H3S10881   3.973   4.897  12.901
   8223SM    O310882   4.154   4.812  12.852
   8223SM   HO310883   4.134   4.806  12.757
   8223SM   C4S10884   4.037   4.772  13.061
   8223SM   H4S10885   3.983   4.845  13.122
   8223SM   C5S10886   4.105   4.674  13.126
   8223SM   H5S10887   4.161   4.599  13.066
   8223SM   C6S10888   4.110   4.655  13.276
   8223SM   H6S10889   4.071   4.553  13.300
   8223SM   H6T10890   4.044   4.727  13.329
   8223SM   C7S10891   4.252   4.666  13.336
   8223SM   H7S10892   4.291   4.769  13.323
   8223SM   H7T10893   4.319   4.598  13.279
   8223SM   C8S10894   4.264   4.625  13.485
   8223SM   H8S10895   4.373   4.614  13.506
   8223SM   H8T10896   4.218   4.526  13.503
   8223SM   C9S10897   4.209   4.728  13.586
   8223SM   H9S10898   4.100   4.714  13.599
   8223SM   H9T10899   4.226   4.829  13.544
   8223SM  C10S10900   4.280   4.725  13.724
   8223SM  H10S10901   4.247   4.816  13.780
   8223SM  H10T10902   4.390   4.735  13.709
   8223SM  C11S10903   4.252   4.602  13.812
   8223SM  H11S10904   4.297   4.512  13.766
   8223SM  H11T10905   4.142   4.586  13.818
   8223SM  C12S10906   4.307   4.621  13.954
   8223SM  H12S10907   4.263   4.715  13.996
   8223SM  H12T10908   4.417   4.636  13.950
   8223SM  C13S10909   4.276   4.506  14.051
   8223SM  H13S10910   4.332   4.415  14.020
   8223SM  H13T10911   4.167   4.482  14.045
   8223SM  C14S10912   4.310   4.541  14.197
   8223SM  H14S10913   4.253   4.632  14.225
   8223SM  H14T10914   4.418   4.564  14.205
   8223SM  C15S10915   4.275   4.429  14.297
   8223SM  H15S10916   4.338   4.340  14.277
   8223SM  H15T10917   4.169   4.400  14.282
   8223SM  C16S10918   4.293   4.473  14.443
   8223SM  H16S10919   4.237   4.568  14.460
   8223SM  H16T10920   4.401   4.494  14.462
   8223SM  C17S10921   4.244   4.368  14.544
   8223SM  H17S10922   4.295   4.272  14.523
   8223SM  H17T10923   4.135   4.352  14.529
   8223SM  C18S10924   4.270   4.408  14.690
   8223SM  H18S10925   4.378   4.426  14.705
   8223SM  H18T10926   4.238   4.326  14.759
   8223SM  H18U10927   4.214   4.500  14.716
   8223SM   C1F10928   3.759   4.546  12.902
   8223SM    OF10929   3.812   4.454  12.842
   8223SM   C2F10930   3.620   4.534  12.955
   8223SM   H2F10931   3.564   4.484  12.873
   8223SM   H2G10932   3.578   4.635  12.968
   8223SM   C3F10933   3.602   4.450  13.085
   8223SM   H3F10934   3.615   4.342  13.060
   8223SM   H3G10935   3.497   4.463  13.118
   8223SM   C4F10936   3.692   4.479  13.207
   8223SM   H4F10937   3.785   4.418  13.200
   8223SM   H4G10938   3.638   4.443  13.298
   8223SM   C5F10939   3.731   4.625  13.232
   8223SM   H5F10940   3.799   4.659  13.152
   8223SM   H5G10941   3.792   4.630  13.325
   8223SM   C6F10942   3.613   4.722  13.245
   8223SM   H6F10943   3.547   4.719  13.156
   8223SM   H6G10944   3.654   4.825  13.251
   8223SM   C7F10945   3.528   4.696  13.370
   8223SM   H7F10946   3.472   4.600  13.361
   8223SM   H7G10947   3.454   4.778  13.374
   8223SM   C8F10948   3.610   4.696  13.500
   8223SM   H8F10949   3.677   4.785  13.497
   8223SM   H8G10950   3.674   4.606  13.503
   8223SM   C9F10951   3.526   4.703  13.628
   8223SM   H9F10952   3.418   4.706  13.600
   8223SM   H9G10953   3.544   4.798  13.681
   8223SM  C10F10954   3.550   4.593  13.732
   8223SM  H10F10955   3.512   4.498  13.690
   8223SM  H10G10956   3.490   4.618  13.822
   8223SM  C11F10957   3.694   4.574  13.785
   8223SM  H11F10958   3.768   4.585  13.703
   8223SM  H11G10959   3.700   4.469  13.822
   8223SM  C12F10960   3.729   4.666  13.904
   8223SM  H12F10961   3.637   4.715  13.942
   8223SM  H12G10962   3.795   4.747  13.866
   8223SM  C13F10963   3.797   4.595  14.025
   8223SM  H13F10964   3.879   4.530  13.988
   8223SM  H13G10965   3.720   4.530  14.073
   8223SM  C14F10966   3.853   4.694  14.129
   8223SM  H14F10967   3.779   4.776  14.134
   8223SM  H14G10968   3.948   4.737  14.088
   8223SM  C15F10969   3.879   4.645  14.274
   8223SM  H15F10970   3.928   4.728  14.329
   8223SM  H15G10971   3.951   4.560  14.273
   8223SM  C16F10972   3.752   4.607  14.354
   8223SM  H16F10973   3.711   4.515  14.307
   8223SM  H16G10974   3.675   4.686  14.341
   8223SM  C17F10975   3.773   4.577  14.505
   8223SM  H17F10976   3.851   4.497  14.510
   8223SM  H17G10977   3.679   4.534  14.546
   8223SM  C18F10978   3.819   4.690  14.601
   8223SM  H18F10979   3.905   4.745  14.557
   8223SM  H18G10980   3.859   4.639  14.692
   8223SM  C19F10981   3.708   4.785  14.653
   8223SM  H19F10982   3.632   4.723  14.705
   8223SM  H19G10983   3.658   4.832  14.565
   8223SM  C20F10984   3.750   4.898  14.751
   8223SM  H20F10985   3.655   4.942  14.791
   8223SM  H20G10986   3.801   4.980  14.697
   8223SM  C21F10987   3.835   4.854  14.872
   8223SM  H21F10988   3.927   4.802  14.840
   8223SM  H21G10989   3.775   4.779  14.928
   8223SM  C22F10990   3.875   4.969  14.968
   8223SM  H22F10991   3.784   5.029  14.986
   8223SM  H22G10992   3.946   5.041  14.925
   8223SM  C23F10993   3.935   4.925  15.102
   8223SM  H23F10994   3.879   4.838  15.138
   8223SM  H23G10995   3.926   5.005  15.179
   8223SM  H23H10996   4.041   4.894  15.091
   8323SM     N10997   4.816   4.560  12.181
   8323SM   C1510998   4.916   4.670  12.161
   8323SM  H15A10999   4.871   4.759  12.117
   8323SM  H15B11000   4.995   4.639  12.093
   8323SM  H15C11001   4.965   4.696  12.255
   8323SM   C1411002   4.760   4.518  12.050
   8323SM  H14A11003   4.712   4.599  11.997
   8323SM  H14B11004   4.687   4.437  12.057
   8323SM  H14C11005   4.840   4.482  11.987
   8323SM   C1311006   4.884   4.441  12.240
   8323SM  H13A11007   4.960   4.399  12.176
   8323SM  H13B11008   4.810   4.364  12.259
   8323SM  H13C11009   4.927   4.467  12.337
   8323SM   C1211010   4.707   4.602  12.279
   8323SM  H12A11011   4.638   4.519  12.292
   8323SM  H12B11012   4.649   4.683  12.238
   8323SM   C1111013   4.754   4.641  12.421
   8323SM  H11A11014   4.672   4.696  12.473
   8323SM  H11B11015   4.839   4.712  12.415
   8323SM     P11016   4.689   4.439  12.569
   8323SM   O1311017   4.566   4.428  12.489
   8323SM   O1411018   4.743   4.307  12.609
   8323SM   O1111019   4.656   4.523  12.698
   8323SM   O1211020   4.797   4.525  12.491
   8323SM   C1S11021   4.760   4.587  12.772
   8323SM   H1S11022   4.719   4.681  12.815
   8323SM   H1T11023   4.842   4.622  12.705
   8323SM    NF11024   4.899   4.393  12.844
   8323SM   HNF11025   4.856   4.306  12.821
   8323SM   C2S11026   4.815   4.502  12.892
   8323SM   H2S11027   4.877   4.568  12.957
   8323SM   C3S11028   4.695   4.453  12.977
   8323SM   H3S11029   4.629   4.387  12.916
   8323SM    O311030   4.618   4.565  13.020
   8323SM   HO311031   4.637   4.637  12.959
   8323SM   C4S11032   4.732   4.383  13.105
   8323SM   H4S11033   4.807   4.437  13.165
   8323SM   C5S11034   4.678   4.268  13.151
   8323SM   H5S11035   4.599   4.219  13.091
   8323SM   C6S11036   4.711   4.198  13.280
   8323SM   H6S11037   4.804   4.137  13.271
   8323SM   H6T11038   4.629   4.125  13.300
   8323SM   C7S11039   4.717   4.290  13.405
   8323SM   H7S11040   4.625   4.353  13.409
   8323SM   H7T11041   4.804   4.358  13.400
   8323SM   C8S11042   4.723   4.205  13.533
   8323SM   H8S11043   4.808   4.134  13.523
   8323SM   H8T11044   4.629   4.145  13.537
   8323SM   C9S11045   4.734   4.276  13.669
   8323SM   H9S11046   4.647   4.343  13.686
   8323SM   H9T11047   4.825   4.340  13.670
   8323SM  C10S11048   4.738   4.168  13.779
   8323SM  H10S11049   4.787   4.077  13.737
   8323SM  H10T11050   4.632   4.147  13.800
   8323SM  C11S11051   4.809   4.197  13.912
   8323SM  H11S11052   4.764   4.288  13.957
   8323SM  H11T11053   4.916   4.213  13.892
   8323SM  C12S11054   4.801   4.087  14.019
   8323SM  H12S11055   4.844   3.991  13.983
   8323SM  H12T11056   4.692   4.081  14.036
   8323SM  C13S11057   4.850   4.122  14.159
   8323SM  H13S11058   4.791   4.214  14.180
   8323SM  H13T11059   4.959   4.143  14.161
   8323SM  C14S11060   4.810   4.023  14.270
   8323SM  H14S11061   4.856   3.924  14.252
   8323SM  H14T11062   4.700   4.011  14.265
   8323SM  C15S11063   4.839   4.069  14.415
   8323SM  H15S11064   4.788   3.997  14.483
   8323SM  H15T11065   4.793   4.169  14.433
   8323SM  C16S11066   4.987   4.074  14.455
   8323SM  H16S11067   5.035   4.161  14.404
   8323SM  H16T11068   5.039   3.981  14.421
   8323SM  C17S11069   5.006   4.088  14.607
   8323SM  H17S11070   4.975   3.993  14.656
   8323SM  H17T11071   4.937   4.168  14.643
   8323SM  C18S11072   5.148   4.123  14.652
   8323SM  H18S11073   5.189   4.207  14.594
   8323SM  H18T11074   5.215   4.036  14.640
   8323SM  H18U11075   5.148   4.152  14.759
   8323SM   C1F11076   5.022   4.432  12.805
   8323SM    OF11077   5.049   4.550  12.789
   8323SM   C2F11078   5.132   4.333  12.792
   8323SM   H2F11079   5.209   4.378  12.726
   8323SM   H2G11080   5.099   4.237  12.748
   8323SM   C3F11081   5.196   4.314  12.930
   8323SM   H3F11082   5.215   4.414  12.977
   8323SM   H3G11083   5.296   4.268  12.918
   8323SM   C4F11084   5.114   4.228  13.026
   8323SM   H4F11085   5.108   4.126  12.982
   8323SM   H4G11086   5.010   4.266  13.039
   8323SM   C5F11087   5.180   4.221  13.163
   8323SM   H5F11088   5.291   4.227  13.152
   8323SM   H5G11089   5.159   4.122  13.207
   8323SM   C6F11090   5.133   4.327  13.264
   8323SM   H6F11091   5.062   4.399  13.219
   8323SM   H6G11092   5.223   4.384  13.295
   8323SM   C7F11093   5.071   4.261  13.389
   8323SM   H7F11094   5.124   4.167  13.411
   8323SM   H7G11095   4.967   4.231  13.367
   8323SM   C8F11096   5.082   4.341  13.518
   8323SM   H8F11097   5.009   4.424  13.516
   8323SM   H8G11098   5.186   4.380  13.524
   8323SM   C9F11099   5.072   4.257  13.645
   8323SM   H9F11100   5.151   4.179  13.639
   8323SM   H9G11101   4.977   4.201  13.650
   8323SM  C10F11102   5.099   4.337  13.774
   8323SM  H10F11103   5.208   4.357  13.766
   8323SM  H10G11104   5.093   4.275  13.864
   8323SM  C11F11105   5.029   4.475  13.792
   8323SM  H11F11106   4.996   4.519  13.696
   8323SM  H11G11107   5.108   4.542  13.829
   8323SM  C12F11108   4.921   4.498  13.900
   8323SM  H12F11109   4.823   4.457  13.868
   8323SM  H12G11110   4.904   4.608  13.904
   8323SM  C13F11111   4.959   4.452  14.042
   8323SM  H13F11112   5.054   4.501  14.072
   8323SM  H13G11113   4.979   4.344  14.043
   8323SM  C14F11114   4.850   4.482  14.147
   8323SM  H14F11115   4.754   4.438  14.113
   8323SM  H14G11116   4.835   4.592  14.154
   8323SM  C15F11117   4.881   4.428  14.288
   8323SM  H15F11118   4.904   4.320  14.287
   8323SM  H15G11119   4.794   4.442  14.355
   8323SM  C16F11120   5.007   4.485  14.350
   8323SM  H16F11121   5.052   4.559  14.281
   8323SM  H16G11122   5.081   4.402  14.361
   8323SM  C17F11123   4.981   4.547  14.486
   8323SM  H17F11124   4.896   4.618  14.481
   8323SM  H17G11125   5.073   4.605  14.511
   8323SM  C18F11126   4.961   4.444  14.597
   8323SM  H18F11127   5.046   4.373  14.588
   8323SM  H18G11128   4.867   4.387  14.584
   8323SM  C19F11129   4.971   4.505  14.738
   8323SM  H19F11130   5.064   4.563  14.740
   8323SM  H19G11131   4.983   4.423  14.813
   8323SM  C20F11132   4.860   4.602  14.781
   8323SM  H20F11133   4.760   4.555  14.775
   8323SM  H20G11134   4.854   4.685  14.708
   8323SM  C21F11135   4.887   4.661  14.921
   8323SM  H21F11136   4.799   4.723  14.947
   8323SM  H21G11137   4.975   4.729  14.910
   8323SM  C22F11138   4.925   4.571  15.043
   8323SM  H22F11139   5.032   4.544  15.032
   8323SM  H22G11140   4.871   4.476  15.051
   8323SM  C23F11141   4.901   4.637  15.179
   8323SM  H23F11142   4.992   4.692  15.210
   8323SM  H23G11143   4.880   4.563  15.258
   8323SM  H23H11144   4.815   4.708  15.176
   8423SM     N11145   4.210   2.278  12.183
   8423SM   C1511146   4.085   2.197  12.175
   8423SM  H15A11147   4.011   2.239  12.108
   8423SM  H15B11148   4.041   2.194  12.276
   8423SM  H15C11149   4.107   2.095  12.147
   8423SM   C1411150   4.304   2.214  12.282
   8423SM  H14A11151   4.262   2.221  12.383
   8423SM  H14B11152   4.399   2.264  12.289
   8423SM  H14C11153   4.324   2.110  12.261
   8423SM   C1311154   4.277   2.287  12.050
   8423SM  H13A11155   4.316   2.191  12.021
   8423SM  H13B11156   4.361   2.357  12.055
   8423SM  H13C11157   4.206   2.323  11.976
   8423SM   C1211158   4.178   2.419  12.230
   8423SM  H12A11159   4.131   2.471  12.147
   8423SM  H12B11160   4.271   2.471  12.251
   8423SM   C1111161   4.089   2.439  12.355
   8423SM  H11A11162   3.984   2.413  12.328
   8423SM  H11B11163   4.088   2.548  12.382
   8423SM     P11164   4.231   2.399  12.578
   8423SM   O1311165   4.349   2.310  12.575
   8423SM   O1411166   4.258   2.544  12.574
   8423SM   O1111167   4.144   2.366  12.705
   8423SM   O1211168   4.128   2.358  12.464
   8423SM   C1S11169   4.068   2.466  12.771
   8423SM   H1S11170   3.962   2.463  12.735
   8423SM   H1T11171   4.106   2.569  12.752
   8423SM    NF11172   4.217   2.433  12.963
   8423SM   HNF11173   4.257   2.342  12.960
   8423SM   C2S11174   4.077   2.443  12.924
   8423SM   H2S11175   4.030   2.533  12.972
   8423SM   C3S11176   3.997   2.318  12.968
   8423SM   H3S11177   4.049   2.227  12.934
   8423SM    O311178   3.864   2.315  12.915
   8423SM   HO311179   3.867   2.374  12.840
   8423SM   C4S11180   3.992   2.323  13.118
   8423SM   H4S11181   3.935   2.408  13.158
   8423SM   C5S11182   4.051   2.238  13.204
   8423SM   H5S11183   4.109   2.153  13.163
   8423SM   C6S11184   4.047   2.245  13.355
   8423SM   H6S11185   4.152   2.246  13.392
   8423SM   H6T11186   4.001   2.153  13.395
   8423SM   C7S11187   3.977   2.367  13.419
   8423SM   H7S11188   3.867   2.359  13.406
   8423SM   H7T11189   4.011   2.460  13.367
   8423SM   C8S11190   4.011   2.386  13.568
   8423SM   H8S11191   3.969   2.483  13.603
   8423SM   H8T11192   4.122   2.394  13.577
   8423SM   C9S11193   3.963   2.276  13.663
   8423SM   H9S11194   3.989   2.176  13.623
   8423SM   H9T11195   3.852   2.281  13.672
   8423SM  C10S11196   4.027   2.293  13.801
   8423SM  H10S11197   4.008   2.397  13.838
   8423SM  H10T11198   4.137   2.281  13.792
   8423SM  C11S11199   3.977   2.193  13.905
   8423SM  H11S11200   3.993   2.089  13.867
   8423SM  H11T11201   3.867   2.207  13.917
   8423SM  C12S11202   4.046   2.208  14.041
   8423SM  H12S11203   4.040   2.313  14.075
   8423SM  H12T11204   4.153   2.180  14.034
   8423SM  C13S11205   3.975   2.118  14.142
   8423SM  H13S11206   3.981   2.012  14.106
   8423SM  H13T11207   3.868   2.148  14.138
   8423SM  C14S11208   4.020   2.124  14.288
   8423SM  H14S11209   4.008   2.228  14.326
   8423SM  H14T11210   4.127   2.097  14.296
   8423SM  C15S11211   3.930   2.029  14.368
   8423SM  H15S11212   3.922   1.931  14.316
   8423SM  H15T11213   3.831   2.077  14.368
   8423SM  C16S11214   3.959   2.006  14.516
   8423SM  H16S11215   4.035   1.929  14.526
   8423SM  H16T11216   3.868   1.962  14.564
   8423SM  C17S11217   3.998   2.132  14.592
   8423SM  H17S11218   3.928   2.215  14.566
   8423SM  H17T11219   4.100   2.163  14.559
   8423SM  C18S11220   3.997   2.108  14.742
   8423SM  H18S11221   4.069   2.028  14.768
   8423SM  H18T11222   3.896   2.075  14.775
   8423SM  H18U11223   4.025   2.201  14.797
   8423SM   C1F11224   4.289   2.544  12.962
   8423SM    OF11225   4.233   2.653  12.956
   8423SM   C2F11226   4.437   2.531  12.976
   8423SM   H2F11227   4.489   2.590  12.899
   8423SM   H2G11228   4.468   2.425  12.966
   8423SM   C3F11229   4.476   2.584  13.115
   8423SM   H3F11230   4.441   2.689  13.125
   8423SM   H3G11231   4.586   2.585  13.125
   8423SM   C4F11232   4.412   2.499  13.225
   8423SM   H4F11233   4.421   2.392  13.195
   8423SM   H4G11234   4.303   2.521  13.233
   8423SM   C5F11235   4.479   2.514  13.361
   8423SM   H5F11236   4.454   2.612  13.406
   8423SM   H5G11237   4.589   2.506  13.351
   8423SM   C6F11238   4.430   2.402  13.453
   8423SM   H6F11239   4.459   2.303  13.411
   8423SM   H6G11240   4.318   2.404  13.456
   8423SM   C7F11241   4.483   2.414  13.595
   8423SM   H7F11242   4.458   2.513  13.638
   8423SM   H7G11243   4.594   2.403  13.593
   8423SM   C8F11244   4.426   2.303  13.683
   8423SM   H8F11245   4.442   2.205  13.631
   8423SM   H8G11246   4.316   2.317  13.694
   8423SM   C9F11247   4.493   2.296  13.820
   8423SM   H9F11248   4.466   2.386  13.880
   8423SM   H9G11249   4.603   2.299  13.804
   8423SM  C10F11250   4.458   2.168  13.896
   8423SM  H10F11251   4.473   2.081  13.828
   8423SM  H10G11252   4.351   2.169  13.925
   8423SM  C11F11253   4.546   2.148  14.020
   8423SM  H11F11254   4.653   2.151  13.990
   8423SM  H11G11255   4.526   2.047  14.062
   8423SM  C12F11256   4.521   2.252  14.129
   8423SM  H12F11257   4.411   2.262  14.146
   8423SM  H12G11258   4.560   2.350  14.095
   8423SM  C13F11259   4.590   2.214  14.260
   8423SM  H13F11260   4.696   2.188  14.237
   8423SM  H13G11261   4.543   2.123  14.304
   8423SM  C14F11262   4.589   2.326  14.363
   8423SM  H14F11263   4.639   2.415  14.319
   8423SM  H14G11264   4.649   2.292  14.450
   8423SM  C15F11265   4.451   2.368  14.415
   8423SM  H15F11266   4.401   2.280  14.461
   8423SM  H15G11267   4.387   2.404  14.330
   8423SM  C16F11268   4.467   2.481  14.518
   8423SM  H16F11269   4.519   2.566  14.468
   8423SM  H16G11270   4.533   2.447  14.600
   8423SM  C17F11271   4.336   2.535  14.579
   8423SM  H17F11272   4.275   2.579  14.496
   8423SM  H17G11273   4.362   2.618  14.649
   8423SM  C18F11274   4.251   2.431  14.652
   8423SM  H18F11275   4.232   2.344  14.585
   8423SM  H18G11276   4.152   2.476  14.675
   8423SM  C19F11277   4.312   2.380  14.784
   8423SM  H19F11278   4.414   2.341  14.769
   8423SM  H19G11279   4.249   2.294  14.816
   8423SM  C20F11280   4.310   2.486  14.895
   8423SM  H20F11281   4.220   2.549  14.879
   8423SM  H20G11282   4.399   2.552  14.890
   8423SM  C21F11283   4.296   2.425  15.036
   8423SM  H21F11284   4.248   2.325  15.028
   8423SM  H21G11285   4.225   2.487  15.095
   8423SM  C22F11286   4.426   2.412  15.116
   8423SM  H22F11287   4.482   2.506  15.126
   8423SM  H22G11288   4.497   2.346  15.062
   8423SM  C23F11289   4.393   2.359  15.255
   8423SM  H23F11290   4.472   2.293  15.297
   8423SM  H23G11291   4.300   2.299  15.249
   8423SM  H23H11292   4.372   2.443  15.324
   8523SM     N11293   5.936   3.607  12.342
   8523SM   C1511294   5.801   3.639  12.283
   8523SM  H15A11295   5.775   3.743  12.304
   8523SM  H15B11296   5.722   3.576  12.323
   8523SM  H15C11297   5.800   3.627  12.175
   8523SM   C1411298   5.924   3.604  12.491
   8523SM  H14A11299   5.836   3.548  12.523
   8523SM  H14B11300   5.910   3.705  12.528
   8523SM  H14C11301   6.012   3.562  12.539
   8523SM   C1311302   5.977   3.471  12.293
   8523SM  H13A11303   5.972   3.462  12.186
   8523SM  H13B11304   5.909   3.396  12.333
   8523SM  H13C11305   6.077   3.447  12.328
   8523SM   C1211306   6.031   3.717  12.299
   8523SM  H12A11307   6.015   3.739  12.194
   8523SM  H12B11308   6.133   3.681  12.308
   8523SM   C1111309   6.021   3.854  12.372
   8523SM  H11A11310   6.093   3.924  12.322
   8523SM  H11B11311   6.053   3.843  12.479
   8523SM     P11312   5.856   4.055  12.401
   8523SM   O1311313   5.934   4.146  12.314
   8523SM   O1411314   5.709   4.072  12.404
   8523SM   O1111315   5.915   4.067  12.550
   8523SM   O1211316   5.888   3.904  12.363
   8523SM   C1S11317   5.811   4.046  12.647
   8523SM   H1S11318   5.759   3.950  12.625
   8523SM   H1T11319   5.736   4.129  12.646
   8523SM    NF11320   5.740   4.009  12.872
   8523SM   HNF11321   5.704   4.086  12.925
   8523SM   C2S11322   5.859   4.031  12.793
   8523SM   H2S11323   5.925   3.942  12.800
   8523SM   C3S11324   5.939   4.154  12.839
   8523SM   H3S11325   5.871   4.240  12.831
   8523SM    O311326   6.057   4.176  12.762
   8523SM   HO311327   6.031   4.146  12.673
   8523SM   C4S11328   5.978   4.138  12.985
   8523SM   H4S11329   6.023   4.042  13.011
   8523SM   C5S11330   5.956   4.232  13.079
   8523SM   H5S11331   5.912   4.327  13.045
   8523SM   C6S11332   5.991   4.225  13.226
   8523SM   H6S11333   5.898   4.223  13.286
   8523SM   H6T11334   6.048   4.317  13.254
   8523SM   C7S11335   6.078   4.107  13.275
   8523SM   H7S11336   6.164   4.091  13.207
   8523SM   H7T11337   6.015   4.016  13.270
   8523SM   C8S11338   6.134   4.123  13.419
   8523SM   H8S11339   6.212   4.202  13.416
   8523SM   H8T11340   6.185   4.029  13.449
   8523SM   C9S11341   6.029   4.160  13.526
   8523SM   H9S11342   5.957   4.076  13.537
   8523SM   H9T11343   5.972   4.249  13.492
   8523SM  C10S11344   6.087   4.197  13.664
   8523SM  H10S11345   6.157   4.283  13.654
   8523SM  H10T11346   6.146   4.111  13.704
   8523SM  C11S11347   5.975   4.234  13.763
   8523SM  H11S11348   5.901   4.151  13.759
   8523SM  H11T11349   5.923   4.325  13.725
   8523SM  C12S11350   6.019   4.258  13.909
   8523SM  H12S11351   6.106   4.327  13.909
   8523SM  H12T11352   6.055   4.162  13.951
   8523SM  C13S11353   5.907   4.316  14.002
   8523SM  H13S11354   5.811   4.270  13.972
   8523SM  H13T11355   5.897   4.425  13.984
   8523SM  C14S11356   5.928   4.289  14.153
   8523SM  H14S11357   5.987   4.367  14.201
   8523SM  H14T11358   5.989   4.198  14.161
   8523SM  C15S11359   5.801   4.282  14.242
   8523SM  H15S11360   5.746   4.190  14.226
   8523SM  H15T11361   5.728   4.360  14.214
   8523SM  C16S11362   5.824   4.268  14.394
   8523SM  H16S11363   5.839   4.368  14.437
   8523SM  H16T11364   5.918   4.214  14.413
   8523SM  C17S11365   5.707   4.194  14.465
   8523SM  H17S11366   5.698   4.090  14.434
   8523SM  H17T11367   5.611   4.237  14.430
   8523SM  C18S11368   5.711   4.187  14.618
   8523SM  H18S11369   5.752   4.279  14.661
   8523SM  H18T11370   5.774   4.103  14.655
   8523SM  H18U11371   5.608   4.171  14.655
   8523SM   C1F11372   5.679   3.892  12.866
   8523SM    OF11373   5.720   3.802  12.795
   8523SM   C2F11374   5.565   3.870  12.954
   8523SM   H2F11375   5.480   3.827  12.898
   8523SM   H2G11376   5.531   3.962  13.005
   8523SM   C3F11377   5.616   3.765  13.053
   8523SM   H3F11378   5.680   3.686  13.007
   8523SM   H3G11379   5.526   3.711  13.087
   8523SM   C4F11380   5.689   3.831  13.169
   8523SM   H4F11381   5.641   3.801  13.263
   8523SM   H4G11382   5.680   3.942  13.165
   8523SM   C5F11383   5.835   3.792  13.185
   8523SM   H5F11384   5.898   3.855  13.118
   8523SM   H5G11385   5.853   3.686  13.157
   8523SM   C6F11386   5.875   3.811  13.331
   8523SM   H6F11387   5.821   3.899  13.374
   8523SM   H6G11388   5.984   3.833  13.335
   8523SM   C7F11389   5.851   3.691  13.422
   8523SM   H7F11390   5.915   3.606  13.390
   8523SM   H7G11391   5.746   3.657  13.418
   8523SM   C8F11392   5.885   3.726  13.567
   8523SM   H8F11393   5.863   3.636  13.629
   8523SM   H8G11394   5.817   3.807  13.601
   8523SM   C9F11395   6.030   3.772  13.582
   8523SM   H9F11396   6.031   3.883  13.580
   8523SM   H9G11397   6.088   3.738  13.493
   8523SM  C10F11398   6.106   3.722  13.705
   8523SM  H10F11399   6.184   3.797  13.730
   8523SM  H10G11400   6.158   3.627  13.679
   8523SM  C11F11401   6.017   3.696  13.827
   8523SM  H11F11402   5.978   3.593  13.819
   8523SM  H11G11403   5.929   3.763  13.822
   8523SM  C12F11404   6.092   3.717  13.959
   8523SM  H12F11405   6.135   3.820  13.958
   8523SM  H12G11406   6.176   3.645  13.965
   8523SM  C13F11407   6.006   3.703  14.085
   8523SM  H13F11408   5.927   3.779  14.082
   8523SM  H13G11409   6.067   3.721  14.177
   8523SM  C14F11410   5.931   3.571  14.098
   8523SM  H14F11411   5.997   3.502  14.152
   8523SM  H14G11412   5.915   3.531  13.997
   8523SM  C15F11413   5.793   3.581  14.169
   8523SM  H15F11414   5.735   3.489  14.152
   8523SM  H15G11415   5.736   3.663  14.121
   8523SM  C16F11416   5.813   3.606  14.319
   8523SM  H16F11417   5.875   3.696  14.322
   8523SM  H16G11418   5.879   3.525  14.355
   8523SM  C17F11419   5.690   3.619  14.414
   8523SM  H17F11420   5.637   3.521  14.415
   8523SM  H17G11421   5.620   3.696  14.374
   8523SM  C18F11422   5.722   3.659  14.561
   8523SM  H18F11423   5.727   3.769  14.569
   8523SM  H18G11424   5.822   3.622  14.589
   8523SM  C19F11425   5.618   3.621  14.667
   8523SM  H19F11426   5.668   3.580  14.758
   8523SM  H19G11427   5.551   3.543  14.626
   8523SM  C20F11428   5.537   3.747  14.705
   8523SM  H20F11429   5.488   3.783  14.612
   8523SM  H20G11430   5.609   3.826  14.738
   8523SM  C21F11431   5.429   3.734  14.813
   8523SM  H21F11432   5.475   3.737  14.915
   8523SM  H21G11433   5.380   3.635  14.802
   8523SM  C22F11434   5.322   3.844  14.799
   8523SM  H22F11435   5.277   3.832  14.698
   8523SM  H22G11436   5.372   3.944  14.801
   8523SM  C23F11437   5.210   3.840  14.903
   8523SM  H23F11438   5.139   3.759  14.883
   8523SM  H23G11439   5.148   3.932  14.897
   8523SM  H23H11440   5.249   3.827  15.005
   8623SM     N11441   3.740   1.655  12.187
   8623SM   C1511442   3.595   1.653  12.223
   8623SM  H15A11443   3.564   1.555  12.258
   8623SM  H15B11444   3.532   1.686  12.142
   8623SM  H15C11445   3.579   1.718  12.310
   8623SM   C1411446   3.765   1.560  12.073
   8623SM  H14A11447   3.758   1.456  12.102
   8623SM  H14B11448   3.863   1.574  12.029
   8623SM  H14C11449   3.694   1.575  11.994
   8623SM   C1311450   3.771   1.793  12.137
   8623SM  H13A11451   3.736   1.867  12.208
   8623SM  H13B11452   3.721   1.812  12.041
   8623SM  H13C11453   3.875   1.809  12.120
   8623SM   C1211454   3.819   1.614  12.310
   8623SM  H12A11455   3.922   1.596  12.284
   8623SM  H12B11456   3.780   1.519  12.348
   8623SM   C1111457   3.816   1.709  12.433
   8623SM  H11A11458   3.849   1.810  12.402
   8623SM  H11B11459   3.889   1.673  12.509
   8623SM     P11460   3.622   1.596  12.573
   8623SM   O1311461   3.478   1.593  12.540
   8623SM   O1411462   3.704   1.476  12.544
   8623SM   O1111463   3.640   1.642  12.724
   8623SM   O1211464   3.684   1.717  12.489
   8623SM   C1S11465   3.642   1.782  12.751
   8623SM   H1S11466   3.542   1.825  12.728
   8623SM   H1T11467   3.718   1.835  12.689
   8623SM    NF11468   3.811   1.759  12.926
   8623SM   HNF11469   3.814   1.661  12.935
   8623SM   C2S11470   3.680   1.816  12.898
   8623SM   H2S11471   3.685   1.927  12.908
   8623SM   C3S11472   3.573   1.766  12.997
   8623SM   H3S11473   3.558   1.657  12.995
   8623SM    O311474   3.447   1.824  12.964
   8623SM   HO311475   3.451   1.837  12.869
   8623SM   C4S11476   3.613   1.813  13.134
   8623SM   H4S11477   3.576   1.912  13.163
   8623SM   C5S11478   3.690   1.744  13.220
   8623SM   H5S11479   3.728   1.644  13.192
   8623SM   C6S11480   3.731   1.792  13.356
   8623SM   H6S11481   3.672   1.880  13.390
   8623SM   H6T11482   3.838   1.823  13.353
   8623SM   C7S11483   3.718   1.678  13.457
   8623SM   H7S11484   3.772   1.587  13.420
   8623SM   H7T11485   3.611   1.652  13.469
   8623SM   C8S11486   3.777   1.713  13.594
   8623SM   H8S11487   3.880   1.751  13.580
   8623SM   H8T11488   3.782   1.621  13.656
   8623SM   C9S11489   3.689   1.816  13.665
   8623SM   H9S11490   3.587   1.772  13.676
   8623SM   H9T11491   3.680   1.908  13.604
   8623SM  C10S11492   3.741   1.854  13.803
   8623SM  H10S11493   3.838   1.907  13.795
   8623SM  H10T11494   3.760   1.760  13.860
   8623SM  C11S11495   3.636   1.940  13.875
   8623SM  H11S11496   3.536   1.893  13.861
   8623SM  H11T11497   3.634   2.041  13.829
   8623SM  C12S11498   3.662   1.950  14.024
   8623SM  H12S11499   3.764   1.990  14.039
   8623SM  H12T11500   3.664   1.848  14.065
   8623SM  C13S11501   3.560   2.034  14.104
   8623SM  H13S11502   3.462   1.983  14.106
   8623SM  H13T11503   3.547   2.133  14.056
   8623SM  C14S11504   3.617   2.050  14.245
   8623SM  H14S11505   3.699   2.124  14.236
   8623SM  H14T11506   3.660   1.951  14.275
   8623SM  C15S11507   3.529   2.098  14.360
   8623SM  H15S11508   3.425   2.064  14.341
   8623SM  H15T11509   3.530   2.210  14.363
   8623SM  C16S11510   3.576   2.038  14.495
   8623SM  H16S11511   3.679   1.999  14.485
   8623SM  H16T11512   3.512   1.950  14.516
   8623SM  C17S11513   3.575   2.131  14.617
   8623SM  H17S11514   3.498   2.211  14.603
   8623SM  H17T11515   3.672   2.183  14.623
   8623SM  C18S11516   3.544   2.057  14.749
   8623SM  H18S11517   3.631   2.002  14.788
   8623SM  H18T11518   3.463   1.982  14.732
   8623SM  H18U11519   3.508   2.127  14.827
   8623SM   C1F11520   3.917   1.821  12.879
   8623SM    OF11521   3.907   1.938  12.842
   8623SM   C2F11522   4.047   1.745  12.873
   8623SM   H2F11523   4.081   1.724  12.976
   8623SM   H2G11524   4.122   1.813  12.825
   8623SM   C3F11525   4.041   1.614  12.791
   8623SM   H3F11526   4.144   1.571  12.789
   8623SM   H3G11527   4.015   1.639  12.686
   8623SM   C4F11528   3.944   1.503  12.837
   8623SM   H4F11529   3.964   1.411  12.778
   8623SM   H4G11530   3.841   1.533  12.810
   8623SM   C5F11531   3.949   1.467  12.986
   8623SM   H5F11532   3.939   1.556  13.051
   8623SM   H5G11533   4.047   1.421  13.007
   8623SM   C6F11534   3.843   1.364  13.026
   8623SM   H6F11535   3.854   1.340  13.134
   8623SM   H6G11536   3.865   1.271  12.969
   8623SM   C7F11537   3.699   1.406  12.995
   8623SM   H7F11538   3.684   1.396  12.885
   8623SM   H7G11539   3.688   1.512  13.021
   8623SM   C8F11540   3.591   1.323  13.066
   8623SM   H8F11541   3.629   1.222  13.091
   8623SM   H8G11542   3.508   1.309  12.993
   8623SM   C9F11543   3.536   1.389  13.194
   8623SM   H9F11544   3.433   1.351  13.208
   8623SM   H9G11545   3.532   1.499  13.182
   8623SM  C10F11546   3.612   1.350  13.322
   8623SM  H10F11547   3.710   1.403  13.325
   8623SM  H10G11548   3.635   1.242  13.318
   8623SM  C11F11549   3.529   1.379  13.448
   8623SM  H11F11550   3.442   1.309  13.452
   8623SM  H11G11551   3.488   1.482  13.439
   8623SM  C12F11552   3.606   1.371  13.581
   8623SM  H12F11553   3.706   1.416  13.569
   8623SM  H12G11554   3.621   1.264  13.610
   8623SM  C13F11555   3.530   1.444  13.694
   8623SM  H13F11556   3.426   1.403  13.695
   8623SM  H13G11557   3.523   1.552  13.669
   8623SM  C14F11558   3.587   1.427  13.835
   8623SM  H14F11559   3.687   1.475  13.844
   8623SM  H14G11560   3.601   1.318  13.853
   8623SM  C15F11561   3.493   1.483  13.944
   8623SM  H15F11562   3.503   1.419  14.034
   8623SM  H15G11563   3.387   1.474  13.912
   8623SM  C16F11564   3.523   1.627  13.989
   8623SM  H16F11565   3.471   1.694  13.917
   8623SM  H16G11566   3.632   1.645  13.979
   8623SM  C17F11567   3.481   1.661  14.133
   8623SM  H17F11568   3.393   1.601  14.162
   8623SM  H17G11569   3.450   1.768  14.137
   8623SM  C18F11570   3.595   1.644  14.236
   8623SM  H18F11571   3.677   1.717  14.217
   8623SM  H18G11572   3.642   1.545  14.222
   8623SM  C19F11573   3.552   1.660  14.382
   8623SM  H19F11574   3.467   1.594  14.405
   8623SM  H19G11575   3.518   1.765  14.398
   8623SM  C20F11576   3.669   1.628  14.478
   8623SM  H20F11577   3.761   1.677  14.438
   8623SM  H20G11578   3.687   1.518  14.478
   8623SM  C21F11579   3.649   1.677  14.622
   8623SM  H21F11580   3.631   1.787  14.621
   8623SM  H21G11581   3.743   1.660  14.679
   8623SM  C22F11582   3.534   1.608  14.695
   8623SM  H22F11583   3.551   1.498  14.696
   8623SM  H22G11584   3.439   1.627  14.640
   8623SM  C23F11585   3.518   1.659  14.838
   8623SM  H23F11586   3.604   1.627  14.901
   8623SM  H23G11587   3.425   1.620  14.885
   8623SM  H23H11588   3.515   1.770  14.839
   8723SM     N11589   4.492   1.661  12.180
   8723SM   C1511590   4.503   1.811  12.177
   8723SM  H15A11591   4.594   1.844  12.126
   8723SM  H15B11592   4.510   1.851  12.279
   8723SM  H15C11593   4.420   1.857  12.127
   8723SM   C1411594   4.374   1.623  12.263
   8723SM  H14A11595   4.374   1.517  12.286
   8723SM  H14B11596   4.279   1.655  12.224
   8723SM  H14C11597   4.386   1.671  12.362
   8723SM   C1311598   4.476   1.611  12.040
   8723SM  H13A11599   4.566   1.624  11.980
   8723SM  H13B11600   4.398   1.666  11.989
   8723SM  H13C11601   4.450   1.506  12.037
   8723SM   C1211602   4.616   1.606  12.250
   8723SM  H12A11603   4.703   1.622  12.187
   8723SM  H12B11604   4.602   1.499  12.264
   8723SM   C1111605   4.651   1.664  12.390
   8723SM  H11A11606   4.677   1.771  12.378
   8723SM  H11B11607   4.744   1.614  12.428
   8723SM     P11608   4.512   1.516  12.558
   8723SM   O1311609   4.368   1.526  12.591
   8723SM   O1411610   4.555   1.406  12.467
   8723SM   O1111611   4.604   1.535  12.687
   8723SM   O1211612   4.544   1.653  12.485
   8723SM   C1S11613   4.580   1.655  12.764
   8723SM   H1S11614   4.472   1.683  12.766
   8723SM   H1T11615   4.637   1.738  12.718
   8723SM    NF11616   4.500   1.611  12.993
   8723SM   HNF11617   4.456   1.684  13.044
   8723SM   C2S11618   4.619   1.645  12.916
   8723SM   H2S11619   4.696   1.565  12.929
   8723SM   C3S11620   4.681   1.781  12.965
   8723SM   H3S11621   4.608   1.862  12.942
   8723SM    O311622   4.803   1.823  12.904
   8723SM   HO311623   4.827   1.751  12.845
   8723SM   C4S11624   4.698   1.771  13.115
   8723SM   H4S11625   4.740   1.674  13.146
   8723SM   C5S11626   4.667   1.861  13.211
   8723SM   H5S11627   4.631   1.961  13.183
   8723SM   C6S11628   4.687   1.835  13.359
   8723SM   H6S11629   4.643   1.918  13.418
   8723SM   H6T11630   4.796   1.832  13.383
   8723SM   C7S11631   4.620   1.704  13.407
   8723SM   H7S11632   4.644   1.621  13.337
   8723SM   H7T11633   4.509   1.717  13.407
   8723SM   C8S11634   4.666   1.657  13.546
   8723SM   H8S11635   4.767   1.699  13.561
   8723SM   H8T11636   4.675   1.546  13.542
   8723SM   C9S11637   4.575   1.689  13.665
   8723SM   H9S11638   4.488   1.622  13.651
   8723SM   H9T11639   4.540   1.794  13.662
   8723SM  C10S11640   4.636   1.656  13.802
   8723SM  H10S11641   4.699   1.742  13.834
   8723SM  H10T11642   4.701   1.566  13.791
   8723SM  C11S11643   4.533   1.621  13.910
   8723SM  H11S11644   4.480   1.528  13.881
   8723SM  H11T11645   4.459   1.703  13.917
   8723SM  C12S11646   4.594   1.599  14.050
   8723SM  H12S11647   4.672   1.520  14.048
   8723SM  H12T11648   4.514   1.565  14.120
   8723SM  C13S11649   4.654   1.727  14.106
   8723SM  H13S11650   4.584   1.812  14.091
   8723SM  H13T11651   4.747   1.753  14.051
   8723SM  C14S11652   4.687   1.714  14.254
   8723SM  H14S11653   4.755   1.627  14.272
   8723SM  H14T11654   4.596   1.700  14.316
   8723SM  C15S11655   4.755   1.842  14.295
   8723SM  H15S11656   4.689   1.930  14.279
   8723SM  H15T11657   4.846   1.854  14.230
   8723SM  C16S11658   4.802   1.843  14.437
   8723SM  H16S11659   4.867   1.756  14.454
   8723SM  H16T11660   4.719   1.838  14.511
   8723SM  C17S11661   4.884   1.970  14.450
   8723SM  H17S11662   4.815   2.057  14.444
   8723SM  H17T11663   4.954   1.976  14.363
   8723SM  C18S11664   4.964   1.966  14.578
   8723SM  H18S11665   4.901   2.001  14.662
   8723SM  H18T11666   5.055   2.029  14.568
   8723SM  H18U11667   4.994   1.862  14.600
   8723SM   C1F11668   4.448   1.488  12.998
   8723SM    OF11669   4.514   1.390  12.968
   8723SM   C2F11670   4.306   1.478  13.045
   8723SM   H2F11671   4.243   1.465  12.954
   8723SM   H2G11672   4.275   1.572  13.095
   8723SM   C3F11673   4.281   1.358  13.140
   8723SM   H3F11674   4.301   1.264  13.083
   8723SM   H3G11675   4.174   1.355  13.169
   8723SM   C4F11676   4.366   1.358  13.269
   8723SM   H4F11677   4.472   1.337  13.242
   8723SM   H4G11678   4.332   1.275  13.335
   8723SM   C5F11679   4.360   1.489  13.351
   8723SM   H5F11680   4.400   1.572  13.288
   8723SM   H5G11681   4.427   1.479  13.439
   8723SM   C6F11682   4.218   1.526  13.398
   8723SM   H6F11683   4.172   1.440  13.450
   8723SM   H6G11684   4.157   1.545  13.307
   8723SM   C7F11685   4.211   1.651  13.487
   8723SM   H7F11686   4.111   1.699  13.477
   8723SM   H7G11687   4.287   1.724  13.448
   8723SM   C8F11688   4.239   1.627  13.636
   8723SM   H8F11689   4.294   1.716  13.674
   8723SM   H8G11690   4.304   1.538  13.649
   8723SM   C9F11691   4.117   1.609  13.728
   8723SM   H9F11692   4.068   1.512  13.703
   8723SM   H9G11693   4.042   1.690  13.710
   8723SM  C10F11694   4.157   1.610  13.877
   8723SM  H10F11695   4.249   1.549  13.889
   8723SM  H10G11696   4.076   1.563  13.937
   8723SM  C11F11697   4.185   1.751  13.931
   8723SM  H11F11698   4.094   1.814  13.921
   8723SM  H11G11699   4.265   1.798  13.870
   8723SM  C12F11700   4.232   1.753  14.078
   8723SM  H12F11701   4.316   1.682  14.090
   8723SM  H12G11702   4.149   1.718  14.144
   8723SM  C13F11703   4.279   1.893  14.121
   8723SM  H13F11704   4.191   1.960  14.127
   8723SM  H13G11705   4.345   1.933  14.041
   8723SM  C14F11706   4.355   1.896  14.254
   8723SM  H14F11707   4.384   2.002  14.274
   8723SM  H14G11708   4.447   1.836  14.246
   8723SM  C15F11709   4.272   1.846  14.372
   8723SM  H15F11710   4.214   1.756  14.345
   8723SM  H15G11711   4.200   1.928  14.393
   8723SM  C16F11712   4.348   1.816  14.502
   8723SM  H16F11713   4.430   1.890  14.518
   8723SM  H16G11714   4.392   1.715  14.499
   8723SM  C17F11715   4.241   1.828  14.611
   8723SM  H17F11716   4.153   1.766  14.583
   8723SM  H17G11717   4.212   1.937  14.610
   8723SM  C18F11718   4.277   1.803  14.756
   8723SM  H18F11719   4.212   1.866  14.819
   8723SM  H18G11720   4.378   1.842  14.770
   8723SM  C19F11721   4.259   1.659  14.807
   8723SM  H19F11722   4.313   1.591  14.739
   8723SM  H19G11723   4.152   1.634  14.799
   8723SM  C20F11724   4.305   1.650  14.954
   8723SM  H20F11725   4.250   1.732  15.004
   8723SM  H20G11726   4.413   1.673  14.958
   8723SM  C21F11727   4.275   1.521  15.033
   8723SM  H21F11728   4.289   1.432  14.969
   8723SM  H21G11729   4.168   1.526  15.060
   8723SM  C22F11730   4.353   1.497  15.166
   8723SM  H22F11731   4.338   1.391  15.196
   8723SM  H22G11732   4.309   1.558  15.248
   8723SM  C23F11733   4.502   1.527  15.158
   8723SM  H23F11734   4.545   1.470  15.074
   8723SM  H23G11735   4.556   1.496  15.251
   8723SM  H23H11736   4.522   1.635  15.141
   8823SM     N11737   1.789   2.316  12.197
   8823SM   C1511738   1.808   2.255  12.063
   8823SM  H15A11739   1.731   2.289  11.996
   8823SM  H15B11740   1.805   2.147  12.068
   8823SM  H15C11741   1.904   2.287  12.021
   8823SM   C1411742   1.895   2.265  12.290
   8823SM  H14A11743   1.891   2.158  12.302
   8823SM  H14B11744   1.878   2.307  12.390
   8823SM  H14C11745   1.994   2.299  12.261
   8823SM   C1311746   1.810   2.464  12.187
   8823SM  H13A11747   1.800   2.509  12.286
   8823SM  H13B11748   1.734   2.511  12.126
   8823SM  H13C11749   1.908   2.491  12.150
   8823SM   C1211750   1.651   2.286  12.256
   8823SM  H12A11751   1.635   2.179  12.262
   8823SM  H12B11752   1.574   2.329  12.192
   8823SM   C1111753   1.622   2.344  12.395
   8823SM  H11A11754   1.702   2.306  12.465
   8823SM  H11B11755   1.526   2.302  12.432
   8823SM     P11756   1.638   2.560  12.527
   8823SM   O1311757   1.765   2.512  12.586
   8823SM   O1411758   1.627   2.706  12.504
   8823SM   O1111759   1.511   2.508  12.611
   8823SM   O1211760   1.615   2.487  12.389
   8823SM   C1S11761   1.529   2.414  12.720
   8823SM   H1S11762   1.625   2.358  12.714
   8823SM   H1T11763   1.449   2.336  12.717
   8823SM    NF11764   1.547   2.377  12.964
   8823SM   HNF11765   1.468   2.340  13.014
   8823SM   C2S11766   1.518   2.478  12.862
   8823SM   H2S11767   1.596   2.558  12.869
   8823SM   C3S11768   1.378   2.543  12.888
   8823SM   H3S11769   1.298   2.466  12.883
   8823SM    O311770   1.338   2.640  12.791
   8823SM   HO311771   1.402   2.630  12.719
   8823SM   C4S11772   1.386   2.598  13.029
   8823SM   H4S11773   1.441   2.693  13.040
   8823SM   C5S11774   1.335   2.539  13.139
   8823SM   H5S11775   1.279   2.444  13.129
   8823SM   C6S11776   1.344   2.589  13.282
   8823SM   H6S11777   1.246   2.587  13.332
   8823SM   H6T11778   1.384   2.693  13.289
   8823SM   C7S11779   1.442   2.492  13.353
   8823SM   H7S11780   1.545   2.510  13.315
   8823SM   H7T11781   1.418   2.386  13.329
   8823SM   C8S11782   1.443   2.500  13.506
   8823SM   H8S11783   1.445   2.606  13.538
   8823SM   H8T11784   1.535   2.450  13.544
   8823SM   C9S11785   1.322   2.427  13.565
   8823SM   H9S11786   1.324   2.320  13.535
   8823SM   H9T11787   1.232   2.474  13.520
   8823SM  C10S11788   1.304   2.438  13.716
   8823SM  H10S11789   1.219   2.372  13.746
   8823SM  H10T11790   1.273   2.543  13.739
   8823SM  C11S11791   1.425   2.404  13.802
   8823SM  H11S11792   1.518   2.452  13.763
   8823SM  H11T11793   1.441   2.294  13.802
   8823SM  C12S11794   1.399   2.455  13.944
   8823SM  H12S11795   1.290   2.448  13.963
   8823SM  H12T11796   1.427   2.562  13.951
   8823SM  C13S11797   1.468   2.375  14.054
   8823SM  H13S11798   1.578   2.392  14.050
   8823SM  H13T11799   1.450   2.266  14.038
   8823SM  C14S11800   1.411   2.417  14.189
   8823SM  H14S11801   1.301   2.401  14.188
   8823SM  H14T11802   1.430   2.526  14.203
   8823SM  C15S11803   1.471   2.341  14.306
   8823SM  H15S11804   1.581   2.354  14.303
   8823SM  H15T11805   1.448   2.232  14.296
   8823SM  C16S11806   1.417   2.392  14.440
   8823SM  H16S11807   1.315   2.353  14.458
   8823SM  H16T11808   1.412   2.503  14.435
   8823SM  C17S11809   1.510   2.354  14.555
   8823SM  H17S11810   1.616   2.363  14.522
   8823SM  H17T11811   1.492   2.248  14.584
   8823SM  C18S11812   1.492   2.445  14.676
   8823SM  H18S11813   1.389   2.433  14.718
   8823SM  H18T11814   1.507   2.551  14.648
   8823SM  H18U11815   1.566   2.417  14.754
   8823SM   C1F11816   1.666   2.322  12.981
   8823SM    OF11817   1.762   2.357  12.916
   8823SM   C2F11818   1.673   2.212  13.080
   8823SM   H2F11819   1.696   2.117  13.026
   8823SM   H2G11820   1.575   2.200  13.131
   8823SM   C3F11821   1.781   2.240  13.185
   8823SM   H3F11822   1.765   2.339  13.233
   8823SM   H3G11823   1.883   2.241  13.139
   8823SM   C4F11824   1.773   2.131  13.293
   8823SM   H4F11825   1.795   2.033  13.243
   8823SM   H4G11826   1.670   2.127  13.333
   8823SM   C5F11827   1.871   2.152  13.407
   8823SM   H5F11828   1.972   2.173  13.364
   8823SM   H5G11829   1.875   2.057  13.465
   8823SM   C6F11830   1.836   2.264  13.505
   8823SM   H6F11831   1.736   2.244  13.548
   8823SM   H6G11832   1.829   2.361  13.452
   8823SM   C7F11833   1.944   2.273  13.613
   8823SM   H7F11834   2.000   2.367  13.604
   8823SM   H7G11835   2.020   2.195  13.593
   8823SM   C8F11836   1.898   2.262  13.758
   8823SM   H8F11837   1.854   2.359  13.790
   8823SM   H8G11838   1.988   2.243  13.821
   8823SM   C9F11839   1.798   2.151  13.787
   8823SM   H9F11840   1.843   2.054  13.756
   8823SM   H9G11841   1.704   2.164  13.730
   8823SM  C10F11842   1.767   2.148  13.935
   8823SM  H10F11843   1.708   2.238  13.962
   8823SM  H10G11844   1.863   2.152  13.991
   8823SM  C11F11845   1.691   2.022  13.973
   8823SM  H11F11846   1.730   1.936  13.913
   8823SM  H11G11847   1.584   2.034  13.947
   8823SM  C12F11848   1.708   1.986  14.120
   8823SM  H12F11849   1.800   1.924  14.131
   8823SM  H12G11850   1.621   1.923  14.147
   8823SM  C13F11851   1.716   2.103  14.221
   8823SM  H13F11852   1.625   2.163  14.211
   8823SM  H13G11853   1.805   2.167  14.202
   8823SM  C14F11854   1.729   2.039  14.360
   8823SM  H14F11855   1.816   1.970  14.347
   8823SM  H14G11856   1.635   1.981  14.378
   8823SM  C15F11857   1.759   2.118  14.487
   8823SM  H15F11858   1.664   2.134  14.542
   8823SM  H15G11859   1.804   2.217  14.464
   8823SM  C16F11860   1.855   2.035  14.576
   8823SM  H16F11861   1.957   2.046  14.532
   8823SM  H16G11862   1.828   1.927  14.567
   8823SM  C17F11863   1.860   2.071  14.725
   8823SM  H17F11864   1.852   2.181  14.738
   8823SM  H17G11865   1.960   2.041  14.763
   8823SM  C18F11866   1.758   1.997  14.815
   8823SM  H18F11867   1.759   1.889  14.790
   8823SM  H18G11868   1.657   2.036  14.792
   8823SM  C19F11869   1.785   2.010  14.968
   8823SM  H19F11870   1.868   1.942  14.996
   8823SM  H19G11871   1.695   1.977  15.024
   8823SM  C20F11872   1.825   2.154  15.007
   8823SM  H20F11873   1.754   2.225  14.959
   8823SM  H20G11874   1.925   2.169  14.960
   8823SM  C21F11875   1.843   2.190  15.156
   8823SM  H21F11876   1.918   2.124  15.205
   8823SM  H21G11877   1.748   2.188  15.215
   8823SM  C22F11878   1.900   2.332  15.165
   8823SM  H22F11879   1.826   2.408  15.135
   8823SM  H22G11880   1.966   2.339  15.080
   8823SM  C23F11881   1.978   2.370  15.290
   8823SM  H23F11882   1.983   2.480  15.302
   8823SM  H23G11883   2.082   2.333  15.283
   8823SM  H23H11884   1.930   2.325  15.379
   8923SM     N11885   6.099   2.617  12.219
   8923SM   C1511886   6.038   2.719  12.127
   8923SM  H15A11887   5.929   2.719  12.132
   8923SM  H15B11888   6.066   2.697  12.024
   8923SM  H15C11889   6.072   2.819  12.149
   8923SM   C1411890   6.038   2.483  12.189
   8923SM  H14A11891   5.936   2.477  12.225
   8923SM  H14B11892   6.092   2.405  12.243
   8923SM  H14C11893   6.038   2.460  12.084
   8923SM   C1311894   6.245   2.607  12.190
   8923SM  H13A11895   6.289   2.531  12.256
   8923SM  H13B11896   6.298   2.700  12.207
   8923SM  H13C11897   6.264   2.578  12.087
   8923SM   C1211898   6.068   2.653  12.364
   8923SM  H12A11899   5.964   2.624  12.384
   8923SM  H12B11900   6.071   2.760  12.376
   8923SM   C1111901   6.149   2.585  12.476
   8923SM  H11A11902   6.123   2.631  12.575
   8923SM  H11B11903   6.258   2.603  12.460
   8923SM     P11904   5.986   2.384  12.524
   8923SM   O1311905   5.883   2.460  12.451
   8923SM   O1411906   5.995   2.237  12.509
   8923SM   O1111907   5.971   2.421  12.676
   8923SM   O1211908   6.127   2.444  12.479
   8923SM   C1S11909   6.080   2.408  12.766
   8923SM   H1S11910   6.173   2.455  12.726
   8923SM   H1T11911   6.101   2.300  12.788
   8923SM    NF11912   6.155   2.482  12.988
   8923SM   HNF11913   6.162   2.413  13.060
   8923SM   C2S11914   6.042   2.480  12.897
   8923SM   H2S11915   6.014   2.585  12.874
   8923SM   C3S11916   5.917   2.408  12.957
   8923SM   H3S11917   5.938   2.299  12.966
   8923SM    O311918   5.799   2.418  12.878
   8923SM   HO311919   5.835   2.426  12.788
   8923SM   C4S11920   5.881   2.465  13.089
   8923SM   H4S11921   5.845   2.568  13.082
   8923SM   C5S11922   5.884   2.404  13.208
   8923SM   H5S11923   5.920   2.300  13.215
   8923SM   C6S11924   5.844   2.472  13.336
   8923SM   H6S11925   5.858   2.582  13.328
   8923SM   H6T11926   5.907   2.434  13.419
   8923SM   C7S11927   5.698   2.448  13.374
   8923SM   H7S11928   5.681   2.339  13.390
   8923SM   H7T11929   5.632   2.480  13.290
   8923SM   C8S11930   5.654   2.523  13.501
   8923SM   H8S11931   5.554   2.569  13.483
   8923SM   H8T11932   5.725   2.605  13.526
   8923SM   C9S11933   5.639   2.428  13.620
   8923SM   H9S11934   5.736   2.378  13.641
   8923SM   H9T11935   5.565   2.349  13.592
   8923SM  C10S11936   5.588   2.495  13.749
   8923SM  H10S11937   5.556   2.415  13.819
   8923SM  H10T11938   5.500   2.560  13.728
   8923SM  C11S11939   5.698   2.576  13.817
   8923SM  H11S11940   5.728   2.661  13.751
   8923SM  H11T11941   5.788   2.512  13.831
   8923SM  C12S11942   5.655   2.632  13.952
   8923SM  H12S11943   5.569   2.701  13.943
   8923SM  H12T11944   5.740   2.692  13.985
   8923SM  C13S11945   5.633   2.528  14.062
   8923SM  H13S11946   5.723   2.462  14.065
   8923SM  H13T11947   5.545   2.465  14.038
   8923SM  C14S11948   5.615   2.594  14.200
   8923SM  H14S11949   5.509   2.626  14.213
   8923SM  H14T11950   5.677   2.686  14.206
   8923SM  C15S11951   5.659   2.501  14.312
   8923SM  H15S11952   5.759   2.458  14.289
   8923SM  H15T11953   5.587   2.418  14.319
   8923SM  C16S11954   5.663   2.567  14.450
   8923SM  H16S11955   5.559   2.597  14.478
   8923SM  H16T11956   5.726   2.658  14.447
   8923SM  C17S11957   5.718   2.470  14.555
   8923SM  H17S11958   5.824   2.445  14.531
   8923SM  H17T11959   5.659   2.375  14.550
   8923SM  C18S11960   5.707   2.527  14.695
   8923SM  H18S11961   5.736   2.452  14.772
   8923SM  H18T11962   5.602   2.557  14.713
   8923SM  H18U11963   5.772   2.617  14.706
   8923SM   C1F11964   6.260   2.561  12.962
   8923SM    OF11965   6.254   2.641  12.870
   8923SM   C2F11966   6.381   2.540  13.048
   8923SM   H2F11967   6.439   2.454  13.008
   8923SM   H2G11968   6.348   2.511  13.150
   8923SM   C3F11969   6.472   2.665  13.056
   8923SM   H3F11970   6.519   2.684  12.957
   8923SM   H3G11971   6.554   2.643  13.128
   8923SM   C4F11972   6.400   2.792  13.104
   8923SM   H4F11973   6.318   2.819  13.034
   8923SM   H4G11974   6.469   2.879  13.104
   8923SM   C5F11975   6.346   2.774  13.247
   8923SM   H5F11976   6.405   2.844  13.311
   8923SM   H5G11977   6.367   2.672  13.284
   8923SM   C6F11978   6.197   2.805  13.265
   8923SM   H6F11979   6.131   2.724  13.229
   8923SM   H6G11980   6.175   2.898  13.206
   8923SM   C7F11981   6.171   2.843  13.410
   8923SM   H7F11982   6.075   2.895  13.418
   8923SM   H7G11983   6.252   2.913  13.442
   8923SM   C8F11984   6.166   2.732  13.513
   8923SM   H8F11985   6.186   2.781  13.611
   8923SM   H8G11986   6.244   2.655  13.496
   8923SM   C9F11987   6.027   2.672  13.525
   8923SM   H9F11988   6.026   2.594  13.448
   8923SM   H9G11989   5.947   2.747  13.505
   8923SM  C10F11990   6.001   2.611  13.662
   8923SM  H10F11991   5.924   2.531  13.652
   8923SM  H10G11992   5.962   2.687  13.733
   8923SM  C11F11993   6.130   2.551  13.716
   8923SM  H11F11994   6.198   2.630  13.754
   8923SM  H11G11995   6.181   2.496  13.633
   8923SM  C12F11996   6.103   2.450  13.825
   8923SM  H12F11997   6.038   2.370  13.782
   8923SM  H12G11998   6.046   2.501  13.907
   8923SM  C13F11999   6.233   2.390  13.876
   8923SM  H13F12000   6.298   2.469  13.920
   8923SM  H13G12001   6.288   2.346  13.790
   8923SM  C14F12002   6.205   2.281  13.979
   8923SM  H14F12003   6.299   2.225  14.000
   8923SM  H14G12004   6.131   2.210  13.935
   8923SM  C15F12005   6.149   2.336  14.111
   8923SM  H15F12006   6.056   2.395  14.090
   8923SM  H15G12007   6.222   2.406  14.156
   8923SM  C16F12008   6.113   2.225  14.210
   8923SM  H16F12009   6.095   2.131  14.153
   8923SM  H16G12010   6.017   2.251  14.261
   8923SM  C17F12011   6.220   2.202  14.317
   8923SM  H17F12012   6.320   2.193  14.270
   8923SM  H17G12013   6.202   2.106  14.369
   8923SM  C18F12014   6.218   2.310  14.425
   8923SM  H18F12015   6.113   2.341  14.445
   8923SM  H18G12016   6.272   2.397  14.384
   8923SM  C19F12017   6.280   2.262  14.557
   8923SM  H19F12018   6.386   2.233  14.542
   8923SM  H19G12019   6.225   2.170  14.586
   8923SM  C20F12020   6.266   2.361  14.673
   8923SM  H20F12021   6.167   2.412  14.666
   8923SM  H20G12022   6.344   2.439  14.666
   8923SM  C21F12023   6.277   2.296  14.811
   8923SM  H21F12024   6.184   2.238  14.831
   8923SM  H21G12025   6.284   2.374  14.889
   8923SM  C22F12026   6.396   2.201  14.826
   8923SM  H22F12027   6.491   2.255  14.805
   8923SM  H22G12028   6.390   2.121  14.750
   8923SM  C23F12029   6.399   2.140  14.965
   8923SM  H23F12030   6.404   2.221  15.040
   8923SM  H23G12031   6.487   2.073  14.976
   8923SM  H23H12032   6.308   2.081  14.989
   9023SM     N12033   5.734   1.875  12.189
   9023SM   C1512034   5.813   1.755  12.151
   9023SM  H15A12035   5.919   1.775  12.155
   9023SM  H15B12036   5.788   1.729  12.048
   9023SM  H15C12037   5.785   1.673  12.216
   9023SM   C1412038   5.761   1.981  12.090
   9023SM  H14A12039   5.866   2.010  12.089
   9023SM  H14B12040   5.706   2.073  12.109
   9023SM  H14C12041   5.736   1.951  11.989
   9023SM   C1312042   5.589   1.837  12.185
   9023SM  H13A12043   5.571   1.761  12.262
   9023SM  H13B12044   5.556   1.803  12.088
   9023SM  H13C12045   5.528   1.921  12.214
   9023SM   C1212046   5.763   1.924  12.331
   9023SM  H12A12047   5.692   2.003  12.356
   9023SM  H12B12048   5.861   1.970  12.337
   9023SM   C1112049   5.745   1.820  12.445
   9023SM  H11A12050   5.788   1.861  12.539
   9023SM  H11B12051   5.802   1.728  12.421
   9023SM     P12052   5.514   1.885  12.540
   9023SM   O1312053   5.553   2.022  12.502
   9023SM   O1412054   5.373   1.848  12.517
   9023SM   O1112055   5.549   1.856  12.692
   9023SM   O1212056   5.607   1.784  12.460
   9023SM   C1S12057   5.557   1.718  12.729
   9023SM   H1S12058   5.627   1.662  12.663
   9023SM   H1T12059   5.458   1.667  12.719
   9023SM    NF12060   5.725   1.618  12.873
   9023SM   HNF12061   5.706   1.525  12.900
   9023SM   C2S12062   5.609   1.707  12.874
   9023SM   H2S12063   5.641   1.808  12.908
   9023SM   C3S12064   5.493   1.658  12.965
   9023SM   H3S12065   5.472   1.551  12.941
   9023SM    O312066   5.372   1.730  12.944
   9023SM   HO312067   5.392   1.796  12.877
   9023SM   C4S12068   5.535   1.666  13.111
   9023SM   H4S12069   5.591   1.580  13.150
   9023SM   C5S12070   5.507   1.770  13.193
   9023SM   H5S12071   5.447   1.854  13.152
   9023SM   C6S12072   5.545   1.787  13.337
   9023SM   H6S12073   5.486   1.871  13.380
   9023SM   H6T12074   5.651   1.819  13.343
   9023SM   C7S12075   5.527   1.668  13.432
   9023SM   H7S12076   5.609   1.673  13.508
   9023SM   H7T12077   5.538   1.569  13.381
   9023SM   C8S12078   5.395   1.672  13.509
   9023SM   H8S12079   5.313   1.632  13.445
   9023SM   H8T12080   5.367   1.776  13.536
   9023SM   C9S12081   5.408   1.589  13.636
   9023SM   H9S12082   5.477   1.504  13.619
   9023SM   H9T12083   5.308   1.546  13.658
   9023SM  C10S12084   5.453   1.667  13.760
   9023SM  H10S12085   5.390   1.758  13.774
   9023SM  H10T12086   5.560   1.700  13.752
   9023SM  C11S12087   5.433   1.571  13.877
   9023SM  H11S12088   5.496   1.481  13.864
   9023SM  H11T12089   5.330   1.535  13.866
   9023SM  C12S12090   5.443   1.628  14.017
   9023SM  H12S12091   5.374   1.572  14.084
   9023SM  H12T12092   5.414   1.736  14.020
   9023SM  C13S12093   5.584   1.608  14.068
   9023SM  H13S12094   5.647   1.685  14.017
   9023SM  H13T12095   5.622   1.508  14.035
   9023SM  C14S12096   5.598   1.617  14.220
   9023SM  H14S12097   5.550   1.707  14.263
   9023SM  H14T12098   5.706   1.630  14.237
   9023SM  C15S12099   5.572   1.488  14.300
   9023SM  H15S12100   5.547   1.407  14.229
   9023SM  H15T12101   5.486   1.505  14.368
   9023SM  C16S12102   5.697   1.449  14.382
   9023SM  H16S12103   5.719   1.539  14.443
   9023SM  H16T12104   5.784   1.436  14.314
   9023SM  C17S12105   5.689   1.330  14.479
   9023SM  H17S12106   5.756   1.249  14.442
   9023SM  H17T12107   5.586   1.290  14.481
   9023SM  C18S12108   5.726   1.364  14.624
   9023SM  H18S12109   5.699   1.279  14.691
   9023SM  H18T12110   5.670   1.454  14.658
   9023SM  H18U12111   5.833   1.386  14.636
   9023SM   C1F12112   5.842   1.653  12.816
   9023SM    OF12113   5.856   1.760  12.761
   9023SM   C2F12114   5.954   1.552  12.811
   9023SM   H2F12115   6.017   1.578  12.724
   9023SM   H2G12116   5.915   1.451  12.794
   9023SM   C3F12117   6.046   1.562  12.935
   9023SM   H3F12118   6.090   1.665  12.938
   9023SM   H3G12119   6.132   1.491  12.925
   9023SM   C4F12120   5.974   1.540  13.067
   9023SM   H4F12121   5.977   1.435  13.101
   9023SM   H4G12122   5.867   1.569  13.062
   9023SM   C5F12123   6.028   1.624  13.180
   9023SM   H5F12124   6.008   1.732  13.159
   9023SM   H5G12125   6.138   1.611  13.188
   9023SM   C6F12126   5.957   1.576  13.306
   9023SM   H6F12127   5.986   1.469  13.322
   9023SM   H6G12128   5.847   1.581  13.292
   9023SM   C7F12129   5.993   1.655  13.430
   9023SM   H7F12130   5.945   1.755  13.426
   9023SM   H7G12131   6.103   1.671  13.434
   9023SM   C8F12132   5.947   1.580  13.556
   9023SM   H8F12133   5.981   1.474  13.552
   9023SM   H8G12134   5.836   1.580  13.560
   9023SM   C9F12135   6.007   1.652  13.676
   9023SM   H9F12136   5.971   1.757  13.671
   9023SM   H9G12137   6.118   1.652  13.667
   9023SM  C10F12138   5.967   1.596  13.813
   9023SM  H10F12139   6.051   1.536  13.855
   9023SM  H10G12140   5.879   1.529  13.805
   9023SM  C11F12141   5.933   1.712  13.908
   9023SM  H11F12142   5.841   1.763  13.873
   9023SM  H11G12143   6.016   1.786  13.908
   9023SM  C12F12144   5.914   1.659  14.049
   9023SM  H12F12145   5.999   1.595  14.078
   9023SM  H12G12146   5.830   1.587  14.047
   9023SM  C13F12147   5.887   1.764  14.159
   9023SM  H13F12148   5.880   1.697  14.247
   9023SM  H13G12149   5.789   1.814  14.146
   9023SM  C14F12150   5.993   1.867  14.198
   9023SM  H14F12151   6.000   1.948  14.123
   9023SM  H14G12152   6.090   1.816  14.201
   9023SM  C15F12153   5.984   1.918  14.343
   9023SM  H15F12154   5.911   2.001  14.351
   9023SM  H15G12155   6.084   1.957  14.368
   9023SM  C16F12156   5.956   1.808  14.447
   9023SM  H16F12157   6.021   1.822  14.534
   9023SM  H16G12158   5.987   1.708  14.411
   9023SM  C17F12159   5.810   1.810  14.491
   9023SM  H17F12160   5.745   1.787  14.404
   9023SM  H17G12161   5.782   1.912  14.525
   9023SM  C18F12162   5.781   1.710  14.603
   9023SM  H18F12163   5.840   1.617  14.587
   9023SM  H18G12164   5.672   1.685  14.601
   9023SM  C19F12165   5.815   1.764  14.740
   9023SM  H19F12166   5.800   1.875  14.736
   9023SM  H19G12167   5.921   1.743  14.765
   9023SM  C20F12168   5.725   1.718  14.853
   9023SM  H20F12169   5.745   1.610  14.875
   9023SM  H20G12170   5.618   1.729  14.823
   9023SM  C21F12171   5.754   1.808  14.973
   9023SM  H21F12172   5.742   1.914  14.943
   9023SM  H21G12173   5.860   1.793  15.004
   9023SM  C22F12174   5.663   1.783  15.091
   9023SM  H22F12175   5.561   1.820  15.065
   9023SM  H22G12176   5.700   1.839  15.180
   9023SM  C23F12177   5.651   1.636  15.126
   9023SM  H23F12178   5.751   1.587  15.126
   9023SM  H23G12179   5.584   1.582  15.056
   9023SM  H23H12180   5.610   1.628  15.227
   9123SM     N12181   6.554   4.384  12.327
   9123SM   C1512182   6.628   4.256  12.306
   9123SM  H15A12183   6.735   4.273  12.305
   9123SM  H15B12184   6.600   4.211  12.214
   9123SM  H15C12185   6.608   4.188  12.389
   9123SM   C1412186   6.597   4.432  12.463
   9123SM  H14A12187   6.546   4.526  12.483
   9123SM  H14B12188   6.704   4.445  12.472
   9123SM  H14C12189   6.566   4.364  12.542
   9123SM   C1312190   6.590   4.489  12.227
   9123SM  H13A12191   6.548   4.585  12.259
   9123SM  H13B12192   6.545   4.467  12.130
   9123SM  H13C12193   6.697   4.500  12.216
   9123SM   C1212194   6.403   4.362  12.326
   9123SM  H12A12195   6.378   4.302  12.413
   9123SM  H12B12196   6.373   4.309  12.237
   9123SM   C1112197   6.311   4.486  12.329
   9123SM  H11A12198   6.205   4.452  12.339
   9123SM  H11B12199   6.318   4.540  12.232
   9123SM     P12200   6.336   4.724  12.434
   9123SM   O1312201   6.435   4.769  12.333
   9123SM   O1412202   6.196   4.768  12.413
   9123SM   O1112203   6.378   4.767  12.582
   9123SM   O1212204   6.343   4.567  12.440
   9123SM   C1S12205   6.438   4.669  12.669
   9123SM   H1S12206   6.546   4.664  12.645
   9123SM   H1T12207   6.397   4.566  12.657
   9123SM    NF12208   6.544   4.681  12.891
   9123SM   HNF12209   6.541   4.624  12.973
   9123SM   C2S12210   6.420   4.704  12.820
   9123SM   H2S12211   6.397   4.812  12.829
   9123SM   C3S12212   6.306   4.622  12.885
   9123SM   H3S12213   6.326   4.513  12.870
   9123SM    O312214   6.177   4.649  12.833
   9123SM   HO312215   6.190   4.686  12.745
   9123SM   C4S12216   6.300   4.651  13.033
   9123SM   H4S12217   6.255   4.747  13.059
   9123SM   C5S12218   6.345   4.568  13.130
   9123SM   H5S12219   6.389   4.471  13.102
   9123SM   C6S12220   6.340   4.595  13.278
   9123SM   H6S12221   6.443   4.596  13.321
   9123SM   H6T12222   6.287   4.510  13.325
   9123SM   C7S12223   6.271   4.726  13.319
   9123SM   H7S12224   6.169   4.731  13.276
   9123SM   H7T12225   6.329   4.814  13.281
   9123SM   C8S12226   6.256   4.740  13.471
   9123SM   H8S12227   6.199   4.833  13.493
   9123SM   H8T12228   6.357   4.751  13.516
   9123SM   C9S12229   6.187   4.619  13.536
   9123SM   H9S12230   6.259   4.534  13.540
   9123SM   H9T12231   6.100   4.589  13.475
   9123SM  C10S12232   6.142   4.649  13.679
   9123SM  H10S12233   6.090   4.560  13.720
   9123SM  H10T12234   6.069   4.734  13.678
   9123SM  C11S12235   6.261   4.686  13.767
   9123SM  H11S12236   6.305   4.782  13.731
   9123SM  H11T12237   6.338   4.607  13.758
   9123SM  C12S12238   6.225   4.701  13.914
   9123SM  H12S12239   6.131   4.759  13.917
   9123SM  H12T12240   6.305   4.755  13.969
   9123SM  C13S12241   6.191   4.571  13.983
   9123SM  H13S12242   6.275   4.498  13.975
   9123SM  H13T12243   6.102   4.529  13.932
   9123SM  C14S12244   6.153   4.594  14.129
   9123SM  H14S12245   6.107   4.501  14.163
   9123SM  H14T12246   6.078   4.675  14.138
   9123SM  C15S12247   6.269   4.618  14.224
   9123SM  H15S12248   6.315   4.717  14.204
   9123SM  H15T12249   6.346   4.539  14.207
   9123SM  C16S12250   6.224   4.607  14.370
   9123SM  H16S12251   6.176   4.507  14.381
   9123SM  H16T12252   6.154   4.689  14.395
   9123SM  C17S12253   6.339   4.614  14.467
   9123SM  H17S12254   6.383   4.717  14.465
   9123SM  H17T12255   6.408   4.543  14.419
   9123SM  C18S12256   6.315   4.568  14.611
   9123SM  H18S12257   6.276   4.464  14.612
   9123SM  H18T12258   6.247   4.635  14.665
   9123SM  H18U12259   6.410   4.570  14.668
   9123SM   C1F12260   6.654   4.748  12.863
   9123SM    OF12261   6.650   4.854  12.801
   9123SM   C2F12262   6.780   4.693  12.917
   9123SM   H2F12263   6.857   4.693  12.837
   9123SM   H2G12264   6.768   4.589  12.956
   9123SM   C3F12265   6.817   4.789  13.030
   9123SM   H3F12266   6.817   4.889  12.985
   9123SM   H3G12267   6.920   4.773  13.060
   9123SM   C4F12268   6.733   4.778  13.157
   9123SM   H4F12269   6.728   4.671  13.188
   9123SM   H4G12270   6.630   4.813  13.140
   9123SM   C5F12271   6.798   4.857  13.272
   9123SM   H5F12272   6.805   4.965  13.253
   9123SM   H5G12273   6.903   4.821  13.286
   9123SM   C6F12274   6.722   4.850  13.403
   9123SM   H6F12275   6.630   4.790  13.391
   9123SM   H6G12276   6.692   4.953  13.434
   9123SM   C7F12277   6.811   4.791  13.513
   9123SM   H7F12278   6.910   4.840  13.511
   9123SM   H7G12279   6.829   4.684  13.491
   9123SM   C8F12280   6.748   4.810  13.652
   9123SM   H8F12281   6.739   4.919  13.672
   9123SM   H8G12282   6.817   4.767  13.728
   9123SM   C9F12283   6.609   4.748  13.666
   9123SM   H9F12284   6.535   4.813  13.615
   9123SM   H9G12285   6.581   4.748  13.774
   9123SM  C10F12286   6.596   4.605  13.609
   9123SM  H10F12287   6.603   4.609  13.499
   9123SM  H10G12288   6.495   4.566  13.632
   9123SM  C11F12289   6.701   4.504  13.660
   9123SM  H11F12290   6.801   4.530  13.618
   9123SM  H11G12291   6.676   4.403  13.621
   9123SM  C12F12292   6.716   4.499  13.812
   9123SM  H12F12293   6.757   4.597  13.847
   9123SM  H12G12294   6.792   4.422  13.836
   9123SM  C13F12295   6.585   4.468  13.885
   9123SM  H13F12296   6.551   4.366  13.857
   9123SM  H13G12297   6.508   4.540  13.850
   9123SM  C14F12298   6.592   4.484  14.038
   9123SM  H14F12299   6.659   4.405  14.079
   9123SM  H14G12300   6.490   4.464  14.077
   9123SM  C15F12301   6.639   4.624  14.084
   9123SM  H15F12302   6.588   4.702  14.023
   9123SM  H15G12303   6.748   4.630  14.062
   9123SM  C16F12304   6.619   4.654  14.234
   9123SM  H16F12305   6.516   4.692  14.251
   9123SM  H16G12306   6.688   4.736  14.265
   9123SM  C17F12307   6.643   4.528  14.318
   9123SM  H17F12308   6.743   4.493  14.286
   9123SM  H17G12309   6.569   4.451  14.289
   9123SM  C18F12310   6.643   4.536  14.473
   9123SM  H18F12311   6.573   4.612  14.512
   9123SM  H18G12312   6.741   4.574  14.507
   9123SM  C19F12313   6.605   4.397  14.534
   9123SM  H19F12314   6.661   4.315  14.485
   9123SM  H19G12315   6.500   4.374  14.510
   9123SM  C20F12316   6.625   4.386  14.686
   9123SM  H20F12317   6.581   4.476  14.733
   9123SM  H20G12318   6.732   4.387  14.713
   9123SM  C21F12319   6.559   4.260  14.747
   9123SM  H21F12320   6.619   4.171  14.719
   9123SM  H21G12321   6.457   4.247  14.704
   9123SM  C22F12322   6.545   4.267  14.900
   9123SM  H22F12323   6.644   4.295  14.944
   9123SM  H22G12324   6.519   4.166  14.939
   9123SM  C23F12325   6.439   4.367  14.944
   9123SM  H23F12326   6.465   4.468  14.906
   9123SM  H23G12327   6.432   4.374  15.054
   9123SM  H23H12328   6.339   4.339  14.904
   9223SM     N12329   5.307   1.180  12.182
   9223SM   C1512330   5.225   1.056  12.186
   9223SM  H15A12331   5.152   1.058  12.106
   9223SM  H15B12332   5.171   1.051  12.281
   9223SM  H15C12333   5.287   0.968  12.177
   9223SM   C1412334   5.413   1.168  12.288
   9223SM  H14A12335   5.497   1.235  12.272
   9223SM  H14B12336   5.459   1.069  12.293
   9223SM  H14C12337   5.372   1.193  12.387
   9223SM   C1312338   5.371   1.187  12.047
   9223SM  H13A12339   5.418   1.284  12.031
   9223SM  H13B12340   5.301   1.176  11.965
   9223SM  H13C12341   5.448   1.112  12.039
   9223SM   C1212342   5.216   1.302  12.197
   9223SM  H12A12343   5.155   1.307  12.107
   9223SM  H12B12344   5.273   1.394  12.203
   9223SM   C1112345   5.114   1.304  12.312
   9223SM  H11A12346   5.055   1.210  12.311
   9223SM  H11B12347   5.041   1.387  12.288
   9223SM     P12348   5.079   1.318  12.559
   9223SM   O1312349   4.972   1.417  12.530
   9223SM   O1412350   5.044   1.175  12.572
   9223SM   O1112351   5.160   1.369  12.686
   9223SM   O1212352   5.181   1.325  12.438
   9223SM   C1S12353   5.091   1.415  12.803
   9223SM   H1S12354   4.982   1.435  12.786
   9223SM   H1T12355   5.135   1.511  12.838
   9223SM    NF12356   5.019   1.348  13.030
   9223SM   HNF12357   5.066   1.379  13.112
   9223SM   C2S12358   5.101   1.309  12.917
   9223SM   H2S12359   5.063   1.213  12.877
   9223SM   C3S12360   5.249   1.289  12.961
   9223SM   H3S12361   5.293   1.387  12.990
   9223SM    O312362   5.337   1.228  12.867
   9223SM   HO312363   5.286   1.220  12.786
   9223SM   C4S12364   5.246   1.199  13.083
   9223SM   H4S12365   5.206   1.098  13.064
   9223SM   C5S12366   5.283   1.234  13.208
   9223SM   H5S12367   5.321   1.336  13.225
   9223SM   C6S12368   5.279   1.146  13.330
   9223SM   H6S12369   5.379   1.100  13.347
   9223SM   H6T12370   5.207   1.063  13.318
   9223SM   C7S12371   5.239   1.224  13.457
   9223SM   H7S12372   5.128   1.230  13.462
   9223SM   H7T12373   5.277   1.329  13.453
   9223SM   C8S12374   5.290   1.163  13.590
   9223SM   H8S12375   5.401   1.169  13.591
   9223SM   H8T12376   5.262   1.056  13.596
   9223SM   C9S12377   5.234   1.237  13.712
   9223SM   H9S12378   5.130   1.205  13.735
   9223SM   H9T12379   5.225   1.344  13.682
   9223SM  C10S12380   5.323   1.238  13.837
   9223SM  H10S12381   5.306   1.337  13.883
   9223SM  H10T12382   5.431   1.236  13.811
   9223SM  C11S12383   5.294   1.140  13.953
   9223SM  H11S12384   5.325   1.037  13.927
   9223SM  H11T12385   5.186   1.140  13.977
   9223SM  C12S12386   5.372   1.191  14.075
   9223SM  H12S12387   5.361   1.302  14.080
   9223SM  H12T12388   5.480   1.171  14.064
   9223SM  C13S12389   5.321   1.138  14.209
   9223SM  H13S12390   5.348   1.031  14.221
   9223SM  H13T12391   5.210   1.148  14.214
   9223SM  C14S12392   5.381   1.218  14.324
   9223SM  H14S12393   5.352   1.326  14.316
   9223SM  H14T12394   5.491   1.214  14.316
   9223SM  C15S12395   5.334   1.167  14.460
   9223SM  H15S12396   5.402   1.083  14.490
   9223SM  H15T12397   5.231   1.126  14.451
   9223SM  C16S12398   5.333   1.276  14.567
   9223SM  H16S12399   5.231   1.319  14.566
   9223SM  H16T12400   5.401   1.360  14.540
   9223SM  C17S12401   5.364   1.219  14.706
   9223SM  H17S12402   5.444   1.143  14.695
   9223SM  H17T12403   5.272   1.166  14.740
   9223SM  C18S12404   5.407   1.319  14.813
   9223SM  H18S12405   5.508   1.359  14.793
   9223SM  H18T12406   5.408   1.268  14.911
   9223SM  H18U12407   5.338   1.406  14.818
   9223SM   C1F12408   4.886   1.338  13.026
   9223SM    OF12409   4.829   1.301  12.926
   9223SM   C2F12410   4.815   1.371  13.153
   9223SM   H2F12411   4.705   1.371  13.134
   9223SM   H2G12412   4.844   1.474  13.181
   9223SM   C3F12413   4.848   1.269  13.264
   9223SM   H3F12414   4.953   1.233  13.259
   9223SM   H3G12415   4.782   1.180  13.252
   9223SM   C4F12416   4.830   1.330  13.404
   9223SM   H4F12417   4.849   1.253  13.481
   9223SM   H4G12418   4.725   1.365  13.417
   9223SM   C5F12419   4.928   1.447  13.425
   9223SM   H5F12420   4.887   1.537  13.373
   9223SM   H5G12421   5.026   1.423  13.380
   9223SM   C6F12422   4.949   1.481  13.572
   9223SM   H6F12423   5.009   1.401  13.620
   9223SM   H6G12424   4.850   1.480  13.620
   9223SM   C7F12425   5.016   1.619  13.592
   9223SM   H7F12426   4.991   1.686  13.507
   9223SM   H7G12427   5.126   1.603  13.589
   9223SM   C8F12428   4.976   1.691  13.723
   9223SM   H8F12429   4.883   1.748  13.708
   9223SM   H8G12430   5.053   1.766  13.752
   9223SM   C9F12431   4.955   1.598  13.841
   9223SM   H9F12432   4.904   1.503  13.814
   9223SM   H9G12433   4.895   1.644  13.922
   9223SM  C10F12434   5.092   1.565  13.891
   9223SM  H10F12435   5.143   1.659  13.926
   9223SM  H10G12436   5.147   1.526  13.802
   9223SM  C11F12437   5.093   1.459  13.997
   9223SM  H11F12438   5.200   1.435  14.019
   9223SM  H11G12439   5.045   1.367  13.958
   9223SM  C12F12440   5.032   1.502  14.129
   9223SM  H12F12441   4.921   1.500  14.123
   9223SM  H12G12442   5.065   1.606  14.153
   9223SM  C13F12443   5.086   1.404  14.232
   9223SM  H13F12444   5.197   1.417  14.234
   9223SM  H13G12445   5.064   1.301  14.195
   9223SM  C14F12446   5.031   1.417  14.373
   9223SM  H14F12447   5.081   1.340  14.436
   9223SM  H14G12448   4.923   1.391  14.369
   9223SM  C15F12449   5.049   1.554  14.438
   9223SM  H15F12450   5.005   1.630  14.370
   9223SM  H15G12451   5.156   1.578  14.452
   9223SM  C16F12452   4.976   1.560  14.573
   9223SM  H16F12453   4.879   1.507  14.566
   9223SM  H16G12454   4.955   1.664  14.605
   9223SM  C17F12455   5.059   1.506  14.687
   9223SM  H17F12456   5.147   1.572  14.704
   9223SM  H17G12457   5.094   1.403  14.668
   9223SM  C18F12458   4.970   1.499  14.809
   9223SM  H18F12459   4.873   1.451  14.782
   9223SM  H18G12460   4.947   1.602  14.844
   9223SM  C19F12461   5.039   1.417  14.916
   9223SM  H19F12462   5.149   1.420  14.897
   9223SM  H19G12463   5.008   1.311  14.905
   9223SM  C20F12464   5.014   1.476  15.054
   9223SM  H20F12465   4.906   1.469  15.077
   9223SM  H20G12466   5.040   1.584  15.046
   9223SM  C21F12467   5.097   1.417  15.167
   9223SM  H21F12468   5.117   1.310  15.144
   9223SM  H21G12469   5.043   1.420  15.264
   9223SM  C22F12470   5.231   1.491  15.182
   9223SM  H22F12471   5.265   1.531  15.085
   9223SM  H22G12472   5.296   1.405  15.203
   9223SM  C23F12473   5.246   1.599  15.291
   9223SM  H23F12474   5.247   1.557  15.394
   9223SM  H23G12475   5.168   1.677  15.285
   9223SM  H23H12476   5.343   1.653  15.279
   9323SM     N12477   6.819   3.751  12.214
   9323SM   C1512478   6.736   3.684  12.319
   9323SM  H15A12479   6.779   3.588  12.344
   9323SM  H15B12480   6.634   3.668  12.286
   9323SM  H15C12481   6.733   3.747  12.408
   9323SM   C1412482   6.817   3.672  12.090
   9323SM  H14A12483   6.867   3.578  12.102
   9323SM  H14B12484   6.862   3.724  12.006
   9323SM  H14C12485   6.715   3.649  12.059
   9323SM   C1312486   6.765   3.887  12.189
   9323SM  H13A12487   6.755   3.939  12.284
   9323SM  H13B12488   6.670   3.888  12.138
   9323SM  H13C12489   6.835   3.948  12.131
   9323SM   C1212490   6.961   3.764  12.268
   9323SM  H12A12491   7.019   3.820  12.196
   9323SM  H12B12492   7.005   3.666  12.279
   9323SM   C1112493   6.980   3.833  12.405
   9323SM  H11A12494   7.089   3.841  12.427
   9323SM  H11B12495   6.937   3.765  12.484
   9323SM     P12496   6.867   4.020  12.544
   9323SM   O1312497   6.879   4.168  12.547
   9323SM   O1412498   6.733   3.963  12.571
   9323SM   O1112499   6.973   3.955  12.645
   9323SM   O1212500   6.922   3.964  12.406
   9323SM   C1S12501   7.005   4.027  12.764
   9323SM   H1S12502   6.915   4.078  12.805
   9323SM   H1T12503   7.082   4.104  12.742
   9323SM    NF12504   6.973   3.824  12.904
   9323SM   HNF12505   6.920   3.831  12.987
   9323SM   C2S12506   7.059   3.938  12.881
   9323SM   H2S12507   7.161   3.903  12.856
   9323SM   C3S12508   7.060   4.025  13.010
   9323SM   H3S12509   6.956   4.060  13.029
   9323SM    O312510   7.140   4.143  13.008
   9323SM   HO312511   7.209   4.133  12.941
   9323SM   C4S12512   7.102   3.937  13.126
   9323SM   H4S12513   7.191   3.876  13.107
   9323SM   C5S12514   7.038   3.924  13.246
   9323SM   H5S12515   6.948   3.983  13.267
   9323SM   C6S12516   7.084   3.832  13.357
   9323SM   H6S12517   7.189   3.799  13.343
   9323SM   H6T12518   7.022   3.740  13.353
   9323SM   C7S12519   7.070   3.884  13.502
   9323SM   H7S12520   6.967   3.923  13.518
   9323SM   H7T12521   7.139   3.969  13.521
   9323SM   C8S12522   7.093   3.771  13.603
   9323SM   H8S12523   7.202   3.750  13.610
   9323SM   H8T12524   7.041   3.681  13.566
   9323SM   C9S12525   7.041   3.801  13.744
   9323SM   H9S12526   7.057   3.711  13.808
   9323SM   H9T12527   6.931   3.819  13.741
   9323SM  C10S12528   7.115   3.922  13.800
   9323SM  H10S12529   7.069   4.014  13.758
   9323SM  H10T12530   7.220   3.916  13.761
   9323SM  C11S12531   7.124   3.932  13.952
   9323SM  H11S12532   7.118   3.832  13.998
   9323SM  H11T12533   7.038   3.993  13.988
   9323SM  C12S12534   7.259   3.992  13.996
   9323SM  H12S12535   7.296   4.068  13.924
   9323SM  H12T12536   7.334   3.911  14.001
   9323SM  C13S12537   7.255   4.056  14.133
   9323SM  H13S12538   7.264   3.972  14.207
   9323SM  H13T12539   7.157   4.105  14.145
   9323SM  C14S12540   7.368   4.159  14.154
   9323SM  H14S12541   7.362   4.235  14.074
   9323SM  H14T12542   7.462   4.101  14.138
   9323SM  C15S12543   7.371   4.229  14.291
   9323SM  H15S12544   7.475   4.267  14.307
   9323SM  H15T12545   7.303   4.318  14.296
   9323SM  C16S12546   7.331   4.130  14.401
   9323SM  H16S12547   7.374   4.162  14.498
   9323SM  H16T12548   7.378   4.033  14.377
   9323SM  C17S12549   7.179   4.118  14.422
   9323SM  H17S12550   7.122   4.106  14.328
   9323SM  H17T12551   7.142   4.216  14.458
   9323SM  C18S12552   7.134   4.003  14.511
   9323SM  H18S12553   7.024   3.993  14.505
   9323SM  H18T12554   7.163   4.020  14.616
   9323SM  H18U12555   7.176   3.907  14.475
   9323SM   C1F12556   6.956   3.713  12.834
   9323SM    OF12557   7.033   3.674  12.747
   9323SM   C2F12558   6.841   3.629  12.879
   9323SM   H2F12559   6.873   3.523  12.880
   9323SM   H2G12560   6.759   3.641  12.805
   9323SM   C3F12561   6.789   3.669  13.020
   9323SM   H3F12562   6.757   3.776  13.022
   9323SM   H3G12563   6.867   3.654  13.098
   9323SM   C4F12564   6.664   3.588  13.056
   9323SM   H4F12565   6.693   3.482  13.073
   9323SM   H4G12566   6.598   3.597  12.967
   9323SM   C5F12567   6.582   3.639  13.175
   9323SM   H5F12568   6.475   3.618  13.156
   9323SM   H5G12569   6.592   3.749  13.182
   9323SM   C6F12570   6.617   3.571  13.309
   9323SM   H6F12571   6.674   3.477  13.290
   9323SM   H6G12572   6.523   3.541  13.361
   9323SM   C7F12573   6.696   3.664  13.400
   9323SM   H7F12574   6.782   3.706  13.342
   9323SM   H7G12575   6.739   3.608  13.486
   9323SM   C8F12576   6.609   3.778  13.453
   9323SM   H8F12577   6.542   3.737  13.532
   9323SM   H8G12578   6.543   3.819  13.373
   9323SM   C9F12579   6.692   3.894  13.506
   9323SM   H9F12580   6.753   3.937  13.423
   9323SM   H9G12581   6.764   3.856  13.582
   9323SM  C10F12582   6.606   4.006  13.566
   9323SM  H10F12583   6.532   4.041  13.490
   9323SM  H10G12584   6.672   4.091  13.593
   9323SM  C11F12585   6.530   3.962  13.691
   9323SM  H11F12586   6.456   3.883  13.668
   9323SM  H11G12587   6.473   4.049  13.731
   9323SM  C12F12588   6.624   3.910  13.800
   9323SM  H12F12589   6.712   3.978  13.807
   9323SM  H12G12590   6.664   3.810  13.772
   9323SM  C13F12591   6.551   3.901  13.933
   9323SM  H13F12592   6.592   3.815  13.989
   9323SM  H13G12593   6.444   3.876  13.915
   9323SM  C14F12594   6.562   4.032  14.012
   9323SM  H14F12595   6.491   4.029  14.098
   9323SM  H14G12596   6.532   4.118  13.947
   9323SM  C15F12597   6.703   4.054  14.067
   9323SM  H15F12598   6.711   4.156  14.112
   9323SM  H15G12599   6.781   4.047  13.988
   9323SM  C16F12600   6.728   3.949  14.175
   9323SM  H16F12601   6.713   3.846  14.135
   9323SM  H16G12602   6.650   3.965  14.253
   9323SM  C17F12603   6.866   3.944  14.236
   9323SM  H17F12604   6.895   4.044  14.274
   9323SM  H17G12605   6.942   3.912  14.162
   9323SM  C18F12606   6.860   3.847  14.354
   9323SM  H18F12607   6.963   3.819  14.383
   9323SM  H18G12608   6.807   3.754  14.323
   9323SM  C19F12609   6.785   3.915  14.468
   9323SM  H19F12610   6.675   3.903  14.451
   9323SM  H19G12611   6.805   4.024  14.465
   9323SM  C20F12612   6.819   3.865  14.609
   9323SM  H20F12613   6.919   3.897  14.642
   9323SM  H20G12614   6.822   3.755  14.605
   9323SM  C21F12615   6.715   3.919  14.708
   9323SM  H21F12616   6.623   3.947  14.650
   9323SM  H21G12617   6.754   4.012  14.754
   9323SM  C22F12618   6.671   3.820  14.815
   9323SM  H22F12619   6.591   3.867  14.878
   9323SM  H22G12620   6.757   3.801  14.882
   9323SM  C23F12621   6.616   3.687  14.759
   9323SM  H23F12622   6.589   3.616  14.840
   9323SM  H23G12623   6.691   3.636  14.696
   9323SM  H23H12624   6.525   3.706  14.698
   9423SM     N12625   5.191   6.693  12.197
   9423SM   C1512626   5.052   6.708  12.249
   9423SM  H15A12627   5.051   6.703  12.358
   9423SM  H15B12628   4.984   6.634  12.209
   9423SM  H15C12629   5.011   6.806  12.226
   9423SM   C1412630   5.234   6.554  12.229
   9423SM  H14A12631   5.149   6.487  12.227
   9423SM  H14B12632   5.269   6.548  12.333
   9423SM  H14C12633   5.313   6.517  12.166
   9423SM   C1312634   5.186   6.712  12.048
   9423SM  H13A12635   5.145   6.810  12.024
   9423SM  H13B12636   5.117   6.640  12.004
   9423SM  H13C12637   5.282   6.701  11.999
   9423SM   C1212638   5.281   6.792  12.270
   9423SM  H12A12639   5.244   6.892  12.252
   9423SM  H12B12640   5.380   6.785  12.229
   9423SM   C1112641   5.297   6.775  12.425
   9423SM  H11A12642   5.196   6.787  12.472
   9423SM  H11B12643   5.359   6.858  12.464
   9423SM     P12644   5.484   6.619  12.539
   9423SM   O1312645   5.549   6.500  12.479
   9423SM   O1412646   5.565   6.742  12.538
   9423SM   O1112647   5.432   6.586  12.685
   9423SM   O1212648   5.350   6.647  12.460
   9423SM   C1S12649   5.292   6.581  12.715
   9423SM   H1S12650   5.243   6.494  12.664
   9423SM   H1T12651   5.239   6.671  12.678
   9423SM    NF12652   5.306   6.690  12.937
   9423SM   HNF12653   5.393   6.685  12.983
   9423SM   C2S12654   5.262   6.570  12.868
   9423SM   H2S12655   5.152   6.561  12.882
   9423SM   C3S12656   5.329   6.442  12.928
   9423SM   H3S12657   5.439   6.450  12.918
   9423SM    O312658   5.288   6.320  12.863
   9423SM   HO312659   5.235   6.348  12.788
   9423SM   C4S12660   5.292   6.430  13.073
   9423SM   H4S12661   5.187   6.405  13.093
   9423SM   C5S12662   5.378   6.443  13.177
   9423SM   H5S12663   5.484   6.460  13.156
   9423SM   C6S12664   5.339   6.431  13.322
   9423SM   H6S12665   5.247   6.491  13.343
   9423SM   H6T12666   5.419   6.474  13.387
   9423SM   C7S12667   5.313   6.286  13.368
   9423SM   H7S12668   5.405   6.224  13.363
   9423SM   H7T12669   5.238   6.240  13.299
   9423SM   C8S12670   5.253   6.278  13.509
   9423SM   H8S12671   5.189   6.187  13.518
   9423SM   H8T12672   5.188   6.367  13.524
   9423SM   C9S12673   5.352   6.278  13.624
   9423SM   H9S12674   5.424   6.362  13.613
   9423SM   H9T12675   5.410   6.183  13.625
   9423SM  C10S12676   5.274   6.295  13.755
   9423SM  H10S12677   5.204   6.208  13.766
   9423SM  H10T12678   5.212   6.387  13.749
   9423SM  C11S12679   5.361   6.304  13.878
   9423SM  H11S12680   5.424   6.396  13.874
   9423SM  H11T12681   5.429   6.216  13.881
   9423SM  C12S12682   5.277   6.305  14.006
   9423SM  H12S12683   5.217   6.212  14.011
   9423SM  H12T12684   5.208   6.392  14.008
   9423SM  C13S12685   5.374   6.313  14.122
   9423SM  H13S12686   5.419   6.415  14.121
   9423SM  H13T12687   5.455   6.238  14.107
   9423SM  C14S12688   5.318   6.292  14.261
   9423SM  H14S12689   5.274   6.191  14.273
   9423SM  H14T12690   5.241   6.369  14.284
   9423SM  C15S12691   5.437   6.302  14.356
   9423SM  H15S12692   5.492   6.398  14.339
   9423SM  H15T12693   5.506   6.218  14.333
   9423SM  C16S12694   5.395   6.293  14.500
   9423SM  H16S12695   5.319   6.212  14.511
   9423SM  H16T12696   5.348   6.389  14.530
   9423SM  C17S12697   5.511   6.264  14.591
   9423SM  H17S12698   5.597   6.332  14.570
   9423SM  H17T12699   5.545   6.160  14.574
   9423SM  C18S12700   5.463   6.282  14.733
   9423SM  H18S12701   5.538   6.256  14.809
   9423SM  H18T12702   5.373   6.219  14.744
   9423SM  H18U12703   5.428   6.385  14.751
   9423SM   C1F12704   5.251   6.808  12.907
   9423SM    OF12705   5.142   6.814  12.854
   9423SM   C2F12706   5.335   6.930  12.931
   9423SM   H2F12707   5.324   6.995  12.841
   9423SM   H2G12708   5.442   6.904  12.941
   9423SM   C3F12709   5.288   7.013  13.053
   9423SM   H3F12710   5.177   7.008  13.062
   9423SM   H3G12711   5.317   7.119  13.032
   9423SM   C4F12712   5.354   6.974  13.186
   9423SM   H4F12713   5.464   6.961  13.173
   9423SM   H4G12714   5.313   6.877  13.223
   9423SM   C5F12715   5.332   7.081  13.293
   9423SM   H5F12716   5.223   7.079  13.316
   9423SM   H5G12717   5.354   7.183  13.256
   9423SM   C6F12718   5.411   7.052  13.421
   9423SM   H6F12719   5.490   7.129  13.438
   9423SM   H6G12720   5.464   6.956  13.408
   9423SM   C7F12721   5.311   7.047  13.536
   9423SM   H7F12722   5.216   7.004  13.496
   9423SM   H7G12723   5.288   7.151  13.571
   9423SM   C8F12724   5.340   6.960  13.658
   9423SM   H8F12725   5.242   6.913  13.683
   9423SM   H8G12726   5.366   7.027  13.742
   9423SM   C9F12727   5.440   6.845  13.647
   9423SM   H9F12728   5.542   6.890  13.640
   9423SM   H9G12729   5.422   6.786  13.555
   9423SM  C10F12730   5.433   6.754  13.772
   9423SM  H10F12731   5.510   6.675  13.766
   9423SM  H10G12732   5.334   6.702  13.773
   9423SM  C11F12733   5.449   6.830  13.905
   9423SM  H11F12734   5.380   6.917  13.911
   9423SM  H11G12735   5.553   6.869  13.910
   9423SM  C12F12736   5.418   6.746  14.030
   9423SM  H12F12737   5.456   6.643  14.016
   9423SM  H12G12738   5.308   6.739  14.044
   9423SM  C13F12739   5.483   6.809  14.153
   9423SM  H13F12740   5.431   6.902  14.183
   9423SM  H13G12741   5.586   6.840  14.123
   9423SM  C14F12742   5.499   6.713  14.270
   9423SM  H14F12743   5.543   6.618  14.232
   9423SM  H14G12744   5.402   6.688  14.318
   9423SM  C15F12745   5.597   6.774  14.370
   9423SM  H15F12746   5.548   6.855  14.428
   9423SM  H15G12747   5.680   6.821  14.312
   9423SM  C16F12748   5.662   6.670  14.462
   9423SM  H16F12749   5.772   6.678  14.445
   9423SM  H16G12750   5.631   6.567  14.435
   9423SM  C17F12751   5.638   6.698  14.610
   9423SM  H17F12752   5.633   6.808  14.621
   9423SM  H17G12753   5.724   6.660  14.668
   9423SM  C18F12754   5.512   6.635  14.668
   9423SM  H18F12755   5.520   6.527  14.650
   9423SM  H18G12756   5.421   6.670  14.613
   9423SM  C19F12757   5.495   6.666  14.818
   9423SM  H19F12758   5.585   6.644  14.877
   9423SM  H19G12759   5.414   6.599  14.853
   9423SM  C20F12760   5.449   6.811  14.837
   9423SM  H20F12761   5.338   6.807  14.842
   9423SM  H20G12762   5.472   6.865  14.742
   9423SM  C21F12763   5.507   6.897  14.952
   9423SM  H21F12764   5.617   6.901  14.946
   9423SM  H21G12765   5.488   6.853  15.051
   9423SM  C22F12766   5.450   7.040  14.938
   9423SM  H22F12767   5.346   7.040  14.975
   9423SM  H22G12768   5.447   7.061  14.828
   9423SM  C23F12769   5.520   7.160  15.003
   9423SM  H23F12770   5.476   7.254  14.963
   9423SM  H23G12771   5.628   7.162  14.980
   9423SM  H23H12772   5.508   7.161  15.113
   9523SM     N12773   1.164   1.695  12.165
   9523SM   C1512774   1.029   1.757  12.144
   9523SM  H15A12775   1.036   1.865  12.139
   9523SM  H15B12776   0.960   1.731  12.223
   9523SM  H15C12777   0.989   1.724  12.049
   9523SM   C1412778   1.154   1.547  12.153
   9523SM  H14A12779   1.252   1.503  12.167
   9523SM  H14B12780   1.119   1.521  12.053
   9523SM  H14C12781   1.083   1.510  12.226
   9523SM   C1312782   1.255   1.742  12.057
   9523SM  H13A12783   1.347   1.685  12.051
   9523SM  H13B12784   1.283   1.846  12.071
   9523SM  H13C12785   1.203   1.736  11.962
   9523SM   C1212786   1.218   1.734  12.298
   9523SM  H12A12787   1.223   1.843  12.305
   9523SM  H12B12788   1.321   1.701  12.311
   9523SM   C1112789   1.142   1.685  12.421
   9523SM  H11A12790   1.162   1.577  12.441
   9523SM  H11B12791   1.032   1.698  12.410
   9523SM     P12792   1.330   1.762  12.588
   9523SM   O1312793   1.426   1.759  12.474
   9523SM   O1412794   1.341   1.876  12.682
   9523SM   O1112795   1.328   1.621  12.662
   9523SM   O1212796   1.185   1.766  12.527
   9523SM   C1S12797   1.416   1.585  12.769
   9523SM   H1S12798   1.490   1.667  12.791
   9523SM   H1T12799   1.476   1.496  12.740
   9523SM    NF12800   1.428   1.515  13.013
   9523SM   HNF12801   1.409   1.434  13.068
   9523SM   C2S12802   1.339   1.551  12.902
   9523SM   H2S12803   1.284   1.644  12.929
   9523SM   C3S12804   1.234   1.437  12.886
   9523SM   H3S12805   1.287   1.340  12.878
   9523SM    O312806   1.151   1.444  12.770
   9523SM   HO312807   1.195   1.509  12.714
   9523SM   C4S12808   1.147   1.435  13.010
   9523SM   H4S12809   1.083   1.523  13.021
   9523SM   C5S12810   1.146   1.341  13.108
   9523SM   H5S12811   1.216   1.256  13.101
   9523SM   C6S12812   1.059   1.342  13.232
   9523SM   H6S12813   1.019   1.239  13.249
   9523SM   H6T12814   0.971   1.409  13.219
   9523SM   C7S12815   1.129   1.385  13.363
   9523SM   H7S12816   1.162   1.491  13.356
   9523SM   H7T12817   1.222   1.325  13.373
   9523SM   C8S12818   1.040   1.368  13.488
   9523SM   H8S12819   1.010   1.261  13.497
   9523SM   H8T12820   0.948   1.428  13.475
   9523SM   C9S12821   1.107   1.410  13.620
   9523SM   H9S12822   1.162   1.505  13.607
   9523SM   H9T12823   1.183   1.332  13.644
   9523SM  C10S12824   1.013   1.423  13.742
   9523SM  H10S12825   0.929   1.350  13.734
   9523SM  H10T12826   0.971   1.526  13.745
   9523SM  C11S12827   1.093   1.393  13.869
   9523SM  H11S12828   1.191   1.446  13.861
   9523SM  H11T12829   1.112   1.284  13.869
   9523SM  C12S12830   1.034   1.428  14.005
   9523SM  H12S12831   0.935   1.380  14.019
   9523SM  H12T12832   1.022   1.538  14.014
   9523SM  C13S12833   1.132   1.379  14.113
   9523SM  H13S12834   1.224   1.441  14.108
   9523SM  H13T12835   1.161   1.273  14.093
   9523SM  C14S12836   1.075   1.386  14.255
   9523SM  H14S12837   0.996   1.309  14.269
   9523SM  H14T12838   1.028   1.486  14.269
   9523SM  C15S12839   1.184   1.369  14.361
   9523SM  H15S12840   1.143   1.412  14.454
   9523SM  H15T12841   1.274   1.429  14.334
   9523SM  C16S12842   1.225   1.223  14.384
   9523SM  H16S12843   1.282   1.184  14.298
   9523SM  H16T12844   1.134   1.159  14.395
   9523SM  C17S12845   1.313   1.204  14.507
   9523SM  H17S12846   1.410   1.257  14.492
   9523SM  H17T12847   1.335   1.095  14.518
   9523SM  C18S12848   1.249   1.253  14.635
   9523SM  H18S12849   1.165   1.186  14.660
   9523SM  H18T12850   1.210   1.357  14.630
   9523SM  H18U12851   1.323   1.253  14.718
   9523SM   C1F12852   1.514   1.603  13.061
   9523SM    OF12853   1.511   1.720  13.027
   9523SM   C2F12854   1.618   1.559  13.155
   9523SM   H2F12855   1.663   1.651  13.199
   9523SM   H2G12856   1.697   1.506  13.098
   9523SM   C3F12857   1.572   1.469  13.269
   9523SM   H3F12858   1.545   1.366  13.235
   9523SM   H3G12859   1.485   1.511  13.325
   9523SM   C4F12860   1.695   1.465  13.358
   9523SM   H4F12861   1.718   1.569  13.391
   9523SM   H4G12862   1.783   1.427  13.301
   9523SM   C5F12863   1.676   1.381  13.480
   9523SM   H5F12864   1.670   1.273  13.451
   9523SM   H5G12865   1.580   1.408  13.530
   9523SM   C6F12866   1.792   1.404  13.575
   9523SM   H6F12867   1.799   1.510  13.607
   9523SM   H6G12868   1.889   1.373  13.529
   9523SM   C7F12869   1.755   1.316  13.690
   9523SM   H7F12870   1.754   1.209  13.657
   9523SM   H7G12871   1.649   1.343  13.716
   9523SM   C8F12872   1.835   1.331  13.816
   9523SM   H8F12873   1.853   1.437  13.844
   9523SM   H8G12874   1.932   1.279  13.814
   9523SM   C9F12875   1.754   1.258  13.919
   9523SM   H9F12876   1.828   1.198  13.976
   9523SM   H9G12877   1.689   1.185  13.866
   9523SM  C10F12878   1.679   1.352  14.012
   9523SM  H10F12879   1.574   1.375  13.985
   9523SM  H10G12880   1.728   1.452  14.008
   9523SM  C11F12881   1.689   1.294  14.151
   9523SM  H11F12882   1.728   1.190  14.150
   9523SM  H11G12883   1.589   1.289  14.199
   9523SM  C12F12884   1.778   1.386  14.231
   9523SM  H12F12885   1.858   1.427  14.166
   9523SM  H12G12886   1.828   1.341  14.318
   9523SM  C13F12887   1.684   1.492  14.281
   9523SM  H13F12888   1.612   1.448  14.355
   9523SM  H13G12889   1.623   1.531  14.196
   9523SM  C14F12890   1.760   1.605  14.342
   9523SM  H14F12891   1.847   1.632  14.278
   9523SM  H14G12892   1.800   1.576  14.442
   9523SM  C15F12893   1.666   1.724  14.348
   9523SM  H15F12894   1.634   1.750  14.245
   9523SM  H15G12895   1.730   1.802  14.392
   9523SM  C16F12896   1.545   1.708  14.438
   9523SM  H16F12897   1.488   1.616  14.415
   9523SM  H16G12898   1.475   1.794  14.423
   9523SM  C17F12899   1.595   1.708  14.581
   9523SM  H17F12900   1.642   1.806  14.605
   9523SM  H17G12901   1.673   1.629  14.592
   9523SM  C18F12902   1.487   1.675  14.682
   9523SM  H18F12903   1.544   1.644  14.772
   9523SM  H18G12904   1.425   1.590  14.648
   9523SM  C19F12905   1.399   1.796  14.714
   9523SM  H19F12906   1.338   1.825  14.626
   9523SM  H19G12907   1.465   1.882  14.737
   9523SM  C20F12908   1.308   1.766  14.834
   9523SM  H20F12909   1.239   1.683  14.806
   9523SM  H20G12910   1.247   1.856  14.858
   9523SM  C21F12911   1.387   1.723  14.958
   9523SM  H21F12912   1.463   1.800  14.984
   9523SM  H21G12913   1.442   1.629  14.940
   9523SM  C22F12914   1.296   1.696  15.077
   9523SM  H22F12915   1.223   1.617  15.046
   9523SM  H22G12916   1.239   1.788  15.103
   9523SM  C23F12917   1.377   1.646  15.197
   9523SM  H23F12918   1.311   1.597  15.272
   9523SM  H23G12919   1.430   1.730  15.245
   9523SM  H23H12920   1.454   1.573  15.162
   9623SM     N12921   2.623   8.043  12.247
   9623SM   C1512922   2.749   8.108  12.198
   9623SM  H15A12923   2.756   8.102  12.091
   9623SM  H15B12924   2.836   8.059  12.242
   9623SM  H15C12925   2.753   8.212  12.226
   9623SM   C1412926   2.505   8.112  12.188
   9623SM  H14A12927   2.412   8.065  12.214
   9623SM  H14B12928   2.513   8.118  12.079
   9623SM  H14C12929   2.500   8.216  12.221
   9623SM   C1312930   2.627   7.897  12.214
   9623SM  H13A12931   2.711   7.855  12.271
   9623SM  H13B12932   2.644   7.880  12.110
   9623SM  H13C12933   2.541   7.843  12.250
   9623SM   C1212934   2.617   8.049  12.398
   9623SM  H12A12935   2.542   7.977  12.429
   9623SM  H12B12936   2.581   8.147  12.430
   9623SM   C1112937   2.747   8.021  12.477
   9623SM  H11A12938   2.711   8.001  12.581
   9623SM  H11B12939   2.809   8.113  12.480
   9623SM     P12940   2.871   7.788  12.498
   9623SM   O1312941   2.773   7.681  12.468
   9623SM   O1412942   3.015   7.761  12.478
   9623SM   O1112943   2.853   7.837  12.645
   9623SM   O1212944   2.824   7.916  12.421
   9623SM   C1S12945   2.787   7.755  12.741
   9623SM   H1S12946   2.827   7.652  12.737
   9623SM   H1T12947   2.678   7.751  12.721
   9623SM    NF12948   2.758   7.725  12.988
   9623SM   HNF12949   2.679   7.759  13.039
   9623SM   C2S12950   2.807   7.814  12.883
   9623SM   H2S12951   2.916   7.832  12.898
   9623SM   C3S12952   2.735   7.953  12.886
   9623SM   H3S12953   2.633   7.945  12.845
   9623SM    O312954   2.797   8.050  12.805
   9623SM   HO312955   2.851   7.999  12.743
   9623SM   C4S12956   2.730   8.001  13.027
   9623SM   H4S12957   2.821   8.052  13.062
   9623SM   C5S12958   2.623   7.986  13.108
   9623SM   H5S12959   2.534   7.933  13.072
   9623SM   C6S12960   2.617   8.031  13.252
   9623SM   H6S12961   2.545   8.114  13.266
   9623SM   H6T12962   2.716   8.065  13.287
   9623SM   C7S12963   2.574   7.908  13.335
   9623SM   H7S12964   2.630   7.818  13.299
   9623SM   H7T12965   2.465   7.886  13.318
   9623SM   C8S12966   2.602   7.916  13.485
   9623SM   H8S12967   2.708   7.944  13.501
   9623SM   H8T12968   2.587   7.816  13.529
   9623SM   C9S12969   2.510   8.011  13.564
   9623SM   H9S12970   2.412   7.961  13.583
   9623SM   H9T12971   2.491   8.100  13.501
   9623SM  C10S12972   2.575   8.058  13.696
   9623SM  H10S12973   2.515   8.143  13.732
   9623SM  H10T12974   2.678   8.095  13.675
   9623SM  C11S12975   2.579   7.955  13.809
   9623SM  H11S12976   2.637   7.868  13.775
   9623SM  H11T12977   2.474   7.922  13.823
   9623SM  C12S12978   2.637   8.008  13.943
   9623SM  H12S12979   2.616   8.116  13.953
   9623SM  H12T12980   2.748   7.996  13.942
   9623SM  C13S12981   2.577   7.934  14.064
   9623SM  H13S12982   2.633   7.840  14.082
   9623SM  H13T12983   2.471   7.912  14.037
   9623SM  C14S12984   2.565   7.999  14.202
   9623SM  H14S12985   2.497   8.087  14.197
   9623SM  H14T12986   2.663   8.030  14.243
   9623SM  C15S12987   2.500   7.900  14.299
   9623SM  H15S12988   2.557   7.805  14.315
   9623SM  H15T12989   2.404   7.877  14.247
   9623SM  C16S12990   2.474   7.975  14.428
   9623SM  H16S12991   2.420   8.064  14.390
   9623SM  H16T12992   2.572   8.006  14.471
   9623SM  C17S12993   2.387   7.916  14.539
   9623SM  H17S12994   2.288   7.889  14.495
   9623SM  H17T12995   2.367   7.996  14.614
   9623SM  C18S12996   2.453   7.801  14.614
   9623SM  H18S12997   2.400   7.777  14.709
   9623SM  H18T12998   2.560   7.821  14.632
   9623SM  H18U12999   2.453   7.709  14.556
   9623SM   C1F13000   2.803   7.602  13.012
   9623SM    OF13001   2.873   7.542  12.931
   9623SM   C2F13002   2.752   7.533  13.136
   9623SM   H2F13003   2.683   7.453  13.102
   9623SM   H2G13004   2.694   7.604  13.198
   9623SM   C3F13005   2.866   7.470  13.221
   9623SM   H3F13006   2.914   7.547  13.284
   9623SM   H3G13007   2.946   7.434  13.152
   9623SM   C4F13008   2.823   7.348  13.305
   9623SM   H4F13009   2.883   7.261  13.272
   9623SM   H4G13010   2.716   7.325  13.286
   9623SM   C5F13011   2.850   7.356  13.457
   9623SM   H5F13012   2.823   7.457  13.496
   9623SM   H5G13013   2.959   7.344  13.474
   9623SM   C6F13014   2.771   7.242  13.526
   9623SM   H6F13015   2.808   7.145  13.487
   9623SM   H6G13016   2.665   7.254  13.496
   9623SM   C7F13017   2.775   7.235  13.680
   9623SM   H7F13018   2.791   7.337  13.722
   9623SM   H7G13019   2.863   7.175  13.712
   9623SM   C8F13020   2.645   7.179  13.741
   9623SM   H8F13021   2.621   7.078  13.701
   9623SM   H8G13022   2.561   7.245  13.713
   9623SM   C9F13023   2.655   7.179  13.895
   9623SM   H9F13024   2.732   7.257  13.916
   9623SM   H9G13025   2.696   7.082  13.929
   9623SM  C10F13026   2.530   7.220  13.976
   9623SM  H10F13027   2.475   7.130  14.011
   9623SM  H10G13028   2.460   7.274  13.907
   9623SM  C11F13029   2.561   7.317  14.094
   9623SM  H11F13030   2.509   7.410  14.073
   9623SM  H11G13031   2.669   7.343  14.096
   9623SM  C12F13032   2.518   7.269  14.235
   9623SM  H12F13033   2.554   7.165  14.247
   9623SM  H12G13034   2.408   7.263  14.236
   9623SM  C13F13035   2.568   7.355  14.356
   9623SM  H13F13036   2.555   7.463  14.342
   9623SM  H13G13037   2.677   7.350  14.363
   9623SM  C14F13038   2.505   7.321  14.494
   9623SM  H14F13039   2.470   7.215  14.496
   9623SM  H14G13040   2.413   7.383  14.504
   9623SM  C15F13041   2.597   7.344  14.616
   9623SM  H15F13042   2.698   7.373  14.583
   9623SM  H15G13043   2.607   7.249  14.673
   9623SM  C16F13044   2.542   7.453  14.710
   9623SM  H16F13045   2.448   7.415  14.757
   9623SM  H16G13046   2.514   7.540  14.648
   9623SM  C17F13047   2.633   7.501  14.824
   9623SM  H17F13048   2.677   7.416  14.880
   9623SM  H17G13049   2.567   7.556  14.894
   9623SM  C18F13050   2.745   7.599  14.783
   9623SM  H18F13051   2.704   7.680  14.718
   9623SM  H18G13052   2.819   7.545  14.722
   9623SM  C19F13053   2.812   7.662  14.906
   9623SM  H19F13054   2.900   7.724  14.877
   9623SM  H19G13055   2.850   7.581  14.972
   9623SM  C20F13056   2.722   7.756  14.987
   9623SM  H20F13057   2.779   7.783  15.078
   9623SM  H20G13058   2.631   7.704  15.020
   9623SM  C21F13059   2.683   7.885  14.914
   9623SM  H21F13060   2.651   7.863  14.810
   9623SM  H21G13061   2.773   7.949  14.906
   9623SM  C22F13062   2.568   7.960  14.983
   9623SM  H22F13063   2.473   7.907  14.958
   9623SM  H22G13064   2.560   8.063  14.941
   9623SM  C23F13065   2.579   7.967  15.136
   9623SM  H23F13066   2.680   7.938  15.170
   9623SM  H23G13067   2.507   7.895  15.182
   9623SM  H23H13068   2.558   8.069  15.175
   9723SM     N13069   4.275  -0.111  12.204
   9723SM   C1513070   4.131  -0.077  12.220
   9723SM  H15A13071   4.083  -0.040  12.131
   9723SM  H15B13072   4.122  -0.001  12.298
   9723SM  H15C13073   4.077  -0.166  12.253
   9723SM   C1413074   4.286  -0.227  12.113
   9723SM  H14A13075   4.235  -0.314  12.153
   9723SM  H14B13076   4.390  -0.257  12.096
   9723SM  H14C13077   4.245  -0.205  12.015
   9723SM   C1313078   4.341   0.013  12.153
   9723SM  H13A13079   4.304   0.045  12.057
   9723SM  H13B13080   4.449   0.004  12.148
   9723SM  H13C13081   4.322   0.094  12.224
   9723SM   C1213082   4.332  -0.147  12.341
   9723SM  H12A13083   4.439  -0.122  12.347
   9723SM  H12B13084   4.326  -0.255  12.354
   9723SM   C1113085   4.261  -0.086  12.464
   9723SM  H11A13086   4.315  -0.115  12.558
   9723SM  H11B13087   4.162  -0.136  12.471
   9723SM     P13088   4.348   0.156  12.507
   9723SM   O1313089   4.479   0.118  12.450
   9723SM   O1413090   4.300   0.294  12.480
   9723SM   O1113091   4.339   0.122  12.666
   9723SM   O1213092   4.240   0.055  12.453
   9723SM   C1S13093   4.204   0.130  12.719
   9723SM   H1S13094   4.144   0.046  12.681
   9723SM   H1T13095   4.153   0.225  12.689
   9723SM    NF13096   4.239   0.244  12.939
   9723SM   HNF13097   4.327   0.237  12.983
   9723SM   C2S13098   4.192   0.121  12.875
   9723SM   H2S13099   4.083   0.109  12.898
   9723SM   C3S13100   4.267  -0.002  12.932
   9723SM   H3S13101   4.376   0.007  12.913
   9723SM    O313102   4.225  -0.128  12.878
   9723SM   HO313103   4.170  -0.106  12.803
   9723SM   C4S13104   4.241   0.000  13.081
   9723SM   H4S13105   4.143  -0.042  13.109
   9723SM   C5S13106   4.325   0.048  13.175
   9723SM   H5S13107   4.423   0.086  13.142
   9723SM   C6S13108   4.301   0.053  13.324
   9723SM   H6S13109   4.241  -0.033  13.359
   9723SM   H6T13110   4.245   0.145  13.350
   9723SM   C7S13111   4.434   0.057  13.402
   9723SM   H7S13112   4.501   0.138  13.367
   9723SM   H7T13113   4.487  -0.040  13.382
   9723SM   C8S13114   4.419   0.069  13.555
   9723SM   H8S13115   4.499   0.004  13.596
   9723SM   H8T13116   4.323   0.025  13.589
   9723SM   C9S13117   4.440   0.208  13.617
   9723SM   H9S13118   4.347   0.269  13.602
   9723SM   H9T13119   4.524   0.261  13.568
   9723SM  C10S13120   4.471   0.197  13.768
   9723SM  H10S13121   4.570   0.149  13.782
   9723SM  H10T13122   4.393   0.130  13.812
   9723SM  C11S13123   4.473   0.328  13.847
   9723SM  H11S13124   4.409   0.401  13.793
   9723SM  H11T13125   4.575   0.370  13.850
   9723SM  C12S13126   4.416   0.312  13.989
   9723SM  H12S13127   4.323   0.251  13.987
   9723SM  H12T13128   4.387   0.414  14.026
   9723SM  C13S13129   4.513   0.252  14.091
   9723SM  H13S13130   4.611   0.305  14.081
   9723SM  H13T13131   4.530   0.144  14.070
   9723SM  C14S13132   4.463   0.271  14.236
   9723SM  H14S13133   4.378   0.202  14.256
   9723SM  H14T13134   4.425   0.375  14.247
   9723SM  C15S13135   4.573   0.248  14.340
   9723SM  H15S13136   4.663   0.304  14.307
   9723SM  H15T13137   4.599   0.140  14.344
   9723SM  C16S13138   4.535   0.298  14.479
   9723SM  H16S13139   4.450   0.239  14.520
   9723SM  H16T13140   4.503   0.404  14.473
   9723SM  C17S13141   4.654   0.287  14.575
   9723SM  H17S13142   4.742   0.335  14.527
   9723SM  H17T13143   4.678   0.179  14.592
   9723SM  C18S13144   4.629   0.354  14.709
   9723SM  H18S13145   4.580   0.452  14.691
   9723SM  H18T13146   4.725   0.371  14.763
   9723SM  H18U13147   4.561   0.294  14.774
   9723SM   C1F13148   4.166   0.356  12.935
   9723SM    OF13149   4.060   0.363  12.876
   9723SM   C2F13150   4.221   0.474  13.008
   9723SM   H2F13151   4.178   0.564  12.961
   9723SM   H2G13152   4.331   0.476  12.997
   9723SM   C3F13153   4.180   0.466  13.156
   9723SM   H3F13154   4.210   0.368  13.198
   9723SM   H3G13155   4.069   0.471  13.164
   9723SM   C4F13156   4.240   0.578  13.244
   9723SM   H4F13157   4.182   0.671  13.232
   9723SM   H4G13158   4.344   0.598  13.213
   9723SM   C5F13159   4.237   0.540  13.392
   9723SM   H5F13160   4.294   0.614  13.453
   9723SM   H5G13161   4.285   0.441  13.406
   9723SM   C6F13162   4.094   0.533  13.447
   9723SM   H6F13163   4.021   0.501  13.370
   9723SM   H6G13164   4.063   0.634  13.481
   9723SM   C7F13165   4.084   0.435  13.564
   9723SM   H7F13166   4.124   0.336  13.535
   9723SM   H7G13167   3.976   0.423  13.587
   9723SM   C8F13168   4.158   0.485  13.687
   9723SM   H8F13169   4.119   0.585  13.716
   9723SM   H8G13170   4.266   0.498  13.664
   9723SM   C9F13171   4.144   0.390  13.806
   9723SM   H9F13172   4.192   0.439  13.893
   9723SM   H9G13173   4.200   0.296  13.784
   9723SM  C10F13174   4.000   0.351  13.840
   9723SM  H10F13175   3.955   0.296  13.754
   9723SM  H10G13176   3.938   0.442  13.858
   9723SM  C11F13177   3.995   0.258  13.961
   9723SM  H11F13178   4.068   0.176  13.945
   9723SM  H11G13179   3.894   0.213  13.970
   9723SM  C12F13180   4.029   0.331  14.091
   9723SM  H12F13181   3.940   0.392  14.120
   9723SM  H12G13182   4.113   0.403  14.078
   9723SM  C13F13183   4.067   0.235  14.203
   9723SM  H13F13184   4.173   0.206  14.192
   9723SM  H13G13185   4.006   0.142  14.192
   9723SM  C14F13186   4.039   0.295  14.340
   9723SM  H14F13187   3.936   0.338  14.338
   9723SM  H14G13188   4.110   0.379  14.361
   9723SM  C15F13189   4.043   0.190  14.452
   9723SM  H15F13190   3.989   0.099  14.420
   9723SM  H15G13191   3.988   0.233  14.538
   9723SM  C16F13192   4.184   0.154  14.500
   9723SM  H16F13193   4.237   0.248  14.528
   9723SM  H16G13194   4.241   0.107  14.417
   9723SM  C17F13195   4.182   0.060  14.621
   9723SM  H17F13196   4.130  -0.034  14.592
   9723SM  H17G13197   4.122   0.106  14.702
   9723SM  C18F13198   4.322   0.026  14.675
   9723SM  H18F13199   4.369   0.118  14.715
   9723SM  H18G13200   4.382  -0.006  14.587
   9723SM  C19F13201   4.326  -0.088  14.779
   9723SM  H19F13202   4.422  -0.141  14.762
   9723SM  H19G13203   4.244  -0.161  14.762
   9723SM  C20F13204   4.328  -0.043  14.927
   9723SM  H20F13205   4.377   0.056  14.934
   9723SM  H20G13206   4.393  -0.113  14.985
   9723SM  C21F13207   4.190  -0.045  14.994
   9723SM  H21F13208   4.181  -0.133  15.062
   9723SM  H21G13209   4.113  -0.057  14.915
   9723SM  C22F13210   4.155   0.081  15.074
   9723SM  H22F13211   4.213   0.081  15.169
   9723SM  H22G13212   4.048   0.080  15.102
   9723SM  C23F13213   4.185   0.206  14.995
   9723SM  H23F13214   4.278   0.255  15.033
   9723SM  H23G13215   4.101   0.278  15.000
   9723SM  H23H13216   4.201   0.183  14.888
   9823SM     N13217   6.550   7.488  12.303
   9823SM   C1513218   6.570   7.630  12.341
   9823SM  H15A13219   6.495   7.664  12.412
   9823SM  H15B13220   6.561   7.696  12.256
   9823SM  H15C13221   6.669   7.646  12.383
   9823SM   C1413222   6.411   7.472  12.249
   9823SM  H14A13223   6.402   7.524  12.154
   9823SM  H14B13224   6.337   7.513  12.317
   9823SM  H14C13225   6.386   7.367  12.233
   9823SM   C1313226   6.649   7.450  12.198
   9823SM  H13A13227   6.646   7.514  12.111
   9823SM  H13B13228   6.634   7.347  12.164
   9823SM  H13C13229   6.750   7.450  12.240
   9823SM   C1213230   6.572   7.401  12.426
   9823SM  H12A13231   6.548   7.297  12.401
   9823SM  H12B13232   6.506   7.430  12.506
   9823SM   C1113233   6.717   7.395  12.482
   9823SM  H11A13234   6.714   7.352  12.584
   9823SM  H11B13235   6.757   7.498  12.494
   9823SM     P13236   6.785   7.167  12.373
   9823SM   O1313237   6.647   7.145  12.320
   9823SM   O1413238   6.896   7.122  12.287
   9823SM   O1113239   6.795   7.104  12.520
   9823SM   O1213240   6.806   7.322  12.397
   9823SM   C1S13241   6.915   7.130  12.595
   9823SM   H1S13242   6.982   7.204  12.545
   9823SM   H1T13243   6.974   7.036  12.603
   9823SM    NF13244   7.009   7.241  12.790
   9823SM   HNF13245   7.054   7.194  12.863
   9823SM   C2S13246   6.887   7.183  12.740
   9823SM   H2S13247   6.810   7.263  12.738
   9823SM   C3S13248   6.834   7.062  12.826
   9823SM   H3S13249   6.903   6.977  12.814
   9823SM    O313250   6.704   7.020  12.785
   9823SM   HO313251   6.692   7.058  12.697
   9823SM   C4S13252   6.818   7.094  12.975
   9823SM   H4S13253   6.768   7.189  12.997
   9823SM   C5S13254   6.858   7.013  13.077
   9823SM   H5S13255   6.897   6.915  13.050
   9823SM   C6S13256   6.841   7.036  13.227
   9823SM   H6S13257   6.791   6.945  13.264
   9823SM   H6T13258   6.767   7.119  13.241
   9823SM   C7S13259   6.944   7.055  13.344
   9823SM   H7S13260   6.888   7.102  13.428
   9823SM   H7T13261   7.016   7.130  13.312
   9823SM   C8S13262   7.011   6.928  13.401
   9823SM   H8S13263   7.064   6.876  13.319
   9823SM   H8T13264   6.933   6.858  13.436
   9823SM   C9S13265   7.117   6.947  13.515
   9823SM   H9S13266   7.204   6.998  13.470
   9823SM   H9T13267   7.152   6.844  13.543
   9823SM  C10S13268   7.073   7.019  13.644
   9823SM  H10S13269   7.004   6.947  13.690
   9823SM  H10T13270   7.018   7.112  13.620
   9823SM  C11S13271   7.172   7.048  13.761
   9823SM  H11S13272   7.252   7.118  13.729
   9823SM  H11T13273   7.219   6.951  13.791
   9823SM  C12S13274   7.095   7.104  13.883
   9823SM  H12S13275   7.005   7.039  13.892
   9823SM  H12T13276   7.058   7.207  13.861
   9823SM  C13S13277   7.160   7.102  14.023
   9823SM  H13S13278   7.235   7.184  14.030
   9823SM  H13T13279   7.213   7.006  14.039
   9823SM  C14S13280   7.052   7.119  14.134
   9823SM  H14S13281   6.993   7.026  14.144
   9823SM  H14T13282   6.986   7.203  14.104
   9823SM  C15S13283   7.101   7.158  14.274
   9823SM  H15S13284   7.019   7.204  14.334
   9823SM  H15T13285   7.180   7.232  14.258
   9823SM  C16S13286   7.152   7.041  14.356
   9823SM  H16S13287   7.195   6.970  14.285
   9823SM  H16T13288   7.067   6.994  14.409
   9823SM  C17S13289   7.272   7.067  14.446
   9823SM  H17S13290   7.331   7.150  14.401
   9823SM  H17T13291   7.336   6.976  14.441
   9823SM  C18S13292   7.241   7.093  14.593
   9823SM  H18S13293   7.321   7.155  14.638
   9823SM  H18T13294   7.237   6.996  14.648
   9823SM  H18U13295   7.144   7.146  14.606
   9823SM   C1F13296   7.071   7.350  12.744
   9823SM    OF13297   7.022   7.429  12.665
   9823SM   C2F13298   7.207   7.366  12.803
   9823SM   H2F13299   7.275   7.290  12.759
   9823SM   H2G13300   7.191   7.341  12.910
   9823SM   C3F13301   7.272   7.505  12.799
   9823SM   H3F13302   7.224   7.568  12.721
   9823SM   H3G13303   7.379   7.493  12.769
   9823SM   C4F13304   7.267   7.578  12.934
   9823SM   H4F13305   7.316   7.677  12.922
   9823SM   H4G13306   7.326   7.521  13.009
   9823SM   C5F13307   7.124   7.597  12.984
   9823SM   H5F13308   7.080   7.500  13.016
   9823SM   H5G13309   7.062   7.636  12.900
   9823SM   C6F13310   7.110   7.697  13.099
   9823SM   H6F13311   7.143   7.797  13.064
   9823SM   H6G13312   7.180   7.668  13.180
   9823SM   C7F13313   6.964   7.709  13.147
   9823SM   H7F13314   6.898   7.697  13.058
   9823SM   H7G13315   6.948   7.812  13.185
   9823SM   C8F13316   6.922   7.606  13.255
   9823SM   H8F13317   6.926   7.505  13.209
   9823SM   H8G13318   6.817   7.626  13.286
   9823SM   C9F13319   7.014   7.607  13.379
   9823SM   H9F13320   7.012   7.709  13.422
   9823SM   H9G13321   7.117   7.584  13.345
   9823SM  C10F13322   6.983   7.502  13.488
   9823SM  H10F13323   7.074   7.488  13.550
   9823SM  H10G13324   6.955   7.404  13.444
   9823SM  C11F13325   6.878   7.553  13.585
   9823SM  H11F13326   6.782   7.556  13.529
   9823SM  H11G13327   6.909   7.658  13.609
   9823SM  C12F13328   6.862   7.481  13.720
   9823SM  H12F13329   6.873   7.558  13.800
   9823SM  H12G13330   6.944   7.408  13.735
   9823SM  C13F13331   6.727   7.412  13.740
   9823SM  H13F13332   6.716   7.330  13.666
   9823SM  H13G13333   6.642   7.481  13.722
   9823SM  C14F13334   6.707   7.360  13.883
   9823SM  H14F13335   6.790   7.292  13.909
   9823SM  H14G13336   6.612   7.303  13.885
   9823SM  C15F13337   6.700   7.473  13.988
   9823SM  H15F13338   6.660   7.564  13.937
   9823SM  H15G13339   6.803   7.496  14.023
   9823SM  C16F13340   6.611   7.441  14.109
   9823SM  H16F13341   6.517   7.394  14.071
   9823SM  H16G13342   6.582   7.533  14.163
   9823SM  C17F13343   6.682   7.343  14.203
   9823SM  H17F13344   6.744   7.281  14.134
   9823SM  H17G13345   6.609   7.277  14.254
   9823SM  C18F13346   6.778   7.404  14.308
   9823SM  H18F13347   6.836   7.487  14.263
   9823SM  H18G13348   6.850   7.324  14.336
   9823SM  C19F13349   6.712   7.450  14.439
   9823SM  H19F13350   6.665   7.361  14.488
   9823SM  H19G13351   6.630   7.523  14.418
   9823SM  C20F13352   6.810   7.513  14.540
   9823SM  H20F13353   6.860   7.601  14.494
   9823SM  H20G13354   6.889   7.440  14.566
   9823SM  C21F13355   6.739   7.560  14.669
   9823SM  H21F13356   6.686   7.474  14.716
   9823SM  H21G13357   6.661   7.635  14.641
   9823SM  C22F13358   6.832   7.623  14.774
   9823SM  H22F13359   6.770   7.674  14.851
   9823SM  H22G13360   6.894   7.701  14.725
   9823SM  C23F13361   6.922   7.521  14.845
   9823SM  H23F13362   6.860   7.446  14.899
   9823SM  H23G13363   6.989   7.570  14.918
   9823SM  H23H13364   6.984   7.466  14.771
   9923SM     N13365   0.534   7.159  12.236
   9923SM   C1513366   0.499   7.016  12.266
   9923SM  H15A13367   0.559   6.985  12.351
   9923SM  H15B13368   0.520   6.952  12.182
   9923SM  H15C13369   0.395   7.005  12.294
   9923SM   C1413370   0.678   7.172  12.202
   9923SM  H14A13371   0.705   7.276  12.189
   9923SM  H14B13372   0.700   7.118  12.111
   9923SM  H14C13373   0.738   7.134  12.285
   9923SM   C1313374   0.455   7.210  12.120
   9923SM  H13A13375   0.481   7.315  12.108
   9923SM  H13B13376   0.348   7.202  12.138
   9923SM  H13C13377   0.482   7.159  12.027
   9923SM   C1213378   0.501   7.245  12.355
   9923SM  H12A13379   0.395   7.242  12.373
   9923SM  H12B13380   0.525   7.350  12.332
   9923SM   C1113381   0.575   7.217  12.486
   9923SM  H11A13382   0.566   7.110  12.515
   9923SM  H11B13383   0.524   7.277  12.565
   9923SM     P13384   0.749   7.405  12.483
   9923SM   O1313385   0.894   7.420  12.452
   9923SM   O1413386   0.649   7.478  12.402
   9923SM   O1113387   0.731   7.445  12.635
   9923SM   O1213388   0.714   7.250  12.477
   9923SM   C1S13389   0.802   7.366  12.731
   9923SM   H1S13390   0.903   7.408  12.746
   9923SM   H1T13391   0.817   7.260  12.698
   9923SM    NF13392   0.589   7.316  12.841
   9923SM   HNF13393   0.521   7.389  12.830
   9923SM   C2S13394   0.726   7.357  12.868
   9923SM   H2S13395   0.774   7.278  12.930
   9923SM   C3S13396   0.737   7.494  12.943
   9923SM   H3S13397   0.678   7.570  12.890
   9923SM    O313398   0.872   7.541  12.942
   9923SM   HO313399   0.890   7.537  12.848
   9923SM   C4S13400   0.686   7.485  13.087
   9923SM   H4S13401   0.578   7.503  13.095
   9923SM   C5S13402   0.755   7.461  13.201
   9923SM   H5S13403   0.862   7.438  13.193
   9923SM   C6S13404   0.701   7.455  13.343
   9923SM   H6S13405   0.722   7.554  13.389
   9923SM   H6T13406   0.760   7.383  13.404
   9923SM   C7S13407   0.552   7.432  13.376
   9923SM   H7S13408   0.516   7.334  13.339
   9923SM   H7T13409   0.493   7.514  13.328
   9923SM   C8S13410   0.530   7.440  13.527
   9923SM   H8S13411   0.426   7.471  13.548
   9923SM   H8T13412   0.599   7.516  13.570
   9923SM   C9S13413   0.554   7.308  13.601
   9923SM   H9S13414   0.663   7.286  13.603
   9923SM   H9T13415   0.503   7.227  13.544
   9923SM  C10S13416   0.500   7.312  13.744
   9923SM  H10S13417   0.492   7.208  13.782
   9923SM  H10T13418   0.396   7.352  13.744
   9923SM  C11S13419   0.589   7.391  13.842
   9923SM  H11S13420   0.594   7.498  13.811
   9923SM  H11T13421   0.692   7.351  13.837
   9923SM  C12S13422   0.538   7.383  13.988
   9923SM  H12S13423   0.526   7.276  14.015
   9923SM  H12T13424   0.439   7.432  13.994
   9923SM  C13S13425   0.636   7.443  14.090
   9923SM  H13S13426   0.674   7.537  14.045
   9923SM  H13T13427   0.721   7.373  14.103
   9923SM  C14S13428   0.573   7.477  14.226
   9923SM  H14S13429   0.524   7.387  14.267
   9923SM  H14T13430   0.492   7.551  14.210
   9923SM  C15S13431   0.673   7.531  14.330
   9923SM  H15S13432   0.711   7.630  14.299
   9923SM  H15T13433   0.761   7.463  14.335
   9923SM  C16S13434   0.613   7.542  14.471
   9923SM  H16S13435   0.595   7.438  14.504
   9923SM  H16T13436   0.518   7.599  14.474
   9923SM  C17S13437   0.711   7.593  14.576
   9923SM  H17S13438   0.729   7.701  14.565
   9923SM  H17T13439   0.804   7.543  14.548
   9923SM  C18S13440   0.674   7.561  14.721
   9923SM  H18S13441   0.762   7.564  14.788
   9923SM  H18T13442   0.627   7.462  14.735
   9923SM  H18U13443   0.598   7.634  14.758
   9923SM   C1F13444   0.559   7.193  12.800
   9923SM    OF13445   0.646   7.119  12.757
   9923SM   C2F13446   0.416   7.146  12.800
   9923SM   H2F13447   0.414   7.035  12.806
   9923SM   H2G13448   0.370   7.174  12.703
   9923SM   C3F13449   0.338   7.206  12.917
   9923SM   H3F13450   0.229   7.194  12.899
   9923SM   H3G13451   0.357   7.315  12.924
   9923SM   C4F13452   0.373   7.146  13.053
   9923SM   H4F13453   0.483   7.136  13.068
   9923SM   H4G13454   0.328   7.044  13.061
   9923SM   C5F13455   0.314   7.238  13.160
   9923SM   H5F13456   0.220   7.279  13.118
   9923SM   H5G13457   0.381   7.325  13.177
   9923SM   C6F13458   0.278   7.166  13.289
   9923SM   H6F13459   0.371   7.139  13.345
   9923SM   H6G13460   0.223   7.073  13.265
   9923SM   C7F13461   0.186   7.253  13.376
   9923SM   H7F13462   0.091   7.273  13.322
   9923SM   H7G13463   0.236   7.349  13.398
   9923SM   C8F13464   0.153   7.180  13.506
   9923SM   H8F13465   0.246   7.125  13.532
   9923SM   H8G13466   0.074   7.104  13.489
   9923SM   C9F13467   0.113   7.274  13.620
   9923SM   H9F13468   0.026   7.335  13.588
   9923SM   H9G13469   0.197   7.343  13.644
   9923SM  C10F13470   0.077   7.195  13.745
   9923SM  H10F13471  -0.005   7.125  13.719
   9923SM  H10G13472   0.039   7.261  13.826
   9923SM  C11F13473   0.196   7.115  13.796
   9923SM  H11F13474   0.279   7.103  13.723
   9923SM  H11G13475   0.160   7.012  13.816
   9923SM  C12F13476   0.252   7.165  13.928
   9923SM  H12F13477   0.165   7.169  13.997
   9923SM  H12G13478   0.295   7.267  13.928
   9923SM  C13F13479   0.350   7.059  13.979
   9923SM  H13F13480   0.453   7.097  13.986
   9923SM  H13G13481   0.353   6.973  13.909
   9923SM  C14F13482   0.296   7.017  14.113
   9923SM  H14F13483   0.198   6.965  14.098
   9923SM  H14G13484   0.277   7.112  14.165
   9923SM  C15F13485   0.388   6.936  14.200
   9923SM  H15F13486   0.426   6.848  14.143
   9923SM  H15G13487   0.331   6.899  14.288
   9923SM  C16F13488   0.507   7.018  14.250
   9923SM  H16F13489   0.569   7.047  14.163
   9923SM  H16G13490   0.563   6.951  14.317
   9923SM  C17F13491   0.476   7.143  14.331
   9923SM  H17F13492   0.416   7.213  14.270
   9923SM  H17G13493   0.573   7.195  14.350
   9923SM  C18F13494   0.407   7.121  14.467
   9923SM  H18F13495   0.478   7.068  14.535
   9923SM  H18G13496   0.317   7.058  14.456
   9923SM  C19F13497   0.371   7.259  14.523
   9923SM  H19F13498   0.285   7.302  14.470
   9923SM  H19G13499   0.454   7.323  14.492
   9923SM  C20F13500   0.357   7.274  14.676
   9923SM  H20F13501   0.446   7.230  14.726
   9923SM  H20G13502   0.267   7.219  14.710
   9923SM  C21F13503   0.345   7.423  14.716
   9923SM  H21F13504   0.260   7.466  14.659
   9923SM  H21G13505   0.434   7.478  14.682
   9923SM  C22F13506   0.321   7.448  14.866
   9923SM  H22F13507   0.255   7.368  14.905
   9923SM  H22G13508   0.265   7.544  14.875
   9923SM  C23F13509   0.447   7.461  14.953
   9923SM  H23F13510   0.421   7.482  15.059
   9923SM  H23G13511   0.508   7.548  14.919
   9923SM  H23H13512   0.509   7.369  14.948
  10023SM     N13513   0.281   0.468  12.201
  10023SM   C1513514   0.376   0.389  12.119
  10023SM  H15A13515   0.466   0.446  12.101
  10023SM  H15B13516   0.331   0.361  12.025
  10023SM  H15C13517   0.397   0.299  12.175
  10023SM   C1413518   0.246   0.595  12.132
  10023SM  H14A13519   0.334   0.652  12.104
  10023SM  H14B13520   0.182   0.656  12.196
  10023SM  H14C13521   0.189   0.575  12.042
  10023SM   C1313522   0.153   0.393  12.220
  10023SM  H13A13523   0.166   0.307  12.285
  10023SM  H13B13524   0.120   0.355  12.124
  10023SM  H13C13525   0.077   0.456  12.265
  10023SM   C1213526   0.345   0.493  12.338
  10023SM  H12A13527   0.267   0.530  12.404
  10023SM  H12B13528   0.421   0.569  12.328
  10023SM   C1113529   0.410   0.370  12.407
  10023SM  H11A13530   0.442   0.399  12.510
  10023SM  H11B13531   0.504   0.344  12.353
  10023SM     P13532   0.223   0.226  12.523
  10023SM   O1313533   0.147   0.350  12.546
  10023SM   O1413534   0.143   0.106  12.491
  10023SM   O1113535   0.308   0.200  12.652
  10023SM   O1213536   0.326   0.254  12.407
  10023SM   C1S13537   0.427   0.126  12.663
  10023SM   H1S13538   0.510   0.181  12.615
  10023SM   H1T13539   0.422   0.025  12.615
  10023SM    NF13540   0.342   0.043  12.878
  10023SM   HNF13541   0.289   0.105  12.933
  10023SM   C2S13542   0.455   0.107  12.814
  10023SM   H2S13543   0.544   0.041  12.824
  10023SM   C3S13544   0.485   0.240  12.884
  10023SM   H3S13545   0.398   0.308  12.881
  10023SM    O313546   0.593   0.311  12.824
  10023SM   HO313547   0.613   0.261  12.745
  10023SM   C4S13548   0.513   0.198  13.026
  10023SM   H4S13549   0.613   0.154  13.040
  10023SM   C5S13550   0.429   0.204  13.131
  10023SM   H5S13551   0.330   0.251  13.121
  10023SM   C6S13552   0.467   0.156  13.268
  10023SM   H6S13553   0.523   0.234  13.322
  10023SM   H6T13554   0.537   0.070  13.262
  10023SM   C7S13555   0.341   0.112  13.346
  10023SM   H7S13556   0.327   0.003  13.328
  10023SM   H7T13557   0.250   0.167  13.313
  10023SM   C8S13558   0.353   0.136  13.497
  10023SM   H8S13559   0.278   0.073  13.550
  10023SM   H8T13560   0.331   0.242  13.521
  10023SM   C9S13561   0.492   0.103  13.550
  10023SM   H9S13562   0.554   0.195  13.557
  10023SM   H9T13563   0.545   0.033  13.482
  10023SM  C10S13564   0.485   0.035  13.686
  10023SM  H10S13565   0.584  -0.012  13.703
  10023SM  H10T13566   0.409  -0.046  13.693
  10023SM  C11S13567   0.467   0.133  13.797
  10023SM  H11S13568   0.358   0.149  13.811
  10023SM  H11T13569   0.515   0.231  13.775
  10023SM  C12S13570   0.527   0.077  13.923
  10023SM  H12S13571   0.638   0.070  13.916
  10023SM  H12T13572   0.487  -0.025  13.944
  10023SM  C13S13573   0.485   0.173  14.028
  10023SM  H13S13574   0.374   0.174  14.026
  10023SM  H13T13575   0.525   0.275  14.004
  10023SM  C14S13576   0.529   0.129  14.163
  10023SM  H14S13577   0.615   0.060  14.155
  10023SM  H14T13578   0.445   0.074  14.210
  10023SM  C15S13579   0.566   0.249  14.247
  10023SM  H15S13580   0.482   0.322  14.242
  10023SM  H15T13581   0.658   0.300  14.210
  10023SM  C16S13582   0.581   0.196  14.387
  10023SM  H16S13583   0.682   0.151  14.399
  10023SM  H16T13584   0.506   0.116  14.404
  10023SM  C17S13585   0.553   0.302  14.489
  10023SM  H17S13586   0.468   0.364  14.454
  10023SM  H17T13587   0.640   0.371  14.493
  10023SM  C18S13588   0.526   0.242  14.626
  10023SM  H18S13589   0.420   0.214  14.640
  10023SM  H18T13590   0.558   0.311  14.707
  10023SM  H18U13591   0.579   0.146  14.634
  10023SM   C1F13592   0.312  -0.084  12.863
  10023SM    OF13593   0.386  -0.159  12.800
  10023SM   C2F13594   0.189  -0.131  12.933
  10023SM   H2F13595   0.187  -0.086  13.034
  10023SM   H2G13596   0.195  -0.241  12.946
  10023SM   C3F13597   0.058  -0.100  12.855
  10023SM   H3F13598  -0.028  -0.144  12.910
  10023SM   H3G13599   0.061  -0.153  12.757
  10023SM   C4F13600   0.027   0.049  12.830
  10023SM   H4F13601  -0.055   0.057  12.756
  10023SM   H4G13602   0.114   0.102  12.785
  10023SM   C5F13603  -0.014   0.118  12.960
  10023SM   H5F13604   0.065   0.100  13.035
  10023SM   H5G13605  -0.111   0.072  12.991
  10023SM   C6F13606  -0.031   0.271  12.953
  10023SM   H6F13607  -0.100   0.297  12.870
  10023SM   H6G13608   0.068   0.316  12.927
  10023SM   C7F13609  -0.083   0.334  13.085
  10023SM   H7F13610  -0.190   0.362  13.074
  10023SM   H7G13611  -0.030   0.430  13.102
  10023SM   C8F13612  -0.067   0.244  13.208
  10023SM   H8F13613   0.041   0.234  13.233
  10023SM   H8G13614  -0.111   0.145  13.185
  10023SM   C9F13615  -0.147   0.288  13.331
  10023SM   H9F13616  -0.132   0.214  13.413
  10023SM   H9G13617  -0.255   0.286  13.306
  10023SM  C10F13618  -0.105   0.424  13.383
  10023SM  H10F13619  -0.170   0.450  13.470
  10023SM  H10G13620  -0.120   0.503  13.306
  10023SM  C11F13621   0.042   0.421  13.427
  10023SM  H11F13622   0.110   0.429  13.339
  10023SM  H11G13623   0.061   0.321  13.474
  10023SM  C12F13624   0.077   0.527  13.530
  10023SM  H12F13625  -0.015   0.577  13.568
  10023SM  H12G13626   0.140   0.606  13.482
  10023SM  C13F13627   0.153   0.467  13.649
  10023SM  H13F13628   0.238   0.407  13.611
  10023SM  H13G13629   0.086   0.397  13.703
  10023SM  C14F13630   0.207   0.575  13.742
  10023SM  H14F13631   0.122   0.621  13.795
  10023SM  H14G13632   0.259   0.653  13.682
  10023SM  C15F13633   0.302   0.523  13.850
  10023SM  H15F13634   0.324   0.606  13.920
  10023SM  H15G13635   0.398   0.491  13.803
  10023SM  C16F13636   0.239   0.406  13.925
  10023SM  H16F13637   0.271   0.314  13.874
  10023SM  H16G13638   0.128   0.409  13.918
  10023SM  C17F13639   0.278   0.402  14.072
  10023SM  H17F13640   0.387   0.420  14.083
  10023SM  H17G13641   0.253   0.300  14.111
  10023SM  C18F13642   0.201   0.496  14.164
  10023SM  H18F13643   0.092   0.484  14.143
  10023SM  H18G13644   0.228   0.602  14.145
  10023SM  C19F13645   0.230   0.455  14.308
  10023SM  H19F13646   0.335   0.479  14.332
  10023SM  H19G13647   0.220   0.344  14.314
  10023SM  C20F13648   0.133   0.517  14.409
  10023SM  H20F13649   0.035   0.535  14.360
  10023SM  H20G13650   0.176   0.615  14.440
  10023SM  C21F13651   0.110   0.429  14.534
  10023SM  H21F13652   0.067   0.331  14.504
  10023SM  H21G13653   0.041   0.479  14.604
  10023SM  C22F13654   0.243   0.403  14.603
  10023SM  H22F13655   0.297   0.500  14.598
  10023SM  H22G13656   0.294   0.329  14.540
  10023SM  C23F13657   0.241   0.358  14.749
  10023SM  H23F13658   0.344   0.359  14.791
  10023SM  H23G13659   0.202   0.254  14.759
  10023SM  H23H13660   0.180   0.427  14.811
  101CHL1    C313661   4.011   4.576  16.716
  101CHL1    H313662   4.116   4.570  16.677
  101CHL1    O313663   4.015   4.586  16.857
  101CHL1   H3'13664   3.922   4.581  16.883
  101CHL1    C413665   3.941   4.698  16.655
  101CHL1   H4A13666   3.838   4.705  16.697
  101CHL1   H4B13667   3.995   4.789  16.690
  101CHL1    C513668   3.934   4.690  16.504
  101CHL1    C613669   3.988   4.785  16.426
  101CHL1    H613670   4.035   4.873  16.473
  101CHL1    C713671   3.984   4.784  16.276
  101CHL1   H7A13672   3.952   4.883  16.237
  101CHL1   H7B13673   4.087   4.765  16.238
  101CHL1    C813674   3.891   4.675  16.218
  101CHL1    H813675   3.786   4.712  16.225
  101CHL1   C1413676   3.926   4.651  16.072
  101CHL1   H1413677   4.031   4.611  16.073
  101CHL1   C1513678   3.929   4.772  15.977
  101CHL1  H15A13679   3.837   4.833  15.992
  101CHL1  H15B13680   4.018   4.836  15.995
  101CHL1   C1613681   3.929   4.709  15.838
  101CHL1  H16A13682   3.847   4.755  15.778
  101CHL1  H16B13683   4.025   4.724  15.785
  101CHL1   C1713684   3.902   4.556  15.858
  101CHL1   H1713685   4.002   4.506  15.861
  101CHL1   C1313686   3.844   4.544  16.001
  101CHL1   C1813687   3.694   4.582  15.995
  101CHL1  H18A13688   3.633   4.499  15.954
  101CHL1  H18B13689   3.654   4.605  16.096
  101CHL1  H18C13690   3.679   4.671  15.930
  101CHL1   C1213691   3.864   4.411  16.078
  101CHL1  H12A13692   3.803   4.329  16.036
  101CHL1  H12B13693   3.971   4.382  16.072
  101CHL1   C1113694   3.825   4.427  16.226
  101CHL1  H11A13695   3.716   4.446  16.231
  101CHL1  H11B13696   3.845   4.331  16.278
  101CHL1    C913697   3.903   4.544  16.295
  101CHL1    H913698   4.011   4.515  16.288
  101CHL1   C1013699   3.874   4.559  16.447
  101CHL1   C1913700   3.720   4.564  16.467
  101CHL1  H19A13701   3.675   4.466  16.442
  101CHL1  H19B13702   3.694   4.586  16.572
  101CHL1  H19C13703   3.674   4.642  16.402
  101CHL1    C113704   3.934   4.436  16.522
  101CHL1   H1A13705   3.877   4.345  16.494
  101CHL1   H1B13706   4.039   4.422  16.487
  101CHL1    C213707   3.936   4.449  16.675
  101CHL1   H2A13708   3.984   4.360  16.720
  101CHL1   H2B13709   3.831   4.455  16.712
  101CHL1   C2013710   3.824   4.496  15.741
  101CHL1   H2013711   3.731   4.555  15.725
  101CHL1   C2113712   3.785   4.351  15.773
  101CHL1  H21A13713   3.688   4.344  15.826
  101CHL1  H21B13714   3.863   4.311  15.840
  101CHL1  H21C13715   3.782   4.287  15.683
  101CHL1   C2213716   3.902   4.496  15.609
  101CHL1  H22A13717   3.961   4.590  15.599
  101CHL1  H22B13718   3.976   4.413  15.609
  101CHL1   C2313719   3.806   4.483  15.489
  101CHL1  H23A13720   3.722   4.415  15.517
  101CHL1  H23B13721   3.761   4.583  15.469
  101CHL1   C2413722   3.867   4.428  15.360
  101CHL1  H24A13723   3.896   4.321  15.376
  101CHL1  H24B13724   3.789   4.429  15.281
  101CHL1   C2513725   3.989   4.502  15.307
  101CHL1   H2513726   4.073   4.471  15.372
  101CHL1   C2613727   4.012   4.464  15.160
  101CHL1  H26A13728   4.099   4.519  15.119
  101CHL1  H26B13729   4.031   4.355  15.151
  101CHL1  H26C13730   3.924   4.490  15.099
  101CHL1   C2713731   3.988   4.655  15.321
  101CHL1  H27A13732   3.961   4.689  15.422
  101CHL1  H27B13733   4.089   4.695  15.297
  101CHL1  H27C13734   3.914   4.692  15.250
  102CHL1    C313735   2.643   4.610  16.722
  102CHL1    H313736   2.659   4.720  16.721
  102CHL1    O313737   2.639   4.563  16.856
  102CHL1   H3'13738   2.597   4.632  16.911
  102CHL1    C413739   2.511   4.573  16.656
  102CHL1   H4A13740   2.497   4.464  16.669
  102CHL1   H4B13741   2.427   4.623  16.711
  102CHL1    C513742   2.511   4.608  16.509
  102CHL1    C613743   2.424   4.695  16.457
  102CHL1    H613744   2.346   4.741  16.520
  102CHL1    C713745   2.418   4.727  16.311
  102CHL1   H7A13746   2.312   4.727  16.279
  102CHL1   H7B13747   2.459   4.829  16.291
  102CHL1    C813748   2.495   4.623  16.227
  102CHL1    H813749   2.434   4.530  16.229
  102CHL1   C1413750   2.511   4.671  16.086
  102CHL1   H1413751   2.577   4.762  16.087
  102CHL1   C1513752   2.381   4.717  16.024
  102CHL1  H15A13753   2.305   4.643  16.058
  102CHL1  H15B13754   2.355   4.820  16.053
  102CHL1   C1613755   2.400   4.704  15.876
  102CHL1  H16A13756   2.321   4.634  15.839
  102CHL1  H16B13757   2.389   4.801  15.825
  102CHL1   C1713758   2.541   4.642  15.856
  102CHL1   H1713759   2.612   4.727  15.846
  102CHL1   C1313760   2.572   4.571  15.990
  102CHL1   C1813761   2.498   4.435  15.994
  102CHL1  H18A13762   2.500   4.389  16.095
  102CHL1  H18B13763   2.392   4.445  15.965
  102CHL1  H18C13764   2.547   4.362  15.926
  102CHL1   C1213765   2.719   4.560  16.034
  102CHL1  H12A13766   2.775   4.488  15.971
  102CHL1  H12B13767   2.768   4.659  16.024
  102CHL1   C1113768   2.726   4.515  16.183
  102CHL1  H11A13769   2.698   4.408  16.183
  102CHL1  H11B13770   2.831   4.522  16.217
  102CHL1    C913771   2.634   4.595  16.281
  102CHL1    H913772   2.682   4.696  16.288
  102CHL1   C1013773   2.623   4.541  16.426
  102CHL1   C1913774   2.593   4.389  16.419
  102CHL1  H19A13775   2.677   4.333  16.373
  102CHL1  H19B13776   2.578   4.343  16.519
  102CHL1  H19C13777   2.502   4.370  16.359
  102CHL1    C113778   2.756   4.574  16.498
  102CHL1   H1A13779   2.839   4.522  16.446
  102CHL1   H1B13780   2.772   4.683  16.486
  102CHL1    C213781   2.759   4.541  16.649
  102CHL1   H2A13782   2.857   4.574  16.691
  102CHL1   H2B13783   2.750   4.431  16.662
  102CHL1   C2013784   2.541   4.562  15.727
  102CHL1   H2013785   2.477   4.471  15.740
  102CHL1   C2113786   2.683   4.516  15.690
  102CHL1  H21A13787   2.724   4.447  15.766
  102CHL1  H21B13788   2.750   4.604  15.681
  102CHL1  H21C13789   2.682   4.463  15.592
  102CHL1   C2213790   2.477   4.643  15.612
  102CHL1  H22A13791   2.379   4.688  15.641
  102CHL1  H22B13792   2.543   4.728  15.582
  102CHL1   C2313793   2.439   4.555  15.495
  102CHL1  H23A13794   2.526   4.547  15.425
  102CHL1  H23B13795   2.417   4.453  15.534
  102CHL1   C2413796   2.315   4.608  15.424
  102CHL1  H24A13797   2.225   4.601  15.489
  102CHL1  H24B13798   2.330   4.715  15.399
  102CHL1   C2513799   2.291   4.531  15.294
  102CHL1   H2513800   2.390   4.537  15.242
  102CHL1   C2613801   2.265   4.382  15.313
  102CHL1  H26A13802   2.279   4.331  15.215
  102CHL1  H26B13803   2.338   4.335  15.382
  102CHL1  H26C13804   2.162   4.364  15.349
  102CHL1   C2713805   2.183   4.598  15.208
  102CHL1  H27A13806   2.184   4.555  15.106
  102CHL1  H27B13807   2.082   4.584  15.252
  102CHL1  H27C13808   2.203   4.707  15.199
  103CHL1    C313809   2.617   2.873  16.712
  103CHL1    H313810   2.705   2.942  16.701
  103CHL1    O313811   2.584   2.859  16.849
  103CHL1   H3'13812   2.576   2.950  16.880
  103CHL1    C413813   2.495   2.926  16.637
  103CHL1   H4A13814   2.409   2.859  16.658
  103CHL1   H4B13815   2.467   3.026  16.678
  103CHL1    C513816   2.523   2.929  16.489
  103CHL1    C613817   2.515   3.042  16.421
  103CHL1    H613818   2.484   3.134  16.473
  103CHL1    C713819   2.538   3.049  16.274
  103CHL1   H7A13820   2.457   3.109  16.227
  103CHL1   H7B13821   2.635   3.099  16.252
  103CHL1    C813822   2.537   2.914  16.204
  103CHL1    H813823   2.432   2.880  16.204
  103CHL1   C1413824   2.587   2.933  16.065
  103CHL1   H1413825   2.697   2.958  16.072
  103CHL1   C1513826   2.526   3.049  15.985
  103CHL1  H15A13827   2.418   3.057  16.008
  103CHL1  H15B13828   2.577   3.145  16.008
  103CHL1   C1613829   2.547   3.006  15.840
  103CHL1  H16A13830   2.447   3.007  15.791
  103CHL1  H16B13831   2.615   3.075  15.785
  103CHL1   C1713832   2.604   2.861  15.845
  103CHL1   H1713833   2.715   2.870  15.836
  103CHL1   C1313834   2.576   2.806  15.984
  103CHL1   C1813835   2.429   2.751  15.987
  103CHL1  H18A13836   2.416   2.663  15.921
  103CHL1  H18B13837   2.398   2.718  16.087
  103CHL1  H18C13838   2.358   2.829  15.952
  103CHL1   C1213839   2.680   2.710  16.049
  103CHL1  H12A13840   2.692   2.616  15.993
  103CHL1  H12B13841   2.780   2.758  16.046
  103CHL1   C1113842   2.644   2.683  16.197
  103CHL1  H11A13843   2.552   2.621  16.196
  103CHL1  H11B13844   2.724   2.621  16.243
  103CHL1    C913845   2.623   2.814  16.278
  103CHL1    H913846   2.725   2.861  16.285
  103CHL1   C1013847   2.572   2.799  16.423
  103CHL1   C1913848   2.452   2.703  16.417
  103CHL1  H19A13849   2.379   2.733  16.339
  103CHL1  H19B13850   2.484   2.600  16.393
  103CHL1  H19C13851   2.397   2.699  16.513
  103CHL1    C113852   2.688   2.747  16.509
  103CHL1   H1A13853   2.719   2.651  16.464
  103CHL1   H1B13854   2.776   2.815  16.498
  103CHL1    C213855   2.653   2.736  16.658
  103CHL1   H2A13856   2.735   2.691  16.717
  103CHL1   H2B13857   2.561   2.674  16.669
  103CHL1   C2013858   2.553   2.782  15.726
  103CHL1   H2013859   2.442   2.776  15.729
  103CHL1   C2113860   2.609   2.639  15.732
  103CHL1  H21A13861   2.574   2.577  15.647
  103CHL1  H21B13862   2.575   2.587  15.822
  103CHL1  H21C13863   2.719   2.643  15.734
  103CHL1   C2213864   2.590   2.853  15.596
  103CHL1  H22A13865   2.523   2.941  15.583
  103CHL1  H22B13866   2.695   2.891  15.600
  103CHL1   C2313867   2.576   2.764  15.474
  103CHL1  H23A13868   2.662   2.694  15.469
  103CHL1  H23B13869   2.482   2.704  15.482
  103CHL1   C2413870   2.572   2.849  15.349
  103CHL1  H24A13871   2.480   2.911  15.356
  103CHL1  H24B13872   2.658   2.918  15.345
  103CHL1   C2513873   2.566   2.768  15.220
  103CHL1   H2513874   2.489   2.688  15.232
  103CHL1   C2613875   2.525   2.864  15.111
  103CHL1  H26A13876   2.436   2.924  15.139
  103CHL1  H26B13877   2.604   2.940  15.100
  103CHL1  H26C13878   2.505   2.813  15.014
  103CHL1   C2713879   2.702   2.703  15.185
  103CHL1  H27A13880   2.701   2.661  15.083
  103CHL1  H27B13881   2.783   2.778  15.192
  103CHL1  H27C13882   2.724   2.621  15.254
  104CHL1    C313883   6.127   4.126  16.732
  104CHL1    H313884   6.236   4.137  16.752
  104CHL1    O313885   6.057   4.117  16.854
  104CHL1   H3'13886   6.080   4.029  16.891
  104CHL1    C413887   6.075   4.250  16.657
  104CHL1   H4A13888   5.966   4.238  16.639
  104CHL1   H4B13889   6.088   4.339  16.723
  104CHL1    C513890   6.149   4.265  16.526
  104CHL1    C613891   6.219   4.376  16.501
  104CHL1    H613892   6.215   4.459  16.573
  104CHL1    C713893   6.302   4.397  16.377
  104CHL1   H7A13894   6.280   4.496  16.332
  104CHL1   H7B13895   6.409   4.397  16.407
  104CHL1    C813896   6.283   4.289  16.268
  104CHL1    H813897   6.192   4.317  16.209
  104CHL1   C1413898   6.407   4.280  16.179
  104CHL1   H1413899   6.487   4.234  16.242
  104CHL1   C1513900   6.470   4.409  16.128
  104CHL1  H15A13901   6.391   4.467  16.078
  104CHL1  H15B13902   6.518   4.469  16.207
  104CHL1   C1613903   6.568   4.360  16.022
  104CHL1  H16A13904   6.583   4.435  15.942
  104CHL1  H16B13905   6.665   4.342  16.072
  104CHL1   C1713906   6.524   4.219  15.979
  104CHL1   H1713907   6.598   4.151  16.030
  104CHL1   C1313908   6.390   4.194  16.055
  104CHL1   C1813909   6.271   4.252  15.973
  104CHL1  H18A13910   6.256   4.359  15.990
  104CHL1  H18B13911   6.284   4.244  15.865
  104CHL1  H18C13912   6.177   4.200  15.998
  104CHL1   C1213913   6.365   4.050  16.106
  104CHL1  H12A13914   6.337   3.984  16.021
  104CHL1  H12B13915   6.459   4.011  16.151
  104CHL1   C1113916   6.253   4.042  16.213
  104CHL1  H11A13917   6.156   4.052  16.159
  104CHL1  H11B13918   6.258   3.941  16.259
  104CHL1    C913919   6.262   4.149  16.326
  104CHL1    H913920   6.357   4.128  16.380
  104CHL1   C1013921   6.150   4.140  16.434
  104CHL1   C1913922   6.012   4.137  16.364
  104CHL1  H19A13923   5.999   4.223  16.295
  104CHL1  H19B13924   6.000   4.043  16.305
  104CHL1  H19C13925   5.930   4.139  16.438
  104CHL1    C113926   6.172   4.008  16.515
  104CHL1   H1A13927   6.141   3.922  16.452
  104CHL1   H1B13928   6.281   3.996  16.535
  104CHL1    C213929   6.100   4.000  16.650
  104CHL1   H2A13930   6.137   3.911  16.706
  104CHL1   H2B13931   5.991   3.989  16.634
  104CHL1   C2013932   6.535   4.186  15.828
  104CHL1   H2013933   6.442   4.211  15.775
  104CHL1   C2113934   6.555   4.036  15.821
  104CHL1  H21A13935   6.655   4.015  15.864
  104CHL1  H21B13936   6.550   4.001  15.716
  104CHL1  H21C13937   6.481   3.979  15.880
  104CHL1   C2213938   6.648   4.259  15.747
  104CHL1  H22A13939   6.627   4.368  15.743
  104CHL1  H22B13940   6.743   4.247  15.803
  104CHL1   C2313941   6.673   4.215  15.599
  104CHL1  H23A13942   6.755   4.281  15.563
  104CHL1  H23B13943   6.709   4.110  15.597
  104CHL1   C2413944   6.557   4.226  15.499
  104CHL1  H24A13945   6.476   4.157  15.532
  104CHL1  H24B13946   6.519   4.329  15.502
  104CHL1   C2513947   6.585   4.195  15.349
  104CHL1   H2513948   6.611   4.087  15.340
  104CHL1   C2613949   6.456   4.219  15.268
  104CHL1  H26A13950   6.369   4.176  15.320
  104CHL1  H26B13951   6.438   4.328  15.256
  104CHL1  H26C13952   6.462   4.174  15.167
  104CHL1   C2713953   6.700   4.277  15.289
  104CHL1  H27A13954   6.686   4.385  15.310
  104CHL1  H27B13955   6.798   4.245  15.332
  104CHL1  H27C13956   6.705   4.263  15.179
  105CHL1    C313957   6.047   3.278  16.728
  105CHL1    H313958   6.131   3.351  16.718
  105CHL1    O313959   6.013   3.264  16.864
  105CHL1   H3'13960   6.091   3.224  16.905
  105CHL1    C413961   5.925   3.330  16.649
  105CHL1   H4A13962   5.838   3.265  16.674
  105CHL1   H4B13963   5.901   3.431  16.690
  105CHL1    C513964   5.946   3.332  16.499
  105CHL1    C613965   5.925   3.443  16.427
  105CHL1    H613966   5.889   3.534  16.477
  105CHL1    C713967   5.940   3.449  16.277
  105CHL1   H7A13968   5.851   3.497  16.230
  105CHL1   H7B13969   6.028   3.512  16.252
  105CHL1    C813970   5.959   3.309  16.213
  105CHL1    H813971   5.861   3.258  16.212
  105CHL1   C1413972   6.012   3.321  16.071
  105CHL1   H1413973   6.114   3.361  16.087
  105CHL1   C1513974   5.944   3.418  15.972
  105CHL1  H15A13975   5.834   3.418  15.986
  105CHL1  H15B13976   5.981   3.521  15.987
  105CHL1   C1613977   5.983   3.365  15.833
  105CHL1  H16A13978   5.892   3.322  15.785
  105CHL1  H16B13979   6.023   3.445  15.767
  105CHL1   C1713980   6.087   3.253  15.858
  105CHL1   H1713981   6.184   3.306  15.874
  105CHL1   C1313982   6.046   3.193  15.996
  105CHL1   C1813983   5.918   3.108  15.981
  105CHL1  H18A13984   5.844   3.155  15.913
  105CHL1  H18B13985   5.943   3.008  15.940
  105CHL1  H18C13986   5.868   3.091  16.078
  105CHL1   C1213987   6.154   3.123  16.081
  105CHL1  H12A13988   6.189   3.028  16.037
  105CHL1  H12B13989   6.242   3.190  16.090
  105CHL1   C1113990   6.101   3.094  16.222
  105CHL1  H11A13991   6.017   3.022  16.214
  105CHL1  H11B13992   6.181   3.043  16.280
  105CHL1    C913993   6.055   3.223  16.296
  105CHL1    H913994   6.148   3.284  16.306
  105CHL1   C1013995   6.003   3.201  16.440
  105CHL1   C1913996   5.887   3.097  16.438
  105CHL1  H19A13997   5.923   2.998  16.403
  105CHL1  H19B13998   5.843   3.082  16.539
  105CHL1  H19C13999   5.805   3.130  16.371
  105CHL1    C114000   6.121   3.147  16.526
  105CHL1   H1A14001   6.146   3.045  16.492
  105CHL1   H1B14002   6.210   3.212  16.510
  105CHL1    C214003   6.091   3.141  16.676
  105CHL1   H2A14004   6.182   3.108  16.729
  105CHL1   H2B14005   6.009   3.068  16.694
  105CHL1   C2014006   6.108   3.155  15.742
  105CHL1   H2014007   6.031   3.075  15.752
  105CHL1   C2114008   6.248   3.090  15.755
  105CHL1  H21A14009   6.262   3.015  15.675
  105CHL1  H21B14010   6.261   3.039  15.851
  105CHL1  H21C14011   6.328   3.167  15.748
  105CHL1   C2214012   6.086   3.211  15.598
  105CHL1  H22A14013   6.077   3.122  15.532
  105CHL1  H22B14014   5.990   3.265  15.591
  105CHL1   C2314015   6.201   3.296  15.541
  105CHL1  H23A14016   6.214   3.388  15.602
  105CHL1  H23B14017   6.295   3.239  15.548
  105CHL1   C2414018   6.184   3.331  15.392
  105CHL1  H24A14019   6.273   3.390  15.362
  105CHL1  H24B14020   6.183   3.237  15.332
  105CHL1   C2514021   6.061   3.416  15.352
  105CHL1   H2514022   5.970   3.353  15.363
  105CHL1   C2614023   6.047   3.538  15.443
  105CHL1  H26A14024   6.014   3.509  15.545
  105CHL1  H26B14025   6.146   3.586  15.454
  105CHL1  H26C14026   5.975   3.611  15.401
  105CHL1   C2714027   6.072   3.458  15.205
  105CHL1  H27A14028   5.982   3.516  15.174
  105CHL1  H27B14029   6.162   3.522  15.188
  105CHL1  H27C14030   6.080   3.369  15.140
  106CHL1    C314031   1.919   2.492  16.733
  106CHL1    H314032   1.950   2.597  16.757
  106CHL1    O314033   1.889   2.424  16.854
  106CHL1   H3'14034   1.973   2.417  16.900
  106CHL1    C414035   1.793   2.493  16.647
  106CHL1   H4A14036   1.754   2.390  16.642
  106CHL1   H4B14037   1.715   2.553  16.698
  106CHL1    C514038   1.819   2.543  16.506
  106CHL1    C614039   1.757   2.651  16.459
  106CHL1    H614040   1.686   2.706  16.522
  106CHL1    C714041   1.764   2.695  16.319
  106CHL1   H7A14042   1.661   2.720  16.288
  106CHL1   H7B14043   1.826   2.786  16.308
  106CHL1    C814044   1.820   2.584  16.228
  106CHL1    H814045   1.744   2.504  16.218
  106CHL1   C1414046   1.853   2.647  16.097
  106CHL1   H1414047   1.944   2.709  16.117
  106CHL1   C1514048   1.755   2.752  16.051
  106CHL1  H15A14049   1.655   2.731  16.090
  106CHL1  H15B14050   1.790   2.852  16.086
  106CHL1   C1614051   1.758   2.741  15.901
  106CHL1  H16A14052   1.661   2.698  15.865
  106CHL1  H16B14053   1.773   2.842  15.864
  106CHL1   C1714054   1.880   2.652  15.864
  106CHL1   H1714055   1.969   2.719  15.871
  106CHL1   C1314056   1.889   2.554  15.982
  106CHL1   C1814057   1.787   2.441  15.957
  106CHL1  H18A14058   1.831   2.368  15.885
  106CHL1  H18B14059   1.763   2.385  16.049
  106CHL1  H18C14060   1.693   2.479  15.913
  106CHL1   C1214061   2.027   2.503  16.028
  106CHL1  H12A14062   2.067   2.430  15.955
  106CHL1  H12B14063   2.098   2.588  16.033
  106CHL1   C1114064   2.018   2.439  16.171
  106CHL1  H11A14065   1.964   2.343  16.157
  106CHL1  H11B14066   2.120   2.417  16.203
  106CHL1    C914067   1.948   2.526  16.282
  106CHL1    H914068   2.016   2.613  16.297
  106CHL1   C1014069   1.923   2.465  16.424
  106CHL1   C1914070   1.879   2.319  16.402
  106CHL1  H19A14071   1.846   2.268  16.494
  106CHL1  H19B14072   1.795   2.317  16.329
  106CHL1  H19C14073   1.963   2.260  16.359
  106CHL1    C114074   2.049   2.475  16.515
  106CHL1   H1A14075   2.127   2.416  16.465
  106CHL1   H1B14076   2.085   2.580  16.519
  106CHL1    C214077   2.034   2.422  16.659
  106CHL1   H2A14078   2.129   2.437  16.715
  106CHL1   H2B14079   2.014   2.313  16.654
  106CHL1   C2014080   1.868   2.605  15.717
  106CHL1   H2014081   1.793   2.524  15.711
  106CHL1   C2114082   2.003   2.548  15.669
  106CHL1  H21A14083   1.992   2.512  15.565
  106CHL1  H21B14084   2.035   2.463  15.732
  106CHL1  H21C14085   2.082   2.627  15.671
  106CHL1   C2214086   1.816   2.721  15.626
  106CHL1  H22A14087   1.709   2.739  15.647
  106CHL1  H22B14088   1.872   2.813  15.656
  106CHL1   C2314089   1.834   2.710  15.472
  106CHL1  H23A14090   1.942   2.725  15.457
  106CHL1  H23B14091   1.812   2.609  15.433
  106CHL1   C2414092   1.750   2.817  15.392
  106CHL1  H24A14093   1.645   2.783  15.390
  106CHL1  H24B14094   1.755   2.912  15.449
  106CHL1   C2514095   1.800   2.848  15.248
  106CHL1   H2514096   1.904   2.815  15.261
  106CHL1   C2614097   1.739   2.766  15.131
  106CHL1  H26A14098   1.698   2.670  15.165
  106CHL1  H26B14099   1.663   2.819  15.071
  106CHL1  H26C14100   1.817   2.744  15.057
  106CHL1   C2714101   1.812   2.996  15.210
  106CHL1  H27A14102   1.766   3.013  15.110
  106CHL1  H27B14103   1.758   3.058  15.282
  106CHL1  H27C14104   1.915   3.038  15.206
  107CHL1    C314105   4.034   6.255  16.718
  107CHL1    H314106   4.059   6.147  16.716
  107CHL1    O314107   4.021   6.294  16.853
  107CHL1   H3'14108   4.067   6.378  16.864
  107CHL1    C414109   4.149   6.335  16.655
  107CHL1   H4A14110   4.130   6.444  16.668
  107CHL1   H4B14111   4.242   6.312  16.712
  107CHL1    C514112   4.161   6.299  16.509
  107CHL1    C614113   4.273   6.242  16.461
  107CHL1    H614114   4.361   6.226  16.526
  107CHL1    C714115   4.288   6.204  16.318
  107CHL1   H7A14116   4.393   6.214  16.286
  107CHL1   H7B14117   4.258   6.098  16.302
  107CHL1    C814118   4.196   6.292  16.231
  107CHL1    H814119   4.223   6.399  16.248
  107CHL1   C1414120   4.219   6.260  16.086
  107CHL1   H1414121   4.203   6.149  16.075
  107CHL1   C1514122   4.359   6.287  16.032
  107CHL1  H15A14123   4.390   6.391  16.057
  107CHL1  H15B14124   4.433   6.216  16.074
  107CHL1   C1614125   4.339   6.269  15.882
  107CHL1  H16A14126   4.400   6.341  15.826
  107CHL1  H16B14127   4.370   6.165  15.856
  107CHL1   C1714128   4.187   6.286  15.852
  107CHL1   H1714129   4.148   6.185  15.828
  107CHL1   C1314130   4.124   6.328  15.988
  107CHL1   C1814131   4.136   6.482  16.003
  107CHL1  H18A14132   4.124   6.515  16.107
  107CHL1  H18B14133   4.235   6.519  15.967
  107CHL1  H18C14134   4.057   6.533  15.945
  107CHL1   C1214135   3.984   6.275  16.025
  107CHL1  H12A14136   3.906   6.308  15.954
  107CHL1  H12B14137   3.987   6.163  16.022
  107CHL1   C1114138   3.947   6.317  16.170
  107CHL1  H11A14139   3.935   6.427  16.169
  107CHL1  H11B14140   3.848   6.274  16.197
  107CHL1    C914141   4.052   6.271  16.276
  107CHL1    H914142   4.040   6.160  16.280
  107CHL1   C1014143   4.034   6.322  16.422
  107CHL1   C1914144   4.003   6.474  16.418
  107CHL1  H19A14145   3.908   6.493  16.366
  107CHL1  H19B14146   3.991   6.517  16.520
  107CHL1  H19C14147   4.084   6.530  16.366
  107CHL1    C114148   3.918   6.246  16.491
  107CHL1   H1A14149   3.823   6.270  16.438
  107CHL1   H1B14150   3.936   6.137  16.480
  107CHL1    C214151   3.902   6.278  16.641
  107CHL1   H2A14152   3.822   6.214  16.685
  107CHL1   H2B14153   3.871   6.384  16.654
  107CHL1   C2014154   4.165   6.378  15.729
  107CHL1   H2014155   4.209   6.478  15.753
  107CHL1   C2114156   4.014   6.396  15.705
  107CHL1  H21A14157   3.969   6.299  15.677
  107CHL1  H21B14158   3.995   6.469  15.624
  107CHL1  H21C14159   3.962   6.433  15.795
  107CHL1   C2214160   4.236   6.333  15.598
  107CHL1  H22A14161   4.345   6.319  15.617
  107CHL1  H22B14162   4.195   6.236  15.565
  107CHL1   C2314163   4.224   6.436  15.482
  107CHL1  H23A14164   4.117   6.449  15.454
  107CHL1  H23B14165   4.262   6.534  15.519
  107CHL1   C2414166   4.302   6.399  15.354
  107CHL1  H24A14167   4.406   6.376  15.386
  107CHL1  H24B14168   4.258   6.308  15.309
  107CHL1   C2514169   4.308   6.513  15.247
  107CHL1   H2514170   4.320   6.609  15.304
  107CHL1   C2614171   4.428   6.505  15.151
  107CHL1  H26A14172   4.433   6.594  15.085
  107CHL1  H26B14173   4.524   6.497  15.207
  107CHL1  H26C14174   4.417   6.415  15.085
  107CHL1   C2714175   4.181   6.522  15.161
  107CHL1  H27A14176   4.192   6.606  15.089
  107CHL1  H27B14177   4.168   6.428  15.103
  107CHL1  H27C14178   4.091   6.540  15.223
  108CHL1    C314179   6.052   2.455  16.729
  108CHL1    H314180   5.962   2.415  16.675
  108CHL1    O314181   6.041   2.419  16.865
  108CHL1   H3'14182   5.962   2.465  16.898
  108CHL1    C414183   6.180   2.392  16.675
  108CHL1   H4A14184   6.267   2.436  16.727
  108CHL1   H4B14185   6.179   2.284  16.698
  108CHL1    C514186   6.188   2.419  16.527
  108CHL1    C614187   6.193   2.316  16.442
  108CHL1    H614188   6.198   2.213  16.479
  108CHL1    C714189   6.199   2.332  16.293
  108CHL1   H7A14190   6.274   2.263  16.249
  108CHL1   H7B14191   6.098   2.306  16.254
  108CHL1    C814192   6.225   2.477  16.248
  108CHL1    H814193   6.333   2.500  16.260
  108CHL1   C1414194   6.188   2.486  16.102
  108CHL1   H1414195   6.081   2.453  16.095
  108CHL1   C1514196   6.264   2.393  16.004
  108CHL1  H15A14197   6.373   2.400  16.024
  108CHL1  H15B14198   6.232   2.287  16.014
  108CHL1   C1614199   6.231   2.453  15.867
  108CHL1  H16A14200   6.325   2.470  15.810
  108CHL1  H16B14201   6.166   2.384  15.809
  108CHL1   C1714202   6.157   2.588  15.896
  108CHL1   H1714203   6.048   2.563  15.898
  108CHL1   C1314204   6.191   2.625  16.042
  108CHL1   C1814205   6.334   2.685  16.043
  108CHL1  H18A14206   6.330   2.790  16.009
  108CHL1  H18B14207   6.377   2.684  16.145
  108CHL1  H18C14208   6.402   2.629  15.976
  108CHL1   C1214209   6.093   2.713  16.122
  108CHL1  H12A14210   6.093   2.817  16.085
  108CHL1  H12B14211   5.990   2.673  16.111
  108CHL1   C1114212   6.131   2.716  16.271
  108CHL1  H11A14213   6.228   2.768  16.282
  108CHL1  H11B14214   6.055   2.775  16.325
  108CHL1    C914215   6.140   2.573  16.331
  108CHL1    H914216   6.035   2.533  16.322
  108CHL1   C1014217   6.175   2.567  16.483
  108CHL1   C1914218   6.312   2.634  16.507
  108CHL1  H19A14219   6.392   2.583  16.449
  108CHL1  H19B14220   6.310   2.741  16.476
  108CHL1  H19C14221   6.340   2.631  16.615
  108CHL1    C114222   6.066   2.643  16.563
  108CHL1   H1A14223   6.084   2.752  16.553
  108CHL1   H1B14224   5.967   2.622  16.517
  108CHL1    C214225   6.058   2.607  16.713
  108CHL1   H2A14226   5.969   2.656  16.758
  108CHL1   H2B14227   6.148   2.645  16.765
  108CHL1   C2014228   6.179   2.694  15.790
  108CHL1   H2014229   6.284   2.731  15.792
  108CHL1   C2114230   6.086   2.811  15.822
  108CHL1  H21A14231   6.132   2.881  15.894
  108CHL1  H21B14232   5.993   2.774  15.868
  108CHL1  H21C14233   6.063   2.868  15.730
  108CHL1   C2214234   6.153   2.646  15.645
  108CHL1  H22A14235   6.153   2.735  15.578
  108CHL1  H22B14236   6.238   2.582  15.613
  108CHL1   C2314237   6.022   2.569  15.623
  108CHL1  H23A14238   6.012   2.487  15.697
  108CHL1  H23B14239   5.935   2.637  15.638
  108CHL1   C2414240   6.021   2.506  15.484
  108CHL1  H24A14241   6.049   2.582  15.408
  108CHL1  H24B14242   6.099   2.426  15.482
  108CHL1   C2514243   5.887   2.443  15.440
  108CHL1   H2514244   5.820   2.528  15.412
  108CHL1   C2614245   5.910   2.352  15.318
  108CHL1  H26A14246   5.986   2.276  15.341
  108CHL1  H26B14247   5.816   2.299  15.291
  108CHL1  H26C14248   5.943   2.412  15.230
  108CHL1   C2714249   5.816   2.364  15.551
  108CHL1  H27A14250   5.789   2.431  15.636
  108CHL1  H27B14251   5.721   2.320  15.512
  108CHL1  H27C14252   5.881   2.283  15.588
  109CHL1    C314253   2.695   6.325  16.688
  109CHL1    H314254   2.800   6.359  16.670
  109CHL1    O314255   2.673   6.314  16.827
  109CHL1   H3'14256   2.679   6.219  16.845
  109CHL1    C414257   2.599   6.426  16.619
  109CHL1   H4A14258   2.496   6.413  16.659
  109CHL1   H4B14259   2.630   6.528  16.652
  109CHL1    C514260   2.601   6.414  16.466
  109CHL1    C614261   2.624   6.516  16.383
  109CHL1    H614262   2.636   6.617  16.423
  109CHL1    C714263   2.635   6.501  16.232
  109CHL1   H7A14264   2.593   6.589  16.180
  109CHL1   H7B14265   2.741   6.497  16.201
  109CHL1    C814266   2.572   6.371  16.178
  109CHL1    H814267   2.462   6.382  16.180
  109CHL1   C1414268   2.619   6.338  16.037
  109CHL1   H1414269   2.724   6.302  16.047
  109CHL1   C1514270   2.634   6.451  15.936
  109CHL1  H15A14271   2.543   6.513  15.937
  109CHL1  H15B14272   2.721   6.516  15.959
  109CHL1   C1614273   2.656   6.373  15.805
  109CHL1  H16A14274   2.613   6.423  15.718
  109CHL1  H16B14275   2.766   6.367  15.790
  109CHL1   C1714276   2.602   6.226  15.826
  109CHL1   H1714277   2.696   6.167  15.829
  109CHL1   C1314278   2.543   6.225  15.969
  109CHL1   C1814279   2.392   6.255  15.957
  109CHL1  H18A14280   2.337   6.166  15.921
  109CHL1  H18B14281   2.346   6.283  16.053
  109CHL1  H18C14282   2.376   6.337  15.884
  109CHL1   C1214283   2.568   6.098  16.051
  109CHL1  H12A14284   2.499   6.018  16.016
  109CHL1  H12B14285   2.671   6.062  16.034
  109CHL1   C1114286   2.547   6.121  16.202
  109CHL1  H11A14287   2.437   6.117  16.217
  109CHL1  H11B14288   2.594   6.037  16.256
  109CHL1    C914289   2.607   6.251  16.262
  109CHL1    H914290   2.718   6.241  16.252
  109CHL1   C1014291   2.583   6.270  16.413
  109CHL1   C1914292   2.436   6.234  16.448
  109CHL1  H19A14293   2.408   6.132  16.418
  109CHL1  H19B14294   2.416   6.240  16.557
  109CHL1  H19C14295   2.366   6.304  16.397
  109CHL1    C114296   2.691   6.184  16.485
  109CHL1   H1A14297   2.689   6.081  16.447
  109CHL1   H1B14298   2.792   6.224  16.459
  109CHL1    C214299   2.677   6.185  16.636
  109CHL1   H2A14300   2.751   6.115  16.682
  109CHL1   H2B14301   2.575   6.149  16.664
  109CHL1   C2014302   2.515   6.160  15.716
  109CHL1   H2014303   2.407   6.186  15.727
  109CHL1   C2114304   2.527   6.007  15.732
  109CHL1  H21A14305   2.456   5.969  15.809
  109CHL1  H21B14306   2.629   5.980  15.764
  109CHL1  H21C14307   2.506   5.954  15.637
  109CHL1   C2214308   2.541   6.197  15.568
  109CHL1  H22A14309   2.489   6.122  15.505
  109CHL1  H22B14310   2.496   6.295  15.545
  109CHL1   C2314311   2.688   6.196  15.529
  109CHL1  H23A14312   2.744   6.270  15.590
  109CHL1  H23B14313   2.728   6.095  15.551
  109CHL1   C2414314   2.712   6.228  15.382
  109CHL1  H24A14315   2.659   6.153  15.320
  109CHL1  H24B14316   2.670   6.328  15.357
  109CHL1   C2514317   2.863   6.221  15.355
  109CHL1   H2514318   2.911   6.236  15.455
  109CHL1   C2614319   2.902   6.078  15.315
  109CHL1  H26A14320   2.845   6.036  15.231
  109CHL1  H26B14321   3.009   6.067  15.294
  109CHL1  H26C14322   2.885   6.013  15.402
  109CHL1   C2714323   2.922   6.336  15.269
  109CHL1  H27A14324   2.991   6.302  15.190
  109CHL1  H27B14325   2.842   6.396  15.221
  109CHL1  H27C14326   2.980   6.404  15.336
  110CHL1    C314327   1.263   5.467  16.718
  110CHL1    H314328   1.313   5.563  16.698
  110CHL1    O314329   1.254   5.440  16.858
  110CHL1   H3'14330   1.237   5.344  16.863
  110CHL1    C414331   1.129   5.493  16.649
  110CHL1   H4A14332   1.062   5.410  16.679
  110CHL1   H4B14333   1.088   5.588  16.693
  110CHL1    C514334   1.139   5.501  16.497
  110CHL1    C614335   1.089   5.599  16.422
  110CHL1    H614336   1.041   5.685  16.471
  110CHL1    C714337   1.077   5.585  16.272
  110CHL1   H7A14338   0.971   5.572  16.250
  110CHL1   H7B14339   1.095   5.678  16.220
  110CHL1    C814340   1.141   5.466  16.198
  110CHL1    H814341   1.063   5.388  16.186
  110CHL1   C1414342   1.197   5.501  16.061
  110CHL1   H1414343   1.297   5.548  16.079
  110CHL1   C1514344   1.125   5.604  15.974
  110CHL1  H15A14345   1.019   5.586  15.971
  110CHL1  H15B14346   1.136   5.708  16.009
  110CHL1   C1614347   1.186   5.583  15.836
  110CHL1  H16A14348   1.105   5.562  15.763
  110CHL1  H16B14349   1.243   5.673  15.806
  110CHL1   C1714350   1.281   5.462  15.848
  110CHL1   H1714351   1.381   5.504  15.870
  110CHL1   C1314352   1.241   5.383  15.975
  110CHL1   C1814353   1.124   5.288  15.941
  110CHL1  H18A14354   1.161   5.199  15.885
  110CHL1  H18B14355   1.074   5.249  16.031
  110CHL1  H18C14356   1.049   5.339  15.877
  110CHL1   C1214357   1.353   5.315  16.058
  110CHL1  H12A14358   1.388   5.223  16.008
  110CHL1  H12B14359   1.439   5.385  16.063
  110CHL1   C1114360   1.308   5.281  16.203
  110CHL1  H11A14361   1.229   5.204  16.196
  110CHL1  H11B14362   1.394   5.238  16.257
  110CHL1    C914363   1.252   5.405  16.279
  110CHL1    H914364   1.335   5.479  16.280
  110CHL1   C1014365   1.212   5.388  16.429
  110CHL1   C1914366   1.112   5.273  16.440
  110CHL1  H19A14367   1.090   5.248  16.546
  110CHL1  H19B14368   1.015   5.295  16.390
  110CHL1  H19C14369   1.155   5.187  16.390
  110CHL1    C114370   1.344   5.368  16.505
  110CHL1   H1A14371   1.389   5.279  16.460
  110CHL1   H1B14372   1.411   5.455  16.486
  110CHL1    C214373   1.334   5.348  16.656
  110CHL1   H2A14374   1.436   5.333  16.700
  110CHL1   H2B14375   1.275   5.257  16.677
  110CHL1   C2014376   1.294   5.388  15.716
  110CHL1   H2014377   1.195   5.345  15.689
  110CHL1   C2114378   1.395   5.278  15.739
  110CHL1  H21A14379   1.345   5.196  15.793
  110CHL1  H21B14380   1.479   5.314  15.802
  110CHL1  H21C14381   1.437   5.240  15.644
  110CHL1   C2214382   1.339   5.476  15.596
  110CHL1  H22A14383   1.305   5.580  15.607
  110CHL1  H22B14384   1.450   5.480  15.595
  110CHL1   C2314385   1.286   5.418  15.464
  110CHL1  H23A14386   1.333   5.318  15.452
  110CHL1  H23B14387   1.176   5.404  15.472
  110CHL1   C2414388   1.315   5.504  15.341
  110CHL1  H24A14389   1.264   5.602  15.354
  110CHL1  H24B14390   1.424   5.523  15.333
  110CHL1   C2514391   1.264   5.445  15.207
  110CHL1   H2514392   1.152   5.446  15.211
  110CHL1   C2614393   1.309   5.532  15.089
  110CHL1  H26A14394   1.286   5.638  15.108
  110CHL1  H26B14395   1.419   5.521  15.074
  110CHL1  H26C14396   1.258   5.500  14.996
  110CHL1   C2714397   1.309   5.300  15.186
  110CHL1  H27A14398   1.419   5.292  15.188
  110CHL1  H27B14399   1.268   5.235  15.266
  110CHL1  H27C14400   1.272   5.261  15.089
  111CHL1    C314401   3.270   0.673  16.767
  111CHL1    H314402   3.213   0.579  16.789
  111CHL1    O314403   3.270   0.752  16.885
  111CHL1   H3'14404   3.341   0.708  16.934
  111CHL1    C414405   3.415   0.641  16.731
  111CHL1   H4A14406   3.469   0.736  16.711
  111CHL1   H4B14407   3.463   0.593  16.818
  111CHL1    C514408   3.416   0.553  16.608
  111CHL1    C614409   3.467   0.430  16.613
  111CHL1    H614410   3.511   0.393  16.706
  111CHL1    C714411   3.475   0.339  16.494
  111CHL1   H7A14412   3.574   0.289  16.490
  111CHL1   H7B14413   3.397   0.261  16.503
  111CHL1    C814414   3.451   0.417  16.362
  111CHL1    H814415   3.540   0.483  16.345
  111CHL1   C1414416   3.440   0.322  16.246
  111CHL1   H1414417   3.352   0.256  16.266
  111CHL1   C1514418   3.561   0.229  16.228
  111CHL1  H15A14419   3.654   0.282  16.259
  111CHL1  H15B14420   3.549   0.137  16.288
  111CHL1   C1614421   3.562   0.200  16.078
  111CHL1  H16A14422   3.658   0.236  16.036
  111CHL1  H16B14423   3.555   0.093  16.056
  111CHL1   C1714424   3.440   0.275  16.016
  111CHL1   H1714425   3.352   0.207  16.023
  111CHL1   C1314426   3.413   0.391  16.113
  111CHL1   C1814427   3.516   0.502  16.085
  111CHL1  H18A14428   3.499   0.543  15.984
  111CHL1  H18B14429   3.510   0.586  16.155
  111CHL1  H18C14430   3.619   0.463  16.091
  111CHL1   C1214431   3.271   0.449  16.123
  111CHL1  H12A14432   3.242   0.503  16.030
  111CHL1  H12B14433   3.198   0.367  16.139
  111CHL1   C1114434   3.262   0.550  16.240
  111CHL1  H11A14435   3.312   0.642  16.206
  111CHL1  H11B14436   3.155   0.575  16.257
  111CHL1    C914437   3.324   0.501  16.375
  111CHL1    H914438   3.249   0.429  16.415
  111CHL1   C1014439   3.344   0.611  16.483
  111CHL1   C1914440   3.431   0.726  16.425
  111CHL1  H19A14441   3.525   0.689  16.380
  111CHL1  H19B14442   3.376   0.782  16.346
  111CHL1  H19C14443   3.457   0.800  16.503
  111CHL1    C114444   3.204   0.665  16.522
  111CHL1   H1A14445   3.165   0.726  16.438
  111CHL1   H1B14446   3.135   0.578  16.534
  111CHL1    C214447   3.202   0.746  16.652
  111CHL1   H2A14448   3.096   0.763  16.680
  111CHL1   H2B14449   3.252   0.845  16.635
  111CHL1   C2014450   3.464   0.301  15.867
  111CHL1   H2014451   3.562   0.354  15.857
  111CHL1   C2114452   3.359   0.393  15.800
  111CHL1  H21A14453   3.261   0.342  15.793
  111CHL1  H21B14454   3.393   0.421  15.698
  111CHL1  H21C14455   3.348   0.489  15.854
  111CHL1   C2214456   3.475   0.168  15.788
  111CHL1  H22A14457   3.561   0.108  15.827
  111CHL1  H22B14458   3.383   0.108  15.804
  111CHL1   C2314459   3.496   0.194  15.638
  111CHL1  H23A14460   3.406   0.242  15.594
  111CHL1  H23B14461   3.581   0.264  15.631
  111CHL1   C2414462   3.530   0.073  15.551
  111CHL1  H24A14463   3.603   0.008  15.604
  111CHL1  H24B14464   3.439   0.013  15.532
  111CHL1   C2514465   3.590   0.117  15.416
  111CHL1   H2514466   3.692   0.161  15.434
  111CHL1   C2614467   3.610  -0.006  15.330
  111CHL1  H26A14468   3.681  -0.070  15.385
  111CHL1  H26B14469   3.515  -0.063  15.319
  111CHL1  H26C14470   3.650   0.017  15.229
  111CHL1   C2714471   3.508   0.220  15.339
  111CHL1  H27A14472   3.516   0.204  15.229
  111CHL1  H27B14473   3.401   0.220  15.369
  111CHL1  H27C14474   3.552   0.319  15.356
  112CHL1    C314475   4.645   0.699  16.735
  112CHL1    H314476   4.629   0.590  16.750
  112CHL1    O314477   4.660   0.760  16.863
  112CHL1   H3'14478   4.624   0.849  16.850
  112CHL1    C414479   4.774   0.722  16.654
  112CHL1   H4A14480   4.807   0.827  16.672
  112CHL1   H4B14481   4.852   0.657  16.698
  112CHL1    C514482   4.765   0.703  16.504
  112CHL1    C614483   4.857   0.635  16.433
  112CHL1    H614484   4.944   0.590  16.484
  112CHL1    C714485   4.860   0.631  16.283
  112CHL1   H7A14486   4.964   0.647  16.245
  112CHL1   H7B14487   4.827   0.531  16.246
  112CHL1    C814488   4.768   0.740  16.222
  112CHL1    H814489   4.815   0.839  16.239
  112CHL1   C1414490   4.758   0.721  16.072
  112CHL1   H1414491   4.717   0.618  16.057
  112CHL1   C1514492   4.889   0.727  15.991
  112CHL1  H15A14493   4.947   0.817  16.021
  112CHL1  H15B14494   4.951   0.637  16.004
  112CHL1   C1614495   4.838   0.744  15.847
  112CHL1  H16A14496   4.887   0.833  15.800
  112CHL1  H16B14497   4.859   0.655  15.785
  112CHL1   C1714498   4.684   0.768  15.859
  112CHL1   H1714499   4.635   0.668  15.851
  112CHL1   C1314500   4.660   0.815  16.002
  112CHL1   C1814501   4.707   0.963  16.012
  112CHL1  H18A14502   4.718   0.995  16.118
  112CHL1  H18B14503   4.804   0.980  15.962
  112CHL1  H18C14504   4.633   1.031  15.965
  112CHL1   C1214505   4.521   0.792  16.063
  112CHL1  H12A14506   4.444   0.858  16.019
  112CHL1  H12B14507   4.490   0.687  16.044
  112CHL1   C1114508   4.523   0.820  16.213
  112CHL1  H11A14509   4.542   0.929  16.224
  112CHL1  H11B14510   4.422   0.800  16.255
  112CHL1    C914511   4.630   0.736  16.288
  112CHL1    H914512   4.595   0.630  16.279
  112CHL1   C1014513   4.642   0.768  16.439
  112CHL1   C1914514   4.658   0.920  16.453
  112CHL1  H19A14515   4.561   0.965  16.427
  112CHL1  H19B14516   4.682   0.953  16.556
  112CHL1  H19C14517   4.736   0.961  16.386
  112CHL1    C114518   4.514   0.727  16.516
  112CHL1   H1A14519   4.427   0.782  16.475
  112CHL1   H1B14520   4.494   0.619  16.501
  112CHL1    C214521   4.520   0.759  16.667
  112CHL1   H2A14522   4.429   0.720  16.717
  112CHL1   H2B14523   4.521   0.869  16.681
  112CHL1   C2014524   4.630   0.852  15.745
  112CHL1   H2014525   4.684   0.950  15.741
  112CHL1   C2114526   4.480   0.884  15.761
  112CHL1  H21A14527   4.420   0.792  15.775
  112CHL1  H21B14528   4.439   0.939  15.674
  112CHL1  H21C14529   4.463   0.953  15.846
  112CHL1   C2214530   4.660   0.778  15.613
  112CHL1  H22A14531   4.769   0.784  15.591
  112CHL1  H22B14532   4.631   0.671  15.620
  112CHL1   C2314533   4.582   0.841  15.500
  112CHL1  H23A14534   4.475   0.813  15.509
  112CHL1  H23B14535   4.591   0.952  15.510
  112CHL1   C2414536   4.631   0.803  15.362
  112CHL1  H24A14537   4.741   0.817  15.355
  112CHL1  H24B14538   4.608   0.697  15.338
  112CHL1   C2514539   4.565   0.898  15.263
  112CHL1   H2514540   4.584   1.003  15.296
  112CHL1   C2614541   4.631   0.878  15.128
  112CHL1  H26A14542   4.652   0.772  15.110
  112CHL1  H26B14543   4.572   0.922  15.044
  112CHL1  H26C14544   4.730   0.927  15.133
  112CHL1   C2714545   4.414   0.883  15.258
  112CHL1  H27A14546   4.377   0.955  15.183
  112CHL1  H27B14547   4.383   0.780  15.232
  112CHL1  H27C14548   4.368   0.910  15.355
  113CHL1    C314549   0.583   5.006  16.714
  113CHL1    H314550   0.582   4.895  16.704
  113CHL1    O314551   0.587   5.039  16.852
  113CHL1   H3'14552   0.546   4.964  16.898
  113CHL1    C414553   0.705   5.065  16.641
  113CHL1   H4A14554   0.707   5.175  16.652
  113CHL1   H4B14555   0.798   5.033  16.691
  113CHL1    C514556   0.699   5.019  16.497
  113CHL1    C614557   0.782   4.928  16.445
  113CHL1    H614558   0.860   4.885  16.507
  113CHL1    C714559   0.778   4.883  16.302
  113CHL1   H7A14560   0.879   4.858  16.264
  113CHL1   H7B14561   0.715   4.792  16.292
  113CHL1    C814562   0.719   4.997  16.217
  113CHL1    H814563   0.788   5.083  16.229
  113CHL1   C1414564   0.705   4.957  16.070
  113CHL1   H1414565   0.620   4.885  16.065
  113CHL1   C1514566   0.823   4.888  16.000
  113CHL1  H15A14567   0.920   4.918  16.045
  113CHL1  H15B14568   0.810   4.778  16.006
  113CHL1   C1614569   0.816   4.937  15.853
  113CHL1  H16A14570   0.900   5.007  15.833
  113CHL1  H16B14571   0.820   4.854  15.780
  113CHL1   C1714572   0.681   5.010  15.843
  113CHL1   H1714573   0.604   4.929  15.839
  113CHL1   C1314574   0.670   5.074  15.980
  113CHL1   C1814575   0.779   5.182  15.994
  113CHL1  H18A14576   0.825   5.212  15.898
  113CHL1  H18B14577   0.732   5.270  16.039
  113CHL1  H18C14578   0.863   5.149  16.058
  113CHL1   C1214579   0.531   5.120  16.021
  113CHL1  H12A14580   0.500   5.211  15.966
  113CHL1  H12B14581   0.474   5.032  15.990
  113CHL1   C1114582   0.518   5.146  16.171
  113CHL1  H11A14583   0.565   5.244  16.175
  113CHL1  H11B14584   0.415   5.165  16.203
  113CHL1    C914585   0.582   5.042  16.268
  113CHL1    H914586   0.516   4.952  16.261
  113CHL1   C1014587   0.585   5.083  16.418
  113CHL1   C1914588   0.601   5.234  16.430
  113CHL1  H19A14589   0.540   5.295  16.362
  113CHL1  H19B14590   0.575   5.272  16.530
  113CHL1  H19C14591   0.707   5.258  16.410
  113CHL1    C114592   0.460   5.035  16.495
  113CHL1   H1A14593   0.373   5.085  16.452
  113CHL1   H1B14594   0.449   4.925  16.479
  113CHL1    C214595   0.456   5.060  16.648
  113CHL1   H2A14596   0.363   5.017  16.691
  113CHL1   H2B14597   0.454   5.168  16.670
  113CHL1   C2014598   0.660   5.096  15.719
  113CHL1   H2014599   0.719   5.190  15.725
  113CHL1   C2114600   0.511   5.130  15.705
  113CHL1  H21A14601   0.484   5.155  15.601
  113CHL1  H21B14602   0.482   5.216  15.769
  113CHL1  H21C14603   0.452   5.040  15.735
  113CHL1   C2214604   0.702   5.026  15.589
  113CHL1  H22A14605   0.673   5.095  15.507
  113CHL1  H22B14606   0.813   5.015  15.584
  113CHL1   C2314607   0.635   4.889  15.568
  113CHL1  H23A14608   0.663   4.818  15.647
  113CHL1  H23B14609   0.524   4.901  15.573
  113CHL1   C2414610   0.668   4.828  15.431
  113CHL1  H24A14611   0.778   4.815  15.421
  113CHL1  H24B14612   0.622   4.727  15.430
  113CHL1   C2514613   0.610   4.914  15.317
  113CHL1   H2514614   0.534   4.982  15.363
  113CHL1   C2614615   0.715   5.003  15.248
  113CHL1  H26A14616   0.796   4.941  15.204
  113CHL1  H26B14617   0.668   5.061  15.166
  113CHL1  H26C14618   0.762   5.074  15.318
  113CHL1   C2714619   0.535   4.828  15.214
  113CHL1  H27A14620   0.443   4.880  15.179
  113CHL1  H27B14621   0.601   4.810  15.126
  113CHL1  H27C14622   0.504   4.730  15.257
  114CHL1    C314623   5.377   7.149  16.734
  114CHL1    H314624   5.480   7.190  16.727
  114CHL1    O314625   5.338   7.137  16.870
  114CHL1   H3'14626   5.252   7.093  16.866
  114CHL1    C414627   5.280   7.245  16.662
  114CHL1   H4A14628   5.175   7.214  16.684
  114CHL1   H4B14629   5.293   7.345  16.709
  114CHL1    C514630   5.301   7.250  16.513
  114CHL1    C614631   5.315   7.366  16.449
  114CHL1    H614632   5.309   7.461  16.505
  114CHL1    C714633   5.323   7.377  16.300
  114CHL1   H7A14634   5.256   7.458  16.265
  114CHL1   H7B14635   5.426   7.403  16.269
  114CHL1    C814636   5.281   7.245  16.229
  114CHL1    H814637   5.170   7.237  16.235
  114CHL1   C1414638   5.322   7.255  16.085
  114CHL1   H1414639   5.435   7.259  16.085
  114CHL1   C1514640   5.276   7.382  16.013
  114CHL1  H15A14641   5.170   7.404  16.041
  114CHL1  H15B14642   5.339   7.469  16.037
  114CHL1   C1614643   5.286   7.344  15.866
  114CHL1  H16A14644   5.186   7.355  15.818
  114CHL1  H16B14645   5.360   7.407  15.813
  114CHL1   C1714646   5.330   7.194  15.862
  114CHL1   H1714647   5.440   7.193  15.864
  114CHL1   C1314648   5.287   7.135  15.998
  114CHL1   C1814649   5.135   7.111  15.992
  114CHL1  H18A14650   5.079   7.197  15.952
  114CHL1  H18B14651   5.116   7.023  15.928
  114CHL1  H18C14652   5.093   7.088  16.092
  114CHL1   C1214653   5.361   7.014  16.058
  114CHL1  H12A14654   5.341   6.921  16.000
  114CHL1  H12B14655   5.470   7.033  16.053
  114CHL1   C1114656   5.319   6.994  16.205
  114CHL1  H11A14657   5.210   6.972  16.205
  114CHL1  H11B14658   5.366   6.903  16.248
  114CHL1    C914659   5.345   7.122  16.292
  114CHL1    H914660   5.455   7.138  16.289
  114CHL1   C1014661   5.305   7.112  16.442
  114CHL1   C1914662   5.162   7.056  16.449
  114CHL1  H19A14663   5.091   7.118  16.391
  114CHL1  H19B14664   5.162   6.953  16.409
  114CHL1  H19C14665   5.124   7.050  16.553
  114CHL1    C114666   5.403   7.018  16.517
  114CHL1   H1A14667   5.395   6.917  16.473
  114CHL1   H1B14668   5.508   7.054  16.500
  114CHL1    C214669   5.375   7.010  16.668
  114CHL1   H2A14670   5.450   6.945  16.716
  114CHL1   H2B14671   5.276   6.963  16.683
  114CHL1   C2014672   5.289   7.130  15.729
  114CHL1   H2014673   5.178   7.129  15.723
  114CHL1   C2114674   5.345   6.986  15.725
  114CHL1  H21A14675   5.336   6.942  15.624
  114CHL1  H21B14676   5.290   6.920  15.795
  114CHL1  H21C14677   5.452   6.985  15.756
  114CHL1   C2214678   5.339   7.218  15.611
  114CHL1  H22A14679   5.303   7.323  15.623
  114CHL1  H22B14680   5.449   7.220  15.621
  114CHL1   C2314681   5.298   7.182  15.467
  114CHL1  H23A14682   5.377   7.220  15.398
  114CHL1  H23B14683   5.296   7.073  15.454
  114CHL1   C2414684   5.167   7.253  15.427
  114CHL1  H24A14685   5.088   7.227  15.500
  114CHL1  H24B14686   5.183   7.363  15.436
  114CHL1   C2514687   5.114   7.228  15.284
  114CHL1   H2514688   5.004   7.212  15.291
  114CHL1   C2614689   5.139   7.349  15.192
  114CHL1  H26A14690   5.095   7.441  15.235
  114CHL1  H26B14691   5.248   7.365  15.179
  114CHL1  H26C14692   5.093   7.332  15.093
  114CHL1   C2714693   5.173   7.105  15.217
  114CHL1  H27A14694   5.129   7.090  15.117
  114CHL1  H27B14695   5.283   7.114  15.206
  114CHL1  H27C14696   5.152   7.014  15.277
  115CHL1    C314697   1.865   0.679  16.723
  115CHL1    H314698   1.758   0.657  16.697
  115CHL1    O314699   1.876   0.691  16.864
  115CHL1   H3'14700   1.874   0.600  16.898
  115CHL1    C414701   1.953   0.562  16.674
  115CHL1   H4A14702   2.055   0.575  16.714
  115CHL1   H4B14703   1.913   0.468  16.718
  115CHL1    C514704   1.958   0.554  16.522
  115CHL1    C614705   1.924   0.443  16.456
  115CHL1    H614706   1.892   0.353  16.511
  115CHL1    C714707   1.937   0.430  16.307
  115CHL1   H7A14708   1.980   0.331  16.281
  115CHL1   H7B14709   1.836   0.437  16.260
  115CHL1    C814710   2.027   0.540  16.245
  115CHL1    H814711   2.132   0.518  16.276
  115CHL1   C1414712   2.019   0.536  16.095
  115CHL1   H1414713   1.912   0.559  16.069
  115CHL1   C1514714   2.053   0.404  16.026
  115CHL1  H15A14715   2.151   0.366  16.062
  115CHL1  H15B14716   1.978   0.326  16.047
  115CHL1   C1614717   2.061   0.443  15.878
  115CHL1  H16A14718   2.148   0.393  15.831
  115CHL1  H16B14719   1.969   0.416  15.823
  115CHL1   C1714720   2.074   0.599  15.876
  115CHL1   H1714721   1.971   0.638  15.855
  115CHL1   C1314722   2.102   0.641  16.021
  115CHL1   C1814723   2.253   0.620  16.050
  115CHL1  H18A14724   2.290   0.524  16.009
  115CHL1  H18B14725   2.312   0.701  16.004
  115CHL1  H18C14726   2.275   0.622  16.158
  115CHL1   C1214727   2.053   0.780  16.066
  115CHL1  H12A14728   2.116   0.859  16.021
  115CHL1  H12B14729   1.948   0.795  16.032
  115CHL1   C1114730   2.059   0.793  16.219
  115CHL1  H11A14731   2.167   0.795  16.244
  115CHL1  H11B14732   2.016   0.891  16.249
  115CHL1    C914733   1.987   0.678  16.297
  115CHL1    H914734   1.879   0.689  16.273
  115CHL1   C1014735   1.999   0.685  16.451
  115CHL1   C1914736   2.147   0.712  16.486
  115CHL1  H19A14737   2.164   0.713  16.596
  115CHL1  H19B14738   2.215   0.638  16.439
  115CHL1  H19C14739   2.175   0.813  16.450
  115CHL1    C114740   1.909   0.799  16.505
  115CHL1   H1A14741   1.941   0.896  16.461
  115CHL1   H1B14742   1.806   0.779  16.470
  115CHL1    C214743   1.905   0.811  16.658
  115CHL1   H2A14744   1.831   0.889  16.687
  115CHL1   H2B14745   2.004   0.843  16.696
  115CHL1   C2014746   2.167   0.648  15.766
  115CHL1   H2014747   2.272   0.617  15.788
  115CHL1   C2114748   2.162   0.801  15.754
  115CHL1  H21A14749   2.058   0.838  15.749
  115CHL1  H21B14750   2.215   0.834  15.662
  115CHL1  H21C14751   2.211   0.849  15.840
  115CHL1   C2214752   2.131   0.587  15.630
  115CHL1  H22A14753   2.198   0.633  15.554
  115CHL1  H22B14754   2.151   0.478  15.626
  115CHL1   C2314755   1.985   0.613  15.591
  115CHL1  H23A14756   1.922   0.528  15.624
  115CHL1  H23B14757   1.944   0.700  15.645
  115CHL1   C2414758   1.977   0.639  15.442
  115CHL1  H24A14759   2.033   0.733  15.422
  115CHL1  H24B14760   2.028   0.557  15.387
  115CHL1   C2514761   1.836   0.654  15.386
  115CHL1   H2514762   1.785   0.554  15.384
  115CHL1   C2614763   1.745   0.750  15.464
  115CHL1  H26A14764   1.644   0.755  15.418
  115CHL1  H26B14765   1.734   0.716  15.569
  115CHL1  H26C14766   1.789   0.852  15.464
  115CHL1   C2714767   1.857   0.701  15.243
  115CHL1  H27A14768   1.926   0.789  15.240
  115CHL1  H27B14769   1.898   0.620  15.178
  115CHL1  H27C14770   1.761   0.732  15.203
  116CHL1    C314771   2.582   0.301  16.710
  116CHL1    H314772   2.509   0.223  16.678
  116CHL1    O314773   2.588   0.298  16.853
  116CHL1   H3'14774   2.615   0.208  16.873
  116CHL1    C414775   2.720   0.267  16.652
  116CHL1   H4A14776   2.795   0.334  16.699
  116CHL1   H4B14777   2.746   0.165  16.686
  116CHL1    C514778   2.728   0.281  16.501
  116CHL1    C614779   2.775   0.185  16.422
  116CHL1    H614780   2.803   0.091  16.465
  116CHL1    C714781   2.805   0.200  16.277
  116CHL1   H7A14782   2.905   0.159  16.252
  116CHL1   H7B14783   2.731   0.141  16.222
  116CHL1    C814784   2.789   0.344  16.224
  116CHL1    H814785   2.879   0.404  16.246
  116CHL1   C1414786   2.776   0.335  16.075
  116CHL1   H1414787   2.694   0.262  16.055
  116CHL1   C1514788   2.898   0.282  16.002
  116CHL1  H15A14789   2.987   0.345  16.026
  116CHL1  H15B14790   2.923   0.177  16.027
  116CHL1   C1614791   2.853   0.301  15.858
  116CHL1  H16A14792   2.942   0.330  15.799
  116CHL1  H16B14793   2.810   0.205  15.821
  116CHL1   C1714794   2.736   0.405  15.857
  116CHL1   H1714795   2.644   0.342  15.849
  116CHL1   C1314796   2.734   0.462  16.000
  116CHL1   C1814797   2.842   0.572  16.011
  116CHL1  H18A14798   2.869   0.591  16.117
  116CHL1  H18B14799   2.934   0.546  15.955
  116CHL1  H18C14800   2.803   0.667  15.968
  116CHL1   C1214801   2.600   0.508  16.060
  116CHL1  H12A14802   2.566   0.600  16.011
  116CHL1  H12B14803   2.524   0.429  16.042
  116CHL1   C1114804   2.613   0.530  16.213
  116CHL1  H11A14805   2.682   0.615  16.233
  116CHL1  H11B14806   2.513   0.560  16.252
  116CHL1    C914807   2.664   0.403  16.287
  116CHL1    H914808   2.582   0.329  16.269
  116CHL1   C1014809   2.681   0.413  16.441
  116CHL1   C1914810   2.799   0.506  16.474
  116CHL1  H19A14811   2.817   0.510  16.583
  116CHL1  H19B14812   2.895   0.471  16.431
  116CHL1  H19C14813   2.782   0.609  16.436
  116CHL1    C114814   2.544   0.450  16.506
  116CHL1   H1A14815   2.516   0.552  16.475
  116CHL1   H1B14816   2.467   0.381  16.463
  116CHL1    C214817   2.535   0.438  16.660
  116CHL1   H2A14818   2.430   0.454  16.694
  116CHL1   H2B14819   2.597   0.517  16.706
  116CHL1   C2014820   2.734   0.498  15.734
  116CHL1   H2014821   2.807   0.581  15.747
  116CHL1   C2114822   2.592   0.556  15.720
  116CHL1  H21A14823   2.580   0.609  15.623
  116CHL1  H21B14824   2.573   0.629  15.801
  116CHL1  H21C14825   2.515   0.476  15.726
  116CHL1   C2214826   2.774   0.420  15.605
  116CHL1  H22A14827   2.879   0.386  15.619
  116CHL1  H22B14828   2.709   0.331  15.596
  116CHL1   C2314829   2.782   0.492  15.469
  116CHL1  H23A14830   2.680   0.518  15.432
  116CHL1  H23B14831   2.840   0.586  15.483
  116CHL1   C2414832   2.851   0.401  15.365
  116CHL1  H24A14833   2.946   0.364  15.409
  116CHL1  H24B14834   2.785   0.314  15.346
  116CHL1   C2514835   2.890   0.466  15.232
  116CHL1   H2514836   2.801   0.520  15.192
  116CHL1   C2614837   3.004   0.564  15.256
  116CHL1  H26A14838   3.029   0.605  15.156
  116CHL1  H26B14839   2.976   0.647  15.324
  116CHL1  H26C14840   3.094   0.513  15.296
  116CHL1   C2714841   2.938   0.364  15.127
  116CHL1  H27A14842   2.887   0.267  15.141
  116CHL1  H27B14843   2.916   0.401  15.024
  116CHL1  H27C14844   3.047   0.347  15.135
  117CHL1    C314845   5.422   0.309  16.709
  117CHL1    H314846   5.531   0.289  16.697
  117CHL1    O314847   5.386   0.314  16.847
  117CHL1   H3'14848   5.422   0.397  16.884
  117CHL1    C414849   5.386   0.441  16.636
  117CHL1   H4A14850   5.282   0.469  16.664
  117CHL1   H4B14851   5.452   0.521  16.676
  117CHL1    C514852   5.398   0.430  16.486
  117CHL1    C614853   5.473   0.514  16.412
  117CHL1    H614854   5.529   0.596  16.460
  117CHL1    C714855   5.479   0.508  16.261
  117CHL1   H7A14856   5.474   0.610  16.217
  117CHL1   H7B14857   5.575   0.463  16.229
  117CHL1    C814858   5.364   0.423  16.201
  117CHL1    H814859   5.268   0.478  16.213
  117CHL1   C1414860   5.388   0.398  16.054
  117CHL1   H1414861   5.487   0.344  16.048
  117CHL1   C1514862   5.404   0.522  15.964
  117CHL1  H15A14863   5.329   0.599  15.992
  117CHL1  H15B14864   5.506   0.565  15.971
  117CHL1   C1614865   5.374   0.468  15.823
  117CHL1  H16A14866   5.284   0.520  15.782
  117CHL1  H16B14867   5.459   0.483  15.754
  117CHL1   C1714868   5.341   0.316  15.841
  117CHL1   H1714869   5.439   0.263  15.840
  117CHL1   C1314870   5.288   0.305  15.985
  117CHL1   C1814871   5.144   0.364  15.993
  117CHL1  H18A14872   5.139   0.466  15.949
  117CHL1  H18B14873   5.073   0.298  15.938
  117CHL1  H18C14874   5.110   0.371  16.098
  117CHL1   C1214875   5.295   0.168  16.054
  117CHL1  H12A14876   5.220   0.098  16.013
  117CHL1  H12B14877   5.396   0.125  16.038
  117CHL1   C1114878   5.269   0.180  16.205
  117CHL1  H11A14879   5.161   0.202  16.218
  117CHL1  H11B14880   5.288   0.081  16.252
  117CHL1    C914881   5.355   0.290  16.276
  117CHL1    H914882   5.459   0.249  16.273
  117CHL1   C1014883   5.321   0.312  16.425
  117CHL1   C1914884   5.171   0.349  16.440
  117CHL1  H19A14885   5.145   0.442  16.386
  117CHL1  H19B14886   5.106   0.267  16.401
  117CHL1  H19C14887   5.142   0.362  16.546
  117CHL1    C114888   5.352   0.180  16.501
  117CHL1   H1A14889   5.280   0.103  16.467
  117CHL1   H1B14890   5.454   0.146  16.475
  117CHL1    C214891   5.341   0.193  16.653
  117CHL1   H2A14892   5.370   0.098  16.703
  117CHL1   H2B14893   5.235   0.214  16.679
  117CHL1   C2014894   5.259   0.260  15.724
  117CHL1   H2014895   5.158   0.307  15.727
  117CHL1   C2114896   5.242   0.107  15.736
  117CHL1  H21A14897   5.339   0.058  15.754
  117CHL1  H21B14898   5.198   0.065  15.643
  117CHL1  H21C14899   5.171   0.081  15.818
  117CHL1   C2214900   5.325   0.297  15.588
  117CHL1  H22A14901   5.335   0.407  15.581
  117CHL1  H22B14902   5.427   0.254  15.584
  117CHL1   C2314903   5.245   0.256  15.464
  117CHL1  H23A14904   5.296   0.304  15.377
  117CHL1  H23B14905   5.249   0.146  15.448
  117CHL1   C2414906   5.100   0.303  15.475
  117CHL1  H24A14907   5.046   0.240  15.549
  117CHL1  H24B14908   5.101   0.407  15.514
  117CHL1   C2514909   5.019   0.303  15.345
  117CHL1   H2514910   5.009   0.198  15.308
  117CHL1   C2614911   4.878   0.357  15.375
  117CHL1  H26A14912   4.883   0.452  15.432
  117CHL1  H26B14913   4.821   0.376  15.282
  117CHL1  H26C14914   4.821   0.283  15.436
  117CHL1   C2714915   5.088   0.386  15.235
  117CHL1  H27A14916   5.170   0.326  15.190
  117CHL1  H27B14917   5.016   0.414  15.155
  117CHL1  H27C14918   5.132   0.478  15.279
  118CHL1    C314919   7.429   1.578  16.730
  118CHL1    H314920   7.473   1.677  16.706
  118CHL1    O314921   7.392   1.574  16.868
  118CHL1   H3'14922   7.332   1.648  16.883
  118CHL1    C414923   7.304   1.552  16.643
  118CHL1   H4A14924   7.254   1.463  16.684
  118CHL1   H4B14925   7.234   1.638  16.658
  118CHL1    C514926   7.334   1.528  16.497
  118CHL1    C614927   7.264   1.591  16.402
  118CHL1    H614928   7.178   1.652  16.433
  118CHL1    C714929   7.292   1.579  16.256
  118CHL1   H7A14930   7.199   1.585  16.194
  118CHL1   H7B14931   7.356   1.666  16.228
  118CHL1    C814932   7.371   1.454  16.219
  118CHL1    H814933   7.304   1.365  16.228
  118CHL1   C1414934   7.423   1.469  16.078
  118CHL1   H1414935   7.491   1.556  16.083
  118CHL1   C1514936   7.324   1.507  15.965
  118CHL1  H15A14937   7.227   1.454  15.973
  118CHL1  H15B14938   7.304   1.616  15.964
  118CHL1   C1614939   7.400   1.465  15.839
  118CHL1  H16A14940   7.340   1.388  15.786
  118CHL1  H16B14941   7.415   1.548  15.768
  118CHL1   C1714942   7.536   1.403  15.886
  118CHL1   H1714943   7.608   1.486  15.898
  118CHL1   C1314944   7.508   1.353  16.027
  118CHL1   C1814945   7.419   1.229  16.015
  118CHL1  H18A14946   7.336   1.248  15.944
  118CHL1  H18B14947   7.477   1.143  15.976
  118CHL1  H18C14948   7.376   1.199  16.112
  118CHL1   C1214949   7.628   1.329  16.119
  118CHL1  H12A14950   7.674   1.232  16.092
  118CHL1  H12B14951   7.705   1.407  16.104
  118CHL1   C1114952   7.584   1.322  16.266
  118CHL1  H11A14953   7.523   1.230  16.273
  118CHL1  H11B14954   7.673   1.312  16.331
  118CHL1    C914955   7.492   1.439  16.313
  118CHL1    H914956   7.552   1.532  16.301
  118CHL1   C1014957   7.450   1.433  16.462
  118CHL1   C1914958   7.391   1.293  16.489
  118CHL1  H19A14959   7.464   1.212  16.470
  118CHL1  H19B14960   7.363   1.285  16.595
  118CHL1  H19C14961   7.299   1.275  16.428
  118CHL1    C114962   7.571   1.458  16.556
  118CHL1   H1A14963   7.643   1.374  16.547
  118CHL1   H1B14964   7.624   1.551  16.526
  118CHL1    C214965   7.534   1.470  16.706
  118CHL1   H2A14966   7.624   1.491  16.766
  118CHL1   H2B14967   7.494   1.372  16.741
  118CHL1   C2014968   7.593   1.308  15.780
  118CHL1   H2014969   7.521   1.227  15.768
  118CHL1   C2114970   7.721   1.231  15.815
  118CHL1  H21A14971   7.753   1.168  15.729
  118CHL1  H21B14972   7.704   1.161  15.899
  118CHL1  H21C14973   7.804   1.296  15.841
  118CHL1   C2214974   7.602   1.391  15.651
  118CHL1  H22A14975   7.500   1.423  15.619
  118CHL1  H22B14976   7.661   1.482  15.673
  118CHL1   C2314977   7.662   1.332  15.527
  118CHL1  H23A14978   7.768   1.303  15.542
  118CHL1  H23B14979   7.604   1.241  15.499
  118CHL1   C2414980   7.651   1.441  15.419
  118CHL1  H24A14981   7.544   1.458  15.394
  118CHL1  H24B14982   7.692   1.537  15.456
  118CHL1   C2514983   7.727   1.403  15.294
  118CHL1   H2514984   7.834   1.391  15.324
  118CHL1   C2614985   7.668   1.272  15.246
  118CHL1  H26A14986   7.711   1.240  15.149
  118CHL1  H26B14987   7.686   1.187  15.316
  118CHL1  H26C14988   7.561   1.289  15.230
  118CHL1   C2714989   7.720   1.508  15.182
  118CHL1  H27A14990   7.766   1.467  15.089
  118CHL1  H27B14991   7.615   1.536  15.161
  118CHL1  H27C14992   7.776   1.599  15.211
  119CHL1    C314993   1.196   0.245  16.725
  119CHL1    H314994   1.130   0.155  16.717
  119CHL1    O314995   1.238   0.259  16.860
  119CHL1   H3'14996   1.156   0.258  16.914
  119CHL1    C414997   1.321   0.221  16.638
  119CHL1   H4A14998   1.405   0.283  16.674
  119CHL1   H4B14999   1.354   0.116  16.656
  119CHL1    C515000   1.295   0.248  16.491
  119CHL1    C615001   1.319   0.157  16.397
  119CHL1    H615002   1.361   0.061  16.427
  119CHL1    C715003   1.300   0.183  16.250
  119CHL1   H7A15004   1.382   0.136  16.193
  119CHL1   H7B15005   1.205   0.138  16.216
  119CHL1    C815006   1.303   0.332  16.214
  119CHL1    H815007   1.406   0.369  16.231
  119CHL1   C1415008   1.263   0.353  16.068
  119CHL1   H1415009   1.157   0.318  16.060
  119CHL1   C1515010   1.340   0.279  15.955
  119CHL1  H15A15011   1.448   0.278  15.979
  119CHL1  H15B15012   1.303   0.174  15.949
  119CHL1   C1615013   1.312   0.362  15.826
  119CHL1  H16A15014   1.407   0.392  15.779
  119CHL1  H16B15015   1.254   0.300  15.754
  119CHL1   C1715016   1.227   0.484  15.876
  119CHL1   H1715017   1.125   0.440  15.871
  119CHL1   C1315018   1.265   0.498  16.024
  119CHL1   C1815019   1.410   0.554  16.030
  119CHL1  H18A15020   1.454   0.542  16.130
  119CHL1  H18B15021   1.478   0.504  15.958
  119CHL1  H18C15022   1.410   0.662  16.007
  119CHL1   C1215023   1.169   0.577  16.115
  119CHL1  H12A15024   1.174   0.684  16.088
  119CHL1  H12B15025   1.065   0.541  16.098
  119CHL1   C1115026   1.204   0.559  16.263
  119CHL1  H11A15027   1.304   0.605  16.278
  119CHL1  H11B15028   1.132   0.615  16.325
  119CHL1    C915029   1.208   0.410  16.306
  119CHL1    H915030   1.106   0.369  16.286
  119CHL1   C1015031   1.234   0.384  16.458
  119CHL1   C1915032   1.331   0.492  16.510
  119CHL1  H19A15033   1.423   0.495  16.448
  119CHL1  H19B15034   1.280   0.591  16.506
  119CHL1  H19C15035   1.360   0.478  16.615
  119CHL1    C115036   1.100   0.388  16.535
  119CHL1   H1A15037   1.050   0.486  16.516
  119CHL1   H1B15038   1.034   0.308  16.497
  119CHL1    C215039   1.116   0.370  16.688
  119CHL1   H2A15040   1.016   0.365  16.735
  119CHL1   H2B15041   1.166   0.461  16.728
  119CHL1   C2015042   1.219   0.621  15.804
  119CHL1   H2015043   1.295   0.691  15.845
  119CHL1   C2115044   1.077   0.671  15.841
  119CHL1  H21A15045   1.082   0.766  15.897
  119CHL1  H21B15046   1.015   0.599  15.897
  119CHL1  H21C15047   1.017   0.684  15.750
  119CHL1   C2215048   1.236   0.631  15.651
  119CHL1  H22A15049   1.332   0.587  15.617
  119CHL1  H22B15050   1.155   0.567  15.610
  119CHL1   C2315051   1.225   0.773  15.584
  119CHL1  H23A15052   1.246   0.856  15.653
  119CHL1  H23B15053   1.305   0.778  15.507
  119CHL1   C2415054   1.087   0.788  15.515
  119CHL1  H24A15055   1.078   0.687  15.479
  119CHL1  H24B15056   1.013   0.799  15.593
  119CHL1   C2515057   1.051   0.865  15.384
  119CHL1   H2515058   0.994   0.956  15.409
  119CHL1   C2615059   1.173   0.915  15.318
  119CHL1  H26A15060   1.218   0.843  15.247
  119CHL1  H26B15061   1.121   0.991  15.259
  119CHL1  H26C15062   1.247   0.955  15.390
  119CHL1   C2715063   0.968   0.805  15.265
  119CHL1  H27A15064   1.031   0.742  15.200
  119CHL1  H27B15065   0.876   0.749  15.291
  119CHL1  H27C15066   0.938   0.889  15.199
  120CHL1    C315067   7.345   7.548  16.701
  120CHL1    H315068   7.239   7.514  16.706
  120CHL1    O315069   7.389   7.581  16.833
  120CHL1   H3'15070   7.336   7.654  16.864
  120CHL1    C415071   7.431   7.433  16.648
  120CHL1   H4A15072   7.535   7.467  16.661
  120CHL1   H4B15073   7.420   7.344  16.713
  120CHL1    C515074   7.417   7.401  16.501
  120CHL1    C615075   7.396   7.275  16.458
  120CHL1    H615076   7.391   7.192  16.530
  120CHL1    C715077   7.404   7.237  16.313
  120CHL1   H7A15078   7.470   7.148  16.300
  120CHL1   H7B15079   7.304   7.208  16.275
  120CHL1    C815080   7.463   7.351  16.224
  120CHL1    H815081   7.572   7.355  16.238
  120CHL1   C1415082   7.438   7.320  16.078
  120CHL1   H1415083   7.327   7.316  16.068
  120CHL1   C1515084   7.482   7.183  16.025
  120CHL1  H15A15085   7.588   7.164  16.052
  120CHL1  H15B15086   7.418   7.102  16.068
  120CHL1   C1615087   7.464   7.199  15.874
  120CHL1  H16A15088   7.556   7.166  15.820
  120CHL1  H16B15089   7.378   7.139  15.837
  120CHL1   C1715090   7.438   7.351  15.850
  120CHL1   H1715091   7.328   7.365  15.861
  120CHL1   C1315092   7.490   7.422  15.977
  120CHL1   C1815093   7.644   7.425  15.974
  120CHL1  H18A15094   7.685   7.453  16.073
  120CHL1  H18B15095   7.686   7.327  15.945
  120CHL1  H18C15096   7.679   7.500  15.900
  120CHL1   C1215097   7.431   7.560  16.010
  120CHL1  H12A15098   7.481   7.638  15.949
  120CHL1  H12B15099   7.325   7.561  15.982
  120CHL1   C1115100   7.449   7.597  16.158
  120CHL1  H11A15101   7.557   7.616  16.169
  120CHL1  H11B15102   7.395   7.692  16.179
  120CHL1    C915103   7.404   7.488  16.260
  120CHL1    H915104   7.293   7.479  16.252
  120CHL1   C1015105   7.432   7.523  16.409
  120CHL1   C1915106   7.577   7.577  16.416
  120CHL1  H19A15107   7.584   7.677  16.370
  120CHL1  H19B15108   7.612   7.589  16.520
  120CHL1  H19C15109   7.648   7.509  16.366
  120CHL1    C115110   7.333   7.633  16.460
  120CHL1   H1A15111   7.346   7.724  16.398
  120CHL1   H1B15112   7.228   7.598  16.446
  120CHL1    C215113   7.354   7.671  16.609
  120CHL1   H2A15114   7.280   7.748  16.640
  120CHL1   H2B15115   7.456   7.716  16.619
  120CHL1   C2015116   7.468   7.398  15.707
  120CHL1   H2015117   7.571   7.368  15.679
  120CHL1   C2115118   7.455   7.550  15.693
  120CHL1  H21A15119   7.463   7.580  15.586
  120CHL1  H21B15120   7.534   7.602  15.750
  120CHL1  H21C15121   7.355   7.583  15.730
  120CHL1   C2215122   7.370   7.331  15.609
  120CHL1  H22A15123   7.304   7.265  15.669
  120CHL1  H22B15124   7.307   7.406  15.557
  120CHL1   C2315125   7.423   7.227  15.512
  120CHL1  H23A15126   7.496   7.163  15.566
  120CHL1  H23B15127   7.333   7.166  15.485
  120CHL1   C2415128   7.478   7.277  15.379
  120CHL1  H24A15129   7.395   7.327  15.324
  120CHL1  H24B15130   7.555   7.354  15.397
  120CHL1   C2515131   7.528   7.160  15.291
  120CHL1   H2515132   7.437   7.098  15.271
  120CHL1   C2615133   7.576   7.206  15.154
  120CHL1  H26A15134   7.673   7.260  15.159
  120CHL1  H26B15135   7.588   7.120  15.086
  120CHL1  H26C15136   7.501   7.275  15.110
  120CHL1   C2715137   7.632   7.068  15.358
  120CHL1  H27A15138   7.722   7.124  15.392
  120CHL1  H27B15139   7.590   7.018  15.448
  120CHL1  H27C15140   7.664   6.989  15.288
  121CHL1    C315141   4.308   3.826  13.227
  121CHL1    H315142   4.280   3.933  13.232
  121CHL1    O315143   4.310   3.781  13.092
  121CHL1   H3'15144   4.359   3.849  13.041
  121CHL1    C415145   4.447   3.804  13.288
  121CHL1   H4A15146   4.482   3.703  13.261
  121CHL1   H4B15147   4.517   3.876  13.239
  121CHL1    C515148   4.451   3.815  13.439
  121CHL1    C615149   4.539   3.897  13.498
  121CHL1    H615150   4.610   3.954  13.437
  121CHL1    C715151   4.554   3.907  13.646
  121CHL1   H7A15152   4.662   3.908  13.673
  121CHL1   H7B15153   4.507   4.001  13.682
  121CHL1    C815154   4.488   3.787  13.719
  121CHL1    H815155   4.554   3.700  13.700
  121CHL1   C1415156   4.479   3.816  13.866
  121CHL1   H1415157   4.397   3.892  13.880
  121CHL1   C1515158   4.601   3.878  13.928
  121CHL1  H15A15159   4.694   3.824  13.901
  121CHL1  H15B15160   4.606   3.981  13.892
  121CHL1   C1615161   4.572   3.870  14.078
  121CHL1  H16A15162   4.666   3.839  14.127
  121CHL1  H16B15163   4.537   3.967  14.119
  121CHL1   C1715164   4.459   3.766  14.094
  121CHL1   H1715165   4.364   3.821  14.114
  121CHL1   C1315166   4.446   3.700  13.956
  121CHL1   C1815167   4.563   3.598  13.951
  121CHL1  H18A15168   4.530   3.502  13.995
  121CHL1  H18B15169   4.602   3.582  13.850
  121CHL1  H18C15170   4.652   3.632  14.008
  121CHL1   C1215171   4.307   3.651  13.913
  121CHL1  H12A15172   4.284   3.553  13.959
  121CHL1  H12B15173   4.232   3.724  13.949
  121CHL1   C1115174   4.290   3.638  13.759
  121CHL1  H11A15175   4.344   3.544  13.736
  121CHL1  H11B15176   4.183   3.623  13.735
  121CHL1    C915177   4.349   3.753  13.671
  121CHL1    H915178   4.286   3.843  13.690
  121CHL1   C1015179   4.348   3.730  13.516
  121CHL1   C1915180   4.387   3.582  13.493
  121CHL1  H19A15181   4.484   3.560  13.543
  121CHL1  H19B15182   4.310   3.515  13.537
  121CHL1  H19C15183   4.395   3.554  13.387
  121CHL1    C115184   4.208   3.761  13.456
  121CHL1   H1A15185   4.132   3.696  13.503
  121CHL1   H1B15186   4.181   3.866  13.480
  121CHL1    C215187   4.204   3.742  13.302
  121CHL1   H2A15188   4.102   3.762  13.262
  121CHL1   H2B15189   4.230   3.637  13.278
  121CHL1   C2015190   4.490   3.677  14.213
  121CHL1   H2015191   4.583   3.618  14.198
  121CHL1   C2115192   4.375   3.578  14.232
  121CHL1  H21A15193   4.361   3.514  14.143
  121CHL1  H21B15194   4.283   3.637  14.252
  121CHL1  H21C15195   4.394   3.509  14.317
  121CHL1   C2215196   4.514   3.760  14.338
  121CHL1  H22A15197   4.612   3.813  14.330
  121CHL1  H22B15198   4.435   3.838  14.351
  121CHL1   C2315199   4.519   3.671  14.461
  121CHL1  H23A15200   4.415   3.644  14.488
  121CHL1  H23B15201   4.576   3.578  14.440
  121CHL1   C2415202   4.586   3.746  14.573
  121CHL1  H24A15203   4.692   3.767  14.549
  121CHL1  H24B15204   4.535   3.845  14.576
  121CHL1   C2515205   4.574   3.678  14.709
  121CHL1   H2515206   4.616   3.755  14.776
  121CHL1   C2615207   4.429   3.644  14.748
  121CHL1  H26A15208   4.363   3.732  14.732
  121CHL1  H26B15209   4.389   3.560  14.688
  121CHL1  H26C15210   4.424   3.615  14.855
  121CHL1   C2715211   4.666   3.558  14.733
  121CHL1  H27A15212   4.639   3.473  14.668
  121CHL1  H27B15213   4.771   3.590  14.715
  121CHL1  H27C15214   4.658   3.527  14.839
  122CHL1    C315215   2.653   3.784  13.254
  122CHL1    H315216   2.739   3.722  13.291
  122CHL1    O315217   2.643   3.764  13.115
  122CHL1   H3'15218   2.565   3.812  13.085
  122CHL1    C415219   2.523   3.739  13.319
  122CHL1   H4A15220   2.439   3.801  13.282
  122CHL1   H4B15221   2.503   3.634  13.287
  122CHL1    C515222   2.535   3.753  13.469
  122CHL1    C615223   2.520   3.646  13.547
  122CHL1    H615224   2.496   3.547  13.503
  122CHL1    C715225   2.529   3.655  13.695
  122CHL1   H7A15226   2.455   3.589  13.745
  122CHL1   H7B15227   2.627   3.619  13.726
  122CHL1    C815228   2.528   3.797  13.753
  122CHL1    H815229   2.424   3.836  13.749
  122CHL1   C1415230   2.575   3.787  13.896
  122CHL1   H1415231   2.678   3.743  13.894
  122CHL1   C1515232   2.491   3.696  13.986
  122CHL1  H15A15233   2.385   3.724  13.969
  122CHL1  H15B15234   2.505   3.588  13.967
  122CHL1   C1615235   2.534   3.736  14.127
  122CHL1  H16A15236   2.443   3.758  14.186
  122CHL1  H16B15237   2.592   3.656  14.177
  122CHL1   C1715238   2.621   3.865  14.110
  122CHL1   H1715239   2.727   3.831  14.106
  122CHL1   C1315240   2.589   3.920  13.969
  122CHL1   C1815241   2.454   3.994  13.974
  122CHL1  H18A15242   2.381   3.940  14.038
  122CHL1  H18B15243   2.468   4.096  14.017
  122CHL1  H18C15244   2.409   4.005  13.874
  122CHL1   C1215245   2.695   4.001  13.891
  122CHL1  H12A15246   2.711   4.100  13.937
  122CHL1  H12B15247   2.791   3.945  13.894
  122CHL1   C1115248   2.654   4.020  13.743
  122CHL1  H11A15249   2.565   4.086  13.740
  122CHL1  H11B15250   2.736   4.072  13.689
  122CHL1    C915251   2.622   3.885  13.672
  122CHL1    H915252   2.720   3.830  13.672
  122CHL1   C1015253   2.579   3.892  13.522
  122CHL1   C1915254   2.455   3.985  13.512
  122CHL1  H19A15255   2.374   3.948  13.578
  122CHL1  H19B15256   2.480   4.088  13.542
  122CHL1  H19C15257   2.416   3.988  13.409
  122CHL1    C115258   2.697   3.948  13.437
  122CHL1   H1A15259   2.715   4.055  13.462
  122CHL1   H1B15260   2.789   3.891  13.465
  122CHL1    C215261   2.679   3.932  13.285
  122CHL1   H2A15262   2.771   3.967  13.233
  122CHL1   H2B15263   2.593   3.993  13.250
  122CHL1   C2015264   2.607   3.953  14.234
  122CHL1   H2015265   2.502   3.992  14.241
  122CHL1   C2115266   2.700   4.076  14.223
  122CHL1  H21A15267   2.670   4.139  14.137
  122CHL1  H21B15268   2.805   4.044  14.210
  122CHL1  H21C15269   2.692   4.139  14.313
  122CHL1   C2215270   2.632   3.866  14.361
  122CHL1  H22A15271   2.541   3.805  14.381
  122CHL1  H22B15272   2.716   3.796  14.341
  122CHL1   C2315273   2.667   3.942  14.490
  122CHL1  H23A15274   2.762   3.997  14.472
  122CHL1  H23B15275   2.586   4.015  14.511
  122CHL1   C2415276   2.687   3.850  14.611
  122CHL1  H24A15277   2.600   3.781  14.621
  122CHL1  H24B15278   2.778   3.787  14.595
  122CHL1   C2515279   2.704   3.926  14.745
  122CHL1   H2515280   2.608   3.976  14.766
  122CHL1   C2615281   2.732   3.833  14.863
  122CHL1  H26A15282   2.647   3.765  14.883
  122CHL1  H26B15283   2.822   3.771  14.843
  122CHL1  H26C15284   2.751   3.893  14.955
  122CHL1   C2715285   2.812   4.036  14.736
  122CHL1  H27A15286   2.808   4.100  14.826
  122CHL1  H27B15287   2.913   3.990  14.727
  122CHL1  H27C15288   2.797   4.102  14.649
  123CHL1    C315289   5.188   3.843  13.244
  123CHL1    H315290   5.186   3.732  13.244
  123CHL1    O315291   5.123   3.890  13.126
  123CHL1   H3'15292   5.092   3.978  13.149
  123CHL1    C415293   5.111   3.897  13.366
  123CHL1   H4A15294   5.057   3.990  13.339
  123CHL1   H4B15295   5.030   3.822  13.382
  123CHL1    C515296   5.189   3.921  13.495
  123CHL1    C615297   5.128   3.895  13.611
  123CHL1    H615298   5.022   3.866  13.612
  123CHL1    C715299   5.193   3.911  13.745
  123CHL1   H7A15300   5.129   3.972  13.813
  123CHL1   H7B15301   5.204   3.811  13.792
  123CHL1    C815302   5.333   3.977  13.740
  123CHL1    H815303   5.320   4.087  13.734
  123CHL1   C1415304   5.408   3.941  13.866
  123CHL1   H1415305   5.416   3.829  13.865
  123CHL1   C1515306   5.342   3.976  14.001
  123CHL1  H15A15307   5.307   4.081  13.998
  123CHL1  H15B15308   5.255   3.910  14.023
  123CHL1   C1615309   5.457   3.958  14.101
  123CHL1  H16A15310   5.467   4.051  14.161
  123CHL1  H16B15311   5.441   3.872  14.169
  123CHL1   C1715312   5.586   3.935  14.015
  123CHL1   H1715313   5.599   3.825  14.002
  123CHL1   C1315314   5.551   3.992  13.876
  123CHL1   C1815315   5.552   4.147  13.879
  123CHL1  H18A15316   5.492   4.190  13.797
  123CHL1  H18B15317   5.512   4.188  13.974
  123CHL1  H18C15318   5.655   4.185  13.866
  123CHL1   C1215319   5.629   3.938  13.754
  123CHL1  H12A15320   5.733   3.975  13.752
  123CHL1  H12B15321   5.632   3.827  13.760
  123CHL1   C1115322   5.561   3.979  13.623
  123CHL1  H11A15323   5.567   4.090  13.615
  123CHL1  H11B15324   5.620   3.936  13.540
  123CHL1    C915325   5.413   3.930  13.618
  123CHL1    H915326   5.420   3.818  13.628
  123CHL1   C1015327   5.340   3.957  13.485
  123CHL1   C1915328   5.370   4.105  13.449
  123CHL1  H19A15329   5.477   4.118  13.422
  123CHL1  H19B15330   5.314   4.135  13.359
  123CHL1  H19C15331   5.345   4.174  13.531
  123CHL1    C115332   5.401   3.869  13.374
  123CHL1   H1A15333   5.507   3.899  13.366
  123CHL1   H1B15334   5.396   3.763  13.405
  123CHL1    C215335   5.333   3.889  13.238
  123CHL1   H2A15336   5.383   3.831  13.159
  123CHL1   H2B15337   5.340   3.995  13.207
  123CHL1   C2015338   5.712   3.989  14.082
  123CHL1   H2015339   5.689   4.097  14.087
  123CHL1   C2115340   5.833   3.983  13.989
  123CHL1  H21A15341   5.929   3.999  14.042
  123CHL1  H21B15342   5.824   4.064  13.916
  123CHL1  H21C15343   5.834   3.887  13.936
  123CHL1   C2215344   5.741   3.937  14.227
  123CHL1  H22A15345   5.663   3.986  14.286
  123CHL1  H22B15346   5.714   3.831  14.234
  123CHL1   C2315347   5.885   3.958  14.287
  123CHL1  H23A15348   5.959   3.897  14.233
  123CHL1  H23B15349   5.918   4.060  14.271
  123CHL1   C2415350   5.907   3.927  14.437
  123CHL1  H24A15351   5.855   3.998  14.502
  123CHL1  H24B15352   5.863   3.830  14.455
  123CHL1   C2515353   6.050   3.918  14.495
  123CHL1   H2515354   6.111   3.853  14.429
  123CHL1   C2615355   6.115   4.056  14.508
  123CHL1  H26A15356   6.053   4.121  14.574
  123CHL1  H26B15357   6.216   4.048  14.555
  123CHL1  H26C15358   6.125   4.105  14.409
  123CHL1   C2715359   6.041   3.853  14.634
  123CHL1  H27A15360   5.976   3.913  14.701
  123CHL1  H27B15361   5.997   3.751  14.627
  123CHL1  H27C15362   6.141   3.844  14.681
  124CHL1    C315363   3.563   5.244  13.242
  124CHL1    H315364   3.506   5.327  13.289
  124CHL1    O315365   3.545   5.247  13.101
  124CHL1   H3'15366   3.449   5.239  13.084
  124CHL1    C415367   3.713   5.259  13.279
  124CHL1   H4A15368   3.767   5.173  13.234
  124CHL1   H4B15369   3.754   5.350  13.231
  124CHL1    C515370   3.731   5.259  13.430
  124CHL1    C615371   3.789   5.358  13.501
  124CHL1    H615372   3.831   5.445  13.448
  124CHL1    C715373   3.805   5.353  13.651
  124CHL1   H7A15374   3.904   5.392  13.683
  124CHL1   H7B15375   3.725   5.415  13.693
  124CHL1    C815376   3.776   5.219  13.723
  124CHL1    H815377   3.867   5.158  13.710
  124CHL1   C1415378   3.733   5.233  13.872
  124CHL1   H1415379   3.630   5.278  13.869
  124CHL1   C1515380   3.807   5.327  13.966
  124CHL1  H15A15381   3.915   5.309  13.954
  124CHL1  H15B15382   3.786   5.433  13.948
  124CHL1   C1615383   3.771   5.282  14.108
  124CHL1  H16A15384   3.863   5.286  14.166
  124CHL1  H16B15385   3.698   5.350  14.156
  124CHL1   C1715386   3.713   5.138  14.101
  124CHL1   H1715387   3.604   5.152  14.118
  124CHL1   C1315388   3.722   5.100  13.948
  124CHL1   C1815389   3.851   5.019  13.925
  124CHL1  H18A15390   3.865   4.990  13.820
  124CHL1  H18B15391   3.939   5.078  13.958
  124CHL1  H18C15392   3.848   4.924  13.981
  124CHL1   C1215393   3.598   5.033  13.884
  124CHL1  H12A15394   3.585   4.931  13.925
  124CHL1  H12B15395   3.507   5.092  13.908
  124CHL1   C1115396   3.610   5.026  13.730
  124CHL1  H11A15397   3.681   4.945  13.709
  124CHL1  H11B15398   3.510   4.998  13.690
  124CHL1    C915399   3.658   5.153  13.653
  124CHL1    H915400   3.574   5.227  13.664
  124CHL1   C1015401   3.676   5.134  13.500
  124CHL1   C1915402   3.787   5.030  13.469
  124CHL1  H19A15403   3.789   4.949  13.543
  124CHL1  H19B15404   3.771   4.985  13.369
  124CHL1  H19C15405   3.889   5.074  13.471
  124CHL1    C115406   3.536   5.091  13.443
  124CHL1   H1A15407   3.521   4.984  13.469
  124CHL1   H1B15408   3.458   5.150  13.496
  124CHL1    C215409   3.512   5.109  13.292
  124CHL1   H2A15410   3.404   5.102  13.269
  124CHL1   H2B15411   3.564   5.028  13.236
  124CHL1   C2015412   3.764   5.037  14.213
  124CHL1   H2015413   3.835   4.967  14.168
  124CHL1   C2115414   3.638   4.961  14.259
  124CHL1  H21A15415   3.599   4.897  14.177
  124CHL1  H21B15416   3.557   5.031  14.289
  124CHL1  H21C15417   3.660   4.897  14.347
  124CHL1   C2215418   3.845   5.087  14.340
  124CHL1  H22A15419   3.905   5.175  14.315
  124CHL1  H22B15420   3.773   5.123  14.416
  124CHL1   C2315421   3.952   4.996  14.412
  124CHL1  H23A15422   3.896   4.932  14.483
  124CHL1  H23B15423   4.008   4.933  14.340
  124CHL1   C2415424   4.052   5.086  14.490
  124CHL1  H24A15425   4.124   5.133  14.423
  124CHL1  H24B15426   3.985   5.163  14.532
  124CHL1   C2515427   4.152   5.057  14.604
  124CHL1   H2515428   4.241   5.002  14.566
  124CHL1   C2615429   4.196   5.197  14.655
  124CHL1  H26A15430   4.266   5.192  14.741
  124CHL1  H26B15431   4.243   5.256  14.574
  124CHL1  H26C15432   4.106   5.253  14.689
  124CHL1   C2715433   4.088   4.983  14.718
  124CHL1  H27A15434   4.000   5.044  14.744
  124CHL1  H27B15435   4.054   4.882  14.687
  124CHL1  H27C15436   4.155   4.975  14.807
  125CHL1    C315437   4.290   5.240  13.203
  125CHL1    H315438   4.182   5.251  13.180
  125CHL1    O315439   4.362   5.217  13.082
  125CHL1   H3'15440   4.324   5.136  13.042
  125CHL1    C415441   4.344   5.369  13.267
  125CHL1   H4A15442   4.455   5.360  13.271
  125CHL1   H4B15443   4.324   5.453  13.197
  125CHL1    C515444   4.290   5.397  13.406
  125CHL1    C615445   4.231   5.514  13.439
  125CHL1    H615446   4.222   5.593  13.364
  125CHL1    C715447   4.186   5.549  13.579
  125CHL1   H7A15448   4.218   5.652  13.608
  125CHL1   H7B15449   4.075   5.544  13.585
  125CHL1    C815450   4.243   5.453  13.686
  125CHL1    H815451   4.352   5.473  13.697
  125CHL1   C1415452   4.179   5.482  13.823
  125CHL1   H1415453   4.068   5.478  13.806
  125CHL1   C1515454   4.206   5.620  13.888
  125CHL1  H15A15455   4.310   5.655  13.872
  125CHL1  H15B15456   4.135   5.696  13.849
  125CHL1   C1615457   4.181   5.600  14.038
  125CHL1  H16A15458   4.271   5.615  14.101
  125CHL1  H16B15459   4.106   5.673  14.070
  125CHL1   C1715460   4.131   5.454  14.050
  125CHL1   H1715461   4.024   5.463  14.023
  125CHL1   C1315462   4.205   5.379  13.932
  125CHL1   C1815463   4.356   5.376  13.962
  125CHL1  H18A15464   4.413   5.364  13.868
  125CHL1  H18B15465   4.394   5.467  14.012
  125CHL1  H18C15466   4.381   5.288  14.026
  125CHL1   C1215467   4.162   5.241  13.874
  125CHL1  H12A15468   4.178   5.158  13.946
  125CHL1  H12B15469   4.057   5.241  13.842
  125CHL1   C1115470   4.242   5.202  13.748
  125CHL1  H11A15471   4.348   5.188  13.774
  125CHL1  H11B15472   4.205   5.104  13.711
  125CHL1    C915473   4.224   5.308  13.636
  125CHL1    H915474   4.116   5.301  13.609
  125CHL1   C1015475   4.304   5.279  13.505
  125CHL1   C1915476   4.454   5.262  13.538
  125CHL1  H19A15477   4.494   5.350  13.593
  125CHL1  H19B15478   4.471   5.172  13.599
  125CHL1  H19C15479   4.515   5.250  13.446
  125CHL1    C115480   4.251   5.149  13.436
  125CHL1   H1A15481   4.274   5.062  13.501
  125CHL1   H1B15482   4.140   5.155  13.426
  125CHL1    C215483   4.311   5.120  13.296
  125CHL1   H2A15484   4.264   5.030  13.252
  125CHL1   H2B15485   4.420   5.100  13.306
  125CHL1   C2015486   4.132   5.402  14.195
  125CHL1   H2015487   4.228   5.431  14.245
  125CHL1   C2115488   4.130   5.252  14.179
  125CHL1  H21A15489   4.233   5.213  14.160
  125CHL1  H21B15490   4.061   5.222  14.099
  125CHL1  H21C15491   4.090   5.205  14.266
  125CHL1   C2215492   4.016   5.460  14.285
  125CHL1  H22A15493   4.054   5.561  14.301
  125CHL1  H22B15494   3.922   5.472  14.228
  125CHL1   C2315495   3.992   5.420  14.434
  125CHL1  H23A15496   4.053   5.333  14.460
  125CHL1  H23B15497   4.036   5.500  14.497
  125CHL1   C2415498   3.843   5.409  14.480
  125CHL1  H24A15499   3.795   5.508  14.470
  125CHL1  H24B15500   3.790   5.341  14.410
  125CHL1   C2515501   3.816   5.358  14.626
  125CHL1   H2515502   3.879   5.268  14.643
  125CHL1   C2615503   3.856   5.457  14.736
  125CHL1  H26A15504   3.768   5.516  14.769
  125CHL1  H26B15505   3.895   5.401  14.823
  125CHL1  H26C15506   3.935   5.526  14.702
  125CHL1   C2715507   3.671   5.312  14.651
  125CHL1  H27A15508   3.666   5.247  14.740
  125CHL1  H27B15509   3.605   5.400  14.669
  125CHL1  H27C15510   3.631   5.255  14.565
  126CHL1    C315511   2.569   5.146  13.217
  126CHL1    H315512   2.584   5.037  13.199
  126CHL1    O315513   2.574   5.217  13.094
  126CHL1   H3'15514   2.561   5.147  13.028
  126CHL1    C415515   2.432   5.169  13.283
  126CHL1   H4A15516   2.399   5.274  13.266
  126CHL1   H4B15517   2.359   5.106  13.228
  126CHL1    C515518   2.430   5.139  13.432
  126CHL1    C615519   2.342   5.057  13.489
  126CHL1    H615520   2.263   5.011  13.428
  126CHL1    C715521   2.342   5.026  13.635
  126CHL1   H7A15522   2.237   5.018  13.671
  126CHL1   H7B15523   2.388   4.927  13.652
  126CHL1    C815524   2.418   5.129  13.723
  126CHL1    H815525   2.354   5.219  13.734
  126CHL1   C1415526   2.451   5.070  13.859
  126CHL1   H1415527   2.534   4.997  13.841
  126CHL1   C1515528   2.343   4.984  13.925
  126CHL1  H15A15529   2.246   5.033  13.910
  126CHL1  H15B15530   2.340   4.882  13.882
  126CHL1   C1615531   2.380   4.987  14.072
  126CHL1  H16A15532   2.307   5.052  14.121
  126CHL1  H16B15533   2.380   4.886  14.119
  126CHL1   C1715534   2.514   5.063  14.083
  126CHL1   H1715535   2.586   4.984  14.055
  126CHL1   C1315536   2.508   5.164  13.965
  126CHL1   C1815537   2.410   5.280  13.999
  126CHL1  H18A15538   2.395   5.347  13.911
  126CHL1  H18B15539   2.310   5.243  14.029
  126CHL1  H18C15540   2.450   5.344  14.081
  126CHL1   C1215541   2.639   5.220  13.907
  126CHL1  H12A15542   2.677   5.303  13.970
  126CHL1  H12B15543   2.715   5.140  13.910
  126CHL1   C1115544   2.623   5.269  13.760
  126CHL1  H11A15545   2.564   5.363  13.765
  126CHL1  H11B15546   2.723   5.296  13.720
  126CHL1    C915547   2.551   5.169  13.664
  126CHL1    H915548   2.613   5.076  13.664
  126CHL1   C1015549   2.541   5.206  13.513
  126CHL1   C1915550   2.511   5.356  13.502
  126CHL1  H19A15551   2.520   5.392  13.397
  126CHL1  H19B15552   2.409   5.380  13.538
  126CHL1  H19C15553   2.583   5.417  13.561
  126CHL1    C115554   2.673   5.159  13.446
  126CHL1   H1A15555   2.758   5.199  13.503
  126CHL1   H1B15556   2.680   5.048  13.452
  126CHL1    C215557   2.686   5.199  13.299
  126CHL1   H2A15558   2.781   5.161  13.256
  126CHL1   H2B15559   2.687   5.310  13.291
  126CHL1   C2015560   2.552   5.108  14.225
  126CHL1   H2015561   2.506   5.208  14.244
  126CHL1   C2115562   2.706   5.119  14.232
  126CHL1  H21A15563   2.753   5.020  14.216
  126CHL1  H21B15564   2.741   5.151  14.332
  126CHL1  H21C15565   2.747   5.188  14.155
  126CHL1   C2215566   2.506   5.014  14.342
  126CHL1  H22A15567   2.403   4.977  14.326
  126CHL1  H22B15568   2.573   4.926  14.343
  126CHL1   C2315569   2.506   5.083  14.481
  126CHL1  H23A15570   2.592   5.154  14.485
  126CHL1  H23B15571   2.414   5.144  14.491
  126CHL1   C2415572   2.516   4.988  14.602
  126CHL1  H24A15573   2.431   4.917  14.604
  126CHL1  H24B15574   2.608   4.926  14.588
  126CHL1   C2515575   2.529   5.057  14.740
  126CHL1   H2515576   2.540   4.977  14.818
  126CHL1   C2615577   2.656   5.142  14.745
  126CHL1  H26A15578   2.636   5.239  14.696
  126CHL1  H26B15579   2.688   5.161  14.850
  126CHL1  H26C15580   2.739   5.091  14.692
  126CHL1   C2715581   2.412   5.148  14.781
  126CHL1  H27A15582   2.379   5.211  14.696
  126CHL1  H27B15583   2.326   5.090  14.818
  126CHL1  H27C15584   2.443   5.215  14.864
  127CHL1    C315585   3.414   6.449  13.239
  127CHL1    H315586   3.522   6.424  13.242
  127CHL1    O315587   3.374   6.458  13.103
  127CHL1   H3'15588   3.340   6.371  13.078
  127CHL1    C415589   3.330   6.341  13.312
  127CHL1   H4A15590   3.223   6.359  13.287
  127CHL1   H4B15591   3.356   6.243  13.266
  127CHL1    C515592   3.349   6.339  13.463
  127CHL1    C615593   3.382   6.228  13.530
  127CHL1    H615594   3.393   6.134  13.476
  127CHL1    C715595   3.398   6.223  13.680
  127CHL1   H7A15596   3.346   6.133  13.721
  127CHL1   H7B15597   3.506   6.213  13.705
  127CHL1    C815598   3.343   6.348  13.753
  127CHL1    H815599   3.232   6.340  13.756
  127CHL1   C1415600   3.397   6.356  13.895
  127CHL1   H1415601   3.508   6.370  13.882
  127CHL1   C1515602   3.385   6.232  13.984
  127CHL1  H15A15603   3.284   6.189  13.971
  127CHL1  H15B15604   3.464   6.159  13.958
  127CHL1   C1615605   3.396   6.282  14.128
  127CHL1  H16A15606   3.300   6.265  14.181
  127CHL1  H16B15607   3.476   6.230  14.185
  127CHL1   C1715608   3.424   6.433  14.110
  127CHL1   H1715609   3.533   6.441  14.087
  127CHL1   C1315610   3.351   6.473  13.980
  127CHL1   C1815611   3.197   6.470  14.003
  127CHL1  H18A15612   3.167   6.556  14.067
  127CHL1  H18B15613   3.142   6.477  13.908
  127CHL1  H18C15614   3.164   6.377  14.054
  127CHL1   C1215615   3.394   6.601  13.906
  127CHL1  H12A15616   3.353   6.691  13.957
  127CHL1  H12B15617   3.505   6.608  13.906
  127CHL1   C1115618   3.344   6.603  13.760
  127CHL1  H11A15619   3.234   6.615  13.764
  127CHL1  H11B15620   3.387   6.693  13.712
  127CHL1    C915621   3.383   6.475  13.680
  127CHL1    H915622   3.495   6.474  13.678
  127CHL1   C1015623   3.338   6.476  13.532
  127CHL1   C1915624   3.188   6.514  13.527
  127CHL1  H19A15625   3.130   6.444  13.590
  127CHL1  H19B15626   3.171   6.616  13.565
  127CHL1  H19C15627   3.147   6.511  13.424
  127CHL1    C115628   3.427   6.577  13.455
  127CHL1   H1A15629   3.418   6.678  13.501
  127CHL1   H1B15630   3.534   6.547  13.467
  127CHL1    C215631   3.396   6.586  13.305
  127CHL1   H2A15632   3.461   6.661  13.255
  127CHL1   H2B15633   3.291   6.616  13.290
  127CHL1   C2015634   3.404   6.512  14.238
  127CHL1   H2015635   3.297   6.510  14.269
  127CHL1   C2115636   3.443   6.653  14.203
  127CHL1  H21A15637   3.480   6.713  14.288
  127CHL1  H21B15638   3.349   6.701  14.166
  127CHL1  H21C15639   3.521   6.659  14.125
  127CHL1   C2215640   3.490   6.461  14.355
  127CHL1  H22A15641   3.570   6.394  14.317
  127CHL1  H22B15642   3.542   6.545  14.405
  127CHL1   C2315643   3.405   6.388  14.458
  127CHL1  H23A15644   3.342   6.461  14.514
  127CHL1  H23B15645   3.336   6.322  14.403
  127CHL1   C2415646   3.492   6.308  14.555
  127CHL1  H24A15647   3.576   6.262  14.499
  127CHL1  H24B15648   3.535   6.376  14.631
  127CHL1   C2515649   3.416   6.194  14.625
  127CHL1   H2515650   3.325   6.235  14.674
  127CHL1   C2615651   3.373   6.087  14.523
  127CHL1  H26A15652   3.299   6.128  14.453
  127CHL1  H26B15653   3.461   6.051  14.465
  127CHL1  H26C15654   3.328   6.001  14.576
  127CHL1   C2715655   3.503   6.129  14.732
  127CHL1  H27A15656   3.447   6.052  14.788
  127CHL1  H27B15657   3.593   6.083  14.687
  127CHL1  H27C15658   3.536   6.207  14.805
  128CHL1    C315659   2.052   1.720  13.240
  128CHL1    H315660   1.948   1.740  13.276
  128CHL1    O315661   2.051   1.720  13.097
  128CHL1   H3'15662   1.994   1.644  13.074
  128CHL1    C415663   2.146   1.830  13.291
  128CHL1   H4A15664   2.248   1.812  13.252
  128CHL1   H4B15665   2.112   1.927  13.248
  128CHL1    C515666   2.144   1.833  13.442
  128CHL1    C615667   2.106   1.943  13.508
  128CHL1    H615668   2.089   2.035  13.452
  128CHL1    C715669   2.088   1.950  13.656
  128CHL1   H7A15670   2.115   2.049  13.698
  128CHL1   H7B15671   1.982   1.930  13.679
  128CHL1    C815672   2.170   1.843  13.728
  128CHL1    H815673   2.277   1.872  13.720
  128CHL1   C1415674   2.125   1.836  13.873
  128CHL1   H1415675   2.020   1.798  13.872
  128CHL1   C1515676   2.119   1.966  13.957
  128CHL1  H15A15677   2.207   2.031  13.936
  128CHL1  H15B15678   2.027   2.024  13.936
  128CHL1   C1615679   2.124   1.914  14.102
  128CHL1  H16A15680   2.210   1.960  14.154
  128CHL1  H16B15681   2.031   1.939  14.158
  128CHL1   C1715682   2.142   1.759  14.090
  128CHL1   H1715683   2.039   1.716  14.085
  128CHL1   C1315684   2.206   1.739  13.954
  128CHL1   C1815685   2.352   1.789  13.961
  128CHL1  H18A15686   2.399   1.787  13.861
  128CHL1  H18B15687   2.363   1.892  14.000
  128CHL1  H18C15688   2.412   1.723  14.027
  128CHL1   C1215689   2.196   1.597  13.894
  128CHL1  H12A15690   2.272   1.530  13.940
  128CHL1  H12B15691   2.095   1.557  13.913
  128CHL1   C1115692   2.226   1.596  13.744
  128CHL1  H11A15693   2.336   1.613  13.737
  128CHL1  H11B15694   2.204   1.495  13.704
  128CHL1    C915695   2.150   1.705  13.665
  128CHL1    H915696   2.041   1.682  13.678
  128CHL1   C1015697   2.177   1.701  13.512
  128CHL1   C1915698   2.327   1.680  13.490
  128CHL1  H19A15699   2.385   1.763  13.536
  128CHL1  H19B15700   2.363   1.584  13.533
  128CHL1  H19C15701   2.352   1.676  13.383
  128CHL1    C115702   2.098   1.584  13.448
  128CHL1   H1A15703   2.141   1.490  13.487
  128CHL1   H1B15704   1.992   1.589  13.484
  128CHL1    C215705   2.097   1.583  13.294
  128CHL1   H2A15706   2.028   1.503  13.259
  128CHL1   H2B15707   2.198   1.561  13.255
  128CHL1   C2015708   2.214   1.693  14.205
  128CHL1   H2015709   2.320   1.727  14.208
  128CHL1   C2115710   2.214   1.540  14.193
  128CHL1  H21A15711   2.219   1.497  14.294
  128CHL1  H21B15712   2.303   1.505  14.138
  128CHL1  H21C15713   2.122   1.503  14.144
  128CHL1   C2215714   2.153   1.731  14.339
  128CHL1  H22A15715   2.079   1.813  14.332
  128CHL1  H22B15716   2.100   1.644  14.384
  128CHL1   C2315717   2.266   1.776  14.430
  128CHL1  H23A15718   2.343   1.697  14.441
  128CHL1  H23B15719   2.317   1.865  14.385
  128CHL1   C2415720   2.208   1.811  14.563
  128CHL1  H24A15721   2.125   1.883  14.545
  128CHL1  H24B15722   2.165   1.722  14.614
  128CHL1   C2515723   2.314   1.878  14.650
  128CHL1   H2515724   2.405   1.901  14.589
  128CHL1   C2615725   2.255   2.010  14.693
  128CHL1  H26A15726   2.249   2.083  14.610
  128CHL1  H26B15727   2.152   1.994  14.732
  128CHL1  H26C15728   2.318   2.051  14.773
  128CHL1   C2715729   2.354   1.788  14.767
  128CHL1  H27A15730   2.405   1.697  14.730
  128CHL1  H27B15731   2.422   1.842  14.837
  128CHL1  H27C15732   2.263   1.757  14.823
  129CHL1    C315733   5.718   5.987  13.241
  129CHL1    H315734   5.775   5.894  13.221
  129CHL1    O315735   5.636   6.013  13.129
  129CHL1   H3'15736   5.691   6.001  13.050
  129CHL1    C415737   5.627   5.969  13.362
  129CHL1   H4A15738   5.556   6.054  13.368
  129CHL1   H4B15739   5.563   5.879  13.341
  129CHL1    C515740   5.705   5.955  13.490
  129CHL1    C615741   5.691   5.846  13.566
  129CHL1    H615742   5.620   5.767  13.539
  129CHL1    C715743   5.771   5.827  13.690
  129CHL1   H7A15744   5.716   5.765  13.765
  129CHL1   H7B15745   5.861   5.773  13.661
  129CHL1    C815746   5.827   5.956  13.750
  129CHL1    H815747   5.741   6.012  13.793
  129CHL1   C1415748   5.931   5.921  13.855
  129CHL1   H1415749   6.021   5.885  13.800
  129CHL1   C1515750   5.900   5.808  13.954
  129CHL1  H15A15751   5.793   5.803  13.980
  129CHL1  H15B15752   5.931   5.711  13.909
  129CHL1   C1615753   5.985   5.843  14.076
  129CHL1  H16A15754   5.919   5.852  14.165
  129CHL1  H16B15755   6.063   5.766  14.093
  129CHL1   C1715756   6.058   5.975  14.047
  129CHL1   H1715757   6.150   5.949  13.997
  129CHL1   C1315758   5.979   6.040  13.934
  129CHL1   C1815759   5.861   6.104  14.003
  129CHL1  H18A15760   5.796   6.033  14.058
  129CHL1  H18B15761   5.905   6.173  14.077
  129CHL1  H18C15762   5.800   6.161  13.931
  129CHL1   C1215763   6.055   6.130  13.834
  129CHL1  H12A15764   6.091   6.223  13.881
  129CHL1  H12B15765   6.143   6.071  13.800
  129CHL1   C1115766   5.970   6.163  13.708
  129CHL1  H11A15767   5.896   6.239  13.741
  129CHL1  H11B15768   6.036   6.211  13.633
  129CHL1    C915769   5.897   6.040  13.644
  129CHL1    H915770   5.979   5.975  13.605
  129CHL1   C1015771   5.807   6.068  13.520
  129CHL1   C1915772   5.729   6.200  13.543
  129CHL1  H19A15773   5.658   6.221  13.461
  129CHL1  H19B15774   5.672   6.195  13.638
  129CHL1  H19C15775   5.798   6.286  13.548
  129CHL1    C115776   5.897   6.080  13.393
  129CHL1   H1A15777   5.968   6.164  13.408
  129CHL1   H1B15778   5.956   5.986  13.383
  129CHL1    C215779   5.819   6.101  13.262
  129CHL1   H2A15780   5.889   6.106  13.177
  129CHL1   H2B15781   5.764   6.198  13.266
  129CHL1   C2015782   6.105   6.044  14.177
  129CHL1   H2015783   6.019   6.065  14.243
  129CHL1   C2115784   6.182   6.173  14.147
  129CHL1  H21A15785   6.272   6.146  14.088
  129CHL1  H21B15786   6.215   6.222  14.241
  129CHL1  H21C15787   6.120   6.246  14.090
  129CHL1   C2215788   6.205   5.948  14.247
  129CHL1  H22A15789   6.162   5.846  14.258
  129CHL1  H22B15790   6.292   5.941  14.178
  129CHL1   C2315791   6.261   5.986  14.385
  129CHL1  H23A15792   6.324   5.900  14.417
  129CHL1  H23B15793   6.327   6.074  14.377
  129CHL1   C2415794   6.153   6.014  14.489
  129CHL1  H24A15795   6.094   6.103  14.457
  129CHL1  H24B15796   6.083   5.927  14.493
  129CHL1   C2515797   6.210   6.041  14.629
  129CHL1   H2515798   6.276   6.130  14.625
  129CHL1   C2615799   6.095   6.069  14.724
  129CHL1  H26A15800   6.033   5.977  14.734
  129CHL1  H26B15801   6.128   6.099  14.825
  129CHL1  H26C15802   6.029   6.148  14.682
  129CHL1   C2715803   6.287   5.922  14.684
  129CHL1  H27A15804   6.222   5.832  14.688
  129CHL1  H27B15805   6.378   5.900  14.625
  129CHL1  H27C15806   6.320   5.944  14.787
  130CHL1    C315807   2.591   6.509  13.249
  130CHL1    H315808   2.499   6.549  13.299
  130CHL1    O315809   2.567   6.516  13.109
  130CHL1   H3'15810   2.653   6.528  13.067
  130CHL1    C415811   2.714   6.592  13.291
  130CHL1   H4A15812   2.806   6.542  13.255
  130CHL1   H4B15813   2.710   6.692  13.243
  130CHL1    C515814   2.714   6.601  13.443
  130CHL1    C615815   2.703   6.720  13.503
  130CHL1    H615816   2.704   6.812  13.442
  130CHL1    C715817   2.689   6.739  13.651
  130CHL1   H7A15818   2.756   6.820  13.689
  130CHL1   H7B15819   2.585   6.770  13.672
  130CHL1    C815820   2.716   6.610  13.732
  130CHL1    H815821   2.826   6.598  13.744
  130CHL1   C1415822   2.649   6.622  13.868
  130CHL1   H1415823   2.539   6.624  13.847
  130CHL1   C1515824   2.676   6.748  13.950
  130CHL1  H15A15825   2.784   6.768  13.945
  130CHL1  H15B15826   2.620   6.837  13.913
  130CHL1   C1615827   2.635   6.708  14.093
  130CHL1  H16A15828   2.721   6.726  14.160
  130CHL1  H16B15829   2.549   6.768  14.129
  130CHL1   C1715830   2.599   6.556  14.088
  130CHL1   H1715831   2.490   6.550  14.067
  130CHL1   C1315832   2.671   6.504  13.962
  130CHL1   C1815833   2.822   6.487  13.995
  130CHL1  H18A15834   2.837   6.402  14.064
  130CHL1  H18B15835   2.882   6.465  13.904
  130CHL1  H18C15836   2.864   6.576  14.043
  130CHL1   C1215837   2.610   6.382  13.892
  130CHL1  H12A15838   2.626   6.292  13.953
  130CHL1  H12B15839   2.501   6.397  13.881
  130CHL1   C1115840   2.672   6.359  13.753
  130CHL1  H11A15841   2.779   6.333  13.766
  130CHL1  H11B15842   2.622   6.272  13.706
  130CHL1    C915843   2.660   6.485  13.663
  130CHL1    H915844   2.550   6.504  13.656
  130CHL1   C1015845   2.708   6.465  13.517
  130CHL1   C1915846   2.852   6.408  13.520
  130CHL1  H19A15847   2.853   6.306  13.564
  130CHL1  H19B15848   2.894   6.398  13.417
  130CHL1  H19C15849   2.919   6.472  13.580
  130CHL1    C115850   2.614   6.362  13.449
  130CHL1   H1A15851   2.639   6.259  13.483
  130CHL1   H1B15852   2.510   6.383  13.481
  130CHL1    C215853   2.613   6.365  13.295
  130CHL1   H2A15854   2.532   6.299  13.256
  130CHL1   H2B15855   2.709   6.326  13.256
  130CHL1   C2015856   2.625   6.484  14.220
  130CHL1   H2015857   2.735   6.477  14.235
  130CHL1   C2115858   2.566   6.342  14.220
  130CHL1  H21A15859   2.570   6.298  14.323
  130CHL1  H21B15860   2.624   6.275  14.155
  130CHL1  H21C15861   2.460   6.343  14.188
  130CHL1   C2215862   2.572   6.558  14.344
  130CHL1  H22A15863   2.567   6.668  14.331
  130CHL1  H22B15864   2.468   6.524  14.366
  130CHL1   C2315865   2.663   6.531  14.464
  130CHL1  H23A15866   2.690   6.423  14.467
  130CHL1  H23B15867   2.758   6.588  14.449
  130CHL1   C2415868   2.599   6.572  14.596
  130CHL1  H24A15869   2.562   6.676  14.588
  130CHL1  H24B15870   2.510   6.507  14.615
  130CHL1   C2515871   2.698   6.562  14.713
  130CHL1   H2515872   2.788   6.620  14.686
  130CHL1   C2615873   2.636   6.623  14.837
  130CHL1  H26A15874   2.544   6.568  14.865
  130CHL1  H26B15875   2.706   6.623  14.923
  130CHL1  H26C15876   2.607   6.728  14.815
  130CHL1   C2715877   2.743   6.418  14.741
  130CHL1  H27A15878   2.793   6.414  14.840
  130CHL1  H27B15879   2.657   6.350  14.742
  130CHL1  H27C15880   2.814   6.384  14.663
  131CHL1    C315881   0.890   5.107  13.258
  131CHL1    H315882   0.922   5.001  13.253
  131CHL1    O315883   0.854   5.152  13.129
  131CHL1   H3'15884   0.935   5.149  13.078
  131CHL1    C415885   0.769   5.115  13.352
  131CHL1   H4A15886   0.719   5.214  13.343
  131CHL1   H4B15887   0.693   5.042  13.317
  131CHL1    C515888   0.809   5.090  13.495
  131CHL1    C615889   0.754   4.994  13.570
  131CHL1    H615890   0.675   4.929  13.528
  131CHL1    C715891   0.789   4.975  13.714
  131CHL1   H7A15892   0.699   4.944  13.771
  131CHL1   H7B15893   0.864   4.893  13.721
  131CHL1    C815894   0.851   5.104  13.776
  131CHL1    H815895   0.772   5.182  13.778
  131CHL1   C1415896   0.902   5.078  13.915
  131CHL1   H1415897   0.984   5.002  13.905
  131CHL1   C1515898   0.799   5.015  14.004
  131CHL1  H15A15899   0.698   5.062  13.993
  131CHL1  H15B15900   0.795   4.915  13.962
  131CHL1   C1615901   0.855   5.030  14.144
  131CHL1  H16A15902   0.775   5.074  14.208
  131CHL1  H16B15903   0.890   4.935  14.188
  131CHL1   C1715904   0.976   5.126  14.134
  131CHL1   H1715905   1.067   5.062  14.127
  131CHL1   C1315906   0.961   5.192  13.994
  131CHL1   C1815907   0.854   5.303  14.005
  131CHL1  H18A15908   0.756   5.266  14.040
  131CHL1  H18B15909   0.886   5.376  14.080
  131CHL1  H18C15910   0.839   5.354  13.907
  131CHL1   C1215911   1.088   5.232  13.916
  131CHL1  H12A15912   1.132   5.324  13.959
  131CHL1  H12B15913   1.163   5.150  13.925
  131CHL1   C1115914   1.058   5.255  13.765
  131CHL1  H11A15915   1.008   5.352  13.762
  131CHL1  H11B15916   1.154   5.265  13.710
  131CHL1    C915917   0.968   5.149  13.692
  131CHL1    H915918   1.033   5.058  13.683
  131CHL1   C1015919   0.920   5.182  13.548
  131CHL1   C1915920   0.853   5.322  13.543
  131CHL1  H19A15921   0.909   5.397  13.600
  131CHL1  H19B15922   0.846   5.360  13.439
  131CHL1  H19C15923   0.751   5.320  13.586
  131CHL1    C115924   1.041   5.164  13.452
  131CHL1   H1A15925   1.126   5.228  13.486
  131CHL1   H1B15926   1.075   5.058  13.460
  131CHL1    C215927   1.010   5.191  13.305
  131CHL1   H2A15928   1.099   5.165  13.244
  131CHL1   H2B15929   0.988   5.298  13.288
  131CHL1   C2015930   0.987   5.209  14.263
  131CHL1   H2015931   0.896   5.273  14.273
  131CHL1   C2115932   1.109   5.303  14.254
  131CHL1  H21A15933   1.099   5.374  14.170
  131CHL1  H21B15934   1.202   5.244  14.241
  131CHL1  H21C15935   1.118   5.362  14.348
  131CHL1   C2215936   0.998   5.123  14.392
  131CHL1  H22A15937   1.048   5.026  14.369
  131CHL1  H22B15938   1.064   5.177  14.463
  131CHL1   C2315939   0.866   5.097  14.468
  131CHL1  H23A15940   0.807   5.191  14.475
  131CHL1  H23B15941   0.806   5.023  14.412
  131CHL1   C2415942   0.890   5.044  14.611
  131CHL1  H24A15943   0.951   4.952  14.603
  131CHL1  H24B15944   0.948   5.118  14.670
  131CHL1   C2515945   0.761   5.006  14.686
  131CHL1   H2515946   0.690   5.093  14.683
  131CHL1   C2615947   0.698   4.887  14.614
  131CHL1  H26A15948   0.630   4.922  14.533
  131CHL1  H26B15949   0.776   4.822  14.571
  131CHL1  H26C15950   0.641   4.823  14.684
  131CHL1   C2715951   0.786   4.971  14.834
  131CHL1  H27A15952   0.843   4.876  14.842
  131CHL1  H27B15953   0.842   5.051  14.885
  131CHL1  H27C15954   0.689   4.958  14.887
  132CHL1    C315955   3.806   7.081  13.246
  132CHL1    H315956   3.777   7.187  13.264
  132CHL1    O315957   3.803   7.054  13.105
  132CHL1   H3'15958   3.739   7.114  13.063
  132CHL1    C415959   3.949   7.057  13.299
  132CHL1   H4A15960   3.982   6.957  13.262
  132CHL1   H4B15961   4.016   7.131  13.249
  132CHL1    C515962   3.963   7.062  13.450
  132CHL1    C615963   4.052   7.142  13.511
  132CHL1    H615964   4.119   7.204  13.450
  132CHL1    C715965   4.074   7.148  13.660
  132CHL1   H7A15966   4.182   7.146  13.684
  132CHL1   H7B15967   4.033   7.244  13.699
  132CHL1    C815968   4.005   7.033  13.738
  132CHL1    H815969   4.066   6.941  13.725
  132CHL1   C1415970   3.996   7.067  13.887
  132CHL1   H1415971   3.928   7.157  13.891
  132CHL1   C1515972   4.122   7.112  13.961
  132CHL1  H15A15973   4.205   7.041  13.942
  132CHL1  H15B15974   4.154   7.214  13.931
  132CHL1   C1615975   4.080   7.106  14.109
  132CHL1  H16A15976   4.158   7.052  14.167
  132CHL1  H16B15977   4.069   7.208  14.152
  132CHL1   C1715978   3.943   7.032  14.115
  132CHL1   H1715979   3.865   7.111  14.116
  132CHL1   C1315980   3.929   6.963  13.977
  132CHL1   C1815981   4.006   6.829  13.977
  132CHL1  H18A15982   4.016   6.788  13.874
  132CHL1  H18B15983   4.108   6.841  14.020
  132CHL1  H18C15984   3.951   6.754  14.038
  132CHL1   C1215985   3.787   6.946  13.922
  132CHL1  H12A15986   3.728   6.871  13.979
  132CHL1  H12B15987   3.739   7.045  13.934
  132CHL1   C1115988   3.783   6.909  13.772
  132CHL1  H11A15989   3.823   6.806  13.762
  132CHL1  H11B15990   3.677   6.909  13.739
  132CHL1    C915991   3.864   7.008  13.682
  132CHL1    H915992   3.811   7.106  13.692
  132CHL1   C1015993   3.862   6.976  13.529
  132CHL1   C1915994   3.901   6.828  13.511
  132CHL1  H19A15995   3.824   6.761  13.554
  132CHL1  H19B15996   3.909   6.801  13.403
  132CHL1  H19C15997   3.998   6.806  13.560
  132CHL1    C115998   3.719   7.002  13.471
  132CHL1   H1A15999   3.649   6.930  13.518
  132CHL1   H1B16000   3.687   7.104  13.501
  132CHL1    C216001   3.706   6.989  13.318
  132CHL1   H2A16002   3.603   7.015  13.286
  132CHL1   H2B16003   3.725   6.884  13.288
  132CHL1   C2016004   3.926   6.951  14.245
  132CHL1   H2016005   4.003   6.870  14.246
  132CHL1   C2116006   3.788   6.884  14.255
  132CHL1  H21A16007   3.778   6.826  14.349
  132CHL1  H21B16008   3.769   6.814  14.171
  132CHL1  H21C16009   3.711   6.963  14.254
  132CHL1   C2216010   3.949   7.036  14.373
  132CHL1  H22A16011   3.957   6.966  14.460
  132CHL1  H22B16012   4.047   7.088  14.366
  132CHL1   C2316013   3.840   7.141  14.406
  132CHL1  H23A16014   3.815   7.197  14.314
  132CHL1  H23B16015   3.747   7.090  14.440
  132CHL1   C2416016   3.885   7.244  14.512
  132CHL1  H24A16017   3.978   7.293  14.474
  132CHL1  H24B16018   3.809   7.324  14.520
  132CHL1   C2516019   3.914   7.188  14.653
  132CHL1   H2516020   3.981   7.100  14.642
  132CHL1   C2616021   3.988   7.295  14.735
  132CHL1  H26A16022   4.015   7.254  14.835
  132CHL1  H26B16023   4.081   7.326  14.684
  132CHL1  H26C16024   3.924   7.384  14.750
  132CHL1   C2716025   3.787   7.142  14.728
  132CHL1  H27A16026   3.730   7.068  14.668
  132CHL1  H27B16027   3.814   7.095  14.824
  132CHL1  H27C16028   3.721   7.229  14.750
  133CHL1    C316029   0.890   2.419  13.224
  133CHL1    H316030   0.965   2.337  13.211
  133CHL1    O316031   0.842   2.460  13.097
  133CHL1   H3'16032   0.905   2.423  13.032
  133CHL1    C416033   0.770   2.367  13.305
  133CHL1   H4A16034   0.692   2.445  13.298
  133CHL1   H4B16035   0.731   2.278  13.252
  133CHL1    C516036   0.795   2.341  13.452
  133CHL1    C616037   0.761   2.224  13.508
  133CHL1    H616038   0.713   2.146  13.447
  133CHL1    C716039   0.774   2.196  13.654
  133CHL1   H7A16040   0.679   2.152  13.694
  133CHL1   H7B16041   0.855   2.122  13.672
  133CHL1    C816042   0.804   2.324  13.736
  133CHL1    H816043   0.709   2.381  13.745
  133CHL1   C1416044   0.850   2.284  13.873
  133CHL1   H1416045   0.948   2.231  13.859
  133CHL1   C1516046   0.761   2.186  13.951
  133CHL1  H15A16047   0.656   2.221  13.949
  133CHL1  H15B16048   0.765   2.082  13.911
  133CHL1   C1616049   0.818   2.195  14.092
  133CHL1  H16A16050   0.735   2.206  14.164
  133CHL1  H16B16051   0.877   2.105  14.118
  133CHL1   C1716052   0.912   2.320  14.092
  133CHL1   H1716053   1.016   2.282  14.077
  133CHL1   C1316054   0.879   2.400  13.967
  133CHL1   C1816055   0.752   2.486  13.995
  133CHL1  H18A16056   0.673   2.426  14.045
  133CHL1  H18B16057   0.776   2.571  14.061
  133CHL1  H18C16058   0.711   2.527  13.901
  133CHL1   C1216059   0.993   2.482  13.905
  133CHL1  H12A16060   1.018   2.570  13.967
  133CHL1  H12B16061   1.083   2.418  13.901
  133CHL1   C1116062   0.957   2.528  13.762
  133CHL1  H11A16063   0.878   2.605  13.774
  133CHL1  H11B16064   1.045   2.578  13.717
  133CHL1    C916065   0.910   2.412  13.669
  133CHL1    H916066   0.999   2.346  13.656
  133CHL1   C1016067   0.867   2.455  13.527
  133CHL1   C1916068   0.771   2.576  13.542
  133CHL1  H19A16069   0.693   2.549  13.615
  133CHL1  H19B16070   0.823   2.666  13.579
  133CHL1  H19C16071   0.721   2.604  13.448
  133CHL1    C116072   0.989   2.498  13.442
  133CHL1   H1A16073   1.041   2.583  13.492
  133CHL1   H1B16074   1.059   2.411  13.438
  133CHL1    C216075   0.955   2.537  13.296
  133CHL1   H2A16076   1.047   2.569  13.242
  133CHL1   H2B16077   0.885   2.622  13.298
  133CHL1   C2016078   0.909   2.389  14.227
  133CHL1   H2016079   0.805   2.421  14.252
  133CHL1   C2116080   1.000   2.513  14.232
  133CHL1  H21A16081   1.004   2.558  14.333
  133CHL1  H21B16082   0.961   2.592  14.164
  133CHL1  H21C16083   1.103   2.487  14.201
  133CHL1   C2216084   0.954   2.287  14.330
  133CHL1  H22A16085   0.883   2.201  14.333
  133CHL1  H22B16086   1.055   2.246  14.306
  133CHL1   C2316087   0.953   2.345  14.469
  133CHL1  H23A16088   1.046   2.405  14.485
  133CHL1  H23B16089   0.866   2.413  14.479
  133CHL1   C2416090   0.942   2.229  14.567
  133CHL1  H24A16091   0.840   2.186  14.559
  133CHL1  H24B16092   1.016   2.150  14.541
  133CHL1   C2516093   0.966   2.276  14.709
  133CHL1   H2516094   0.951   2.187  14.773
  133CHL1   C2616095   1.113   2.322  14.724
  133CHL1  H26A16096   1.125   2.428  14.698
  133CHL1  H26B16097   1.150   2.306  14.827
  133CHL1  H26C16098   1.178   2.264  14.654
  133CHL1   C2716099   0.858   2.382  14.740
  133CHL1  H27A16100   0.875   2.476  14.684
  133CHL1  H27B16101   0.757   2.345  14.711
  133CHL1  H27C16102   0.855   2.407  14.847
  134CHL1    C316103   6.915   2.501  13.223
  134CHL1    H316104   7.001   2.429  13.228
  134CHL1    O316105   6.868   2.506  13.090
  134CHL1   H3'16106   6.833   2.416  13.073
  134CHL1    C416107   6.800   2.454  13.312
  134CHL1   H4A16108   6.718   2.529  13.308
  134CHL1   H4B16109   6.758   2.359  13.272
  134CHL1    C516110   6.852   2.439  13.453
  134CHL1    C616111   6.854   2.318  13.509
  134CHL1    H616112   6.811   2.231  13.456
  134CHL1    C716113   6.905   2.296  13.647
  134CHL1   H7A16114   6.838   2.228  13.700
  134CHL1   H7B16115   7.007   2.250  13.644
  134CHL1    C816116   6.910   2.426  13.730
  134CHL1    H816117   6.804   2.455  13.750
  134CHL1   C1416118   6.981   2.400  13.860
  134CHL1   H1416119   7.087   2.375  13.834
  134CHL1   C1516120   6.930   2.280  13.939
  134CHL1  H15A16121   6.819   2.281  13.940
  134CHL1  H15B16122   6.965   2.186  13.892
  134CHL1   C1616123   6.985   2.303  14.079
  134CHL1  H16A16124   6.900   2.293  14.150
  134CHL1  H16B16125   7.065   2.233  14.108
  134CHL1   C1716126   7.045   2.447  14.080
  134CHL1   H1716127   7.154   2.435  14.059
  134CHL1   C1316128   6.985   2.517  13.956
  134CHL1   C1816129   6.843   2.566  13.994
  134CHL1  H18A16130   6.784   2.486  14.044
  134CHL1  H18B16131   6.849   2.653  14.062
  134CHL1  H18C16132   6.786   2.599  13.905
  134CHL1   C1216133   7.068   2.626  13.885
  134CHL1  H12A16134   7.072   2.718  13.947
  134CHL1  H12B16135   7.171   2.589  13.871
  134CHL1   C1116136   7.007   2.661  13.747
  134CHL1  H11A16137   6.911   2.713  13.769
  134CHL1  H11B16138   7.072   2.734  13.695
  134CHL1    C916139   6.980   2.538  13.654
  134CHL1    H916140   7.081   2.497  13.629
  134CHL1   C1016141   6.910   2.567  13.519
  134CHL1   C1916142   6.791   2.662  13.547
  134CHL1  H19A16143   6.730   2.681  13.456
  134CHL1  H19B16144   6.725   2.619  13.625
  134CHL1  H19C16145   6.827   2.762  13.580
  134CHL1    C116146   7.011   2.632  13.420
  134CHL1   H1A16147   7.034   2.734  13.456
  134CHL1   H1B16148   7.106   2.573  13.422
  134CHL1    C216149   6.963   2.639  13.273
  134CHL1   H2A16150   7.045   2.678  13.208
  134CHL1   H2B16151   6.878   2.710  13.268
  134CHL1   C2016152   7.031   2.510  14.219
  134CHL1   H2016153   6.924   2.535  14.238
  134CHL1   C2116154   7.114   2.639  14.227
  134CHL1  H21A16155   7.107   2.685  14.327
  134CHL1  H21B16156   7.079   2.715  14.154
  134CHL1  H21C16157   7.221   2.615  14.208
  134CHL1   C2216158   7.074   2.412  14.330
  134CHL1  H22A16159   7.010   2.321  14.327
  134CHL1  H22B16160   7.179   2.379  14.313
  134CHL1   C2316161   7.059   2.467  14.471
  134CHL1  H23A16162   7.140   2.540  14.493
  134CHL1  H23B16163   6.961   2.520  14.480
  134CHL1   C2416164   7.062   2.353  14.573
  134CHL1  H24A16165   6.978   2.282  14.555
  134CHL1  H24B16166   7.157   2.297  14.558
  134CHL1   C2516167   7.056   2.402  14.718
  134CHL1   H2516168   7.136   2.480  14.729
  134CHL1   C2616169   6.921   2.462  14.758
  134CHL1  H26A16170   6.925   2.499  14.863
  134CHL1  H26B16171   6.894   2.547  14.692
  134CHL1  H26C16172   6.841   2.385  14.751
  134CHL1   C2716173   7.089   2.287  14.813
  134CHL1  H27A16174   7.119   2.329  14.911
  134CHL1  H27B16175   7.003   2.219  14.827
  134CHL1  H27C16176   7.174   2.228  14.772
  135CHL1    C316177   7.199   3.203  13.247
  135CHL1    H316178   7.259   3.111  13.263
  135CHL1    O316179   7.176   3.216  13.108
  135CHL1   H3'16180   7.120   3.141  13.087
  135CHL1    C416181   7.064   3.191  13.320
  135CHL1   H4A16182   7.004   3.281  13.295
  135CHL1   H4B16183   7.008   3.104  13.278
  135CHL1    C516184   7.080   3.180  13.470
  135CHL1    C616185   7.032   3.075  13.538
  135CHL1    H616186   6.978   2.996  13.485
  135CHL1    C716187   7.042   3.060  13.688
  135CHL1   H7A16188   6.943   3.033  13.730
  135CHL1   H7B16189   7.112   2.977  13.711
  135CHL1    C816190   7.093   3.188  13.760
  135CHL1    H816191   7.007   3.259  13.769
  135CHL1   C1416192   7.144   3.152  13.899
  135CHL1   H1416193   7.231   3.084  13.882
  135CHL1   C1516194   7.050   3.071  13.991
  135CHL1  H15A16195   6.947   3.115  13.987
  135CHL1  H15B16196   7.045   2.965  13.962
  135CHL1   C1616197   7.109   3.092  14.131
  135CHL1  H16A16198   7.031   3.137  14.195
  135CHL1  H16B16199   7.142   2.996  14.177
  135CHL1   C1716200   7.229   3.191  14.115
  135CHL1   H1716201   7.318   3.127  14.092
  135CHL1   C1316202   7.198   3.267  13.984
  135CHL1   C1816203   7.087   3.372  14.014
  135CHL1  H18A16204   7.129   3.455  14.073
  135CHL1  H18B16205   7.046   3.414  13.920
  135CHL1  H18C16206   7.002   3.327  14.070
  135CHL1   C1216207   7.315   3.329  13.904
  135CHL1  H12A16208   7.354   3.420  13.955
  135CHL1  H12B16209   7.397   3.255  13.897
  135CHL1   C1116210   7.272   3.370  13.761
  135CHL1  H11A16211   7.202   3.456  13.771
  135CHL1  H11B16212   7.362   3.407  13.707
  135CHL1    C916213   7.205   3.256  13.680
  135CHL1    H916214   7.283   3.177  13.669
  135CHL1   C1016215   7.162   3.293  13.535
  135CHL1   C1916216   7.072   3.418  13.538
  135CHL1  H19A16217   6.984   3.404  13.603
  135CHL1  H19B16218   7.132   3.502  13.576
  135CHL1  H19C16219   7.038   3.446  13.436
  135CHL1    C116220   7.289   3.327  13.450
  135CHL1   H1A16221   7.325   3.428  13.480
  135CHL1   H1B16222   7.368   3.255  13.474
  135CHL1    C216223   7.274   3.326  13.297
  135CHL1   H2A16224   7.375   3.328  13.249
  135CHL1   H2B16225   7.220   3.418  13.264
  135CHL1   C2016226   7.263   3.268  14.244
  135CHL1   H2016227   7.180   3.337  14.270
  135CHL1   C2116228   7.391   3.351  14.224
  135CHL1  H21A16229   7.426   3.393  14.320
  135CHL1  H21B16230   7.371   3.438  14.157
  135CHL1  H21C16231   7.472   3.289  14.180
  135CHL1   C2216232   7.284   3.174  14.367
  135CHL1  H22A16233   7.315   3.074  14.332
  135CHL1  H22B16234   7.367   3.213  14.429
  135CHL1   C2316235   7.161   3.161  14.459
  135CHL1  H23A16236   7.151   3.254  14.520
  135CHL1  H23B16237   7.070   3.154  14.397
  135CHL1   C2416238   7.168   3.038  14.552
  135CHL1  H24A16239   7.190   2.948  14.491
  135CHL1  H24B16240   7.253   3.052  14.623
  135CHL1   C2516241   7.039   3.013  14.633
  135CHL1   H2516242   7.013   3.108  14.686
  135CHL1   C2616243   6.921   2.974  14.542
  135CHL1  H26A16244   6.897   3.056  14.471
  135CHL1  H26B16245   6.946   2.883  14.484
  135CHL1  H26C16246   6.830   2.954  14.603
  135CHL1   C2716247   7.060   2.904  14.739
  135CHL1  H27A16248   6.967   2.889  14.798
  135CHL1  H27B16249   7.086   2.807  14.691
  135CHL1  H27C16250   7.142   2.932  14.809
  136CHL1    C316251   5.522   0.452  13.254
  136CHL1    H316252   5.416   0.468  13.285
  136CHL1    O316253   5.528   0.434  13.114
  136CHL1   H3'16254   5.531   0.524  13.080
  136CHL1    C416255   5.606   0.575  13.287
  136CHL1   H4A16256   5.711   0.557  13.253
  136CHL1   H4B16257   5.568   0.661  13.227
  136CHL1    C516258   5.603   0.605  13.435
  136CHL1    C616259   5.564   0.725  13.480
  136CHL1    H616260   5.542   0.806  13.409
  136CHL1    C716261   5.553   0.759  13.626
  136CHL1   H7A16262   5.602   0.857  13.647
  136CHL1   H7B16263   5.446   0.770  13.651
  136CHL1    C816264   5.615   0.652  13.719
  136CHL1    H816265   5.724   0.670  13.723
  136CHL1   C1416266   5.554   0.665  13.856
  136CHL1   H1416267   5.444   0.643  13.843
  136CHL1   C1516268   5.558   0.802  13.924
  136CHL1  H15A16269   5.663   0.836  13.929
  136CHL1  H15B16270   5.497   0.879  13.873
  136CHL1   C1616271   5.506   0.769  14.064
  136CHL1  H16A16272   5.554   0.835  14.138
  136CHL1  H16B16273   5.396   0.786  14.068
  136CHL1   C1716274   5.531   0.615  14.085
  136CHL1   H1716275   5.430   0.568  14.083
  136CHL1   C1316276   5.605   0.565  13.959
  136CHL1   C1816277   5.758   0.578  13.976
  136CHL1  H18A16278   5.797   0.504  14.048
  136CHL1  H18B16279   5.813   0.563  13.881
  136CHL1  H18C16280   5.785   0.679  14.012
  136CHL1   C1216281   5.567   0.424  13.910
  136CHL1  H12A16282   5.605   0.346  13.979
  136CHL1  H12B16283   5.457   0.416  13.905
  136CHL1   C1116284   5.625   0.398  13.770
  136CHL1  H11A16285   5.735   0.389  13.778
  136CHL1  H11B16286   5.587   0.300  13.736
  136CHL1    C916287   5.586   0.510  13.669
  136CHL1    H916288   5.474   0.504  13.663
  136CHL1   C1016289   5.636   0.485  13.525
  136CHL1   C1916290   5.791   0.475  13.528
  136CHL1  H19A16291   5.835   0.564  13.576
  136CHL1  H19B16292   5.825   0.385  13.583
  136CHL1  H19C16293   5.833   0.468  13.425
  136CHL1    C116294   5.574   0.350  13.476
  136CHL1   H1A16295   5.625   0.266  13.527
  136CHL1   H1B16296   5.467   0.349  13.506
  136CHL1    C216297   5.577   0.328  13.324
  136CHL1   H2A16298   5.516   0.239  13.299
  136CHL1   H2B16299   5.681   0.309  13.291
  136CHL1   C2016300   5.594   0.579  14.218
  136CHL1   H2016301   5.701   0.610  14.219
  136CHL1   C2116302   5.586   0.425  14.239
  136CHL1  H21A16303   5.608   0.397  14.344
  136CHL1  H21B16304   5.661   0.373  14.177
  136CHL1  H21C16305   5.485   0.388  14.214
  136CHL1   C2216306   5.530   0.650  14.339
  136CHL1  H22A16307   5.505   0.756  14.319
  136CHL1  H22B16308   5.436   0.598  14.366
  136CHL1   C2316309   5.633   0.651  14.451
  136CHL1  H23A16310   5.670   0.548  14.471
  136CHL1  H23B16311   5.718   0.710  14.410
  136CHL1   C2416312   5.588   0.714  14.583
  136CHL1  H24A16313   5.669   0.700  14.658
  136CHL1  H24B16314   5.574   0.823  14.569
  136CHL1   C2516315   5.459   0.651  14.638
  136CHL1   H2516316   5.379   0.659  14.561
  136CHL1   C2616317   5.478   0.503  14.675
  136CHL1  H26A16318   5.559   0.492  14.750
  136CHL1  H26B16319   5.384   0.462  14.718
  136CHL1  H26C16320   5.504   0.442  14.586
  136CHL1   C2716321   5.414   0.731  14.759
  136CHL1  H27A16322   5.328   0.683  14.810
  136CHL1  H27B16323   5.500   0.737  14.830
  136CHL1  H27C16324   5.386   0.835  14.731
  137CHL1    C316325   0.396   1.697  13.253
  137CHL1    H316326   0.360   1.592  13.255
  137CHL1    O316327   0.396   1.738  13.119
  137CHL1   H3'16328   0.451   1.817  13.121
  137CHL1    C416329   0.303   1.790  13.332
  137CHL1   H4A16330   0.334   1.896  13.316
  137CHL1   H4B16331   0.200   1.780  13.291
  137CHL1    C516332   0.309   1.757  13.479
  137CHL1    C616333   0.197   1.726  13.547
  137CHL1    H616334   0.100   1.727  13.495
  137CHL1    C716335   0.194   1.692  13.693
  137CHL1   H7A16336   0.106   1.740  13.742
  137CHL1   H7B16337   0.185   1.582  13.707
  137CHL1    C816338   0.324   1.740  13.761
  137CHL1    H816339   0.318   1.849  13.767
  137CHL1   C1416340   0.335   1.685  13.901
  137CHL1   H1416341   0.361   1.577  13.886
  137CHL1   C1516342   0.210   1.678  13.991
  137CHL1  H15A16343   0.143   1.765  13.978
  137CHL1  H15B16344   0.153   1.585  13.969
  137CHL1   C1616345   0.268   1.675  14.133
  137CHL1  H16A16346   0.232   1.763  14.190
  137CHL1  H16B16347   0.239   1.582  14.187
  137CHL1   C1716348   0.423   1.680  14.116
  137CHL1   H1716349   0.452   1.580  14.085
  137CHL1   C1316350   0.452   1.744  13.981
  137CHL1   C1816351   0.442   1.896  13.999
  137CHL1  H18A16352   0.343   1.923  14.040
  137CHL1  H18B16353   0.521   1.935  14.066
  137CHL1  H18C16354   0.457   1.944  13.901
  137CHL1   C1216355   0.582   1.700  13.911
  137CHL1  H12A16356   0.670   1.748  13.957
  137CHL1  H12B16357   0.593   1.589  13.919
  137CHL1   C1116358   0.582   1.739  13.763
  137CHL1  H11A16359   0.599   1.848  13.766
  137CHL1  H11B16360   0.669   1.692  13.712
  137CHL1    C916361   0.451   1.701  13.685
  137CHL1    H916362   0.448   1.590  13.679
  137CHL1   C1016363   0.452   1.751  13.539
  137CHL1   C1916364   0.516   1.890  13.540
  137CHL1  H19A16365   0.496   1.946  13.447
  137CHL1  H19B16366   0.477   1.945  13.628
  137CHL1  H19C16367   0.626   1.884  13.550
  137CHL1    C116368   0.546   1.664  13.452
  137CHL1   H1A16369   0.650   1.677  13.488
  137CHL1   H1B16370   0.519   1.558  13.464
  137CHL1    C216371   0.541   1.704  13.303
  137CHL1   H2A16372   0.605   1.636  13.243
  137CHL1   H2B16373   0.579   1.807  13.290
  137CHL1   C2016374   0.501   1.720  14.243
  137CHL1   H2016375   0.498   1.830  14.254
  137CHL1   C2116376   0.648   1.675  14.231
  137CHL1  H21A16377   0.655   1.566  14.210
  137CHL1  H21B16378   0.704   1.697  14.323
  137CHL1  H21C16379   0.700   1.730  14.151
  137CHL1   C2216380   0.436   1.662  14.373
  137CHL1  H22A16381   0.341   1.717  14.392
  137CHL1  H22B16382   0.408   1.556  14.356
  137CHL1   C2316383   0.520   1.667  14.503
  137CHL1  H23A16384   0.614   1.609  14.489
  137CHL1  H23B16385   0.545   1.771  14.528
  137CHL1   C2416386   0.442   1.599  14.616
  137CHL1  H24A16387   0.341   1.645  14.622
  137CHL1  H24B16388   0.432   1.495  14.580
  137CHL1   C2516389   0.504   1.598  14.759
  137CHL1   H2516390   0.557   1.695  14.773
  137CHL1   C2616391   0.395   1.586  14.867
  137CHL1  H26A16392   0.316   1.662  14.852
  137CHL1  H26B16393   0.349   1.486  14.865
  137CHL1  H26C16394   0.439   1.601  14.968
  137CHL1   C2716395   0.603   1.483  14.779
  137CHL1  H27A16396   0.680   1.480  14.699
  137CHL1  H27B16397   0.654   1.493  14.878
  137CHL1  H27C16398   0.550   1.385  14.780
  138CHL1    C316399   6.840   1.059  13.215
  138CHL1    H316400   6.872   0.952  13.219
  138CHL1    O316401   6.798   1.089  13.084
  138CHL1   H3'16402   6.761   1.006  13.047
  138CHL1    C416403   6.720   1.082  13.306
  138CHL1   H4A16404   6.685   1.187  13.295
  138CHL1   H4B16405   6.636   1.019  13.269
  138CHL1    C516406   6.757   1.050  13.448
  138CHL1    C616407   6.685   0.960  13.515
  138CHL1    H616408   6.597   0.916  13.466
  138CHL1    C716409   6.708   0.928  13.659
  138CHL1   H7A16410   6.615   0.963  13.707
  138CHL1   H7B16411   6.720   0.819  13.674
  138CHL1    C816412   6.818   1.009  13.731
  138CHL1    H816413   6.760   1.098  13.759
  138CHL1   C1416414   6.888   0.942  13.852
  138CHL1   H1416415   6.974   0.882  13.810
  138CHL1   C1516416   6.818   0.838  13.942
  138CHL1  H15A16417   6.712   0.864  13.945
  138CHL1  H15B16418   6.827   0.734  13.903
  138CHL1   C1616419   6.881   0.855  14.082
  138CHL1  H16A16420   6.798   0.884  14.150
  138CHL1  H16B16421   6.925   0.761  14.120
  138CHL1   C1716422   6.989   0.968  14.074
  138CHL1   H1716423   7.085   0.916  14.052
  138CHL1   C1316424   6.950   1.046  13.945
  138CHL1   C1816425   6.837   1.146  13.987
  138CHL1  H18A16426   6.751   1.091  14.024
  138CHL1  H18B16427   6.866   1.215  14.067
  138CHL1  H18C16428   6.801   1.212  13.906
  138CHL1   C1216429   7.066   1.106  13.862
  138CHL1  H12A16430   7.121   1.185  13.915
  138CHL1  H12B16431   7.142   1.026  13.843
  138CHL1   C1116432   7.018   1.161  13.726
  138CHL1  H11A16433   6.957   1.251  13.752
  138CHL1  H11B16434   7.105   1.195  13.666
  138CHL1    C916435   6.929   1.064  13.642
  138CHL1    H916436   6.994   0.977  13.615
  138CHL1   C1016437   6.879   1.122  13.506
  138CHL1   C1916438   6.833   1.267  13.523
  138CHL1  H19A16439   6.747   1.276  13.592
  138CHL1  H19B16440   6.913   1.330  13.563
  138CHL1  H19C16441   6.808   1.311  13.425
  138CHL1    C116442   6.997   1.114  13.404
  138CHL1   H1A16443   7.078   1.182  13.438
  138CHL1   H1B16444   7.037   1.010  13.407
  138CHL1    C216445   6.958   1.146  13.258
  138CHL1   H2A16446   7.046   1.126  13.193
  138CHL1   H2B16447   6.932   1.253  13.249
  138CHL1   C2016448   7.010   1.056  14.202
  138CHL1   H2016449   6.914   1.107  14.225
  138CHL1   C2116450   7.116   1.162  14.172
  138CHL1  H21A16451   7.201   1.123  14.111
  138CHL1  H21B16452   7.156   1.209  14.264
  138CHL1  H21C16453   7.069   1.243  14.116
  138CHL1   C2216454   7.049   0.991  14.337
  138CHL1  H22A16455   6.995   0.896  14.350
  138CHL1  H22B16456   7.157   0.966  14.336
  138CHL1   C2316457   7.020   1.082  14.461
  138CHL1  H23A16458   7.107   1.149  14.480
  138CHL1  H23B16459   6.933   1.149  14.439
  138CHL1   C2416460   6.993   0.993  14.584
  138CHL1  H24A16461   6.910   0.922  14.563
  138CHL1  H24B16462   7.088   0.935  14.593
  138CHL1   C2516463   6.967   1.051  14.724
  138CHL1   H2516464   6.964   0.962  14.793
  138CHL1   C2616465   7.084   1.137  14.773
  138CHL1  H26A16466   7.181   1.086  14.756
  138CHL1  H26B16467   7.090   1.235  14.722
  138CHL1  H26C16468   7.075   1.154  14.882
  138CHL1   C2716469   6.829   1.117  14.741
  138CHL1  H27A16470   6.747   1.045  14.733
  138CHL1  H27B16471   6.822   1.165  14.842
  138CHL1  H27C16472   6.813   1.196  14.665
  139CHL1    C316473   0.141   6.557  13.261
  139CHL1    H316474   0.031   6.555  13.284
  139CHL1    O316475   0.159   6.583  13.124
  139CHL1   H3'16476   0.159   6.493  13.082
  139CHL1    C416477   0.207   6.673  13.337
  139CHL1   H4A16478   0.309   6.692  13.297
  139CHL1   H4B16479   0.150   6.765  13.312
  139CHL1    C516480   0.208   6.647  13.486
  139CHL1    C616481   0.165   6.740  13.570
  139CHL1    H616482   0.141   6.839  13.531
  139CHL1    C716483   0.154   6.717  13.717
  139CHL1   H7A16484   0.171   6.812  13.772
  139CHL1   H7B16485   0.052   6.680  13.742
  139CHL1    C816486   0.258   6.613  13.762
  139CHL1    H816487   0.355   6.664  13.744
  139CHL1   C1416488   0.240   6.576  13.907
  139CHL1   H1416489   0.153   6.506  13.914
  139CHL1   C1516490   0.205   6.688  14.003
  139CHL1  H15A16491   0.274   6.774  13.986
  139CHL1  H15B16492   0.101   6.722  13.992
  139CHL1   C1616493   0.229   6.624  14.139
  139CHL1  H16A16494   0.269   6.702  14.206
  139CHL1  H16B16495   0.134   6.585  14.182
  139CHL1   C1716496   0.327   6.505  14.117
  139CHL1   H1716497   0.270   6.412  14.138
  139CHL1   C1316498   0.360   6.503  13.966
  139CHL1   C1816499   0.488   6.585  13.942
  139CHL1  H18A16500   0.514   6.594  13.835
  139CHL1  H18B16501   0.475   6.686  13.985
  139CHL1  H18C16502   0.578   6.538  13.987
  139CHL1   C1216503   0.365   6.366  13.895
  139CHL1  H12A16504   0.456   6.311  13.926
  139CHL1  H12B16505   0.277   6.306  13.925
  139CHL1   C1116506   0.364   6.383  13.741
  139CHL1  H11A16507   0.466   6.420  13.717
  139CHL1  H11B16508   0.353   6.285  13.692
  139CHL1    C916509   0.255   6.482  13.684
  139CHL1    H916510   0.156   6.435  13.704
  139CHL1   C1016511   0.260   6.509  13.532
  139CHL1   C1916512   0.406   6.524  13.497
  139CHL1  H19A16513   0.457   6.606  13.552
  139CHL1  H19B16514   0.463   6.433  13.514
  139CHL1  H19C16515   0.414   6.540  13.389
  139CHL1    C116516   0.198   6.394  13.449
  139CHL1   H1A16517   0.254   6.301  13.471
  139CHL1   H1B16518   0.093   6.378  13.482
  139CHL1    C216519   0.201   6.420  13.297
  139CHL1   H2A16520   0.146   6.339  13.244
  139CHL1   H2B16521   0.306   6.417  13.261
  139CHL1   C2016522   0.443   6.511  14.218
  139CHL1   H2016523   0.501   6.604  14.202
  139CHL1   C2116524   0.536   6.389  14.205
  139CHL1  H21A16525   0.610   6.389  14.288
  139CHL1  H21B16526   0.594   6.387  14.111
  139CHL1  H21C16527   0.478   6.295  14.210
  139CHL1   C2216528   0.387   6.517  14.363
  139CHL1  H22A16529   0.306   6.593  14.372
  139CHL1  H22B16530   0.342   6.419  14.388
  139CHL1   C2316531   0.490   6.558  14.468
  139CHL1  H23A16532   0.562   6.475  14.483
  139CHL1  H23B16533   0.546   6.647  14.432
  139CHL1   C2416534   0.418   6.592  14.599
  139CHL1  H24A16535   0.357   6.684  14.584
  139CHL1  H24B16536   0.348   6.509  14.623
  139CHL1   C2516537   0.511   6.611  14.720
  139CHL1   H2516538   0.447   6.638  14.808
  139CHL1   C2616539   0.582   6.479  14.753
  139CHL1  H26A16540   0.659   6.457  14.677
  139CHL1  H26B16541   0.630   6.483  14.853
  139CHL1  H26C16542   0.509   6.395  14.753
  139CHL1   C2716543   0.611   6.725  14.698
  139CHL1  H27A16544   0.682   6.731  14.783
  139CHL1  H27B16545   0.671   6.708  14.606
  139CHL1  H27C16546   0.559   6.822  14.687
  140CHL1    C316547   7.201   0.442  13.257
  140CHL1    H316548   7.310   0.449  13.277
  140CHL1    O316549   7.182   0.447  13.115
  140CHL1   H3'16550   7.228   0.369  13.076
  140CHL1    C416551   7.143   0.311  13.313
  140CHL1   H4A16552   7.037   0.304  13.277
  140CHL1   H4B16553   7.196   0.225  13.265
  140CHL1    C516554   7.143   0.300  13.464
  140CHL1    C616555   7.196   0.193  13.526
  140CHL1    H616556   7.238   0.111  13.467
  140CHL1    C716557   7.189   0.171  13.674
  140CHL1   H7A16558   7.153   0.068  13.695
  140CHL1   H7B16559   7.290   0.180  13.719
  140CHL1    C816560   7.093   0.270  13.745
  140CHL1    H816561   6.989   0.236  13.726
  140CHL1   C1416562   7.121   0.267  13.894
  140CHL1   H1416563   7.229   0.297  13.902
  140CHL1   C1516564   7.110   0.131  13.961
  140CHL1  H15A16565   7.017   0.077  13.929
  140CHL1  H15B16566   7.198   0.075  13.927
  140CHL1   C1616567   7.107   0.162  14.111
  140CHL1  H16A16568   7.012   0.120  14.151
  140CHL1  H16B16569   7.190   0.115  14.168
  140CHL1   C1716570   7.113   0.318  14.118
  140CHL1   H1716571   7.221   0.342  14.105
  140CHL1   C1316572   7.044   0.362  13.983
  140CHL1   C1816573   6.893   0.324  13.971
  140CHL1  H18A16574   6.861   0.314  13.865
  140CHL1  H18B16575   6.867   0.229  14.021
  140CHL1  H18C16576   6.831   0.405  14.012
  140CHL1   C1216577   7.067   0.505  13.934
  140CHL1  H12A16578   7.003   0.574  13.993
  140CHL1  H12B16579   7.173   0.533  13.952
  140CHL1   C1116580   7.036   0.518  13.783
  140CHL1  H11A16581   6.926   0.505  13.771
  140CHL1  H11B16582   7.060   0.621  13.751
  140CHL1    C916583   7.111   0.413  13.694
  140CHL1    H916584   7.220   0.437  13.708
  140CHL1   C1016585   7.084   0.421  13.540
  140CHL1   C1916586   6.930   0.420  13.519
  140CHL1  H19A16587   6.883   0.335  13.573
  140CHL1  H19B16588   6.886   0.514  13.556
  140CHL1  H19C16589   6.902   0.410  13.413
  140CHL1    C116590   7.147   0.550  13.480
  140CHL1   H1A16591   7.097   0.637  13.527
  140CHL1   H1B16592   7.254   0.553  13.509
  140CHL1    C216593   7.135   0.562  13.326
  140CHL1   H2A16594   7.183   0.656  13.292
  140CHL1   H2B16595   7.028   0.565  13.297
  140CHL1   C2016596   7.082   0.381  14.255
  140CHL1   H2016597   7.142   0.326  14.332
  140CHL1   C2116598   6.934   0.348  14.276
  140CHL1  H21A16599   6.911   0.240  14.271
  140CHL1  H21B16600   6.869   0.402  14.205
  140CHL1  H21C16601   6.902   0.381  14.372
  140CHL1   C2216602   7.122   0.533  14.273
  140CHL1  H22A16603   7.206   0.549  14.201
  140CHL1  H22B16604   7.042   0.594  14.228
  140CHL1   C2316605   7.176   0.598  14.410
  140CHL1  H23A16606   7.282   0.624  14.387
  140CHL1  H23B16607   7.124   0.696  14.421
  140CHL1   C2416608   7.180   0.521  14.548
  140CHL1  H24A16609   7.081   0.470  14.555
  140CHL1  H24B16610   7.257   0.443  14.536
  140CHL1   C2516611   7.196   0.591  14.694
  140CHL1   H2516612   7.181   0.512  14.772
  140CHL1   C2616613   7.084   0.692  14.713
  140CHL1  H26A16614   6.990   0.646  14.747
  140CHL1  H26B16615   7.107   0.778  14.778
  140CHL1  H26C16616   7.075   0.734  14.612
  140CHL1   C2716617   7.323   0.670  14.736
  140CHL1  H27A16618   7.367   0.722  14.649
  140CHL1  H27B16619   7.294   0.750  14.807
  140CHL1  H27C16620   7.400   0.614  14.794
  141DOPC     N16621   3.837   2.866  17.029
  141DOPC   C1216622   3.942   2.755  17.033
  141DOPC  H12A16623   3.892   2.662  17.058
  141DOPC  H12B16624   4.013   2.774  17.112
  141DOPC   C1316625   3.761   2.862  16.899
  141DOPC  H13A16626   3.688   2.941  16.894
  141DOPC  H13B16627   3.832   2.882  16.818
  141DOPC  H13C16628   3.718   2.764  16.881
  141DOPC   C1416629   3.903   3.000  17.035
  141DOPC  H14A16630   3.959   3.014  16.942
  141DOPC  H14B16631   3.830   3.079  17.043
  141DOPC  H14C16632   3.975   3.006  17.115
  141DOPC   C1516633   3.744   2.853  17.145
  141DOPC  H15A16634   3.671   2.934  17.146
  141DOPC  H15B16635   3.799   2.863  17.238
  141DOPC  H15C16636   3.691   2.759  17.145
  141DOPC   C1116637   4.023   2.729  16.904
  141DOPC  H11A16638   4.080   2.635  16.913
  141DOPC  H11B16639   3.948   2.713  16.824
  141DOPC     P16640   4.107   2.909  16.737
  141DOPC   O1316641   4.230   2.990  16.720
  141DOPC   O1416642   3.977   2.980  16.730
  141DOPC   O1216643   4.113   2.836  16.877
  141DOPC   O1116644   4.107   2.784  16.637
  141DOPC    C116645   4.231   2.749  16.576
  141DOPC    HA16646   4.307   2.726  16.653
  141DOPC    HB16647   4.272   2.840  16.527
  141DOPC    C216648   4.226   2.634  16.468
  141DOPC    HS16649   4.328   2.588  16.467
  141DOPC   O2116650   4.200   2.686  16.341
  141DOPC   C2116651   4.285   2.768  16.292
  141DOPC   O2216652   4.396   2.795  16.336
  141DOPC   C2216653   4.219   2.816  16.168
  141DOPC   H2R16654   4.111   2.785  16.168
  141DOPC   H2S16655   4.265   2.764  16.083
  141DOPC    C316656   4.126   2.515  16.469
  141DOPC    HX16657   4.136   2.444  16.552
  141DOPC    HY16658   4.160   2.458  16.378
  141DOPC   O3116659   3.989   2.551  16.441
  141DOPC   C3116660   3.919   2.576  16.550
  141DOPC   O3216661   3.961   2.555  16.663
  141DOPC   C3216662   3.777   2.620  16.518
  141DOPC   H2X16663   3.725   2.628  16.616
  141DOPC   H2Y16664   3.777   2.722  16.474
  141DOPC   C2316665   4.224   2.968  16.158
  141DOPC   H3R16666   4.328   3.004  16.143
  141DOPC   H3S16667   4.185   3.014  16.252
  141DOPC   C2416668   4.132   3.002  16.044
  141DOPC   H4R16669   4.035   2.951  16.063
  141DOPC   H4S16670   4.172   2.961  15.949
  141DOPC   C2516671   4.099   3.150  16.031
  141DOPC   H5R16672   4.191   3.205  16.002
  141DOPC   H5S16673   4.065   3.188  16.129
  141DOPC   C2616674   3.987   3.167  15.928
  141DOPC   H6R16675   3.943   3.268  15.939
  141DOPC   H6S16676   3.907   3.091  15.946
  141DOPC   C2716677   4.036   3.150  15.783
  141DOPC   H7R16678   4.065   3.046  15.759
  141DOPC   H7S16679   4.130   3.205  15.777
  141DOPC   C2816680   3.945   3.215  15.679
  141DOPC   H8R16681   3.997   3.220  15.581
  141DOPC   H8S16682   3.922   3.320  15.709
  141DOPC   C2916683   3.823   3.129  15.677
  141DOPC   H9R16684   3.760   3.136  15.768
  141DOPC  C21016685   3.791   3.043  15.580
  141DOPC  H10R16686   3.700   2.981  15.592
  141DOPC  C21116687   3.871   3.018  15.454
  141DOPC  H11R16688   3.878   3.114  15.399
  141DOPC  H11S16689   3.813   2.949  15.389
  141DOPC  C21216690   4.016   2.961  15.463
  141DOPC  H12R16691   4.083   3.034  15.513
  141DOPC  H12S16692   4.051   2.950  15.357
  141DOPC  C21316693   4.028   2.825  15.534
  141DOPC  H13R16694   3.961   2.754  15.484
  141DOPC  H13S16695   3.991   2.841  15.637
  141DOPC  C21416696   4.164   2.754  15.544
  141DOPC  H14R16697   4.150   2.647  15.567
  141DOPC  H14S16698   4.219   2.799  15.630
  141DOPC  C21516699   4.250   2.766  15.418
  141DOPC  H15R16700   4.355   2.735  15.437
  141DOPC  H15S16701   4.246   2.872  15.389
  141DOPC  C21616702   4.213   2.694  15.291
  141DOPC  H16R16703   4.108   2.717  15.270
  141DOPC  H16S16704   4.227   2.586  15.310
  141DOPC  C21716705   4.306   2.731  15.175
  141DOPC  H17R16706   4.259   2.697  15.081
  141DOPC  H17S16707   4.399   2.671  15.186
  141DOPC  C21816708   4.352   2.876  15.159
  141DOPC  H18R16709   4.265   2.944  15.149
  141DOPC  H18S16710   4.418   2.885  15.070
  141DOPC  H18T16711   4.411   2.907  15.247
  141DOPC   C3316712   3.699   2.516  16.432
  141DOPC   H3X16713   3.590   2.536  16.441
  141DOPC   H3Y16714   3.720   2.415  16.473
  141DOPC   C3416715   3.734   2.513  16.283
  141DOPC   H4X16716   3.651   2.464  16.226
  141DOPC   H4Y16717   3.826   2.453  16.266
  141DOPC   C3516718   3.758   2.653  16.226
  141DOPC   H5X16719   3.858   2.689  16.259
  141DOPC   H5Y16720   3.682   2.724  16.267
  141DOPC   C3616721   3.751   2.658  16.075
  141DOPC   H6X16722   3.825   2.587  16.033
  141DOPC   H6Y16723   3.650   2.627  16.040
  141DOPC   C3716724   3.780   2.800  16.027
  141DOPC   H7X16725   3.718   2.873  16.085
  141DOPC   H7Y16726   3.886   2.822  16.052
  141DOPC   C3816727   3.755   2.820  15.878
  141DOPC   H8X16728   3.782   2.925  15.852
  141DOPC   H8Y16729   3.647   2.807  15.857
  141DOPC   C3916730   3.843   2.724  15.803
  141DOPC   H9X16731   3.949   2.728  15.833
  141DOPC  C31016732   3.808   2.638  15.706
  141DOPC  H10X16733   3.885   2.573  15.663
  141DOPC  C31116734   3.670   2.618  15.650
  141DOPC  H11X16735   3.592   2.668  15.710
  141DOPC  H11Y16736   3.650   2.510  15.660
  141DOPC  C31216737   3.654   2.663  15.502
  141DOPC  H12X16738   3.661   2.774  15.497
  141DOPC  H12Y16739   3.551   2.636  15.470
  141DOPC  C31316740   3.753   2.602  15.400
  141DOPC  H13X16741   3.824   2.681  15.371
  141DOPC  H13Y16742   3.810   2.521  15.450
  141DOPC  C31416743   3.686   2.551  15.272
  141DOPC  H14X16744   3.615   2.473  15.301
  141DOPC  H14Y16745   3.630   2.634  15.226
  141DOPC  C31516746   3.767   2.477  15.163
  141DOPC  H15X16747   3.695   2.468  15.078
  141DOPC  H15Y16748   3.788   2.372  15.193
  141DOPC  C31616749   3.895   2.543  15.112
  141DOPC  H16X16750   3.981   2.514  15.176
  141DOPC  H16Y16751   3.919   2.501  15.012
  141DOPC  C31716752   3.888   2.696  15.103
  141DOPC  H17X16753   3.784   2.728  15.084
  141DOPC  H17Y16754   3.917   2.738  15.201
  141DOPC  C31816755   3.979   2.754  14.995
  141DOPC  H18X16756   3.933   2.740  14.894
  141DOPC  H18Y16757   3.996   2.862  15.012
  141DOPC  H18Z16758   4.077   2.702  14.996
  142DOPC     N16759   4.435   3.266  16.974
  142DOPC   C1216760   4.485   3.284  16.831
  142DOPC  H12A16761   4.497   3.389  16.808
  142DOPC  H12B16762   4.413   3.246  16.760
  142DOPC   C1316763   4.312   3.346  17.004
  142DOPC  H13A16764   4.236   3.338  16.926
  142DOPC  H13B16765   4.265   3.317  17.097
  142DOPC  H13C16766   4.334   3.452  17.016
  142DOPC   C1416767   4.541   3.313  17.067
  142DOPC  H14A16768   4.634   3.258  17.053
  142DOPC  H14B16769   4.567   3.417  17.049
  142DOPC  H14C16770   4.513   3.308  17.172
  142DOPC   C1516771   4.409   3.120  16.993
  142DOPC  H15A16772   4.333   3.085  16.923
  142DOPC  H15B16773   4.378   3.095  17.093
  142DOPC  H15C16774   4.501   3.065  16.971
  142DOPC   C1116775   4.622   3.227  16.795
  142DOPC  H11A16776   4.629   3.122  16.831
  142DOPC  H11B16777   4.636   3.227  16.684
  142DOPC     P16778   4.865   3.259  16.863
  142DOPC   O1316779   4.853   3.113  16.886
  142DOPC   O1416780   4.933   3.343  16.963
  142DOPC   O1216781   4.717   3.315  16.853
  142DOPC   O1116782   4.914   3.300  16.716
  142DOPC    C116783   4.925   3.443  16.703
  142DOPC    HA16784   5.023   3.476  16.745
  142DOPC    HB16785   4.846   3.501  16.758
  142DOPC    C216786   4.920   3.486  16.555
  142DOPC    HS16787   4.944   3.595  16.552
  142DOPC   O2116788   4.793   3.468  16.493
  142DOPC   C2116789   4.690   3.529  16.542
  142DOPC   O2216790   4.686   3.615  16.627
  142DOPC   C2216791   4.572   3.470  16.467
  142DOPC   H2R16792   4.480   3.526  16.489
  142DOPC   H2S16793   4.563   3.364  16.502
  142DOPC    C316794   5.024   3.407  16.472
  142DOPC    HX16795   4.984   3.305  16.451
  142DOPC    HY16796   5.116   3.396  16.535
  142DOPC   O3116797   5.055   3.483  16.353
  142DOPC   C3116798   5.039   3.432  16.231
  142DOPC   O3216799   5.021   3.316  16.202
  142DOPC   C3216800   5.061   3.551  16.134
  142DOPC   H2X16801   5.047   3.643  16.194
  142DOPC   H2Y16802   5.168   3.548  16.106
  142DOPC   C2316803   4.588   3.472  16.315
  142DOPC   H3R16804   4.686   3.426  16.284
  142DOPC   H3S16805   4.586   3.577  16.277
  142DOPC   C2416806   4.476   3.390  16.254
  142DOPC   H4R16807   4.455   3.432  16.154
  142DOPC   H4S16808   4.384   3.398  16.316
  142DOPC   C2516809   4.518   3.244  16.238
  142DOPC   H5R16810   4.430   3.177  16.237
  142DOPC   H5S16811   4.586   3.214  16.320
  142DOPC   C2616812   4.590   3.234  16.105
  142DOPC   H6R16813   4.648   3.327  16.084
  142DOPC   H6S16814   4.509   3.221  16.033
  142DOPC   C2716815   4.680   3.114  16.083
  142DOPC   H7R16816   4.626   3.023  16.114
  142DOPC   H7S16817   4.769   3.127  16.149
  142DOPC   C2816818   4.722   3.110  15.935
  142DOPC   H8R16819   4.753   3.211  15.901
  142DOPC   H8S16820   4.634   3.078  15.875
  142DOPC   C2916821   4.833   3.013  15.919
  142DOPC   H9R16822   4.804   2.919  15.962
  142DOPC  C21016823   4.961   3.027  15.884
  142DOPC  H10R16824   5.026   2.939  15.885
  142DOPC  C21116825   5.028   3.156  15.852
  142DOPC  H11R16826   5.138   3.141  15.862
  142DOPC  H11S16827   5.001   3.229  15.932
  142DOPC  C21216828   5.000   3.222  15.716
  142DOPC  H12R16829   4.890   3.230  15.698
  142DOPC  H12S16830   5.043   3.165  15.633
  142DOPC  C21316831   5.061   3.362  15.727
  142DOPC  H13R16832   5.166   3.357  15.762
  142DOPC  H13S16833   5.006   3.401  15.813
  142DOPC  C21416834   5.047   3.465  15.616
  142DOPC  H14R16835   5.127   3.542  15.633
  142DOPC  H14S16836   4.950   3.517  15.626
  142DOPC  C21516837   5.054   3.416  15.472
  142DOPC  H15R16838   4.971   3.347  15.449
  142DOPC  H15S16839   5.149   3.361  15.457
  142DOPC  C21616840   5.052   3.538  15.380
  142DOPC  H16R16841   5.082   3.626  15.441
  142DOPC  H16S16842   4.950   3.557  15.341
  142DOPC  C21716843   5.155   3.528  15.267
  142DOPC  H17R16844   5.243   3.469  15.301
  142DOPC  H17S16845   5.194   3.629  15.245
  142DOPC  C21816846   5.096   3.469  15.140
  142DOPC  H18R16847   5.171   3.478  15.058
  142DOPC  H18S16848   5.004   3.525  15.111
  142DOPC  H18T16849   5.071   3.362  15.155
  142DOPC   C3316850   4.974   3.569  16.003
  142DOPC   H3X16851   5.044   3.546  15.921
  142DOPC   H3Y16852   4.953   3.677  15.990
  142DOPC   C3416853   4.839   3.492  15.996
  142DOPC   H4X16854   4.770   3.541  16.068
  142DOPC   H4Y16855   4.857   3.389  16.034
  142DOPC   C3516856   4.760   3.470  15.862
  142DOPC   H5X16857   4.659   3.436  15.891
  142DOPC   H5Y16858   4.805   3.387  15.805
  142DOPC   C3616859   4.744   3.584  15.759
  142DOPC   H6X16860   4.683   3.661  15.806
  142DOPC   H6Y16861   4.842   3.632  15.742
  142DOPC   C3716862   4.675   3.546  15.622
  142DOPC   H7X16863   4.689   3.633  15.555
  142DOPC   H7Y16864   4.737   3.470  15.571
  142DOPC   C3816865   4.517   3.513  15.635
  142DOPC   H8X16866   4.480   3.590  15.700
  142DOPC   H8Y16867   4.524   3.447  15.724
  142DOPC   C3916868   4.382   3.499  15.548
  142DOPC   H9X16869   4.342   3.599  15.526
  142DOPC  C31016870   4.300   3.401  15.490
  142DOPC  H10X16871   4.206   3.442  15.449
  142DOPC  C31116872   4.285   3.244  15.488
  142DOPC  H11X16873   4.210   3.246  15.405
  142DOPC  H11Y16874   4.224   3.208  15.571
  142DOPC  C31216875   4.363   3.113  15.425
  142DOPC  H12X16876   4.405   3.131  15.328
  142DOPC  H12Y16877   4.269   3.057  15.404
  142DOPC  C31316878   4.467   3.007  15.485
  142DOPC  H13X16879   4.480   2.991  15.591
  142DOPC  H13Y16880   4.409   2.916  15.480
  142DOPC  C31416881   4.610   2.971  15.420
  142DOPC  H14X16882   4.644   2.909  15.506
  142DOPC  H14Y16883   4.599   2.908  15.331
  142DOPC  C31516884   4.750   3.047  15.426
  142DOPC  H15X16885   4.798   3.033  15.526
  142DOPC  H15Y16886   4.742   3.156  15.425
  142DOPC  C31616887   4.853   3.034  15.312
  142DOPC  H16X16888   4.894   3.135  15.289
  142DOPC  H16Y16889   4.937   2.975  15.352
  142DOPC  C31716890   4.810   2.964  15.182
  142DOPC  H17X16891   4.903   2.948  15.124
  142DOPC  H17Y16892   4.772   2.865  15.213
  142DOPC  C31816893   4.708   3.027  15.087
  142DOPC  H18X16894   4.692   2.958  15.003
  142DOPC  H18Y16895   4.608   3.040  15.134
  142DOPC  H18Z16896   4.743   3.124  15.047
  143DOPC     N16897   2.534   3.764  17.074
  143DOPC   C1216898   2.669   3.698  17.048
  143DOPC  H12A16899   2.657   3.591  17.060
  143DOPC  H12B16900   2.741   3.730  17.122
  143DOPC   C1316901   2.425   3.677  17.020
  143DOPC  H13A16902   2.327   3.720  17.033
  143DOPC  H13B16903   2.445   3.664  16.914
  143DOPC  H13C16904   2.426   3.579  17.066
  143DOPC   C1416905   2.527   3.899  17.008
  143DOPC  H14A16906   2.600   3.966  17.054
  143DOPC  H14B16907   2.553   3.891  16.902
  143DOPC  H14C16908   2.430   3.945  17.017
  143DOPC   C1516909   2.509   3.783  17.218
  143DOPC  H15A16910   2.425   3.849  17.232
  143DOPC  H15B16911   2.593   3.833  17.265
  143DOPC  H15C16912   2.490   3.689  17.267
  143DOPC   C1116913   2.736   3.722  16.911
  143DOPC  H11A16914   2.749   3.832  16.895
  143DOPC  H11B16915   2.838   3.680  16.912
  143DOPC     P16916   2.644   3.736  16.670
  143DOPC   O1316917   2.771   3.738  16.596
  143DOPC   O1416918   2.583   3.864  16.707
  143DOPC   O1216919   2.662   3.657  16.807
  143DOPC   O1116920   2.539   3.651  16.590
  143DOPC    C116921   2.437   3.579  16.661
  143DOPC    HA16922   2.417   3.619  16.761
  143DOPC    HB16923   2.473   3.475  16.675
  143DOPC    C216924   2.299   3.580  16.589
  143DOPC    HS16925   2.230   3.521  16.653
  143DOPC   O2116926   2.306   3.521  16.460
  143DOPC   C2116927   2.346   3.398  16.455
  143DOPC   O2216928   2.365   3.320  16.546
  143DOPC   C2216929   2.370   3.368  16.307
  143DOPC   H2R16930   2.326   3.449  16.245
  143DOPC   H2S16931   2.317   3.273  16.285
  143DOPC    C316932   2.234   3.722  16.572
  143DOPC    HX16933   2.215   3.761  16.674
  143DOPC    HY16934   2.135   3.708  16.523
  143DOPC   O3116935   2.316   3.817  16.501
  143DOPC   C3116936   2.326   3.801  16.369
  143DOPC   O3216937   2.246   3.742  16.298
  143DOPC   C3216938   2.460   3.858  16.319
  143DOPC   H2X16939   2.533   3.851  16.401
  143DOPC   H2Y16940   2.492   3.789  16.241
  143DOPC   C2316941   2.520   3.350  16.274
  143DOPC   H3R16942   2.533   3.318  16.168
  143DOPC   H3S16943   2.557   3.272  16.342
  143DOPC   C2416944   2.622   3.455  16.311
  143DOPC   H4R16945   2.718   3.401  16.303
  143DOPC   H4S16946   2.611   3.490  16.416
  143DOPC   C2516947   2.634   3.571  16.214
  143DOPC   H5R16948   2.532   3.613  16.206
  143DOPC   H5S16949   2.658   3.530  16.114
  143DOPC   C2616950   2.742   3.668  16.266
  143DOPC   H6R16951   2.829   3.608  16.299
  143DOPC   H6S16952   2.704   3.716  16.359
  143DOPC   C2716953   2.795   3.775  16.169
  143DOPC   H7R16954   2.872   3.834  16.223
  143DOPC   H7S16955   2.712   3.844  16.145
  143DOPC   C2816956   2.859   3.712  16.043
  143DOPC   H8R16957   2.801   3.621  16.018
  143DOPC   H8S16958   2.959   3.675  16.075
  143DOPC   C2916959   2.869   3.798  15.920
  143DOPC   H9R16960   2.932   3.888  15.932
  143DOPC  C21016961   2.809   3.776  15.801
  143DOPC  H10R16962   2.827   3.847  15.719
  143DOPC  C21116963   2.718   3.660  15.765
  143DOPC  H11R16964   2.635   3.651  15.838
  143DOPC  H11S16965   2.774   3.564  15.770
  143DOPC  C21216966   2.658   3.674  15.623
  143DOPC  H12R16967   2.739   3.700  15.551
  143DOPC  H12S16968   2.584   3.756  15.619
  143DOPC  C21316969   2.591   3.545  15.570
  143DOPC  H13R16970   2.494   3.529  15.621
  143DOPC  H13S16971   2.655   3.458  15.594
  143DOPC  C21416972   2.569   3.551  15.418
  143DOPC  H14R16973   2.664   3.583  15.369
  143DOPC  H14S16974   2.492   3.629  15.396
  143DOPC  C21516975   2.526   3.416  15.357
  143DOPC  H15R16976   2.441   3.378  15.417
  143DOPC  H15S16977   2.609   3.342  15.366
  143DOPC  C21616978   2.483   3.429  15.211
  143DOPC  H16R16979   2.430   3.526  15.196
  143DOPC  H16S16980   2.410   3.347  15.188
  143DOPC  C21716981   2.599   3.417  15.111
  143DOPC  H17R16982   2.642   3.315  15.119
  143DOPC  H17S16983   2.679   3.489  15.140
  143DOPC  C21816984   2.557   3.444  14.967
  143DOPC  H18R16985   2.641   3.426  14.898
  143DOPC  H18S16986   2.523   3.549  14.954
  143DOPC  H18T16987   2.472   3.377  14.938
  143DOPC   C3316988   2.462   3.996  16.250
  143DOPC   H3X16989   2.567   4.032  16.247
  143DOPC   H3Y16990   2.406   4.069  16.311
  143DOPC   C3416991   2.410   3.990  16.105
  143DOPC   H4X16992   2.398   4.094  16.067
  143DOPC   H4Y16993   2.307   3.946  16.110
  143DOPC   C3516994   2.499   3.910  16.007
  143DOPC   H5X16995   2.525   3.811  16.049
  143DOPC   H5Y16996   2.593   3.966  15.991
  143DOPC   C3616997   2.437   3.880  15.869
  143DOPC   H6X16998   2.412   3.976  15.822
  143DOPC   H6Y16999   2.513   3.832  15.805
  143DOPC   C3717000   2.315   3.786  15.875
  143DOPC   H7X17001   2.245   3.825  15.952
  143DOPC   H7Y17002   2.262   3.789  15.777
  143DOPC   C3817003   2.350   3.640  15.908
  143DOPC   H8X17004   2.413   3.635  16.000
  143DOPC   H8Y17005   2.413   3.599  15.825
  143DOPC   C3917006   2.220   3.567  15.928
  143DOPC   H9X17007   2.173   3.587  16.026
  143DOPC  C31017008   2.158   3.490  15.838
  143DOPC  H10X17009   2.061   3.445  15.865
  143DOPC  C31117010   2.207   3.461  15.698
  143DOPC  H11X17011   2.223   3.352  15.687
  143DOPC  H11Y17012   2.305   3.506  15.678
  143DOPC  C31217013   2.114   3.508  15.585
  143DOPC  H12X17014   2.115   3.620  15.581
  143DOPC  H12Y17015   2.010   3.475  15.605
  143DOPC  C31317016   2.161   3.451  15.451
  143DOPC  H13X17017   2.262   3.491  15.428
  143DOPC  H13Y17018   2.171   3.341  15.462
  143DOPC  C31417019   2.067   3.478  15.333
  143DOPC  H14X17020   2.089   3.403  15.254
  143DOPC  H14Y17021   1.961   3.462  15.365
  143DOPC  C31517022   2.083   3.617  15.273
  143DOPC  H15X17023   2.189   3.635  15.244
  143DOPC  H15Y17024   2.057   3.693  15.350
  143DOPC  C31617025   1.994   3.634  15.150
  143DOPC  H16X17026   2.036   3.580  15.063
  143DOPC  H16Y17027   1.896   3.587  15.175
  143DOPC  C31717028   1.964   3.779  15.115
  143DOPC  H17X17029   1.968   3.837  15.209
  143DOPC  H17Y17030   2.043   3.820  15.049
  143DOPC  C31817031   1.826   3.795  15.052
  143DOPC  H18X17032   1.815   3.732  14.961
  143DOPC  H18Y17033   1.747   3.768  15.125
  143DOPC  H18Z17034   1.808   3.900  15.022
  144DOPC     N17035   3.170   2.582  16.758
  144DOPC   C1217036   3.296   2.502  16.740
  144DOPC  H12A17037   3.373   2.561  16.693
  144DOPC  H12B17038   3.276   2.418  16.675
  144DOPC   C1317039   3.194   2.673  16.875
  144DOPC  H13A17040   3.220   2.608  16.961
  144DOPC  H13B17041   3.276   2.740  16.860
  144DOPC  H13C17042   3.104   2.723  16.907
  144DOPC   C1417043   3.060   2.489  16.799
  144DOPC  H14A17044   3.032   2.419  16.722
  144DOPC  H14B17045   3.097   2.432  16.885
  144DOPC  H14C17046   2.974   2.542  16.837
  144DOPC   C1517047   3.130   2.660  16.639
  144DOPC  H15A17048   3.047   2.726  16.664
  144DOPC  H15B17049   3.099   2.598  16.556
  144DOPC  H15C17050   3.211   2.723  16.604
  144DOPC   C1117051   3.360   2.446  16.871
  144DOPC  H11A17052   3.413   2.358  16.831
  144DOPC  H11B17053   3.436   2.515  16.913
  144DOPC     P17054   3.292   2.279  17.060
  144DOPC   O1317055   3.162   2.241  17.119
  144DOPC   O1417056   3.402   2.315  17.152
  144DOPC   O1217057   3.267   2.410  16.973
  144DOPC   O1117058   3.341   2.172  16.948
  144DOPC    C117059   3.254   2.152  16.837
  144DOPC    HA17060   3.248   2.242  16.774
  144DOPC    HB17061   3.151   2.130  16.875
  144DOPC    C217062   3.288   2.034  16.742
  144DOPC    HS17063   3.278   1.941  16.803
  144DOPC   O2117064   3.416   2.039  16.674
  144DOPC   C2117065   3.455   1.915  16.636
  144DOPC   O2217066   3.441   1.815  16.704
  144DOPC   C2217067   3.515   1.916  16.497
  144DOPC   H2R17068   3.525   1.812  16.459
  144DOPC   H2S17069   3.617   1.957  16.505
  144DOPC    C317070   3.177   2.038  16.633
  144DOPC    HX17071   3.079   2.032  16.685
  144DOPC    HY17072   3.190   1.947  16.570
  144DOPC   O3117073   3.186   2.163  16.557
  144DOPC   C3117074   3.139   2.151  16.433
  144DOPC   O3217075   3.081   2.052  16.394
  144DOPC   C3217076   3.175   2.274  16.348
  144DOPC   H2X17077   3.141   2.363  16.403
  144DOPC   H2Y17078   3.286   2.276  16.341
  144DOPC   C2317079   3.436   2.001  16.396
  144DOPC   H3R17080   3.513   2.052  16.336
  144DOPC   H3S17081   3.380   2.083  16.442
  144DOPC   C2417082   3.348   1.911  16.309
  144DOPC   H4R17083   3.264   1.868  16.367
  144DOPC   H4S17084   3.411   1.826  16.274
  144DOPC   C2517085   3.292   1.977  16.183
  144DOPC   H5R17086   3.192   2.020  16.201
  144DOPC   H5S17087   3.270   1.894  16.112
  144DOPC   C2617088   3.382   2.083  16.122
  144DOPC   H6R17089   3.489   2.065  16.145
  144DOPC   H6S17090   3.360   2.185  16.159
  144DOPC   C2717091   3.368   2.076  15.972
  144DOPC   H7R17092   3.276   2.127  15.939
  144DOPC   H7S17093   3.354   1.968  15.950
  144DOPC   C2817094   3.493   2.127  15.901
  144DOPC   H8R17095   3.584   2.104  15.959
  144DOPC   H8S17096   3.485   2.238  15.896
  144DOPC   C2917097   3.496   2.057  15.768
  144DOPC   H9R17098   3.556   1.965  15.763
  144DOPC  C21017099   3.431   2.102  15.660
  144DOPC  H10R17100   3.436   2.045  15.566
  144DOPC  C21117101   3.349   2.228  15.660
  144DOPC  H11R17102   3.292   2.244  15.754
  144DOPC  H11S17103   3.274   2.227  15.578
  144DOPC  C21217104   3.449   2.344  15.643
  144DOPC  H12R17105   3.529   2.340  15.720
  144DOPC  H12S17106   3.398   2.441  15.655
  144DOPC  C21317107   3.514   2.340  15.504
  144DOPC  H13R17108   3.553   2.239  15.480
  144DOPC  H13S17109   3.603   2.405  15.499
  144DOPC  C21417110   3.411   2.384  15.402
  144DOPC  H14R17111   3.433   2.483  15.357
  144DOPC  H14S17112   3.315   2.403  15.456
  144DOPC  C21517113   3.388   2.278  15.296
  144DOPC  H15R17114   3.386   2.178  15.345
  144DOPC  H15S17115   3.467   2.277  15.218
  144DOPC  C21617116   3.250   2.303  15.239
  144DOPC  H16R17117   3.186   2.297  15.328
  144DOPC  H16S17118   3.217   2.222  15.173
  144DOPC  C21717119   3.231   2.440  15.173
  144DOPC  H17R17120   3.235   2.521  15.249
  144DOPC  H17S17121   3.129   2.444  15.129
  144DOPC  C21817122   3.336   2.469  15.065
  144DOPC  H18R17123   3.430   2.509  15.110
  144DOPC  H18S17124   3.299   2.542  14.991
  144DOPC  H18T17125   3.362   2.375  15.010
  144DOPC   C3317126   3.118   2.282  16.203
  144DOPC   H3X17127   3.008   2.276  16.200
  144DOPC   H3Y17128   3.153   2.201  16.137
  144DOPC   C3417129   3.161   2.412  16.134
  144DOPC   H4X17130   3.272   2.414  16.130
  144DOPC   H4Y17131   3.126   2.499  16.195
  144DOPC   C3517132   3.108   2.427  15.991
  144DOPC   H5X17133   2.997   2.430  15.990
  144DOPC   H5Y17134   3.140   2.339  15.931
  144DOPC   C3617135   3.165   2.554  15.928
  144DOPC   H6X17136   3.119   2.643  15.975
  144DOPC   H6Y17137   3.274   2.556  15.950
  144DOPC   C3717138   3.149   2.561  15.775
  144DOPC   H7X17139   3.228   2.632  15.740
  144DOPC   H7Y17140   3.172   2.462  15.730
  144DOPC   C3817141   3.011   2.609  15.730
  144DOPC   H8X17142   2.979   2.695  15.794
  144DOPC   H8Y17143   2.937   2.528  15.746
  144DOPC   C3917144   3.019   2.654  15.586
  144DOPC   H9X17145   3.096   2.731  15.567
  144DOPC  C31017146   2.946   2.610  15.483
  144DOPC  H10X17147   2.962   2.653  15.383
  144DOPC  C31117148   2.839   2.504  15.491
  144DOPC  H11X17149   2.774   2.505  15.402
  144DOPC  H11Y17150   2.773   2.524  15.577
  144DOPC  C31217151   2.887   2.360  15.509
  144DOPC  H12X17152   2.800   2.298  15.538
  144DOPC  H12Y17153   2.960   2.356  15.593
  144DOPC  C31317154   2.952   2.302  15.383
  144DOPC  H13X17155   3.007   2.383  15.331
  144DOPC  H13Y17156   3.023   2.222  15.416
  144DOPC  C31417157   2.854   2.236  15.286
  144DOPC  H14X17158   2.782   2.180  15.347
  144DOPC  H14Y17159   2.801   2.316  15.230
  144DOPC  C31517160   2.914   2.136  15.185
  144DOPC  H15X17161   2.954   2.048  15.239
  144DOPC  H15Y17162   3.002   2.184  15.141
  144DOPC  C31617163   2.808   2.095  15.080
  144DOPC  H16X17164   2.723   2.050  15.136
  144DOPC  H16Y17165   2.769   2.187  15.032
  144DOPC  C31717166   2.849   1.996  14.968
  144DOPC  H17X17167   2.923   2.042  14.902
  144DOPC  H17Y17168   2.901   1.908  15.011
  144DOPC  C31817169   2.734   1.951  14.877
  144DOPC  H18X17170   2.661   1.888  14.932
  144DOPC  H18Y17171   2.679   2.039  14.837
  144DOPC  H18Z17172   2.773   1.892  14.791
  145DOPC     N17173   3.929   5.484  17.076
  145DOPC   C1217174   4.023   5.561  16.983
  145DOPC  H12A17175   4.118   5.507  16.978
  145DOPC  H12B17176   4.043   5.659  17.025
  145DOPC   C1317177   3.950   5.338  17.046
  145DOPC  H13A17178   4.056   5.311  17.046
  145DOPC  H13B17179   3.897   5.274  17.113
  145DOPC  H13C17180   3.918   5.320  16.944
  145DOPC   C1417181   3.787   5.520  17.046
  145DOPC  H14A17182   3.773   5.526  16.938
  145DOPC  H14B17183   3.718   5.445  17.084
  145DOPC  H14C17184   3.756   5.614  17.092
  145DOPC   C1517185   3.952   5.511  17.221
  145DOPC  H15A17186   3.943   5.616  17.245
  145DOPC  H15B17187   4.048   5.477  17.258
  145DOPC  H15C17188   3.873   5.463  17.280
  145DOPC   C1117189   3.978   5.579  16.834
  145DOPC  H11A17190   3.893   5.651  16.831
  145DOPC  H11B17191   4.061   5.627  16.776
  145DOPC     P17192   4.046   5.352  16.721
  145DOPC   O1317193   3.969   5.229  16.691
  145DOPC   O1417194   4.153   5.346  16.824
  145DOPC   O1217195   3.937   5.456  16.772
  145DOPC   O1117196   4.101   5.417  16.587
  145DOPC    C117197   4.016   5.489  16.497
  145DOPC    HA17198   3.972   5.578  16.548
  145DOPC    HB17199   3.932   5.425  16.462
  145DOPC    C217200   4.095   5.540  16.372
  145DOPC    HS17201   4.027   5.605  16.312
  145DOPC   O2117202   4.141   5.429  16.293
  145DOPC   C2117203   4.052   5.376  16.212
  145DOPC   O2217204   3.944   5.422  16.182
  145DOPC   C2217205   4.104   5.240  16.166
  145DOPC   H2R17206   4.032   5.164  16.202
  145DOPC   H2S17207   4.202   5.220  16.214
  145DOPC    C317208   4.216   5.629  16.413
  145DOPC    HX17209   4.252   5.594  16.512
  145DOPC    HY17210   4.180   5.734  16.428
  145DOPC   O3117211   4.324   5.617  16.316
  145DOPC   C3117212   4.337   5.716  16.230
  145DOPC   O3217213   4.288   5.827  16.241
  145DOPC   C3217214   4.417   5.668  16.107
  145DOPC   H2X17215   4.525   5.677  16.128
  145DOPC   H2Y17216   4.392   5.561  16.090
  145DOPC   C2317217   4.119   5.227  16.013
  145DOPC   H3R17218   4.024   5.256  15.962
  145DOPC   H3S17219   4.138   5.120  15.987
  145DOPC   C2417220   4.235   5.310  15.958
  145DOPC   H4R17221   4.331   5.273  16.001
  145DOPC   H4S17222   4.225   5.416  15.989
  145DOPC   C2517223   4.245   5.303  15.806
  145DOPC   H5R17224   4.224   5.200  15.769
  145DOPC   H5S17225   4.349   5.329  15.775
  145DOPC   C2617226   4.149   5.403  15.739
  145DOPC   H6R17227   4.165   5.503  15.785
  145DOPC   H6S17228   4.044   5.373  15.758
  145DOPC   C2717229   4.180   5.417  15.591
  145DOPC   H7R17230   4.289   5.426  15.590
  145DOPC   H7S17231   4.142   5.513  15.549
  145DOPC   C2817232   4.137   5.298  15.503
  145DOPC   H8R17233   4.191   5.208  15.542
  145DOPC   H8S17234   4.178   5.314  15.400
  145DOPC   C2917235   3.990   5.267  15.493
  145DOPC   H9R17236   3.968   5.162  15.466
  145DOPC  C21017237   3.885   5.348  15.515
  145DOPC  H10R17238   3.785   5.305  15.496
  145DOPC  C21117239   3.884   5.494  15.554
  145DOPC  H11R17240   3.955   5.551  15.490
  145DOPC  H11S17241   3.918   5.506  15.660
  145DOPC  C21217242   3.748   5.564  15.545
  145DOPC  H12R17243   3.762   5.670  15.575
  145DOPC  H12S17244   3.678   5.519  15.619
  145DOPC  C21317245   3.685   5.561  15.405
  145DOPC  H13R17246   3.583   5.602  15.413
  145DOPC  H13S17247   3.678   5.455  15.371
  145DOPC  C21417248   3.764   5.641  15.301
  145DOPC  H14R17249   3.861   5.591  15.289
  145DOPC  H14S17250   3.782   5.744  15.340
  145DOPC  C21517251   3.699   5.650  15.162
  145DOPC  H15R17252   3.771   5.700  15.092
  145DOPC  H15S17253   3.610   5.717  15.169
  145DOPC  C21617254   3.658   5.514  15.103
  145DOPC  H16R17255   3.607   5.532  15.005
  145DOPC  H16S17256   3.588   5.461  15.170
  145DOPC  C21717257   3.773   5.417  15.082
  145DOPC  H17R17258   3.829   5.400  15.177
  145DOPC  H17S17259   3.837   5.470  15.010
  145DOPC  C21817260   3.732   5.283  15.023
  145DOPC  H18R17261   3.645   5.294  14.955
  145DOPC  H18S17262   3.705   5.211  15.104
  145DOPC  H18T17263   3.816   5.240  14.965
  145DOPC   C3317264   4.381   5.749  15.980
  145DOPC   H3X17265   4.441   5.710  15.895
  145DOPC   H3Y17266   4.406   5.856  15.994
  145DOPC   C3417267   4.232   5.733  15.949
  145DOPC   H4X17268   4.173   5.776  16.033
  145DOPC   H4Y17269   4.208   5.624  15.945
  145DOPC   C3517270   4.176   5.799  15.822
  145DOPC   H5X17271   4.218   5.752  15.730
  145DOPC   H5Y17272   4.204   5.907  15.822
  145DOPC   C3617273   4.023   5.783  15.825
  145DOPC   H6X17274   3.998   5.675  15.831
  145DOPC   H6Y17275   3.985   5.831  15.917
  145DOPC   C3717276   3.951   5.845  15.705
  145DOPC   H7X17277   3.988   5.795  15.613
  145DOPC   H7Y17278   3.842   5.823  15.714
  145DOPC   C3817279   3.971   5.997  15.699
  145DOPC   H8X17280   4.080   6.015  15.683
  145DOPC   H8Y17281   3.949   6.038  15.800
  145DOPC   C3917282   3.890   6.070  15.596
  145DOPC   H9X17283   3.791   6.104  15.629
  145DOPC  C31017284   3.927   6.092  15.469
  145DOPC  H10X17285   3.860   6.145  15.400
  145DOPC  C31117286   4.057   6.046  15.409
  145DOPC  H11X17287   4.138   6.029  15.484
  145DOPC  H11Y17288   4.096   6.117  15.333
  145DOPC  C31217289   4.019   5.913  15.344
  145DOPC  H12X17290   3.944   5.929  15.263
  145DOPC  H12Y17291   3.974   5.843  15.417
  145DOPC  C31317292   4.137   5.841  15.282
  145DOPC  H13X17293   4.185   5.909  15.208
  145DOPC  H13Y17294   4.212   5.815  15.361
  145DOPC  C31417295   4.085   5.714  15.218
  145DOPC  H14X17296   4.046   5.649  15.299
  145DOPC  H14Y17297   4.005   5.735  15.144
  145DOPC  C31517298   4.197   5.639  15.151
  145DOPC  H15X17299   4.286   5.665  15.211
  145DOPC  H15Y17300   4.208   5.687  15.052
  145DOPC  C31617301   4.185   5.485  15.152
  145DOPC  H16X17302   4.287   5.441  15.160
  145DOPC  H16Y17303   4.130   5.454  15.243
  145DOPC  C31717304   4.119   5.425  15.028
  145DOPC  H17X17305   4.021   5.473  15.025
  145DOPC  H17Y17306   4.168   5.454  14.932
  145DOPC  C31817307   4.106   5.272  15.030
  145DOPC  H18X17308   4.061   5.238  15.125
  145DOPC  H18Y17309   4.042   5.237  14.946
  145DOPC  H18Z17310   4.206   5.225  15.019
  146DOPC     N17311   5.360   2.692  17.024
  146DOPC   C1217312   5.478   2.723  16.931
  146DOPC  H12A17313   5.480   2.648  16.853
  146DOPC  H12B17314   5.569   2.717  16.988
  146DOPC   C1317315   5.398   2.590  17.126
  146DOPC  H13A17316   5.470   2.633  17.195
  146DOPC  H13B17317   5.309   2.558  17.180
  146DOPC  H13C17318   5.440   2.502  17.080
  146DOPC   C1417319   5.239   2.646  16.948
  146DOPC  H14A17320   5.198   2.727  16.887
  146DOPC  H14B17321   5.260   2.563  16.881
  146DOPC  H14C17322   5.159   2.610  17.014
  146DOPC   C1517323   5.323   2.820  17.093
  146DOPC  H15A17324   5.405   2.863  17.148
  146DOPC  H15B17325   5.239   2.805  17.158
  146DOPC  H15C17326   5.295   2.896  17.019
  146DOPC   C1117327   5.475   2.860  16.860
  146DOPC  H11A17328   5.490   2.943  16.933
  146DOPC  H11B17329   5.558   2.867  16.785
  146DOPC     P17330   5.272   3.000  16.767
  146DOPC   O1317331   5.298   3.097  16.874
  146DOPC   O1417332   5.134   2.956  16.741
  146DOPC   O1217333   5.352   2.867  16.793
  146DOPC   O1117334   5.341   3.039  16.627
  146DOPC    C117335   5.310   2.946  16.519
  146DOPC    HA17336   5.215   2.978  16.470
  146DOPC    HB17337   5.294   2.841  16.556
  146DOPC    C217338   5.419   2.931  16.407
  146DOPC    HS17339   5.517   2.919  16.459
  146DOPC   O2117340   5.417   3.049  16.324
  146DOPC   C2117341   5.521   3.068  16.246
  146DOPC   O2217342   5.621   2.998  16.239
  146DOPC   C2217343   5.497   3.196  16.166
  146DOPC   H2R17344   5.495   3.281  16.238
  146DOPC   H2S17345   5.398   3.187  16.118
  146DOPC    C317346   5.393   2.802  16.322
  146DOPC    HX17347   5.311   2.828  16.251
  146DOPC    HY17348   5.354   2.722  16.389
  146DOPC   O3117349   5.512   2.752  16.257
  146DOPC   C3117350   5.495   2.698  16.137
  146DOPC   O3217351   5.388   2.676  16.084
  146DOPC   C3217352   5.633   2.666  16.077
  146DOPC   H2X17353   5.710   2.727  16.130
  146DOPC   H2Y17354   5.654   2.559  16.096
  146DOPC   C2317355   5.608   3.216  16.062
  146DOPC   H3R17356   5.643   3.118  16.021
  146DOPC   H3S17357   5.695   3.263  16.112
  146DOPC   C2417358   5.567   3.302  15.945
  146DOPC   H4R17359   5.657   3.347  15.898
  146DOPC   H4S17360   5.501   3.385  15.980
  146DOPC   C2517361   5.497   3.217  15.839
  146DOPC   H5R17362   5.406   3.171  15.884
  146DOPC   H5S17363   5.565   3.135  15.808
  146DOPC   C2617364   5.459   3.300  15.717
  146DOPC   H6R17365   5.547   3.322  15.653
  146DOPC   H6S17366   5.419   3.398  15.755
  146DOPC   C2717367   5.346   3.235  15.637
  146DOPC   H7R17368   5.297   3.319  15.583
  146DOPC   H7S17369   5.276   3.193  15.712
  146DOPC   C2817370   5.381   3.125  15.537
  146DOPC   H8R17371   5.435   3.043  15.588
  146DOPC   H8S17372   5.446   3.165  15.457
  146DOPC   C2917373   5.247   3.080  15.483
  146DOPC   H9R17374   5.196   3.154  15.420
  146DOPC  C21017375   5.188   2.961  15.504
  146DOPC  H10R17376   5.088   2.944  15.464
  146DOPC  C21117377   5.241   2.847  15.586
  146DOPC  H11R17378   5.160   2.792  15.638
  146DOPC  H11S17379   5.313   2.881  15.664
  146DOPC  C21217380   5.314   2.757  15.484
  146DOPC  H12R17381   5.389   2.821  15.431
  146DOPC  H12S17382   5.243   2.718  15.408
  146DOPC  C21317383   5.394   2.639  15.541
  146DOPC  H13R17384   5.330   2.549  15.548
  146DOPC  H13S17385   5.426   2.666  15.645
  146DOPC  C21417386   5.521   2.611  15.458
  146DOPC  H14R17387   5.580   2.531  15.508
  146DOPC  H14S17388   5.584   2.703  15.459
  146DOPC  C21517389   5.497   2.572  15.310
  146DOPC  H15R17390   5.443   2.654  15.260
  146DOPC  H15S17391   5.431   2.485  15.308
  146DOPC  C21617392   5.631   2.545  15.237
  146DOPC  H16R17393   5.670   2.452  15.282
  146DOPC  H16S17394   5.701   2.628  15.263
  146DOPC  C21717395   5.639   2.527  15.084
  146DOPC  H17R17396   5.609   2.424  15.056
  146DOPC  H17S17397   5.746   2.533  15.053
  146DOPC  C21817398   5.557   2.622  14.997
  146DOPC  H18R17399   5.529   2.573  14.902
  146DOPC  H18S17400   5.613   2.715  14.975
  146DOPC  H18T17401   5.461   2.647  15.048
  146DOPC   C3317402   5.640   2.694  15.925
  146DOPC   H3X17403   5.566   2.631  15.871
  146DOPC   H3Y17404   5.741   2.663  15.890
  146DOPC   C3417405   5.616   2.842  15.889
  146DOPC   H4X17406   5.683   2.907  15.949
  146DOPC   H4Y17407   5.511   2.868  15.913
  146DOPC   C3517408   5.641   2.868  15.740
  146DOPC   H5X17409   5.586   2.958  15.705
  146DOPC   H5Y17410   5.602   2.782  15.682
  146DOPC   C3617411   5.789   2.885  15.709
  146DOPC   H6X17412   5.830   2.978  15.754
  146DOPC   H6Y17413   5.837   2.797  15.757
  146DOPC   C3717414   5.826   2.875  15.562
  146DOPC   H7X17415   5.937   2.860  15.555
  146DOPC   H7Y17416   5.778   2.782  15.523
  146DOPC   C3817417   5.788   2.997  15.478
  146DOPC   H8X17418   5.846   3.086  15.509
  146DOPC   H8Y17419   5.680   3.020  15.491
  146DOPC   C3917420   5.826   2.952  15.340
  146DOPC   H9X17421   5.933   2.935  15.326
  146DOPC  C31017422   5.742   2.922  15.240
  146DOPC  H10X17423   5.784   2.886  15.145
  146DOPC  C31117424   5.592   2.927  15.244
  146DOPC  H11X17425   5.554   2.985  15.330
  146DOPC  H11Y17426   5.552   2.825  15.253
  146DOPC  C31217427   5.538   2.990  15.115
  146DOPC  H12X17428   5.565   2.927  15.027
  146DOPC  H12Y17429   5.587   3.089  15.100
  146DOPC  C31317430   5.386   3.009  15.118
  146DOPC  H13X17431   5.357   3.070  15.207
  146DOPC  H13Y17432   5.355   3.064  15.026
  146DOPC  C31417433   5.313   2.876  15.121
  146DOPC  H14X17434   5.355   2.816  15.038
  146DOPC  H14Y17435   5.333   2.824  15.217
  146DOPC  C31517436   5.162   2.885  15.099
  146DOPC  H15X17437   5.138   2.975  15.038
  146DOPC  H15Y17438   5.110   2.895  15.197
  146DOPC  C31617439   5.112   2.761  15.025
  146DOPC  H16X17440   5.005   2.773  14.999
  146DOPC  H16Y17441   5.169   2.751  14.930
  146DOPC  C31717442   5.132   2.634  15.108
  146DOPC  H17X17443   5.238   2.625  15.141
  146DOPC  H17Y17444   5.071   2.640  15.201
  146DOPC  C31817445   5.099   2.509  15.028
  146DOPC  H18X17446   5.078   2.423  15.095
  146DOPC  H18Y17447   5.013   2.524  14.960
  146DOPC  H18Z17448   5.186   2.488  14.964
  147DOPC     N17449   1.681   3.243  16.998
  147DOPC   C1217450   1.759   3.368  16.957
  147DOPC  H12A17451   1.737   3.448  17.027
  147DOPC  H12B17452   1.726   3.398  16.858
  147DOPC   C1317453   1.662   3.166  16.873
  147DOPC  H13A17454   1.626   3.065  16.885
  147DOPC  H13B17455   1.596   3.214  16.802
  147DOPC  H13C17456   1.760   3.157  16.824
  147DOPC   C1417457   1.554   3.285  17.065
  147DOPC  H14A17458   1.477   3.319  16.996
  147DOPC  H14B17459   1.516   3.211  17.133
  147DOPC  H14C17460   1.577   3.368  17.131
  147DOPC   C1517461   1.768   3.168  17.093
  147DOPC  H15A17462   1.792   3.231  17.179
  147DOPC  H15B17463   1.863   3.146  17.043
  147DOPC  H15C17464   1.727   3.076  17.132
  147DOPC   C1117465   1.913   3.361  16.952
  147DOPC  H11A17466   1.948   3.464  16.923
  147DOPC  H11B17467   1.956   3.344  17.054
  147DOPC     P17468   2.091   3.291  16.779
  147DOPC   O1317469   2.194   3.343  16.871
  147DOPC   O1417470   2.051   3.374  16.663
  147DOPC   O1217471   1.957   3.261  16.862
  147DOPC   O1117472   2.133   3.146  16.730
  147DOPC    C117473   2.023   3.063  16.689
  147DOPC    HA17474   1.944   3.122  16.637
  147DOPC    HB17475   1.978   3.016  16.780
  147DOPC    C217476   2.060   2.947  16.593
  147DOPC    HS17477   2.131   2.879  16.645
  147DOPC   O2117478   2.119   2.994  16.469
  147DOPC   C2117479   2.152   2.900  16.381
  147DOPC   O2217480   2.153   2.780  16.399
  147DOPC   C2217481   2.183   2.968  16.250
  147DOPC   H2R17482   2.210   2.890  16.176
  147DOPC   H2S17483   2.269   3.035  16.267
  147DOPC    C317484   1.928   2.873  16.565
  147DOPC    HX17485   1.888   2.832  16.661
  147DOPC    HY17486   1.954   2.785  16.504
  147DOPC   O3117487   1.835   2.957  16.493
  147DOPC   C3117488   1.726   2.995  16.560
  147DOPC   O3217489   1.702   2.966  16.676
  147DOPC   C3217490   1.631   3.074  16.467
  147DOPC   H2X17491   1.528   3.063  16.508
  147DOPC   H2Y17492   1.658   3.181  16.469
  147DOPC   C2317493   2.064   3.051  16.199
  147DOPC   H3R17494   2.020   3.114  16.279
  147DOPC   H3S17495   1.985   2.980  16.168
  147DOPC   C2417496   2.108   3.143  16.085
  147DOPC   H4R17497   2.198   3.101  16.034
  147DOPC   H4S17498   2.137   3.242  16.127
  147DOPC   C2517499   1.997   3.157  15.982
  147DOPC   H5R17500   2.017   3.240  15.912
  147DOPC   H5S17501   1.903   3.182  16.036
  147DOPC   C2617502   1.977   3.026  15.904
  147DOPC   H6R17503   1.886   3.042  15.847
  147DOPC   H6S17504   1.956   2.942  15.972
  147DOPC   C2717505   2.086   2.981  15.806
  147DOPC   H7R17506   2.043   2.905  15.737
  147DOPC   H7S17507   2.166   2.928  15.864
  147DOPC   C2817508   2.151   3.092  15.722
  147DOPC   H8R17509   2.250   3.054  15.687
  147DOPC   H8S17510   2.176   3.176  15.791
  147DOPC   C2917511   2.070   3.141  15.604
  147DOPC   H9R17512   2.014   3.234  15.623
  147DOPC  C21017513   2.057   3.084  15.482
  147DOPC  H10R17514   1.998   3.137  15.406
  147DOPC  C21117515   2.120   2.955  15.434
  147DOPC  H11R17516   2.039   2.883  15.417
  147DOPC  H11S17517   2.188   2.912  15.510
  147DOPC  C21217518   2.193   2.952  15.299
  147DOPC  H12R17519   2.296   2.987  15.324
  147DOPC  H12S17520   2.151   3.027  15.231
  147DOPC  C21317521   2.209   2.808  15.238
  147DOPC  H13R17522   2.250   2.743  15.319
  147DOPC  H13S17523   2.284   2.817  15.159
  147DOPC  C21417524   2.098   2.731  15.161
  147DOPC  H14R17525   2.027   2.804  15.118
  147DOPC  H14S17526   2.045   2.666  15.234
  147DOPC  C21517527   2.144   2.646  15.039
  147DOPC  H15R17528   2.172   2.544  15.073
  147DOPC  H15S17529   2.235   2.695  14.999
  147DOPC  C21617530   2.047   2.638  14.917
  147DOPC  H16R17531   2.104   2.604  14.829
  147DOPC  H16S17532   2.014   2.741  14.896
  147DOPC  C21717533   1.922   2.549  14.925
  147DOPC  H17R17534   1.883   2.558  15.028
  147DOPC  H17S17535   1.947   2.442  14.906
  147DOPC  C21817536   1.807   2.590  14.831
  147DOPC  H18R17537   1.784   2.697  14.849
  147DOPC  H18S17538   1.715   2.533  14.854
  147DOPC  H18T17539   1.833   2.576  14.724
  147DOPC   C3317540   1.635   3.020  16.322
  147DOPC   H3X17541   1.620   2.910  16.331
  147DOPC   H3Y17542   1.735   3.039  16.276
  147DOPC   C3417543   1.525   3.070  16.227
  147DOPC   H4X17544   1.530   3.179  16.212
  147DOPC   H4Y17545   1.427   3.048  16.276
  147DOPC   C3517546   1.526   2.993  16.093
  147DOPC   H5X17547   1.421   2.982  16.058
  147DOPC   H5Y17548   1.550   2.889  16.119
  147DOPC   C3617549   1.614   3.047  15.976
  147DOPC   H6X17550   1.618   3.158  15.979
  147DOPC   H6Y17551   1.719   3.017  15.992
  147DOPC   C3717552   1.569   3.003  15.834
  147DOPC   H7X17553   1.536   2.897  15.836
  147DOPC   H7Y17554   1.480   3.063  15.803
  147DOPC   C3817555   1.669   3.023  15.719
  147DOPC   H8X17556   1.624   2.982  15.626
  147DOPC   H8Y17557   1.761   2.965  15.725
  147DOPC   C3917558   1.707   3.168  15.707
  147DOPC   H9X17559   1.791   3.204  15.769
  147DOPC  C31017560   1.645   3.250  15.625
  147DOPC  H10X17561   1.675   3.355  15.622
  147DOPC  C31117562   1.532   3.209  15.535
  147DOPC  H11X17563   1.442   3.269  15.558
  147DOPC  H11Y17564   1.494   3.105  15.551
  147DOPC  C31217565   1.571   3.221  15.388
  147DOPC  H12X17566   1.481   3.256  15.331
  147DOPC  H12Y17567   1.591   3.119  15.350
  147DOPC  C31317568   1.691   3.314  15.356
  147DOPC  H13X17569   1.701   3.398  15.426
  147DOPC  H13Y17570   1.785   3.256  15.365
  147DOPC  C31417571   1.674   3.377  15.217
  147DOPC  H14X17572   1.568   3.406  15.202
  147DOPC  H14Y17573   1.739   3.466  15.206
  147DOPC  C31517574   1.713   3.275  15.115
  147DOPC  H15X17575   1.656   3.183  15.136
  147DOPC  H15Y17576   1.817   3.258  15.144
  147DOPC  C31617577   1.695   3.304  14.965
  147DOPC  H16X17578   1.721   3.206  14.918
  147DOPC  H16Y17579   1.588   3.326  14.942
  147DOPC  C31717580   1.790   3.406  14.901
  147DOPC  H17X17581   1.743   3.505  14.891
  147DOPC  H17Y17582   1.876   3.418  14.969
  147DOPC  C31817583   1.840   3.370  14.761
  147DOPC  H18X17584   1.877   3.265  14.757
  147DOPC  H18Y17585   1.759   3.381  14.686
  147DOPC  H18Z17586   1.923   3.438  14.733
  148DOPC     N17587   2.714   5.336  16.718
  148DOPC   C1217588   2.704   5.485  16.750
  148DOPC  H12A17589   2.600   5.518  16.749
  148DOPC  H12B17590   2.753   5.545  16.674
  148DOPC   C1317591   2.856   5.289  16.741
  148DOPC  H13A17592   2.883   5.305  16.845
  148DOPC  H13B17593   2.868   5.184  16.720
  148DOPC  H13C17594   2.927   5.346  16.681
  148DOPC   C1417595   2.678   5.302  16.578
  148DOPC  H14A17596   2.700   5.197  16.561
  148DOPC  H14B17597   2.573   5.318  16.558
  148DOPC  H14C17598   2.738   5.359  16.509
  148DOPC   C1517599   2.625   5.263  16.815
  148DOPC  H15A17600   2.525   5.304  16.815
  148DOPC  H15B17601   2.664   5.282  16.916
  148DOPC  H15C17602   2.626   5.156  16.801
  148DOPC   C1117603   2.763   5.529  16.887
  148DOPC  H11A17604   2.872   5.509  16.888
  148DOPC  H11B17605   2.751   5.639  16.899
  148DOPC     P17606   2.579   5.512  17.074
  148DOPC   O1317607   2.615   5.634  17.150
  148DOPC   O1417608   2.530   5.395  17.150
  148DOPC   O1217609   2.704   5.459  16.994
  148DOPC   O1117610   2.479   5.547  16.956
  148DOPC    C117611   2.412   5.675  16.958
  148DOPC    HA17612   2.439   5.744  17.041
  148DOPC    HB17613   2.303   5.655  16.968
  148DOPC    C217614   2.428   5.752  16.824
  148DOPC    HS17615   2.336   5.817  16.815
  148DOPC   O2117616   2.448   5.654  16.719
  148DOPC   C2117617   2.335   5.633  16.655
  148DOPC   O2217618   2.238   5.706  16.660
  148DOPC   C2217619   2.340   5.506  16.572
  148DOPC   H2R17620   2.235   5.499  16.537
  148DOPC   H2S17621   2.362   5.419  16.636
  148DOPC    C317622   2.541   5.858  16.818
  148DOPC    HX17623   2.640   5.819  16.848
  148DOPC    HY17624   2.514   5.939  16.889
  148DOPC   O3117625   2.542   5.916  16.686
  148DOPC   C3117626   2.602   5.842  16.594
  148DOPC   O3217627   2.689   5.760  16.614
  148DOPC   C3217628   2.527   5.860  16.462
  148DOPC   H2X17629   2.424   5.822  16.480
  148DOPC   H2Y17630   2.519   5.967  16.439
  148DOPC   C2317631   2.422   5.504  16.440
  148DOPC   H3R17632   2.528   5.482  16.459
  148DOPC   H3S17633   2.415   5.605  16.395
  148DOPC   C2417634   2.356   5.408  16.339
  148DOPC   H4R17635   2.292   5.470  16.272
  148DOPC   H4S17636   2.288   5.340  16.394
  148DOPC   C2517637   2.446   5.320  16.251
  148DOPC   H5R17638   2.491   5.239  16.312
  148DOPC   H5S17639   2.528   5.380  16.207
  148DOPC   C2617640   2.364   5.259  16.135
  148DOPC   H6R17641   2.323   5.342  16.073
  148DOPC   H6S17642   2.276   5.207  16.180
  148DOPC   C2717643   2.439   5.159  16.045
  148DOPC   H7R17644   2.382   5.063  16.044
  148DOPC   H7S17645   2.539   5.136  16.087
  148DOPC   C2817646   2.451   5.204  15.897
  148DOPC   H8R17647   2.350   5.224  15.856
  148DOPC   H8S17648   2.495   5.121  15.837
  148DOPC   C2917649   2.540   5.324  15.889
  148DOPC   H9R17650   2.640   5.311  15.932
  148DOPC  C21017651   2.508   5.444  15.839
  148DOPC  H10R17652   2.576   5.527  15.860
  148DOPC  C21117653   2.381   5.494  15.778
  148DOPC  H11R17654   2.376   5.600  15.811
  148DOPC  H11S17655   2.292   5.442  15.818
  148DOPC  C21217656   2.377   5.496  15.624
  148DOPC  H12R17657   2.277   5.531  15.590
  148DOPC  H12S17658   2.391   5.393  15.585
  148DOPC  C21317659   2.484   5.589  15.563
  148DOPC  H13R17660   2.583   5.555  15.599
  148DOPC  H13S17661   2.468   5.693  15.599
  148DOPC  C21417662   2.489   5.587  15.410
  148DOPC  H14R17663   2.479   5.483  15.373
  148DOPC  H14S17664   2.589   5.624  15.375
  148DOPC  C21517665   2.387   5.678  15.342
  148DOPC  H15R17666   2.399   5.784  15.374
  148DOPC  H15S17667   2.285   5.646  15.375
  148DOPC  C21617668   2.396   5.666  15.189
  148DOPC  H16R17669   2.307   5.717  15.151
  148DOPC  H16S17670   2.388   5.559  15.160
  148DOPC  C21717671   2.515   5.731  15.118
  148DOPC  H17R17672   2.499   5.718  15.008
  148DOPC  H17S17673   2.607   5.676  15.143
  148DOPC  C21817674   2.535   5.881  15.144
  148DOPC  H18R17675   2.540   5.903  15.253
  148DOPC  H18S17676   2.451   5.938  15.100
  148DOPC  H18T17677   2.629   5.917  15.097
  148DOPC   C3317678   2.597   5.782  16.350
  148DOPC   H3X17679   2.603   5.676  16.380
  148DOPC   H3Y17680   2.702   5.816  16.340
  148DOPC   C3417681   2.528   5.790  16.212
  148DOPC   H4X17682   2.585   5.862  16.150
  148DOPC   H4Y17683   2.425   5.830  16.220
  148DOPC   C3517684   2.529   5.659  16.134
  148DOPC   H5X17685   2.497   5.680  16.029
  148DOPC   H5Y17686   2.452   5.591  16.175
  148DOPC   C3617687   2.666   5.591  16.134
  148DOPC   H6X17688   2.689   5.552  16.236
  148DOPC   H6Y17689   2.663   5.501  16.068
  148DOPC   C3717690   2.782   5.682  16.091
  148DOPC   H7X17691   2.790   5.769  16.158
  148DOPC   H7Y17692   2.876   5.625  16.101
  148DOPC   C3817693   2.769   5.735  15.948
  148DOPC   H8X17694   2.845   5.814  15.934
  148DOPC   H8Y17695   2.670   5.783  15.934
  148DOPC   C3917696   2.790   5.627  15.848
  148DOPC   H9X17697   2.792   5.523  15.886
  148DOPC  C31017698   2.815   5.649  15.719
  148DOPC  H10X17699   2.831   5.562  15.653
  148DOPC  C31117700   2.827   5.785  15.657
  148DOPC  H11X17701   2.934   5.809  15.650
  148DOPC  H11Y17702   2.781   5.864  15.719
  148DOPC  C31217703   2.767   5.785  15.516
  148DOPC  H12X17704   2.769   5.888  15.476
  148DOPC  H12Y17705   2.659   5.762  15.520
  148DOPC  C31317706   2.841   5.685  15.428
  148DOPC  H13X17707   2.946   5.677  15.467
  148DOPC  H13Y17708   2.795   5.584  15.443
  148DOPC  C31417709   2.849   5.712  15.277
  148DOPC  H14X17710   2.785   5.636  15.228
  148DOPC  H14Y17711   2.813   5.814  15.251
  148DOPC  C31517712   2.993   5.693  15.229
  148DOPC  H15X17713   3.022   5.596  15.274
  148DOPC  H15Y17714   3.055   5.774  15.275
  148DOPC  C31617715   3.022   5.682  15.079
  148DOPC  H16X17716   2.983   5.770  15.025
  148DOPC  H16Y17717   3.132   5.678  15.060
  148DOPC  C31717718   2.953   5.563  15.015
  148DOPC  H17X17719   2.974   5.471  15.074
  148DOPC  H17Y17720   2.844   5.583  15.021
  148DOPC  C31817721   2.992   5.543  14.869
  148DOPC  H18X17722   3.031   5.440  14.852
  148DOPC  H18Y17723   2.902   5.558  14.807
  148DOPC  H18Z17724   3.068   5.616  14.836
  149DOPC     N17725   2.510   1.945  16.766
  149DOPC   C1217726   2.494   1.949  16.917
  149DOPC  H12A17727   2.574   1.892  16.965
  149DOPC  H12B17728   2.401   1.901  16.945
  149DOPC   C1317729   2.406   2.032  16.705
  149DOPC  H13A17730   2.309   2.016  16.750
  149DOPC  H13B17731   2.434   2.136  16.724
  149DOPC  H13C17732   2.400   2.017  16.598
  149DOPC   C1417733   2.503   1.805  16.715
  149DOPC  H14A17734   2.409   1.757  16.736
  149DOPC  H14B17735   2.519   1.797  16.607
  149DOPC  H14C17736   2.582   1.743  16.758
  149DOPC   C1517737   2.643   2.001  16.728
  149DOPC  H15A17738   2.646   2.103  16.765
  149DOPC  H15B17739   2.661   2.001  16.622
  149DOPC  H15C17740   2.722   1.948  16.779
  149DOPC   C1117741   2.500   2.087  16.985
  149DOPC  H11A17742   2.435   2.160  16.932
  149DOPC  H11B17743   2.463   2.075  17.089
  149DOPC     P17744   2.654   2.280  17.048
  149DOPC   O1317745   2.791   2.303  17.096
  149DOPC   O1417746   2.543   2.310  17.140
  149DOPC   O1217747   2.635   2.132  16.990
  149DOPC   O1117748   2.631   2.364  16.917
  149DOPC    C117749   2.709   2.342  16.802
  149DOPC    HA17750   2.745   2.238  16.790
  149DOPC    HB17751   2.798   2.407  16.811
  149DOPC    C217752   2.629   2.391  16.680
  149DOPC    HS17753   2.584   2.485  16.716
  149DOPC   O2117754   2.530   2.297  16.631
  149DOPC   C2117755   2.427   2.362  16.573
  149DOPC   O2217756   2.399   2.478  16.593
  149DOPC   C2217757   2.349   2.270  16.481
  149DOPC   H2R17758   2.252   2.251  16.532
  149DOPC   H2S17759   2.401   2.174  16.466
  149DOPC    C317760   2.727   2.421  16.566
  149DOPC    HX17761   2.800   2.499  16.595
  149DOPC    HY17762   2.664   2.459  16.481
  149DOPC   O3117763   2.797   2.300  16.533
  149DOPC   C3117764   2.819   2.292  16.404
  149DOPC   O3217765   2.830   2.386  16.328
  149DOPC   C3217766   2.821   2.147  16.368
  149DOPC   H2X17767   2.894   2.130  16.285
  149DOPC   H2Y17768   2.851   2.086  16.456
  149DOPC   C2317769   2.320   2.336  16.344
  149DOPC   H3R17770   2.293   2.444  16.355
  149DOPC   H3S17771   2.234   2.282  16.300
  149DOPC   C2417772   2.435   2.329  16.245
  149DOPC   H4R17773   2.476   2.226  16.245
  149DOPC   H4S17774   2.514   2.401  16.276
  149DOPC   C2517775   2.393   2.361  16.101
  149DOPC   H5R17776   2.327   2.451  16.099
  149DOPC   H5S17777   2.335   2.275  16.060
  149DOPC   C2617778   2.518   2.388  16.018
  149DOPC   H6R17779   2.605   2.350  16.076
  149DOPC   H6S17780   2.530   2.497  16.010
  149DOPC   C2717781   2.520   2.326  15.879
  149DOPC   H7R17782   2.457   2.387  15.810
  149DOPC   H7S17783   2.472   2.227  15.886
  149DOPC   C2817784   2.663   2.314  15.821
  149DOPC   H8R17785   2.710   2.414  15.818
  149DOPC   H8S17786   2.652   2.283  15.714
  149DOPC   C2917787   2.757   2.224  15.898
  149DOPC   H9R17788   2.779   2.255  16.001
  149DOPC  C21017789   2.812   2.110  15.853
  149DOPC  H10R17790   2.877   2.050  15.920
  149DOPC  C21117791   2.789   2.050  15.717
  149DOPC  H11R17792   2.698   2.091  15.668
  149DOPC  H11S17793   2.768   1.942  15.730
  149DOPC  C21217794   2.903   2.064  15.616
  149DOPC  H12R17795   2.976   2.142  15.648
  149DOPC  H12S17796   2.858   2.096  15.520
  149DOPC  C21317797   2.973   1.932  15.587
  149DOPC  H13R17798   3.012   1.892  15.683
  149DOPC  H13S17799   3.060   1.953  15.520
  149DOPC  C21417800   2.882   1.826  15.522
  149DOPC  H14R17801   2.796   1.800  15.587
  149DOPC  H14S17802   2.944   1.735  15.512
  149DOPC  C21517803   2.833   1.857  15.381
  149DOPC  H15R17804   2.925   1.868  15.319
  149DOPC  H15S17805   2.776   1.953  15.377
  149DOPC  C21617806   2.748   1.746  15.317
  149DOPC  H16R17807   2.641   1.757  15.345
  149DOPC  H16S17808   2.783   1.646  15.350
  149DOPC  C21717809   2.768   1.755  15.166
  149DOPC  H17R17810   2.878   1.753  15.145
  149DOPC  H17S17811   2.726   1.853  15.137
  149DOPC  C21817812   2.702   1.653  15.078
  149DOPC  H18R17813   2.736   1.662  14.973
  149DOPC  H18S17814   2.593   1.671  15.080
  149DOPC  H18T17815   2.725   1.551  15.114
  149DOPC   C3317816   2.687   2.098  16.318
  149DOPC   H3X17817   2.663   2.154  16.225
  149DOPC   H3Y17818   2.606   2.114  16.393
  149DOPC   C3417819   2.702   1.950  16.289
  149DOPC   H4X17820   2.732   1.897  16.381
  149DOPC   H4Y17821   2.785   1.941  16.214
  149DOPC   C3517822   2.578   1.885  16.232
  149DOPC   H5X17823   2.491   1.916  16.292
  149DOPC   H5Y17824   2.586   1.774  16.235
  149DOPC   C3617825   2.558   1.930  16.088
  149DOPC   H6X17826   2.450   1.937  16.067
  149DOPC   H6Y17827   2.598   2.033  16.074
  149DOPC   C3717828   2.624   1.837  15.985
  149DOPC   H7X17829   2.728   1.871  15.972
  149DOPC   H7Y17830   2.626   1.733  16.025
  149DOPC   C3817831   2.553   1.833  15.849
  149DOPC   H8X17832   2.470   1.760  15.852
  149DOPC   H8Y17833   2.623   1.797  15.770
  149DOPC   C3917834   2.501   1.970  15.821
  149DOPC   H9X17835   2.542   2.049  15.883
  149DOPC  C31017836   2.419   2.007  15.724
  149DOPC  H10X17837   2.380   2.109  15.724
  149DOPC  C31117838   2.365   1.915  15.622
  149DOPC  H11X17839   2.256   1.918  15.635
  149DOPC  H11Y17840   2.403   1.810  15.627
  149DOPC  C31217841   2.387   1.975  15.485
  149DOPC  H12X17842   2.347   1.904  15.409
  149DOPC  H12Y17843   2.496   1.986  15.466
  149DOPC  C31317844   2.313   2.108  15.473
  149DOPC  H13X17845   2.214   2.102  15.524
  149DOPC  H13Y17846   2.370   2.190  15.522
  149DOPC  C31417847   2.290   2.140  15.327
  149DOPC  H14X17848   2.213   2.067  15.291
  149DOPC  H14Y17849   2.249   2.242  15.316
  149DOPC  C31517850   2.419   2.127  15.248
  149DOPC  H15X17851   2.405   2.152  15.141
  149DOPC  H15Y17852   2.453   2.021  15.248
  149DOPC  C31617853   2.531   2.214  15.304
  149DOPC  H16X17854   2.556   2.186  15.408
  149DOPC  H16Y17855   2.617   2.190  15.240
  149DOPC  C31717856   2.508   2.365  15.294
  149DOPC  H17X17857   2.407   2.392  15.329
  149DOPC  H17Y17858   2.581   2.416  15.361
  149DOPC  C31817859   2.531   2.411  15.151
  149DOPC  H18X17860   2.639   2.413  15.126
  149DOPC  H18Y17861   2.482   2.343  15.079
  149DOPC  H18Z17862   2.489   2.512  15.134
  150DOPC     N17863   6.060   4.954  17.109
  150DOPC   C1217864   5.938   4.991  17.029
  150DOPC  H12A17865   5.856   5.010  17.097
  150DOPC  H12B17866   5.913   4.905  16.968
  150DOPC   C1317867   6.155   5.070  17.120
  150DOPC  H13A17868   6.252   5.039  17.158
  150DOPC  H13B17869   6.171   5.115  17.021
  150DOPC  H13C17870   6.115   5.149  17.182
  150DOPC   C1417871   6.132   4.845  17.033
  150DOPC  H14A17872   6.074   4.755  17.020
  150DOPC  H14B17873   6.158   4.879  16.932
  150DOPC  H14C17874   6.228   4.820  17.077
  150DOPC   C1517875   6.028   4.899  17.244
  150DOPC  H15A17876   5.950   4.824  17.241
  150DOPC  H15B17877   5.999   4.978  17.312
  150DOPC  H15C17878   6.119   4.854  17.281
  150DOPC   C1117879   5.943   5.109  16.929
  150DOPC  H11A17880   5.867   5.075  16.856
  150DOPC  H11B17881   5.907   5.204  16.974
  150DOPC     P17882   6.110   5.064  16.730
  150DOPC   O1317883   6.147   4.926  16.762
  150DOPC   O1417884   6.212   5.146  16.661
  150DOPC   O1217885   6.068   5.134  16.865
  150DOPC   O1117886   5.975   5.049  16.650
  150DOPC    C117887   5.932   4.920  16.604
  150DOPC    HA17888   5.837   4.897  16.655
  150DOPC    HB17889   5.998   4.833  16.626
  150DOPC    C217890   5.903   4.918  16.452
  150DOPC    HS17891   5.802   4.872  16.439
  150DOPC   O2117892   6.004   4.840  16.385
  150DOPC   C2117893   5.964   4.803  16.264
  150DOPC   O2217894   5.853   4.820  16.218
  150DOPC   C2217895   6.077   4.729  16.194
  150DOPC   H2R17896   6.106   4.645  16.261
  150DOPC   H2S17897   6.159   4.802  16.185
  150DOPC    C317898   5.895   5.060  16.391
  150DOPC    HX17899   5.809   5.103  16.444
  150DOPC    HY17900   5.866   5.055  16.284
  150DOPC   O3117901   6.005   5.151  16.414
  150DOPC   C3117902   6.097   5.161  16.319
  150DOPC   O3217903   6.109   5.085  16.225
  150DOPC   C3217904   6.179   5.291  16.337
  150DOPC   H2X17905   6.109   5.377  16.344
  150DOPC   H2Y17906   6.234   5.282  16.433
  150DOPC   C2317907   6.032   4.680  16.056
  150DOPC   H3R17908   5.931   4.635  16.070
  150DOPC   H3S17909   6.108   4.611  16.007
  150DOPC   C2417910   6.015   4.794  15.956
  150DOPC   H4R17911   6.106   4.859  15.952
  150DOPC   H4S17912   5.932   4.858  15.989
  150DOPC   C2517913   5.979   4.736  15.819
  150DOPC   H5R17914   5.869   4.743  15.808
  150DOPC   H5S17915   5.998   4.627  15.811
  150DOPC   C2617916   6.049   4.813  15.708
  150DOPC   H6R17917   6.145   4.855  15.744
  150DOPC   H6S17918   5.987   4.900  15.677
  150DOPC   C2717919   6.074   4.726  15.588
  150DOPC   H7R17920   5.988   4.656  15.576
  150DOPC   H7S17921   6.164   4.665  15.609
  150DOPC   C2817922   6.096   4.810  15.463
  150DOPC   H8R17923   6.195   4.861  15.468
  150DOPC   H8S17924   6.018   4.889  15.457
  150DOPC   C2917925   6.088   4.718  15.346
  150DOPC   H9R17926   6.175   4.656  15.326
  150DOPC  C21017927   5.980   4.696  15.272
  150DOPC  H10R17928   5.987   4.613  15.200
  150DOPC  C21117929   5.845   4.759  15.292
  150DOPC  H11R17930   5.822   4.769  15.400
  150DOPC  H11S17931   5.775   4.688  15.248
  150DOPC  C21217932   5.809   4.889  15.222
  150DOPC  H12R17933   5.829   4.876  15.113
  150DOPC  H12S17934   5.877   4.970  15.254
  150DOPC  C21317935   5.660   4.930  15.240
  150DOPC  H13R17936   5.634   4.951  15.346
  150DOPC  H13S17937   5.599   4.842  15.210
  150DOPC  C21417938   5.639   5.053  15.148
  150DOPC  H14R17939   5.689   5.026  15.057
  150DOPC  H14S17940   5.709   5.124  15.186
  150DOPC  C21517941   5.501   5.121  15.115
  150DOPC  H15R17942   5.496   5.224  15.156
  150DOPC  H15S17943   5.438   5.060  15.182
  150DOPC  C21617944   5.417   5.113  14.978
  150DOPC  H16R17945   5.365   5.200  15.012
  150DOPC  H16S17946   5.336   5.045  15.000
  150DOPC  C21717947   5.417   5.188  14.834
  150DOPC  H17R17948   5.508   5.243  14.825
  150DOPC  H17S17949   5.345   5.272  14.829
  150DOPC  C21817950   5.396   5.119  14.696
  150DOPC  H18R17951   5.303   5.153  14.647
  150DOPC  H18S17952   5.398   5.009  14.696
  150DOPC  H18T17953   5.481   5.144  14.629
  150DOPC   C3317954   6.281   5.318  16.223
  150DOPC   H3X17955   6.318   5.223  16.179
  150DOPC   H3Y17956   6.369   5.370  16.268
  150DOPC   C3417957   6.228   5.413  16.115
  150DOPC   H4X17958   6.204   5.510  16.161
  150DOPC   H4Y17959   6.130   5.375  16.079
  150DOPC   C3517960   6.326   5.434  15.997
  150DOPC   H5X17961   6.428   5.454  16.034
  150DOPC   H5Y17962   6.294   5.524  15.940
  150DOPC   C3617963   6.326   5.319  15.897
  150DOPC   H6X17964   6.380   5.354  15.806
  150DOPC   H6Y17965   6.379   5.231  15.938
  150DOPC   C3717966   6.183   5.278  15.860
  150DOPC   H7X17967   6.143   5.211  15.939
  150DOPC   H7Y17968   6.119   5.370  15.861
  150DOPC   C3817969   6.166   5.213  15.723
  150DOPC   H8X17970   6.142   5.294  15.653
  150DOPC   H8Y17971   6.077   5.146  15.728
  150DOPC   C3917972   6.286   5.138  15.674
  150DOPC   H9X17973   6.306   5.046  15.730
  150DOPC  C31017974   6.367   5.174  15.573
  150DOPC  H10X17975   6.447   5.104  15.544
  150DOPC  C31117976   6.357   5.296  15.484
  150DOPC  H11X17977   6.442   5.365  15.503
  150DOPC  H11Y17978   6.263   5.354  15.500
  150DOPC  C31217979   6.361   5.252  15.337
  150DOPC  H12X17980   6.459   5.204  15.317
  150DOPC  H12Y17981   6.354   5.341  15.270
  150DOPC  C31317982   6.249   5.154  15.300
  150DOPC  H13X17983   6.237   5.075  15.377
  150DOPC  H13Y17984   6.152   5.207  15.290
  150DOPC  C31417985   6.281   5.085  15.169
  150DOPC  H14X17986   6.389   5.058  15.166
  150DOPC  H14Y17987   6.222   4.992  15.167
  150DOPC  C31517988   6.243   5.167  15.048
  150DOPC  H15X17989   6.313   5.132  14.968
  150DOPC  H15Y17990   6.262   5.275  15.065
  150DOPC  C31617991   6.098   5.147  15.003
  150DOPC  H16X17992   6.080   5.038  14.987
  150DOPC  H16Y17993   6.027   5.180  15.082
  150DOPC  C31717994   6.072   5.220  14.872
  150DOPC  H17X17995   5.973   5.193  14.831
  150DOPC  H17Y17996   6.067   5.329  14.892
  150DOPC  C31817997   6.177   5.187  14.767
  150DOPC  H18X17998   6.149   5.225  14.667
  150DOPC  H18Y17999   6.276   5.231  14.793
  150DOPC  H18Z18000   6.189   5.077  14.761
  151DOPC     N18001   1.436   3.866  16.925
  151DOPC   C1218002   1.299   3.926  16.952
  151DOPC  H12A18003   1.251   3.953  16.859
  151DOPC  H12B18004   1.309   4.017  17.012
  151DOPC   C1318005   1.432   3.799  16.791
  151DOPC  H13A18006   1.421   3.869  16.710
  151DOPC  H13B18007   1.518   3.737  16.773
  151DOPC  H13C18008   1.343   3.735  16.787
  151DOPC   C1418009   1.463   3.761  17.028
  151DOPC  H14A18010   1.462   3.804  17.128
  151DOPC  H14B18011   1.381   3.689  17.027
  151DOPC  H14C18012   1.556   3.710  17.012
  151DOPC   C1518013   1.543   3.969  16.934
  151DOPC  H15A18014   1.542   4.015  17.033
  151DOPC  H15B18015   1.526   4.047  16.862
  151DOPC  H15C18016   1.641   3.925  16.920
  151DOPC   C1118017   1.198   3.836  17.026
  151DOPC  H11A18018   1.232   3.825  17.132
  151DOPC  H11B18019   1.099   3.887  17.034
  151DOPC     P18020   1.070   3.668  16.865
  151DOPC   O1318021   0.986   3.787  16.848
  151DOPC   O1418022   1.013   3.547  16.927
  151DOPC   O1218023   1.188   3.708  16.962
  151DOPC   O1118024   1.157   3.638  16.736
  151DOPC    C118025   1.234   3.518  16.719
  151DOPC    HA18026   1.216   3.443  16.800
  151DOPC    HB18027   1.342   3.542  16.721
  151DOPC    C218028   1.200   3.447  16.584
  151DOPC    HS18029   1.273   3.364  16.568
  151DOPC   O2118030   1.205   3.537  16.471
  151DOPC   C2118031   1.313   3.610  16.451
  151DOPC   O2218032   1.423   3.597  16.504
  151DOPC   C2218033   1.280   3.712  16.341
  151DOPC   H2R18034   1.176   3.746  16.362
  151DOPC   H2S18035   1.280   3.660  16.244
  151DOPC    C318036   1.058   3.381  16.593
  151DOPC    HX18037   0.985   3.451  16.640
  151DOPC    HY18038   1.069   3.295  16.664
  151DOPC   O3118039   1.015   3.329  16.465
  151DOPC   C3118040   0.953   3.414  16.383
  151DOPC   O3218041   0.900   3.519  16.412
  151DOPC   C3218042   0.970   3.359  16.243
  151DOPC   H2X18043   1.078   3.365  16.226
  151DOPC   H2Y18044   0.942   3.253  16.246
  151DOPC   C2318045   1.372   3.836  16.334
  151DOPC   H3R18046   1.469   3.814  16.284
  151DOPC   H3S18047   1.394   3.869  16.438
  151DOPC   C2418048   1.303   3.955  16.265
  151DOPC   H4R18049   1.341   4.044  16.319
  151DOPC   H4S18050   1.193   3.949  16.279
  151DOPC   C2518051   1.334   3.980  16.117
  151DOPC   H5R18052   1.434   4.027  16.109
  151DOPC   H5S18053   1.261   4.054  16.076
  151DOPC   C2618054   1.331   3.856  16.028
  151DOPC   H6R18055   1.233   3.805  16.038
  151DOPC   H6S18056   1.410   3.785  16.061
  151DOPC   C2718057   1.357   3.896  15.883
  151DOPC   H7R18058   1.441   3.965  15.884
  151DOPC   H7S18059   1.269   3.949  15.839
  151DOPC   C2818060   1.411   3.789  15.791
  151DOPC   H8R18061   1.499   3.739  15.837
  151DOPC   H8S18062   1.443   3.835  15.695
  151DOPC   C2918063   1.300   3.694  15.766
  151DOPC   H9R18064   1.204   3.724  15.807
  151DOPC  C21018065   1.317   3.584  15.694
  151DOPC  H10R18066   1.233   3.515  15.678
  151DOPC  C21118067   1.448   3.548  15.633
  151DOPC  H11R18068   1.492   3.464  15.690
  151DOPC  H11S18069   1.524   3.630  15.633
  151DOPC  C21218070   1.422   3.508  15.489
  151DOPC  H12R18071   1.341   3.432  15.483
  151DOPC  H12S18072   1.513   3.456  15.455
  151DOPC  C21318073   1.404   3.618  15.385
  151DOPC  H13R18074   1.363   3.569  15.293
  151DOPC  H13S18075   1.505   3.657  15.360
  151DOPC  C21418076   1.319   3.741  15.418
  151DOPC  H14R18077   1.373   3.806  15.490
  151DOPC  H14S18078   1.221   3.717  15.465
  151DOPC  C21518079   1.291   3.815  15.288
  151DOPC  H15R18080   1.245   3.741  15.219
  151DOPC  H15S18081   1.388   3.846  15.244
  151DOPC  C21618082   1.197   3.933  15.307
  151DOPC  H16R18083   1.250   4.013  15.362
  151DOPC  H16S18084   1.111   3.899  15.370
  151DOPC  C21718085   1.138   3.987  15.176
  151DOPC  H17R18086   1.220   4.014  15.106
  151DOPC  H17S18087   1.083   4.081  15.198
  151DOPC  C21818088   1.041   3.888  15.110
  151DOPC  H18R18089   1.013   3.921  15.008
  151DOPC  H18S18090   0.950   3.875  15.171
  151DOPC  H18T18091   1.089   3.788  15.098
  151DOPC   C3318092   0.888   3.425  16.129
  151DOPC   H3X18093   0.834   3.516  16.162
  151DOPC   H3Y18094   0.812   3.354  16.090
  151DOPC   C3418095   0.978   3.450  16.010
  151DOPC   H4X18096   0.925   3.440  15.913
  151DOPC   H4Y18097   1.045   3.363  16.010
  151DOPC   C3518098   1.055   3.581  16.024
  151DOPC   H5X18099   1.138   3.582  15.951
  151DOPC   H5Y18100   1.101   3.585  16.125
  151DOPC   C3618101   0.963   3.702  16.005
  151DOPC   H6X18102   0.891   3.705  16.091
  151DOPC   H6Y18103   1.021   3.796  16.007
  151DOPC   C3718104   0.880   3.696  15.876
  151DOPC   H7X18105   0.822   3.602  15.875
  151DOPC   H7Y18106   0.806   3.776  15.880
  151DOPC   C3818107   0.965   3.703  15.748
  151DOPC   H8X18108   1.040   3.622  15.758
  151DOPC   H8Y18109   1.021   3.800  15.750
  151DOPC   C3918110   0.892   3.691  15.618
  151DOPC   H9X18111   0.822   3.773  15.597
  151DOPC  C31018112   0.896   3.587  15.532
  151DOPC  H10X18113   0.831   3.588  15.443
  151DOPC  C31118114   0.976   3.461  15.548
  151DOPC  H11X18115   0.910   3.372  15.542
  151DOPC  H11Y18116   1.025   3.454  15.648
  151DOPC  C31218117   1.087   3.449  15.443
  151DOPC  H12X18118   1.150   3.364  15.479
  151DOPC  H12Y18119   1.152   3.537  15.439
  151DOPC  C31318120   1.041   3.408  15.304
  151DOPC  H13X18121   1.129   3.359  15.255
  151DOPC  H13Y18122   0.962   3.332  15.322
  151DOPC  C31418123   0.990   3.509  15.201
  151DOPC  H14X18124   0.890   3.547  15.231
  151DOPC  H14Y18125   1.058   3.595  15.192
  151DOPC  C31518126   0.976   3.436  15.065
  151DOPC  H15X18127   1.077   3.405  15.030
  151DOPC  H15Y18128   0.933   3.506  14.990
  151DOPC  C31618129   0.886   3.312  15.078
  151DOPC  H16X18130   0.937   3.245  15.150
  151DOPC  H16Y18131   0.790   3.339  15.126
  151DOPC  C31718132   0.857   3.231  14.952
  151DOPC  H17X18133   0.953   3.194  14.912
  151DOPC  H17Y18134   0.794   3.143  14.976
  151DOPC  C31818135   0.794   3.313  14.841
  151DOPC  H18X18136   0.783   3.252  14.749
  151DOPC  H18Y18137   0.695   3.350  14.871
  151DOPC  H18Z18138   0.861   3.399  14.819
  152DOPC     N18139   3.941   1.398  16.855
  152DOPC   C1218140   3.984   1.287  16.762
  152DOPC  H12A18141   4.050   1.326  16.686
  152DOPC  H12B18142   3.896   1.246  16.713
  152DOPC   C1318143   4.056   1.453  16.933
  152DOPC  H13A18144   4.131   1.498  16.870
  152DOPC  H13B18145   4.022   1.528  17.004
  152DOPC  H13C18146   4.100   1.374  16.994
  152DOPC   C1418147   3.844   1.344  16.956
  152DOPC  H14A18148   3.817   1.417  17.030
  152DOPC  H14B18149   3.756   1.304  16.909
  152DOPC  H14C18150   3.893   1.260  17.006
  152DOPC   C1518151   3.876   1.509  16.782
  152DOPC  H15A18152   3.853   1.590  16.850
  152DOPC  H15B18153   3.782   1.476  16.739
  152DOPC  H15C18154   3.938   1.547  16.702
  152DOPC   C1118155   4.056   1.168  16.827
  152DOPC  H11A18156   4.092   1.105  16.741
  152DOPC  H11B18157   4.146   1.206  16.880
  152DOPC     P18158   4.039   0.953  16.956
  152DOPC   O1318159   3.960   0.887  17.062
  152DOPC   O1418160   4.182   0.985  16.985
  152DOPC   O1218161   3.971   1.092  16.916
  152DOPC   O1118162   4.023   0.869  16.820
  152DOPC    C118163   3.903   0.880  16.741
  152DOPC    HA18164   3.890   0.984  16.702
  152DOPC    HB18165   3.814   0.856  16.803
  152DOPC    C218166   3.899   0.786  16.615
  152DOPC    HS18167   3.911   0.682  16.653
  152DOPC   O2118168   4.008   0.818  16.525
  152DOPC   C2118169   4.020   0.742  16.417
  152DOPC   O2218170   3.952   0.645  16.389
  152DOPC   C2218171   4.132   0.795  16.328
  152DOPC   H2R18172   4.218   0.725  16.341
  152DOPC   H2S18173   4.163   0.896  16.360
  152DOPC    C318174   3.762   0.797  16.540
  152DOPC    HX18175   3.679   0.801  16.615
  152DOPC    HY18176   3.744   0.704  16.482
  152DOPC   O3118177   3.762   0.908  16.447
  152DOPC   C3118178   3.677   1.006  16.469
  152DOPC   O3218179   3.594   1.010  16.558
  152DOPC   C3218180   3.700   1.118  16.369
  152DOPC   H2X18181   3.746   1.075  16.277
  152DOPC   H2Y18182   3.603   1.162  16.341
  152DOPC   C2318183   4.085   0.794  16.182
  152DOPC   H3R18184   4.071   0.688  16.152
  152DOPC   H3S18185   4.162   0.837  16.115
  152DOPC   C2418186   3.952   0.868  16.163
  152DOPC   H4R18187   3.959   0.972  16.202
  152DOPC   H4S18188   3.870   0.816  16.218
  152DOPC   C2518189   3.911   0.877  16.016
  152DOPC   H5R18190   3.929   0.780  15.967
  152DOPC   H5S18191   3.983   0.947  15.971
  152DOPC   C2618192   3.768   0.927  15.997
  152DOPC   H6R18193   3.716   0.923  16.095
  152DOPC   H6S18194   3.709   0.864  15.927
  152DOPC   C2718195   3.765   1.068  15.939
  152DOPC   H7R18196   3.797   1.062  15.832
  152DOPC   H7S18197   3.843   1.128  15.992
  152DOPC   C2818198   3.628   1.137  15.946
  152DOPC   H8R18199   3.580   1.113  16.043
  152DOPC   H8S18200   3.563   1.095  15.866
  152DOPC   C2918201   3.647   1.286  15.933
  152DOPC   H9R18202   3.700   1.333  16.018
  152DOPC  C21018203   3.613   1.363  15.829
  152DOPC  H10R18204   3.635   1.471  15.833
  152DOPC  C21118205   3.548   1.318  15.701
  152DOPC  H11R18206   3.504   1.404  15.647
  152DOPC  H11S18207   3.465   1.248  15.723
  152DOPC  C21218208   3.646   1.246  15.606
  152DOPC  H12R18209   3.587   1.210  15.519
  152DOPC  H12S18210   3.690   1.157  15.655
  152DOPC  C21318211   3.760   1.333  15.550
  152DOPC  H13R18212   3.838   1.344  15.628
  152DOPC  H13S18213   3.723   1.433  15.519
  152DOPC  C21418214   3.825   1.262  15.432
  152DOPC  H14R18215   3.746   1.213  15.371
  152DOPC  H14S18216   3.886   1.185  15.481
  152DOPC  C21518217   3.916   1.344  15.342
  152DOPC  H15R18218   3.997   1.279  15.301
  152DOPC  H15S18219   3.965   1.423  15.402
  152DOPC  C21618220   3.835   1.400  15.226
  152DOPC  H16R18221   3.737   1.435  15.264
  152DOPC  H16S18222   3.816   1.320  15.151
  152DOPC  C21718223   3.907   1.515  15.160
  152DOPC  H17R18224   3.995   1.470  15.109
  152DOPC  H17S18225   3.942   1.583  15.241
  152DOPC  C21818226   3.824   1.595  15.060
  152DOPC  H18R18227   3.789   1.529  14.979
  152DOPC  H18S18228   3.885   1.677  15.016
  152DOPC  H18T18229   3.736   1.640  15.111
  152DOPC   C3318230   3.792   1.224  16.433
  152DOPC   H3X18231   3.880   1.174  16.479
  152DOPC   H3Y18232   3.736   1.275  16.514
  152DOPC   C3418233   3.845   1.326  16.331
  152DOPC   H4X18234   3.887   1.413  16.387
  152DOPC   H4Y18235   3.763   1.363  16.266
  152DOPC   C3518236   3.956   1.266  16.245
  152DOPC   H5X18237   3.912   1.193  16.174
  152DOPC   H5Y18238   4.026   1.209  16.310
  152DOPC   C3618239   4.035   1.372  16.168
  152DOPC   H6X18240   3.971   1.415  16.088
  152DOPC   H6Y18241   4.061   1.455  16.238
  152DOPC   C3718242   4.166   1.318  16.107
  152DOPC   H7X18243   4.223   1.405  16.067
  152DOPC   H7Y18244   4.227   1.269  16.186
  152DOPC   C3818245   4.140   1.218  15.994
  152DOPC   H8X18246   4.057   1.259  15.932
  152DOPC   H8Y18247   4.101   1.124  16.038
  152DOPC   C3918248   4.263   1.190  15.910
  152DOPC   H9X18249   4.356   1.179  15.966
  152DOPC  C31018250   4.264   1.174  15.776
  152DOPC  H10X18251   4.357   1.146  15.725
  152DOPC  C31118252   4.140   1.182  15.691
  152DOPC  H11X18253   4.163   1.194  15.583
  152DOPC  H11Y18254   4.078   1.270  15.720
  152DOPC  C31218255   4.054   1.056  15.716
  152DOPC  H12X18256   3.952   1.073  15.676
  152DOPC  H12Y18257   4.040   1.047  15.824
  152DOPC  C31318258   4.111   0.924  15.661
  152DOPC  H13X18259   4.201   0.895  15.719
  152DOPC  H13Y18260   4.035   0.845  15.675
  152DOPC  C31418261   4.149   0.933  15.513
  152DOPC  H14X18262   4.227   1.011  15.502
  152DOPC  H14Y18263   4.193   0.839  15.475
  152DOPC  C31518264   4.030   0.970  15.425
  152DOPC  H15X18265   4.067   1.046  15.353
  152DOPC  H15Y18266   3.950   1.013  15.486
  152DOPC  C31618267   3.963   0.853  15.353
  152DOPC  H16X18268   4.041   0.801  15.295
  152DOPC  H16Y18269   3.929   0.782  15.431
  152DOPC  C31718270   3.844   0.887  15.261
  152DOPC  H17X18271   3.837   0.803  15.188
  152DOPC  H17Y18272   3.750   0.885  15.320
  152DOPC  C31818273   3.852   1.020  15.185
  152DOPC  H18X18274   3.768   1.087  15.213
  152DOPC  H18Y18275   3.947   1.074  15.202
  152DOPC  H18Z18276   3.848   1.005  15.076
  153DOPC     N18277   5.310   6.378  17.068
  153DOPC   C1218278   5.440   6.425  17.001
  153DOPC  H12A18279   5.514   6.450  17.076
  153DOPC  H12B18280   5.423   6.515  16.942
  153DOPC   C1318281   5.324   6.231  17.099
  153DOPC  H13A18282   5.232   6.181  17.122
  153DOPC  H13B18283   5.360   6.184  17.005
  153DOPC  H13C18284   5.399   6.210  17.174
  153DOPC   C1418285   5.200   6.388  16.966
  153DOPC  H14A18286   5.175   6.490  16.941
  153DOPC  H14B18287   5.237   6.342  16.874
  153DOPC  H14C18288   5.112   6.334  16.998
  153DOPC   C1518289   5.283   6.464  17.186
  153DOPC  H15A18290   5.353   6.441  17.266
  153DOPC  H15B18291   5.182   6.457  17.222
  153DOPC  H15C18292   5.298   6.569  17.160
  153DOPC   C1118293   5.511   6.328  16.905
  153DOPC  H11A18294   5.582   6.386  16.841
  153DOPC  H11B18295   5.573   6.258  16.967
  153DOPC     P18296   5.478   6.140  16.739
  153DOPC   O1318297   5.518   6.036  16.836
  153DOPC   O1418298   5.580   6.199  16.651
  153DOPC   O1218299   5.417   6.260  16.822
  153DOPC   O1118300   5.349   6.093  16.659
  153DOPC    C118301   5.357   5.999  16.553
  153DOPC    HA18302   5.255   5.984  16.511
  153DOPC    HB18303   5.389   5.900  16.592
  153DOPC    C218304   5.451   6.043  16.437
  153DOPC    HS18305   5.554   6.059  16.476
  153DOPC   O2118306   5.404   6.164  16.373
  153DOPC   C2118307   5.492   6.224  16.291
  153DOPC   O2218308   5.604   6.184  16.266
  153DOPC   C2218309   5.421   6.345  16.225
  153DOPC   H2R18310   5.410   6.421  16.304
  153DOPC   H2S18311   5.320   6.313  16.193
  153DOPC    C318312   5.458   5.923  16.340
  153DOPC    HX18313   5.481   5.836  16.406
  153DOPC    HY18314   5.543   5.935  16.270
  153DOPC   O3118315   5.332   5.898  16.273
  153DOPC   C3118316   5.302   5.982  16.174
  153DOPC   O3218317   5.375   6.061  16.119
  153DOPC   C3218318   5.163   5.958  16.122
  153DOPC   H2X18319   5.153   5.849  16.123
  153DOPC   H2Y18320   5.091   6.008  16.189
  153DOPC   C2318321   5.488   6.409  16.099
  153DOPC   H3R18322   5.474   6.340  16.013
  153DOPC   H3S18323   5.597   6.420  16.112
  153DOPC   C2418324   5.424   6.546  16.066
  153DOPC   H4R18325   5.447   6.619  16.146
  153DOPC   H4S18326   5.314   6.536  16.069
  153DOPC   C2518327   5.464   6.609  15.931
  153DOPC   H5R18328   5.571   6.639  15.931
  153DOPC   H5S18329   5.403   6.701  15.915
  153DOPC   C2618330   5.438   6.514  15.814
  153DOPC   H6R18331   5.515   6.433  15.817
  153DOPC   H6S18332   5.453   6.567  15.717
  153DOPC   C2718333   5.298   6.452  15.818
  153DOPC   H7R18334   5.223   6.533  15.805
  153DOPC   H7S18335   5.277   6.402  15.915
  153DOPC   C2818336   5.278   6.347  15.709
  153DOPC   H8R18337   5.307   6.397  15.613
  153DOPC   H8S18338   5.171   6.322  15.699
  153DOPC   C2918339   5.360   6.223  15.739
  153DOPC   H9R18340   5.340   6.174  15.836
  153DOPC  C21018341   5.456   6.175  15.660
  153DOPC  H10R18342   5.514   6.086  15.691
  153DOPC  C21118343   5.492   6.241  15.530
  153DOPC  H11R18344   5.593   6.210  15.496
  153DOPC  H11S18345   5.502   6.350  15.547
  153DOPC  C21218346   5.384   6.221  15.421
  153DOPC  H12R18347   5.410   6.285  15.334
  153DOPC  H12S18348   5.285   6.256  15.457
  153DOPC  C21318349   5.366   6.077  15.373
  153DOPC  H13R18350   5.304   6.074  15.281
  153DOPC  H13S18351   5.315   6.016  15.451
  153DOPC  C21418352   5.501   6.014  15.345
  153DOPC  H14R18353   5.573   6.023  15.429
  153DOPC  H14S18354   5.545   6.063  15.255
  153DOPC  C21518355   5.492   5.866  15.320
  153DOPC  H15R18356   5.392   5.837  15.285
  153DOPC  H15S18357   5.516   5.811  15.414
  153DOPC  C21618358   5.591   5.841  15.209
  153DOPC  H16R18359   5.681   5.882  15.260
  153DOPC  H16S18360   5.568   5.910  15.125
  153DOPC  C21718361   5.604   5.697  15.162
  153DOPC  H17R18362   5.701   5.674  15.114
  153DOPC  H17S18363   5.538   5.678  15.076
  153DOPC  C21818364   5.579   5.598  15.274
  153DOPC  H18R18365   5.569   5.495  15.233
  153DOPC  H18S18366   5.487   5.615  15.331
  153DOPC  H18T18367   5.667   5.604  15.342
  153DOPC   C3318368   5.162   6.013  15.976
  153DOPC   H3X18369   5.236   5.954  15.917
  153DOPC   H3Y18370   5.195   6.119  15.976
  153DOPC   C3418371   5.031   6.016  15.897
  153DOPC   H4X18372   4.965   6.097  15.935
  153DOPC   H4Y18373   4.975   5.921  15.901
  153DOPC   C3518374   5.060   6.058  15.752
  153DOPC   H5X18375   5.162   6.036  15.718
  153DOPC   H5Y18376   5.054   6.168  15.748
  153DOPC   C3618377   4.957   6.011  15.650
  153DOPC   H6X18378   4.942   5.901  15.646
  153DOPC   H6Y18379   4.861   6.054  15.683
  153DOPC   C3718380   4.996   6.070  15.515
  153DOPC   H7X18381   4.937   6.163  15.502
  153DOPC   H7Y18382   5.103   6.102  15.519
  153DOPC   C3818383   4.983   5.976  15.395
  153DOPC   H8X18384   5.034   5.884  15.419
  153DOPC   H8Y18385   5.043   6.018  15.312
  153DOPC   C3918386   4.846   5.933  15.356
  153DOPC   H9X18387   4.782   5.897  15.438
  153DOPC  C31018388   4.800   5.925  15.231
  153DOPC  H10X18389   4.704   5.878  15.213
  153DOPC  C31118390   4.878   5.954  15.109
  153DOPC  H11X18391   4.852   5.871  15.041
  153DOPC  H11Y18392   4.985   5.945  15.137
  153DOPC  C31218393   4.870   6.069  15.008
  153DOPC  H12X18394   4.847   6.168  15.051
  153DOPC  H12Y18395   4.791   6.043  14.934
  153DOPC  C31318396   5.011   6.064  14.947
  153DOPC  H13X18397   5.077   6.088  15.032
  153DOPC  H13Y18398   5.043   5.962  14.923
  153DOPC  C31418399   5.041   6.156  14.832
  153DOPC  H14X18400   5.093   6.099  14.751
  153DOPC  H14Y18401   4.946   6.195  14.789
  153DOPC  C31518402   5.124   6.275  14.879
  153DOPC  H15X18403   5.048   6.336  14.934
  153DOPC  H15Y18404   5.160   6.331  14.791
  153DOPC  C31618405   5.246   6.255  14.974
  153DOPC  H16X18406   5.222   6.205  15.068
  153DOPC  H16Y18407   5.323   6.189  14.932
  153DOPC  C31718408   5.305   6.391  15.014
  153DOPC  H17X18409   5.332   6.390  15.122
  153DOPC  H17Y18410   5.399   6.408  14.958
  153DOPC  C31818411   5.211   6.508  14.988
  153DOPC  H18X18412   5.124   6.510  15.056
  153DOPC  H18Y18413   5.270   6.597  15.000
  153DOPC  H18Z18414   5.176   6.515  14.883
  154DOPC     N18415   6.921   3.780  17.047
  154DOPC   C1218416   6.843   3.885  16.969
  154DOPC  H12A18417   6.904   3.972  16.950
  154DOPC  H12B18418   6.759   3.919  17.030
  154DOPC   C1318419   6.976   3.844  17.170
  154DOPC  H13A18420   7.014   3.767  17.237
  154DOPC  H13B18421   7.052   3.918  17.146
  154DOPC  H13C18422   6.898   3.896  17.225
  154DOPC   C1418423   7.031   3.716  16.964
  154DOPC  H14A18424   7.109   3.785  16.932
  154DOPC  H14B18425   7.082   3.633  17.012
  154DOPC  H14C18426   6.991   3.673  16.871
  154DOPC   C1518427   6.829   3.669  17.087
  154DOPC  H15A18428   6.741   3.709  17.134
  154DOPC  H15B18429   6.876   3.598  17.155
  154DOPC  H15C18430   6.795   3.614  16.999
  154DOPC   C1118431   6.775   3.839  16.840
  154DOPC  H11A18432   6.757   3.927  16.775
  154DOPC  H11B18433   6.846   3.772  16.785
  154DOPC     P18434   6.571   3.723  16.743
  154DOPC   O1318435   6.534   3.836  16.655
  154DOPC   O1418436   6.468   3.623  16.780
  154DOPC   O1218437   6.650   3.774  16.872
  154DOPC   O1118438   6.691   3.643  16.680
  154DOPC    C118439   6.741   3.524  16.744
  154DOPC    HA18440   6.667   3.477  16.814
  154DOPC    HB18441   6.833   3.543  16.804
  154DOPC    C218442   6.766   3.420  16.634
  154DOPC    HS18443   6.791   3.324  16.684
  154DOPC   O2118444   6.875   3.446  16.544
  154DOPC   C2118445   6.924   3.567  16.546
  154DOPC   O2218446   6.971   3.626  16.641
  154DOPC   C2218447   6.909   3.627  16.407
  154DOPC   H2R18448   6.949   3.730  16.411
  154DOPC   H2S18449   6.801   3.632  16.387
  154DOPC    C318450   6.630   3.410  16.557
  154DOPC    HX18451   6.558   3.476  16.609
  154DOPC    HY18452   6.579   3.314  16.572
  154DOPC   O3118453   6.638   3.461  16.421
  154DOPC   C3118454   6.542   3.414  16.345
  154DOPC   O3218455   6.486   3.307  16.360
  154DOPC   C3218456   6.499   3.520  16.244
  154DOPC   H2X18457   6.462   3.609  16.300
  154DOPC   H2Y18458   6.583   3.553  16.180
  154DOPC   C2318459   6.981   3.545  16.299
  154DOPC   H3R18460   6.929   3.447  16.287
  154DOPC   H3S18461   7.086   3.523  16.330
  154DOPC   C2418462   6.985   3.621  16.167
  154DOPC   H4R18463   7.014   3.551  16.086
  154DOPC   H4S18464   7.061   3.701  16.174
  154DOPC   C2518465   6.856   3.691  16.126
  154DOPC   H5R18466   6.826   3.769  16.200
  154DOPC   H5S18467   6.774   3.616  16.120
  154DOPC   C2618468   6.879   3.756  15.990
  154DOPC   H6R18469   6.951   3.692  15.932
  154DOPC   H6S18470   6.926   3.856  16.002
  154DOPC   C2718471   6.752   3.765  15.907
  154DOPC   H7R18472   6.681   3.831  15.961
  154DOPC   H7S18473   6.704   3.665  15.901
  154DOPC   C2818474   6.778   3.821  15.765
  154DOPC   H8R18475   6.827   3.920  15.773
  154DOPC   H8S18476   6.677   3.840  15.722
  154DOPC   C2918477   6.851   3.733  15.668
  154DOPC   H9R18478   6.960   3.750  15.657
  154DOPC  C21018479   6.789   3.639  15.597
  154DOPC  H10R18480   6.845   3.580  15.522
  154DOPC  C21118481   6.641   3.612  15.608
  154DOPC  H11R18482   6.582   3.704  15.586
  154DOPC  H11S18483   6.614   3.582  15.712
  154DOPC  C21218484   6.592   3.500  15.514
  154DOPC  H12R18485   6.618   3.527  15.409
  154DOPC  H12S18486   6.482   3.492  15.521
  154DOPC  C21318487   6.654   3.365  15.550
  154DOPC  H13R18488   6.636   3.343  15.657
  154DOPC  H13S18489   6.763   3.374  15.537
  154DOPC  C21418490   6.608   3.247  15.464
  154DOPC  H14R18491   6.501   3.225  15.485
  154DOPC  H14S18492   6.666   3.157  15.495
  154DOPC  C21518493   6.627   3.269  15.313
  154DOPC  H15R18494   6.655   3.171  15.266
  154DOPC  H15S18495   6.710   3.340  15.293
  154DOPC  C21618496   6.498   3.317  15.246
  154DOPC  H16R18497   6.473   3.419  15.283
  154DOPC  H16S18498   6.417   3.248  15.276
  154DOPC  C21718499   6.503   3.321  15.094
  154DOPC  H17R18500   6.528   3.218  15.059
  154DOPC  H17S18501   6.583   3.389  15.061
  154DOPC  C21818502   6.370   3.367  15.034
  154DOPC  H18R18503   6.288   3.302  15.069
  154DOPC  H18S18504   6.373   3.362  14.923
  154DOPC  H18T18505   6.349   3.472  15.063
  154DOPC   C3318506   6.385   3.460  16.161
  154DOPC   H3X18507   6.319   3.394  16.223
  154DOPC   H3Y18508   6.425   3.395  16.079
  154DOPC   C3418509   6.293   3.568  16.110
  154DOPC   H4X18510   6.268   3.640  16.191
  154DOPC   H4Y18511   6.196   3.527  16.078
  154DOPC   C3518512   6.345   3.638  15.986
  154DOPC   H5X18513   6.371   3.561  15.909
  154DOPC   H5Y18514   6.436   3.696  16.010
  154DOPC   C3618515   6.233   3.726  15.933
  154DOPC   H6X18516   6.140   3.667  15.919
  154DOPC   H6Y18517   6.211   3.803  16.010
  154DOPC   C3718518   6.264   3.793  15.800
  154DOPC   H7X18519   6.370   3.826  15.799
  154DOPC   H7Y18520   6.252   3.719  15.718
  154DOPC   C3818521   6.169   3.912  15.783
  154DOPC   H8X18522   6.155   3.959  15.883
  154DOPC   H8Y18523   6.069   3.872  15.754
  154DOPC   C3918524   6.215   4.020  15.690
  154DOPC   H9X18525   6.270   4.101  15.738
  154DOPC  C31018526   6.214   4.015  15.557
  154DOPC  H10X18527   6.250   4.101  15.500
  154DOPC  C31118528   6.166   3.898  15.476
  154DOPC  H11X18529   6.115   3.931  15.383
  154DOPC  H11Y18530   6.095   3.834  15.532
  154DOPC  C31218531   6.291   3.815  15.443
  154DOPC  H12X18532   6.258   3.730  15.380
  154DOPC  H12Y18533   6.336   3.773  15.535
  154DOPC  C31318534   6.402   3.887  15.365
  154DOPC  H13X18535   6.356   3.945  15.282
  154DOPC  H13Y18536   6.457   3.956  15.432
  154DOPC  C31418537   6.496   3.780  15.309
  154DOPC  H14X18538   6.555   3.738  15.391
  154DOPC  H14Y18539   6.431   3.699  15.269
  154DOPC  C31518540   6.592   3.819  15.197
  154DOPC  H15X18541   6.678   3.877  15.238
  154DOPC  H15Y18542   6.539   3.883  15.123
  154DOPC  C31618543   6.639   3.690  15.129
  154DOPC  H16X18544   6.595   3.602  15.180
  154DOPC  H16Y18545   6.597   3.688  15.027
  154DOPC  C31718546   6.790   3.668  15.123
  154DOPC  H17X18547   6.842   3.763  15.099
  154DOPC  H17Y18548   6.823   3.636  15.225
  154DOPC  C31818549   6.826   3.563  15.018
  154DOPC  H18X18550   6.832   3.608  14.917
  154DOPC  H18Y18551   6.923   3.513  15.039
  154DOPC  H18Z18552   6.748   3.484  15.013
  155DOPC     N18553   1.841   1.754  16.790
  155DOPC   C1218554   1.944   1.706  16.892
  155DOPC  H12A18555   2.007   1.788  16.925
  155DOPC  H12B18556   2.013   1.636  16.842
  155DOPC   C1318557   1.729   1.829  16.858
  155DOPC  H13A18558   1.680   1.762  16.928
  155DOPC  H13B18559   1.765   1.914  16.915
  155DOPC  H13C18560   1.656   1.865  16.786
  155DOPC   C1418561   1.789   1.629  16.724
  155DOPC  H14A18562   1.762   1.556  16.801
  155DOPC  H14B18563   1.706   1.645  16.659
  155DOPC  H14C18564   1.869   1.580  16.670
  155DOPC   C1518565   1.901   1.845  16.688
  155DOPC  H15A18566   1.971   1.793  16.625
  155DOPC  H15B18567   1.951   1.930  16.735
  155DOPC  H15C18568   1.823   1.886  16.625
  155DOPC   C1118569   1.891   1.631  17.018
  155DOPC  H11A18570   1.978   1.617  17.087
  155DOPC  H11B18571   1.822   1.699  17.073
  155DOPC     P18572   1.914   1.375  16.966
  155DOPC   O1318573   1.825   1.267  16.915
  155DOPC   O1418574   1.989   1.347  17.092
  155DOPC   O1218575   1.825   1.506  16.990
  155DOPC   O1118576   2.015   1.429  16.853
  155DOPC    C118577   2.067   1.347  16.748
  155DOPC    HA18578   1.988   1.326  16.673
  155DOPC    HB18579   2.101   1.248  16.789
  155DOPC    C218580   2.191   1.411  16.674
  155DOPC    HS18581   2.267   1.432  16.752
  155DOPC   O2118582   2.152   1.534  16.607
  155DOPC   C2118583   2.251   1.612  16.563
  155DOPC   O2218584   2.370   1.588  16.565
  155DOPC   C2218585   2.192   1.751  16.541
  155DOPC   H2R18586   2.209   1.807  16.635
  155DOPC   H2S18587   2.084   1.740  16.521
  155DOPC    C318588   2.257   1.313  16.571
  155DOPC    HX18589   2.283   1.220  16.627
  155DOPC    HY18590   2.354   1.352  16.534
  155DOPC   O3118591   2.166   1.277  16.466
  155DOPC   C3118592   2.176   1.344  16.352
  155DOPC   O3218593   2.252   1.435  16.326
  155DOPC   C3218594   2.070   1.292  16.254
  155DOPC   H2X18595   2.113   1.304  16.152
  155DOPC   H2Y18596   2.051   1.184  16.272
  155DOPC   C2318597   2.254   1.827  16.423
  155DOPC   H3R18598   2.362   1.802  16.410
  155DOPC   H3S18599   2.245   1.937  16.438
  155DOPC   C2418600   2.177   1.793  16.295
  155DOPC   H4R18601   2.072   1.827  16.303
  155DOPC   H4S18602   2.180   1.682  16.283
  155DOPC   C2518603   2.242   1.853  16.172
  155DOPC   H5R18604   2.339   1.801  16.160
  155DOPC   H5S18605   2.259   1.962  16.186
  155DOPC   C2618606   2.163   1.831  16.044
  155DOPC   H6R18607   2.190   1.912  15.973
  155DOPC   H6S18608   2.054   1.836  16.062
  155DOPC   C2718609   2.203   1.697  15.981
  155DOPC   H7R18610   2.193   1.616  16.057
  155DOPC   H7S18611   2.309   1.701  15.952
  155DOPC   C2818612   2.116   1.660  15.860
  155DOPC   H8R18613   2.014   1.660  15.897
  155DOPC   H8S18614   2.141   1.558  15.826
  155DOPC   C2918615   2.109   1.761  15.751
  155DOPC   H9R18616   2.111   1.866  15.783
  155DOPC  C21018617   2.097   1.735  15.620
  155DOPC  H10R18618   2.089   1.819  15.550
  155DOPC  C21118619   2.089   1.600  15.557
  155DOPC  H11R18620   1.999   1.603  15.492
  155DOPC  H11S18621   2.076   1.519  15.632
  155DOPC  C21218622   2.209   1.564  15.471
  155DOPC  H12R18623   2.203   1.456  15.444
  155DOPC  H12S18624   2.301   1.578  15.532
  155DOPC  C21318625   2.214   1.649  15.344
  155DOPC  H13R18626   2.314   1.644  15.297
  155DOPC  H13S18627   2.202   1.755  15.375
  155DOPC  C21418628   2.105   1.617  15.241
  155DOPC  H14R18629   2.079   1.714  15.191
  155DOPC  H14S18630   2.012   1.579  15.288
  155DOPC  C21518631   2.148   1.521  15.128
  155DOPC  H15R18632   2.244   1.562  15.093
  155DOPC  H15S18633   2.074   1.527  15.046
  155DOPC  C21618634   2.163   1.373  15.169
  155DOPC  H16R18635   2.110   1.362  15.265
  155DOPC  H16S18636   2.265   1.340  15.191
  155DOPC  C21718637   2.117   1.265  15.070
  155DOPC  H17R18638   2.008   1.275  15.052
  155DOPC  H17S18639   2.139   1.169  15.123
  155DOPC  C21818640   2.185   1.250  14.934
  155DOPC  H18R18641   2.158   1.334  14.866
  155DOPC  H18S18642   2.150   1.156  14.890
  155DOPC  H18T18643   2.295   1.242  14.944
  155DOPC   C3318644   1.939   1.374  16.262
  155DOPC   H3X18645   1.882   1.350  16.354
  155DOPC   H3Y18646   1.876   1.347  16.174
  155DOPC   C3418647   1.971   1.523  16.258
  155DOPC   H4X18648   2.058   1.536  16.190
  155DOPC   H4Y18649   2.001   1.557  16.360
  155DOPC   C3518650   1.863   1.617  16.204
  155DOPC   H5X18651   1.907   1.720  16.207
  155DOPC   H5Y18652   1.772   1.617  16.268
  155DOPC   C3618653   1.826   1.588  16.059
  155DOPC   H6X18654   1.914   1.552  16.004
  155DOPC   H6Y18655   1.758   1.502  16.053
  155DOPC   C3718656   1.755   1.710  16.000
  155DOPC   H7X18657   1.653   1.691  16.039
  155DOPC   H7Y18658   1.794   1.804  16.045
  155DOPC   C3818659   1.746   1.731  15.848
  155DOPC   H8X18660   1.847   1.725  15.804
  155DOPC   H8Y18661   1.708   1.833  15.826
  155DOPC   C3918662   1.650   1.628  15.798
  155DOPC   H9X18663   1.544   1.644  15.822
  155DOPC  C31018664   1.684   1.520  15.727
  155DOPC  H10X18665   1.608   1.444  15.715
  155DOPC  C31118666   1.822   1.483  15.685
  155DOPC  H11X18667   1.878   1.430  15.765
  155DOPC  H11Y18668   1.875   1.578  15.666
  155DOPC  C31218669   1.822   1.401  15.555
  155DOPC  H12X18670   1.891   1.444  15.480
  155DOPC  H12Y18671   1.722   1.406  15.506
  155DOPC  C31318672   1.867   1.257  15.577
  155DOPC  H13X18673   1.978   1.255  15.593
  155DOPC  H13Y18674   1.823   1.218  15.671
  155DOPC  C31418675   1.829   1.171  15.457
  155DOPC  H14X18676   1.823   1.064  15.486
  155DOPC  H14Y18677   1.728   1.202  15.420
  155DOPC  C31518678   1.928   1.189  15.343
  155DOPC  H15X18679   2.026   1.143  15.372
  155DOPC  H15Y18680   1.942   1.296  15.323
  155DOPC  C31618681   1.879   1.125  15.215
  155DOPC  H16X18682   1.964   1.095  15.152
  155DOPC  H16Y18683   1.843   1.027  15.250
  155DOPC  C31718684   1.769   1.198  15.133
  155DOPC  H17X18685   1.766   1.147  15.034
  155DOPC  H17Y18686   1.675   1.174  15.187
  155DOPC  C31818687   1.757   1.349  15.107
  155DOPC  H18X18688   1.654   1.369  15.067
  155DOPC  H18Y18689   1.766   1.405  15.202
  155DOPC  H18Z18690   1.828   1.388  15.032
  156DOPC     N18691   6.099   5.663  16.984
  156DOPC   C1218692   6.203   5.737  16.899
  156DOPC  H12A18693   6.174   5.728  16.795
  156DOPC  H12B18694   6.299   5.689  16.910
  156DOPC   C1318695   6.113   5.514  16.965
  156DOPC  H13A18696   6.037   5.463  17.022
  156DOPC  H13B18697   6.105   5.482  16.861
  156DOPC  H13C18698   6.209   5.480  17.004
  156DOPC   C1418699   5.960   5.703  16.942
  156DOPC  H14A18700   5.956   5.813  16.932
  156DOPC  H14B18701   5.932   5.661  16.846
  156DOPC  H14C18702   5.886   5.671  17.014
  156DOPC   C1518703   6.120   5.695  17.130
  156DOPC  H15A18704   6.042   5.656  17.195
  156DOPC  H15B18705   6.119   5.803  17.145
  156DOPC  H15C18706   6.214   5.657  17.168
  156DOPC   C1118707   6.222   5.889  16.922
  156DOPC  H11A18708   6.262   5.907  17.024
  156DOPC  H11B18709   6.301   5.926  16.851
  156DOPC     P18710   6.074   6.077  16.807
  156DOPC   O1318711   6.175   6.181  16.838
  156DOPC   O1418712   5.932   6.118  16.813
  156DOPC   O1218713   6.097   5.957  16.908
  156DOPC   O1118714   6.115   6.005  16.671
  156DOPC    C118715   6.029   5.914  16.605
  156DOPC    HA18716   5.965   5.968  16.533
  156DOPC    HB18717   5.962   5.863  16.678
  156DOPC    C218718   6.105   5.801  16.527
  156DOPC    HS18719   6.184   5.760  16.594
  156DOPC   O2118720   6.165   5.851  16.406
  156DOPC   C2118721   6.236   5.762  16.334
  156DOPC   O2218722   6.259   5.647  16.367
  156DOPC   C2218723   6.306   5.835  16.220
  156DOPC   H2R18724   6.411   5.803  16.233
  156DOPC   H2S18725   6.297   5.945  16.234
  156DOPC    C318726   6.001   5.690  16.498
  156DOPC    HX18727   5.972   5.646  16.596
  156DOPC    HY18728   6.048   5.607  16.441
  156DOPC   O3118729   5.882   5.741  16.435
  156DOPC   C3118730   5.879   5.742  16.301
  156DOPC   O3218731   5.966   5.696  16.230
  156DOPC   C3218732   5.745   5.799  16.252
  156DOPC   H2X18733   5.672   5.778  16.333
  156DOPC   H2Y18734   5.760   5.909  16.242
  156DOPC   C2318735   6.279   5.793  16.076
  156DOPC   H3R18736   6.283   5.683  16.073
  156DOPC   H3S18737   6.362   5.830  16.011
  156DOPC   C2418738   6.148   5.841  16.014
  156DOPC   H4R18739   6.161   5.940  15.964
  156DOPC   H4S18740   6.069   5.854  16.091
  156DOPC   C2518741   6.104   5.735  15.912
  156DOPC   H5R18742   5.999   5.752  15.880
  156DOPC   H5S18743   6.106   5.635  15.960
  156DOPC   C2618744   6.194   5.735  15.788
  156DOPC   H6R18745   6.301   5.719  15.815
  156DOPC   H6S18746   6.186   5.836  15.742
  156DOPC   C2718747   6.151   5.626  15.689
  156DOPC   H7R18748   6.040   5.631  15.681
  156DOPC   H7S18749   6.176   5.527  15.732
  156DOPC   C2818750   6.214   5.639  15.550
  156DOPC   H8R18751   6.176   5.557  15.486
  156DOPC   H8S18752   6.324   5.627  15.557
  156DOPC   C2918753   6.178   5.774  15.495
  156DOPC   H9R18754   6.253   5.853  15.508
  156DOPC  C21018755   6.062   5.805  15.436
  156DOPC  H10R18756   6.046   5.906  15.398
  156DOPC  C21118757   5.946   5.714  15.413
  156DOPC  H11R18758   5.853   5.772  15.398
  156DOPC  H11S18759   5.925   5.650  15.500
  156DOPC  C21218760   5.975   5.624  15.291
  156DOPC  H12R18761   5.887   5.562  15.287
  156DOPC  H12S18762   6.061   5.556  15.308
  156DOPC  C21318763   5.988   5.693  15.155
  156DOPC  H13R18764   5.958   5.623  15.075
  156DOPC  H13S18765   6.093   5.718  15.145
  156DOPC  C21418766   5.911   5.823  15.146
  156DOPC  H14R18767   5.954   5.901  15.211
  156DOPC  H14S18768   5.823   5.792  15.200
  156DOPC  C21518769   5.870   5.878  15.009
  156DOPC  H15R18770   5.791   5.812  14.967
  156DOPC  H15S18771   5.955   5.876  14.937
  156DOPC  C21618772   5.817   6.023  15.018
  156DOPC  H16R18773   5.902   6.095  15.007
  156DOPC  H16S18774   5.773   6.039  15.119
  156DOPC  C21718775   5.714   6.055  14.910
  156DOPC  H17R18776   5.629   6.112  14.953
  156DOPC  H17S18777   5.676   5.958  14.872
  156DOPC  C21818778   5.770   6.130  14.791
  156DOPC  H18R18779   5.865   6.083  14.767
  156DOPC  H18S18780   5.787   6.238  14.811
  156DOPC  H18T18781   5.708   6.117  14.701
  156DOPC   C3318782   5.691   5.738  16.119
  156DOPC   H3X18783   5.631   5.647  16.143
  156DOPC   H3Y18784   5.777   5.707  16.056
  156DOPC   C3418785   5.594   5.815  16.026
  156DOPC   H4X18786   5.493   5.827  16.071
  156DOPC   H4Y18787   5.580   5.747  15.939
  156DOPC   C3518788   5.643   5.947  15.967
  156DOPC   H5X18789   5.662   6.020  16.048
  156DOPC   H5Y18790   5.561   5.989  15.904
  156DOPC   C3618791   5.768   5.924  15.882
  156DOPC   H6X18792   5.847   5.882  15.947
  156DOPC   H6Y18793   5.746   5.849  15.802
  156DOPC   C3718794   5.823   6.051  15.817
  156DOPC   H7X18795   5.744   6.099  15.755
  156DOPC   H7Y18796   5.849   6.121  15.900
  156DOPC   C3818797   5.947   6.022  15.732
  156DOPC   H8X18798   5.918   5.960  15.644
  156DOPC   H8Y18799   6.017   5.959  15.791
  156DOPC   C3918800   6.016   6.150  15.696
  156DOPC   H9X18801   6.087   6.188  15.772
  156DOPC  C31018802   5.998   6.221  15.584
  156DOPC  H10X18803   6.050   6.317  15.572
  156DOPC  C31118804   5.904   6.185  15.472
  156DOPC  H11X18805   5.811   6.245  15.483
  156DOPC  H11Y18806   5.872   6.079  15.476
  156DOPC  C31218807   5.966   6.210  15.333
  156DOPC  H12X18808   5.965   6.319  15.311
  156DOPC  H12Y18809   5.898   6.162  15.259
  156DOPC  C31318810   6.111   6.159  15.315
  156DOPC  H13X18811   6.183   6.242  15.333
  156DOPC  H13Y18812   6.132   6.083  15.392
  156DOPC  C31418813   6.140   6.096  15.177
  156DOPC  H14X18814   6.046   6.053  15.141
  156DOPC  H14Y18815   6.168   6.173  15.104
  156DOPC  C31518816   6.245   5.981  15.181
  156DOPC  H15X18817   6.225   5.916  15.268
  156DOPC  H15Y18818   6.346   6.025  15.194
  156DOPC  C31618819   6.245   5.893  15.056
  156DOPC  H16X18820   6.143   5.864  15.026
  156DOPC  H16Y18821   6.278   5.961  14.975
  156DOPC  C31718822   6.338   5.768  15.056
  156DOPC  H17X18823   6.328   5.729  14.952
  156DOPC  H17Y18824   6.442   5.806  15.070
  156DOPC  C31818825   6.320   5.645  15.147
  156DOPC  H18X18826   6.289   5.674  15.250
  156DOPC  H18Y18827   6.244   5.575  15.106
  156DOPC  H18Z18828   6.415   5.587  15.154
  157DOPC     N18829   6.002   1.811  16.922
  157DOPC   C1218830   6.054   1.729  16.804
  157DOPC  H12A18831   6.130   1.784  16.750
  157DOPC  H12B18832   5.971   1.718  16.736
  157DOPC   C1318833   6.080   1.778  17.046
  157DOPC  H13A18834   6.184   1.804  17.035
  157DOPC  H13B18835   6.037   1.828  17.132
  157DOPC  H13C18836   6.073   1.671  17.063
  157DOPC   C1418837   5.859   1.774  16.949
  157DOPC  H14A18838   5.850   1.665  16.954
  157DOPC  H14B18839   5.825   1.818  17.043
  157DOPC  H14C18840   5.792   1.807  16.871
  157DOPC   C1518841   6.008   1.959  16.898
  157DOPC  H15A18842   5.937   1.990  16.821
  157DOPC  H15B18843   6.107   1.991  16.869
  157DOPC  H15C18844   5.979   2.011  16.989
  157DOPC   C1118845   6.106   1.583  16.823
  157DOPC  H11A18846   6.144   1.547  16.724
  157DOPC  H11B18847   6.193   1.582  16.892
  157DOPC     P18848   6.029   1.337  16.878
  157DOPC   O1318849   5.937   1.284  16.982
  157DOPC   O1418850   6.173   1.319  16.901
  157DOPC   O1218851   6.003   1.496  16.870
  157DOPC   O1118852   5.990   1.283  16.732
  157DOPC    C118853   5.897   1.362  16.657
  157DOPC    HA18854   5.932   1.468  16.647
  157DOPC    HB18855   5.799   1.361  16.710
  157DOPC    C218856   5.868   1.314  16.511
  157DOPC    HS18857   5.857   1.204  16.512
  157DOPC   O2118858   5.973   1.353  16.420
  157DOPC   C2118859   5.959   1.321  16.292
  157DOPC   O2218860   5.867   1.263  16.239
  157DOPC   C2218861   6.082   1.374  16.223
  157DOPC   H2R18862   6.166   1.320  16.271
  157DOPC   H2S18863   6.096   1.481  16.246
  157DOPC    C318864   5.735   1.382  16.468
  157DOPC    HX18865   5.662   1.368  16.550
  157DOPC    HY18866   5.694   1.331  16.380
  157DOPC   O3118867   5.760   1.521  16.433
  157DOPC   C3118868   5.706   1.613  16.509
  157DOPC   O3218869   5.629   1.595  16.601
  157DOPC   C3218870   5.760   1.750  16.464
  157DOPC   H2X18871   5.786   1.746  16.357
  157DOPC   H2Y18872   5.679   1.823  16.480
  157DOPC   C2318873   6.075   1.355  16.071
  157DOPC   H3R18874   6.063   1.249  16.040
  157DOPC   H3S18875   6.171   1.396  16.032
  157DOPC   C2418876   5.972   1.444  16.006
  157DOPC   H4R18877   5.962   1.535  16.071
  157DOPC   H4S18878   5.874   1.392  16.003
  157DOPC   C2518879   6.012   1.494  15.867
  157DOPC   H5R18880   5.997   1.415  15.791
  157DOPC   H5S18881   6.120   1.521  15.864
  157DOPC   C2618882   5.931   1.620  15.835
  157DOPC   H6R18883   5.967   1.664  15.740
  157DOPC   H6S18884   5.950   1.695  15.915
  157DOPC   C2718885   5.779   1.592  15.827
  157DOPC   H7R18886   5.723   1.687  15.831
  157DOPC   H7S18887   5.746   1.534  15.916
  157DOPC   C2818888   5.744   1.517  15.696
  157DOPC   H8R18889   5.811   1.430  15.693
  157DOPC   H8S18890   5.773   1.582  15.610
  157DOPC   C2918891   5.601   1.471  15.681
  157DOPC   H9R18892   5.545   1.463  15.776
  157DOPC  C21018893   5.537   1.444  15.565
  157DOPC  H10R18894   5.432   1.412  15.569
  157DOPC  C21118895   5.596   1.453  15.425
  157DOPC  H11R18896   5.700   1.414  15.418
  157DOPC  H11S18897   5.603   1.563  15.406
  157DOPC  C21218898   5.507   1.399  15.311
  157DOPC  H12R18899   5.472   1.489  15.257
  157DOPC  H12S18900   5.418   1.348  15.354
  157DOPC  C21318901   5.554   1.309  15.194
  157DOPC  H13R18902   5.497   1.332  15.101
  157DOPC  H13S18903   5.523   1.205  15.219
  157DOPC  C21418904   5.701   1.304  15.157
  157DOPC  H14R18905   5.767   1.319  15.245
  157DOPC  H14S18906   5.727   1.379  15.080
  157DOPC  C21518907   5.724   1.163  15.102
  157DOPC  H15R18908   5.657   1.145  15.014
  157DOPC  H15S18909   5.697   1.089  15.180
  157DOPC  C21618910   5.867   1.138  15.066
  157DOPC  H16R18911   5.932   1.189  15.141
  157DOPC  H16S18912   5.877   1.191  14.969
  157DOPC  C21718913   5.900   0.989  15.062
  157DOPC  H17R18914   5.825   0.938  14.997
  157DOPC  H17S18915   5.886   0.950  15.165
  157DOPC  C21818916   6.039   0.949  15.015
  157DOPC  H18R18917   6.075   0.865  15.078
  157DOPC  H18S18918   6.116   1.027  15.024
  157DOPC  H18T18919   6.038   0.917  14.909
  157DOPC   C3318920   5.874   1.808  16.550
  157DOPC   H3X18921   5.972   1.765  16.519
  157DOPC   H3Y18922   5.851   1.781  16.655
  157DOPC   C3418923   5.875   1.961  16.543
  157DOPC   H4X18924   5.958   2.000  16.605
  157DOPC   H4Y18925   5.779   1.999  16.588
  157DOPC   C3518926   5.886   2.018  16.402
  157DOPC   H5X18927   5.904   2.127  16.407
  157DOPC   H5Y18928   5.789   2.003  16.349
  157DOPC   C3618929   5.996   1.951  16.318
  157DOPC   H6X18930   6.089   1.944  16.379
  157DOPC   H6Y18931   5.966   1.847  16.291
  157DOPC   C3718932   6.030   2.026  16.189
  157DOPC   H7X18933   6.094   2.110  16.218
  157DOPC   H7Y18934   6.091   1.962  16.122
  157DOPC   C3818935   5.909   2.084  16.113
  157DOPC   H8X18936   5.948   2.161  16.042
  157DOPC   H8Y18937   5.842   2.141  16.181
  157DOPC   C3918938   5.830   1.978  16.042
  157DOPC   H9X18939   5.785   1.900  16.106
  157DOPC  C31018940   5.814   1.969  15.909
  157DOPC  H10X18941   5.751   1.887  15.871
  157DOPC  C31118942   5.871   2.061  15.804
  157DOPC  H11X18943   5.952   2.127  15.842
  157DOPC  H11Y18944   5.791   2.126  15.763
  157DOPC  C31218945   5.929   1.979  15.688
  157DOPC  H12X18946   6.014   1.916  15.722
  157DOPC  H12Y18947   5.968   2.049  15.611
  157DOPC  C31318948   5.821   1.892  15.624
  157DOPC  H13X18949   5.808   1.801  15.684
  157DOPC  H13Y18950   5.725   1.947  15.625
  157DOPC  C31418951   5.851   1.849  15.482
  157DOPC  H14X18952   5.775   1.772  15.452
  157DOPC  H14Y18953   5.841   1.936  15.414
  157DOPC  C31518954   5.988   1.786  15.464
  157DOPC  H15X18955   6.002   1.700  15.533
  157DOPC  H15Y18956   6.068   1.861  15.486
  157DOPC  C31618957   5.998   1.739  15.321
  157DOPC  H16X18958   5.931   1.651  15.306
  157DOPC  H16Y18959   5.957   1.821  15.256
  157DOPC  C31718960   6.140   1.711  15.279
  157DOPC  H17X18961   6.212   1.767  15.342
  157DOPC  H17Y18962   6.161   1.602  15.292
  157DOPC  C31818963   6.161   1.753  15.135
  157DOPC  H18X18964   6.068   1.739  15.075
  157DOPC  H18Y18965   6.190   1.860  15.126
  157DOPC  H18Z18966   6.241   1.691  15.089
  158DOPC     N18967   4.175   7.097  16.935
  158DOPC   C1218968   4.080   7.099  16.816
  158DOPC  H12A18969   4.009   7.016  16.826
  158DOPC  H12B18970   4.135   7.084  16.725
  158DOPC   C1318971   4.248   6.967  16.942
  158DOPC  H13A18972   4.176   6.886  16.949
  158DOPC  H13B18973   4.312   6.950  16.857
  158DOPC  H13C18974   4.311   6.963  17.031
  158DOPC   C1418975   4.094   7.115  17.059
  158DOPC  H14A18976   4.155   7.118  17.148
  158DOPC  H14B18977   4.036   7.207  17.049
  158DOPC  H14C18978   4.018   7.037  17.065
  158DOPC   C1518979   4.275   7.209  16.925
  158DOPC  H15A18980   4.226   7.305  16.931
  158DOPC  H15B18981   4.333   7.205  16.833
  158DOPC  H15C18982   4.349   7.199  17.004
  158DOPC   C1118983   3.995   7.227  16.801
  158DOPC  H11A18984   4.061   7.316  16.797
  158DOPC  H11B18985   3.944   7.221  16.701
  158DOPC     P18986   3.764   7.167  16.903
  158DOPC   O1318987   3.682   7.194  17.024
  158DOPC   O1418988   3.805   7.027  16.875
  158DOPC   O1218989   3.901   7.247  16.908
  158DOPC   O1118990   3.687   7.230  16.779
  158DOPC    C118991   3.720   7.360  16.729
  158DOPC    HA18992   3.824   7.391  16.748
  158DOPC    HB18993   3.657   7.436  16.779
  158DOPC    C218994   3.700   7.368  16.576
  158DOPC    HS18995   3.590   7.372  16.563
  158DOPC   O2118996   3.762   7.256  16.507
  158DOPC   C2118997   3.683   7.202  16.414
  158DOPC   O2218998   3.561   7.210  16.416
  158DOPC   C2218999   3.764   7.142  16.299
  158DOPC   H2R19000   3.858   7.200  16.291
  158DOPC   H2S19001   3.706   7.158  16.206
  158DOPC    C319002   3.757   7.501  16.519
  158DOPC    HX19003   3.707   7.584  16.573
  158DOPC    HY19004   3.724   7.510  16.413
  158DOPC   O3119005   3.901   7.514  16.536
  158DOPC   C3119006   3.973   7.467  16.433
  158DOPC   O3219007   3.926   7.422  16.330
  158DOPC   C3219008   4.123   7.475  16.461
  158DOPC   H2X19009   4.164   7.562  16.406
  158DOPC   H2Y19010   4.139   7.491  16.569
  158DOPC   C2319011   3.799   6.993  16.316
  158DOPC   H3R19012   3.707   6.931  16.307
  158DOPC   H3S19013   3.838   6.977  16.420
  158DOPC   C2419014   3.907   6.947  16.217
  158DOPC   H4R19015   3.966   6.867  16.267
  158DOPC   H4S19016   3.976   7.030  16.193
  158DOPC   C2519017   3.850   6.886  16.088
  158DOPC   H5R19018   3.752   6.837  16.110
  158DOPC   H5S19019   3.919   6.807  16.051
  158DOPC   C2619020   3.831   6.988  15.974
  158DOPC   H6R19021   3.931   7.031  15.949
  158DOPC   H6S19022   3.766   7.071  16.007
  158DOPC   C2719023   3.770   6.920  15.851
  158DOPC   H7R19024   3.666   6.888  15.878
  158DOPC   H7S19025   3.828   6.827  15.828
  158DOPC   C2819026   3.763   7.006  15.724
  158DOPC   H8R19027   3.695   7.093  15.743
  158DOPC   H8S19028   3.716   6.945  15.644
  158DOPC   C2919029   3.897   7.056  15.679
  158DOPC   H9R19030   3.983   7.022  15.738
  158DOPC  C21019031   3.918   7.132  15.570
  158DOPC  H10R19032   4.018   7.167  15.547
  158DOPC  C21119033   3.811   7.180  15.475
  158DOPC  H11R19034   3.720   7.116  15.483
  158DOPC  H11S19035   3.847   7.169  15.370
  158DOPC  C21219036   3.769   7.325  15.498
  158DOPC  H12R19037   3.849   7.396  15.468
  158DOPC  H12S19038   3.751   7.342  15.607
  158DOPC  C21319039   3.638   7.353  15.423
  158DOPC  H13R19040   3.591   7.445  15.463
  158DOPC  H13S19041   3.567   7.271  15.447
  158DOPC  C21419042   3.652   7.360  15.269
  158DOPC  H14R19043   3.559   7.407  15.230
  158DOPC  H14S19044   3.656   7.256  15.230
  158DOPC  C21519045   3.774   7.435  15.211
  158DOPC  H15R19046   3.861   7.369  15.212
  158DOPC  H15S19047   3.807   7.522  15.271
  158DOPC  C21619048   3.746   7.485  15.069
  158DOPC  H16R19049   3.645   7.531  15.065
  158DOPC  H16S19050   3.747   7.398  14.998
  158DOPC  C21719051   3.849   7.588  15.022
  158DOPC  H17R19052   3.948   7.538  15.029
  158DOPC  H17S19053   3.850   7.676  15.090
  158DOPC  C21819054   3.824   7.635  14.879
  158DOPC  H18R19055   3.917   7.678  14.834
  158DOPC  H18S19056   3.745   7.713  14.877
  158DOPC  H18T19057   3.791   7.550  14.815
  158DOPC   C3319058   4.197   7.348  16.414
  158DOPC   H3X19059   4.169   7.324  16.309
  158DOPC   H3Y19060   4.167   7.262  16.479
  158DOPC   C3419061   4.350   7.364  16.423
  158DOPC   H4X19062   4.378   7.409  16.521
  158DOPC   H4Y19063   4.383   7.435  16.344
  158DOPC   C3519064   4.426   7.231  16.408
  158DOPC   H5X19065   4.406   7.167  16.496
  158DOPC   H5Y19066   4.535   7.254  16.409
  158DOPC   C3619067   4.393   7.155  16.279
  158DOPC   H6X19068   4.448   7.058  16.280
  158DOPC   H6Y19069   4.284   7.131  16.274
  158DOPC   C3719070   4.436   7.233  16.154
  158DOPC   H7X19071   4.383   7.330  16.148
  158DOPC   H7Y19072   4.545   7.256  16.167
  158DOPC   C3819073   4.420   7.153  16.024
  158DOPC   H8X19074   4.455   7.049  16.040
  158DOPC   H8Y19075   4.487   7.200  15.949
  158DOPC   C3919076   4.278   7.156  15.975
  158DOPC   H9X19077   4.200   7.180  16.050
  158DOPC  C31019078   4.242   7.129  15.849
  158DOPC  H10X19079   4.137   7.142  15.819
  158DOPC  C31119080   4.338   7.091  15.739
  158DOPC  H11X19081   4.289   7.017  15.672
  158DOPC  H11Y19082   4.428   7.040  15.780
  158DOPC  C31219083   4.384   7.211  15.653
  158DOPC  H12X19084   4.460   7.173  15.582
  158DOPC  H12Y19085   4.432   7.289  15.716
  158DOPC  C31319086   4.266   7.269  15.574
  158DOPC  H13X19087   4.208   7.181  15.540
  158DOPC  H13Y19088   4.202   7.330  15.642
  158DOPC  C31419089   4.303   7.350  15.449
  158DOPC  H14X19090   4.220   7.419  15.424
  158DOPC  H14Y19091   4.393   7.412  15.471
  158DOPC  C31519092   4.332   7.260  15.327
  158DOPC  H15X19093   4.403   7.181  15.358
  158DOPC  H15Y19094   4.382   7.320  15.248
  158DOPC  C31619095   4.208   7.191  15.265
  158DOPC  H16X19096   4.245   7.110  15.198
  158DOPC  H16Y19097   4.146   7.142  15.343
  158DOPC  C31719098   4.119   7.282  15.181
  158DOPC  H17X19099   4.069   7.357  15.247
  158DOPC  H17Y19100   4.182   7.339  15.109
  158DOPC  C31819101   4.013   7.204  15.102
  158DOPC  H18X19102   4.060   7.125  15.039
  158DOPC  H18Y19103   3.940   7.155  15.171
  158DOPC  H18Z19104   3.956   7.272  15.036
  159DOPC     N19105   6.658   2.041  17.096
  159DOPC   C1219106   6.776   1.993  17.011
  159DOPC  H12A19107   6.751   1.901  16.958
  159DOPC  H12B19108   6.858   1.967  17.076
  159DOPC   C1319109   6.627   1.940  17.200
  159DOPC  H13A19110   6.544   1.974  17.261
  159DOPC  H13B19111   6.603   1.842  17.159
  159DOPC  H13C19112   6.712   1.925  17.266
  159DOPC   C1419113   6.539   2.060  17.007
  159DOPC  H14A19114   6.511   1.966  16.958
  159DOPC  H14B19115   6.454   2.105  17.055
  159DOPC  H14C19116   6.568   2.122  16.922
  159DOPC   C1519117   6.696   2.171  17.157
  159DOPC  H15A19118   6.792   2.167  17.207
  159DOPC  H15B19119   6.620   2.208  17.224
  159DOPC  H15C19120   6.707   2.242  17.075
  159DOPC   C1119121   6.826   2.091  16.901
  159DOPC  H11A19122   6.856   2.188  16.945
  159DOPC  H11B19123   6.918   2.050  16.853
  159DOPC     P19124   6.688   1.990  16.707
  159DOPC   O1319125   6.546   1.956  16.727
  159DOPC   O1419126   6.785   1.880  16.733
  159DOPC   O1219127   6.722   2.112  16.806
  159DOPC   O1119128   6.712   2.060  16.566
  159DOPC    C119129   6.784   2.185  16.571
  159DOPC    HA19130   6.872   2.176  16.641
  159DOPC    HB19131   6.719   2.267  16.608
  159DOPC    C219132   6.854   2.233  16.441
  159DOPC    HS19133   6.918   2.319  16.473
  159DOPC   O2119134   6.762   2.274  16.339
  159DOPC   C2119135   6.824   2.341  16.242
  159DOPC   O2219136   6.936   2.390  16.250
  159DOPC   C2219137   6.733   2.349  16.121
  159DOPC   H2R19138   6.638   2.398  16.151
  159DOPC   H2S19139   6.709   2.245  16.093
  159DOPC    C319140   6.948   2.124  16.384
  159DOPC    HX19141   7.029   2.116  16.458
  159DOPC    HY19142   6.997   2.156  16.290
  159DOPC   O3119143   6.883   1.995  16.369
  159DOPC   C3119144   6.825   1.974  16.254
  159DOPC   O3219145   6.824   2.050  16.159
  159DOPC   C3219146   6.772   1.830  16.247
  159DOPC   H2X19147   6.831   1.768  16.317
  159DOPC   H2Y19148   6.666   1.830  16.280
  159DOPC   C2319149   6.796   2.422  16.000
  159DOPC   H3R19150   6.896   2.379  15.975
  159DOPC   H3S19151   6.812   2.529  16.026
  159DOPC   C2419152   6.705   2.413  15.877
  159DOPC   H4R19153   6.744   2.480  15.798
  159DOPC   H4S19154   6.603   2.447  15.905
  159DOPC   C2519155   6.695   2.270  15.821
  159DOPC   H5R19156   6.652   2.202  15.898
  159DOPC   H5S19157   6.798   2.233  15.800
  159DOPC   C2619158   6.607   2.262  15.696
  159DOPC   H6R19159   6.519   2.329  15.709
  159DOPC   H6S19160   6.568   2.158  15.685
  159DOPC   C2719161   6.685   2.298  15.569
  159DOPC   H7R19162   6.744   2.390  15.588
  159DOPC   H7S19163   6.613   2.319  15.486
  159DOPC   C2819164   6.777   2.182  15.529
  159DOPC   H8R19165   6.715   2.101  15.485
  159DOPC   H8S19166   6.821   2.139  15.621
  159DOPC   C2919167   6.887   2.218  15.432
  159DOPC   H9R19168   6.870   2.306  15.369
  159DOPC  C21019169   7.005   2.155  15.424
  159DOPC  H10R19170   7.075   2.183  15.345
  159DOPC  C21119171   7.048   2.038  15.509
  159DOPC  H11R19172   7.004   2.042  15.611
  159DOPC  H11S19173   7.158   2.042  15.523
  159DOPC  C21219174   7.008   1.905  15.444
  159DOPC  H12R19175   6.901   1.909  15.414
  159DOPC  H12S19176   7.022   1.823  15.518
  159DOPC  C21319177   7.093   1.872  15.324
  159DOPC  H13R19178   7.200   1.891  15.351
  159DOPC  H13S19179   7.064   1.943  15.244
  159DOPC  C21419180   7.083   1.725  15.279
  159DOPC  H14R19181   6.984   1.705  15.233
  159DOPC  H14S19182   7.094   1.658  15.367
  159DOPC  C21519183   7.195   1.696  15.180
  159DOPC  H15R19184   7.210   1.590  15.158
  159DOPC  H15S19185   7.290   1.728  15.228
  159DOPC  C21619186   7.179   1.778  15.053
  159DOPC  H16R19187   7.271   1.773  14.991
  159DOPC  H16S19188   7.164   1.882  15.088
  159DOPC  C21719189   7.060   1.765  14.960
  159DOPC  H17R19190   7.041   1.870  14.926
  159DOPC  H17S19191   6.969   1.729  15.011
  159DOPC  C21819192   7.095   1.688  14.835
  159DOPC  H18R19193   7.088   1.581  14.858
  159DOPC  H18S19194   7.199   1.704  14.801
  159DOPC  H18T19195   7.028   1.716  14.750
  159DOPC   C3319196   6.787   1.774  16.103
  159DOPC   H3X19197   6.735   1.838  16.029
  159DOPC   H3Y19198   6.742   1.673  16.096
  159DOPC   C3419199   6.937   1.761  16.070
  159DOPC   H4X19200   6.985   1.722  16.161
  159DOPC   H4Y19201   6.976   1.863  16.047
  159DOPC   C3519202   6.976   1.664  15.958
  159DOPC   H5X19203   6.995   1.569  16.008
  159DOPC   H5Y19204   7.074   1.683  15.912
  159DOPC   C3619205   6.878   1.669  15.839
  159DOPC   H6X19206   6.907   1.591  15.765
  159DOPC   H6Y19207   6.774   1.648  15.872
  159DOPC   C3719208   6.886   1.805  15.769
  159DOPC   H7X19209   6.876   1.889  15.840
  159DOPC   H7Y19210   6.988   1.810  15.725
  159DOPC   C3819211   6.790   1.826  15.652
  159DOPC   H8X19212   6.823   1.755  15.573
  159DOPC   H8Y19213   6.807   1.927  15.612
  159DOPC   C3919214   6.643   1.814  15.680
  159DOPC   H9X19215   6.602   1.882  15.756
  159DOPC  C31019216   6.562   1.733  15.611
  159DOPC  H10X19217   6.454   1.729  15.633
  159DOPC  C31119218   6.608   1.644  15.500
  159DOPC  H11X19219   6.521   1.579  15.479
  159DOPC  H11Y19220   6.693   1.579  15.533
  159DOPC  C31219221   6.651   1.714  15.369
  159DOPC  H12X19222   6.681   1.638  15.294
  159DOPC  H12Y19223   6.740   1.778  15.384
  159DOPC  C31319224   6.539   1.799  15.307
  159DOPC  H13X19225   6.451   1.733  15.292
  159DOPC  H13Y19226   6.511   1.879  15.378
  159DOPC  C31419227   6.578   1.860  15.172
  159DOPC  H14X19228   6.634   1.786  15.111
  159DOPC  H14Y19229   6.484   1.883  15.116
  159DOPC  C31519230   6.659   1.991  15.183
  159DOPC  H15X19231   6.697   2.014  15.081
  159DOPC  H15Y19232   6.748   1.978  15.248
  159DOPC  C31619233   6.572   2.107  15.235
  159DOPC  H16X19234   6.469   2.092  15.198
  159DOPC  H16Y19235   6.562   2.097  15.345
  159DOPC  C31719236   6.619   2.251  15.202
  159DOPC  H17X19237   6.537   2.320  15.231
  159DOPC  H17Y19238   6.702   2.274  15.270
  159DOPC  C31819239   6.666   2.286  15.060
  159DOPC  H18X19240   6.588   2.346  15.007
  159DOPC  H18Y19241   6.758   2.347  15.063
  159DOPC  H18Z19242   6.687   2.197  14.998
  160DOPC     N19243   1.877   6.892  16.938
  160DOPC   C1219244   1.827   6.752  16.970
  160DOPC  H12A19245   1.793   6.710  16.876
  160DOPC  H12B19246   1.744   6.759  17.040
  160DOPC   C1319247   1.991   6.875  16.843
  160DOPC  H13A19248   2.072   6.821  16.892
  160DOPC  H13B19249   1.963   6.808  16.761
  160DOPC  H13C19250   2.028   6.967  16.800
  160DOPC   C1419251   1.925   6.956  17.065
  160DOPC  H14A19252   2.006   6.896  17.104
  160DOPC  H14B19253   1.960   7.057  17.049
  160DOPC  H14C19254   1.845   6.959  17.139
  160DOPC   C1519255   1.770   6.978  16.877
  160DOPC  H15A19256   1.805   7.079  16.855
  160DOPC  H15B19257   1.687   6.991  16.948
  160DOPC  H15C19258   1.732   6.935  16.786
  160DOPC   C1119259   1.928   6.646  17.027
  160DOPC  H11A19260   1.973   6.686  17.120
  160DOPC  H11B19261   1.871   6.555  17.055
  160DOPC     P19262   2.004   6.530  16.804
  160DOPC   O1319263   1.954   6.397  16.847
  160DOPC   O1419264   2.123   6.529  16.718
  160DOPC   O1219265   2.033   6.612  16.936
  160DOPC   O1119266   1.882   6.611  16.739
  160DOPC    C119267   1.806   6.561  16.630
  160DOPC    HA19268   1.716   6.511  16.671
  160DOPC    HB19269   1.864   6.487  16.569
  160DOPC    C219270   1.756   6.671  16.530
  160DOPC    HS19271   1.743   6.622  16.430
  160DOPC   O2119272   1.845   6.784  16.525
  160DOPC   C2119273   1.938   6.774  16.433
  160DOPC   O2219274   1.961   6.677  16.364
  160DOPC   C2219275   1.997   6.915  16.412
  160DOPC   H2R19276   2.052   6.938  16.505
  160DOPC   H2S19277   1.912   6.985  16.401
  160DOPC    C319278   1.616   6.731  16.567
  160DOPC    HX19279   1.623   6.757  16.674
  160DOPC    HY19280   1.535   6.655  16.556
  160DOPC   O3119281   1.585   6.853  16.493
  160DOPC   C3119282   1.557   6.832  16.363
  160DOPC   O3219283   1.535   6.723  16.314
  160DOPC   C3219284   1.557   6.967  16.289
  160DOPC   H2X19285   1.459   7.015  16.312
  160DOPC   H2Y19286   1.638   7.030  16.332
  160DOPC   C2319287   2.093   6.929  16.292
  160DOPC   H3R19288   2.126   6.825  16.269
  160DOPC   H3S19289   2.186   6.983  16.318
  160DOPC   C2419290   2.037   6.977  16.160
  160DOPC   H4R19291   2.121   6.982  16.086
  160DOPC   H4S19292   1.987   7.076  16.160
  160DOPC   C2519293   1.940   6.869  16.119
  160DOPC   H5R19294   1.847   6.877  16.178
  160DOPC   H5S19295   1.981   6.768  16.141
  160DOPC   C2619296   1.915   6.867  15.971
  160DOPC   H6R19297   2.012   6.853  15.918
  160DOPC   H6S19298   1.874   6.966  15.941
  160DOPC   C2719299   1.820   6.752  15.938
  160DOPC   H7R19300   1.750   6.735  16.024
  160DOPC   H7S19301   1.877   6.657  15.923
  160DOPC   C2819302   1.739   6.786  15.815
  160DOPC   H8R19303   1.683   6.877  15.844
  160DOPC   H8S19304   1.663   6.709  15.789
  160DOPC   C2919305   1.846   6.809  15.712
  160DOPC   H9R19306   1.892   6.909  15.716
  160DOPC  C21019307   1.882   6.728  15.613
  160DOPC  H10R19308   1.966   6.758  15.549
  160DOPC  C21119309   1.824   6.595  15.577
  160DOPC  H11R19310   1.742   6.565  15.646
  160DOPC  H11S19311   1.903   6.517  15.583
  160DOPC  C21219312   1.771   6.607  15.433
  160DOPC  H12R19313   1.757   6.507  15.390
  160DOPC  H12S19314   1.846   6.657  15.368
  160DOPC  C21319315   1.637   6.684  15.424
  160DOPC  H13R19316   1.655   6.788  15.456
  160DOPC  H13S19317   1.563   6.640  15.494
  160DOPC  C21419318   1.579   6.689  15.282
  160DOPC  H14R19319   1.492   6.621  15.275
  160DOPC  H14S19320   1.657   6.656  15.211
  160DOPC  C21519321   1.535   6.829  15.237
  160DOPC  H15R19322   1.625   6.895  15.243
  160DOPC  H15S19323   1.459   6.869  15.307
  160DOPC  C21619324   1.482   6.831  15.093
  160DOPC  H16R19325   1.421   6.742  15.072
  160DOPC  H16S19326   1.564   6.807  15.024
  160DOPC  C21719327   1.406   6.959  15.052
  160DOPC  H17R19328   1.297   6.939  15.054
  160DOPC  H17S19329   1.435   6.980  14.947
  160DOPC  C21819330   1.433   7.090  15.126
  160DOPC  H18R19331   1.356   7.166  15.102
  160DOPC  H18S19332   1.530   7.130  15.091
  160DOPC  H18T19333   1.437   7.076  15.236
  160DOPC   C3319334   1.573   6.960  16.135
  160DOPC   H3X19335   1.515   6.875  16.093
  160DOPC   H3Y19336   1.678   6.945  16.106
  160DOPC   C3419337   1.526   7.092  16.070
  160DOPC   H4X19338   1.598   7.170  16.103
  160DOPC   H4Y19339   1.428   7.123  16.111
  160DOPC   C3519340   1.521   7.095  15.916
  160DOPC   H5X19341   1.626   7.091  15.884
  160DOPC   H5Y19342   1.481   7.195  15.886
  160DOPC   C3619343   1.437   6.990  15.839
  160DOPC   H6X19344   1.475   6.887  15.853
  160DOPC   H6Y19345   1.334   6.993  15.878
  160DOPC   C3719346   1.416   7.020  15.689
  160DOPC   H7X19347   1.323   6.966  15.657
  160DOPC   H7Y19348   1.397   7.128  15.673
  160DOPC   C3819349   1.529   6.970  15.598
  160DOPC   H8X19350   1.498   6.984  15.492
  160DOPC   H8Y19351   1.538   6.860  15.615
  160DOPC   C3919352   1.658   7.041  15.628
  160DOPC   H9X19353   1.698   7.020  15.727
  160DOPC  C31019354   1.744   7.105  15.549
  160DOPC  H10X19355   1.835   7.149  15.592
  160DOPC  C31119356   1.727   7.120  15.402
  160DOPC  H11X19357   1.707   7.224  15.376
  160DOPC  H11Y19358   1.640   7.061  15.368
  160DOPC  C31219359   1.849   7.067  15.326
  160DOPC  H12X19360   1.927   7.144  15.312
  160DOPC  H12Y19361   1.809   7.041  15.226
  160DOPC  C31319362   1.918   6.944  15.385
  160DOPC  H13X19363   1.956   6.964  15.487
  160DOPC  H13Y19364   1.840   6.865  15.389
  160DOPC  C31419365   2.033   6.894  15.298
  160DOPC  H14X19366   2.117   6.967  15.300
  160DOPC  H14Y19367   2.071   6.797  15.338
  160DOPC  C31519368   1.982   6.876  15.155
  160DOPC  H15X19369   1.979   6.976  15.107
  160DOPC  H15Y19370   1.878   6.836  15.159
  160DOPC  C31619371   2.068   6.785  15.070
  160DOPC  H16X19372   2.035   6.794  14.964
  160DOPC  H16Y19373   2.170   6.827  15.079
  160DOPC  C31719374   2.068   6.637  15.110
  160DOPC  H17X19375   2.142   6.585  15.046
  160DOPC  H17Y19376   2.101   6.626  15.215
  160DOPC  C31819377   1.933   6.568  15.093
  160DOPC  H18X19378   1.942   6.459  15.110
  160DOPC  H18Y19379   1.859   6.609  15.165
  160DOPC  H18Z19380   1.893   6.585  14.991
  161DOPC     N19381   3.834   0.273  17.081
  161DOPC   C1219382   3.793   0.340  16.949
  161DOPC  H12A19383   3.858   0.427  16.932
  161DOPC  H12B19384   3.693   0.380  16.957
  161DOPC   C1319385   3.984   0.279  17.089
  161DOPC  H13A19386   4.017   0.383  17.080
  161DOPC  H13B19387   4.024   0.242  17.182
  161DOPC  H13C19388   4.028   0.227  17.004
  161DOPC   C1419389   3.785   0.131  17.083
  161DOPC  H14A19390   3.833   0.076  17.003
  161DOPC  H14B19391   3.801   0.080  17.177
  161DOPC  H14C19392   3.678   0.130  17.065
  161DOPC   C1519393   3.779   0.350  17.196
  161DOPC  H15A19394   3.671   0.358  17.192
  161DOPC  H15B19395   3.819   0.452  17.197
  161DOPC  H15C19396   3.806   0.305  17.290
  161DOPC   C1119397   3.806   0.255  16.821
  161DOPC  H11A19398   3.746   0.162  16.830
  161DOPC  H11B19399   3.760   0.309  16.734
  161DOPC     P19400   4.035   0.338  16.731
  161DOPC   O1319401   4.177   0.302  16.746
  161DOPC   O1419402   3.988   0.466  16.790
  161DOPC   O1219403   3.943   0.222  16.796
  161DOPC   O1119404   4.000   0.324  16.574
  161DOPC    C119405   3.987   0.189  16.525
  161DOPC    HA19406   3.880   0.163  16.530
  161DOPC    HB19407   4.040   0.115  16.590
  161DOPC    C219408   4.040   0.155  16.380
  161DOPC    HS19409   4.124   0.084  16.397
  161DOPC   O2119410   4.086   0.265  16.297
  161DOPC   C2119411   4.107   0.231  16.168
  161DOPC   O2219412   4.177   0.140  16.129
  161DOPC   C2219413   4.012   0.309  16.074
  161DOPC   H2R19414   3.941   0.235  16.033
  161DOPC   H2S19415   4.072   0.348  15.990
  161DOPC    C319416   3.926   0.082  16.304
  161DOPC    HX19417   3.875   0.163  16.246
  161DOPC    HY19418   3.847   0.040  16.369
  161DOPC   O3119419   3.983  -0.020  16.220
  161DOPC   C3119420   3.895  -0.055  16.127
  161DOPC   O3219421   3.779  -0.019  16.128
  161DOPC   C3219422   3.959  -0.141  16.019
  161DOPC   H2X19423   4.057  -0.179  16.056
  161DOPC   H2Y19424   3.893  -0.228  16.002
  161DOPC   C2319425   3.931   0.423  16.139
  161DOPC   H3R19426   3.991   0.472  16.219
  161DOPC   H3S19427   3.839   0.383  16.187
  161DOPC   C2419428   3.893   0.534  16.041
  161DOPC   H4R19429   3.985   0.582  16.002
  161DOPC   H4S19430   3.834   0.609  16.098
  161DOPC   C2519431   3.813   0.491  15.918
  161DOPC   H5R19432   3.748   0.405  15.944
  161DOPC   H5S19433   3.883   0.452  15.843
  161DOPC   C2619434   3.725   0.606  15.866
  161DOPC   H6R19435   3.696   0.671  15.951
  161DOPC   H6S19436   3.627   0.565  15.832
  161DOPC   C2719437   3.782   0.684  15.745
  161DOPC   H7R19438   3.870   0.745  15.775
  161DOPC   H7S19439   3.705   0.756  15.708
  161DOPC   C2819440   3.823   0.589  15.633
  161DOPC   H8R19441   3.910   0.531  15.666
  161DOPC   H8S19442   3.855   0.643  15.542
  161DOPC   C2919443   3.707   0.499  15.610
  161DOPC   H9R19444   3.690   0.423  15.688
  161DOPC  C21019445   3.626   0.503  15.505
  161DOPC  H10R19446   3.535   0.442  15.507
  161DOPC  C21119447   3.643   0.601  15.393
  161DOPC  H11R19448   3.738   0.576  15.342
  161DOPC  H11S19449   3.654   0.705  15.431
  161DOPC  C21219450   3.529   0.594  15.291
  161DOPC  H12R19451   3.460   0.679  15.310
  161DOPC  H12S19452   3.468   0.502  15.301
  161DOPC  C21319453   3.581   0.600  15.147
  161DOPC  H13R19454   3.643   0.691  15.133
  161DOPC  H13S19455   3.491   0.611  15.083
  161DOPC  C21419456   3.659   0.476  15.101
  161DOPC  H14R19457   3.599   0.384  15.118
  161DOPC  H14S19458   3.752   0.466  15.160
  161DOPC  C21519459   3.698   0.481  14.953
  161DOPC  H15R19460   3.766   0.397  14.935
  161DOPC  H15S19461   3.754   0.575  14.933
  161DOPC  C21619462   3.581   0.469  14.854
  161DOPC  H16R19463   3.601   0.528  14.762
  161DOPC  H16S19464   3.492   0.514  14.903
  161DOPC  C21719465   3.543   0.325  14.815
  161DOPC  H17R19466   3.440   0.328  14.773
  161DOPC  H17S19467   3.540   0.262  14.907
  161DOPC  C21819468   3.634   0.259  14.712
  161DOPC  H18R19469   3.584   0.177  14.657
  161DOPC  H18S19470   3.720   0.214  14.764
  161DOPC  H18T19471   3.671   0.334  14.638
  161DOPC   C3319472   3.979  -0.059  15.890
  161DOPC   H3X19473   4.013  -0.129  15.810
  161DOPC   H3Y19474   4.060   0.015  15.907
  161DOPC   C3419475   3.851   0.014  15.841
  161DOPC   H4X19476   3.819   0.087  15.919
  161DOPC   H4Y19477   3.770  -0.061  15.831
  161DOPC   C3519478   3.864   0.092  15.709
  161DOPC   H5X19479   3.770   0.148  15.692
  161DOPC   H5Y19480   3.877   0.019  15.626
  161DOPC   C3619481   3.979   0.193  15.705
  161DOPC   H6X19482   3.965   0.272  15.782
  161DOPC   H6Y19483   4.071   0.137  15.730
  161DOPC   C3719484   4.007   0.254  15.567
  161DOPC   H7X19485   4.013   0.170  15.495
  161DOPC   H7Y19486   3.923   0.319  15.536
  161DOPC   C3819487   4.142   0.329  15.560
  161DOPC   H8X19488   4.177   0.321  15.455
  161DOPC   H8Y19489   4.218   0.275  15.621
  161DOPC   C3919490   4.139   0.470  15.609
  161DOPC   H9X19491   4.131   0.484  15.718
  161DOPC  C31019492   4.143   0.577  15.529
  161DOPC  H10X19493   4.123   0.676  15.570
  161DOPC  C31119494   4.153   0.567  15.379
  161DOPC  H11X19495   4.235   0.497  15.356
  161DOPC  H11Y19496   4.188   0.664  15.337
  161DOPC  C31219497   4.029   0.516  15.304
  161DOPC  H12X19498   3.953   0.596  15.293
  161DOPC  H12Y19499   3.980   0.433  15.358
  161DOPC  C31319500   4.068   0.468  15.164
  161DOPC  H13X19501   4.147   0.391  15.175
  161DOPC  H13Y19502   3.981   0.419  15.115
  161DOPC  C31419503   4.120   0.585  15.081
  161DOPC  H14X19504   4.039   0.661  15.077
  161DOPC  H14Y19505   4.208   0.630  15.134
  161DOPC  C31519506   4.168   0.552  14.940
  161DOPC  H15X19507   4.234   0.463  14.943
  161DOPC  H15Y19508   4.232   0.637  14.904
  161DOPC  C31619509   4.052   0.535  14.842
  161DOPC  H16X19510   3.960   0.523  14.904
  161DOPC  H16Y19511   4.035   0.628  14.784
  161DOPC  C31719512   4.063   0.413  14.751
  161DOPC  H17X19513   4.062   0.444  14.644
  161DOPC  H17Y19514   4.158   0.358  14.769
  161DOPC  C31819515   3.946   0.320  14.775
  161DOPC  H18X19516   3.928   0.306  14.883
  161DOPC  H18Y19517   3.858   0.370  14.729
  161DOPC  H18Z19518   3.956   0.219  14.733
  162DOPC     N19519   1.295   6.481  16.870
  162DOPC   C1219520   1.306   6.366  16.773
  162DOPC  H12A19521   1.401   6.314  16.790
  162DOPC  H12B19522   1.304   6.404  16.672
  162DOPC   C1319523   1.152   6.524  16.874
  162DOPC  H13A19524   1.119   6.561  16.778
  162DOPC  H13B19525   1.092   6.437  16.901
  162DOPC  H13C19526   1.136   6.599  16.951
  162DOPC   C1419527   1.381   6.599  16.841
  162DOPC  H14A19528   1.344   6.649  16.753
  162DOPC  H14B19529   1.379   6.669  16.924
  162DOPC  H14C19530   1.485   6.572  16.824
  162DOPC   C1519531   1.326   6.427  17.005
  162DOPC  H15A19532   1.300   6.497  17.084
  162DOPC  H15B19533   1.426   6.388  17.013
  162DOPC  H15C19534   1.260   6.341  17.022
  162DOPC   C1119535   1.199   6.253  16.782
  162DOPC  H11A19536   1.100   6.294  16.752
  162DOPC  H11B19537   1.221   6.171  16.709
  162DOPC     P19538   1.284   6.085  16.968
  162DOPC   O1319539   1.268   5.963  16.887
  162DOPC   O1419540   1.262   6.076  17.114
  162DOPC   O1219541   1.188   6.201  16.913
  162DOPC   O1119542   1.432   6.142  16.943
  162DOPC    C119543   1.545   6.055  16.915
  162DOPC    HA19544   1.514   5.952  16.889
  162DOPC    HB19545   1.605   6.045  17.008
  162DOPC    C219546   1.639   6.111  16.801
  162DOPC    HS19547   1.706   6.186  16.846
  162DOPC   O2119548   1.539   6.179  16.718
  162DOPC   C2119549   1.573   6.254  16.615
  162DOPC   O2219550   1.685   6.299  16.601
  162DOPC   C2219551   1.455   6.270  16.513
  162DOPC   H2R19552   1.357   6.257  16.560
  162DOPC   H2S19553   1.461   6.187  16.442
  162DOPC    C319554   1.741   5.999  16.723
  162DOPC    HX19555   1.790   5.942  16.804
  162DOPC    HY19556   1.815   6.067  16.678
  162DOPC   O3119557   1.701   5.899  16.623
  162DOPC   C3119558   1.754   5.792  16.557
  162DOPC   O3219559   1.873   5.774  16.543
  162DOPC   C3219560   1.644   5.686  16.493
  162DOPC   H2X19561   1.718   5.610  16.466
  162DOPC   H2Y19562   1.586   5.641  16.573
  162DOPC   C2319563   1.456   6.382  16.406
  162DOPC   H3R19564   1.550   6.371  16.346
  162DOPC   H3S19565   1.458   6.482  16.454
  162DOPC   C2419566   1.338   6.374  16.306
  162DOPC   H4R19567   1.241   6.378  16.361
  162DOPC   H4S19568   1.340   6.278  16.250
  162DOPC   C2519569   1.342   6.490  16.205
  162DOPC   H5R19570   1.435   6.483  16.144
  162DOPC   H5S19571   1.348   6.585  16.263
  162DOPC   C2619572   1.221   6.506  16.110
  162DOPC   H6R19573   1.245   6.591  16.043
  162DOPC   H6S19574   1.133   6.535  16.171
  162DOPC   C2719575   1.183   6.386  16.021
  162DOPC   H7R19576   1.094   6.413  15.960
  162DOPC   H7S19577   1.152   6.303  16.087
  162DOPC   C2819578   1.295   6.337  15.928
  162DOPC   H8R19579   1.261   6.242  15.882
  162DOPC   H8S19580   1.384   6.313  15.992
  162DOPC   C2919581   1.333   6.435  15.820
  162DOPC   H9R19582   1.270   6.526  15.810
  162DOPC  C21019583   1.438   6.418  15.738
  162DOPC  H10R19584   1.460   6.493  15.661
  162DOPC  C21119585   1.530   6.298  15.744
  162DOPC  H11R19586   1.493   6.220  15.814
  162DOPC  H11S19587   1.630   6.330  15.781
  162DOPC  C21219588   1.549   6.228  15.608
  162DOPC  H12R19589   1.451   6.195  15.566
  162DOPC  H12S19590   1.610   6.137  15.627
  162DOPC  C21319591   1.623   6.315  15.508
  162DOPC  H13R19592   1.695   6.377  15.565
  162DOPC  H13S19593   1.553   6.383  15.455
  162DOPC  C21419594   1.706   6.235  15.407
  162DOPC  H14R19595   1.788   6.181  15.460
  162DOPC  H14S19596   1.754   6.307  15.337
  162DOPC  C21519597   1.625   6.134  15.326
  162DOPC  H15R19598   1.528   6.181  15.297
  162DOPC  H15S19599   1.601   6.045  15.388
  162DOPC  C21619600   1.702   6.094  15.201
  162DOPC  H16R19601   1.774   6.014  15.228
  162DOPC  H16S19602   1.763   6.180  15.166
  162DOPC  C21719603   1.617   6.045  15.085
  162DOPC  H17R19604   1.544   6.123  15.055
  162DOPC  H17S19605   1.559   5.955  15.118
  162DOPC  C21819606   1.707   6.008  14.968
  162DOPC  H18R19607   1.771   6.094  14.938
  162DOPC  H18S19608   1.652   5.971  14.880
  162DOPC  H18T19609   1.774   5.927  15.003
  162DOPC   C3319610   1.553   5.680  16.356
  162DOPC   H3X19611   1.558   5.574  16.323
  162DOPC   H3Y19612   1.599   5.739  16.276
  162DOPC   C3419613   1.400   5.711  16.355
  162DOPC   H4X19614   1.389   5.789  16.425
  162DOPC   H4Y19615   1.345   5.636  16.414
  162DOPC   C3519616   1.323   5.790  16.240
  162DOPC   H5X19617   1.277   5.728  16.162
  162DOPC   H5Y19618   1.395   5.856  16.187
  162DOPC   C3619619   1.214   5.884  16.306
  162DOPC   H6X19620   1.187   5.834  16.401
  162DOPC   H6Y19621   1.268   5.977  16.331
  162DOPC   C3719622   1.077   5.928  16.245
  162DOPC   H7X19623   1.000   5.848  16.240
  162DOPC   H7Y19624   1.034   6.000  16.318
  162DOPC   C3819625   1.087   6.001  16.111
  162DOPC   H8X19626   1.172   5.952  16.059
  162DOPC   H8Y19627   1.118   6.105  16.132
  162DOPC   C3919628   0.962   6.003  16.026
  162DOPC   H9X19629   0.865   6.022  16.076
  162DOPC  C31019630   0.962   5.981  15.894
  162DOPC  H10X19631   0.868   5.986  15.837
  162DOPC  C31119632   1.085   5.950  15.812
  162DOPC  H11X19633   1.165   5.899  15.871
  162DOPC  H11Y19634   1.129   6.043  15.770
  162DOPC  C31219635   1.045   5.853  15.701
  162DOPC  H12X19636   0.964   5.897  15.639
  162DOPC  H12Y19637   1.004   5.760  15.747
  162DOPC  C31319638   1.162   5.816  15.610
  162DOPC  H13X19639   1.259   5.840  15.658
  162DOPC  H13Y19640   1.156   5.707  15.590
  162DOPC  C31419641   1.149   5.884  15.475
  162DOPC  H14X19642   1.074   5.825  15.416
  162DOPC  H14Y19643   1.109   5.986  15.491
  162DOPC  C31519644   1.279   5.897  15.396
  162DOPC  H15X19645   1.311   5.799  15.355
  162DOPC  H15Y19646   1.360   5.933  15.463
  162DOPC  C31619647   1.261   5.997  15.282
  162DOPC  H16X19648   1.266   6.100  15.327
  162DOPC  H16Y19649   1.345   5.989  15.210
  162DOPC  C31719650   1.127   5.985  15.208
  162DOPC  H17X19651   1.040   5.977  15.276
  162DOPC  H17Y19652   1.112   6.083  15.161
  162DOPC  C31819653   1.124   5.873  15.104
  162DOPC  H18X19654   1.033   5.880  15.041
  162DOPC  H18Y19655   1.213   5.878  15.038
  162DOPC  H18Z19656   1.124   5.773  15.153
  163DOPC     N19657   0.237   2.795  16.915
  163DOPC   C1219658   0.322   2.710  16.820
  163DOPC  H12A19659   0.258   2.674  16.740
  163DOPC  H12B19660   0.360   2.623  16.872
  163DOPC   C1319661   0.113   2.720  16.949
  163DOPC  H13A19662   0.051   2.773  17.021
  163DOPC  H13B19663   0.055   2.702  16.859
  163DOPC  H13C19664   0.139   2.623  16.990
  163DOPC   C1419665   0.205   2.923  16.847
  163DOPC  H14A19666   0.298   2.968  16.814
  163DOPC  H14B19667   0.147   2.906  16.757
  163DOPC  H14C19668   0.150   2.993  16.909
  163DOPC   C1519669   0.317   2.823  17.039
  163DOPC  H15A19670   0.264   2.883  17.110
  163DOPC  H15B19671   0.409   2.875  17.012
  163DOPC  H15C19672   0.352   2.731  17.087
  163DOPC   C1119673   0.445   2.777  16.751
  163DOPC  H11A19674   0.487   2.707  16.676
  163DOPC  H11B19675   0.413   2.867  16.694
  163DOPC     P19676   0.633   2.707  16.922
  163DOPC   O1319677   0.588   2.713  17.063
  163DOPC   O1419678   0.776   2.729  16.894
  163DOPC   O1219679   0.544   2.815  16.845
  163DOPC   O1119680   0.578   2.571  16.859
  163DOPC    C119681   0.667   2.468  16.817
  163DOPC    HA19682   0.659   2.383  16.888
  163DOPC    HB19683   0.775   2.499  16.813
  163DOPC    C219684   0.632   2.419  16.674
  163DOPC    HS19685   0.691   2.326  16.657
  163DOPC   O2119686   0.661   2.526  16.582
  163DOPC   C2119687   0.762   2.500  16.503
  163DOPC   O2219688   0.824   2.395  16.498
  163DOPC   C2219689   0.791   2.617  16.413
  163DOPC   H2R19690   0.900   2.617  16.393
  163DOPC   H2S19691   0.761   2.713  16.460
  163DOPC    C319692   0.484   2.379  16.656
  163DOPC    HX19693   0.419   2.461  16.693
  163DOPC    HY19694   0.465   2.290  16.720
  163DOPC   O3119695   0.460   2.344  16.518
  163DOPC   C3119696   0.417   2.444  16.441
  163DOPC   O3219697   0.381   2.553  16.481
  163DOPC   C3219698   0.421   2.404  16.293
  163DOPC   H2X19699   0.527   2.389  16.264
  163DOPC   H2Y19700   0.370   2.307  16.283
  163DOPC   C2319701   0.721   2.594  16.282
  163DOPC   H3R19702   0.611   2.601  16.295
  163DOPC   H3S19703   0.743   2.492  16.240
  163DOPC   C2419704   0.766   2.699  16.182
  163DOPC   H4R19705   0.877   2.693  16.167
  163DOPC   H4S19706   0.738   2.799  16.220
  163DOPC   C2519707   0.692   2.664  16.057
  163DOPC   H5R19708   0.582   2.675  16.076
  163DOPC   H5S19709   0.714   2.556  16.038
  163DOPC   C2619710   0.725   2.738  15.930
  163DOPC   H6R19711   0.833   2.729  15.907
  163DOPC   H6S19712   0.699   2.845  15.934
  163DOPC   C2719713   0.637   2.667  15.828
  163DOPC   H7R19714   0.532   2.702  15.837
  163DOPC   H7S19715   0.633   2.559  15.855
  163DOPC   C2819716   0.690   2.669  15.688
  163DOPC   H8R19717   0.674   2.567  15.651
  163DOPC   H8S19718   0.801   2.680  15.688
  163DOPC   C2919719   0.628   2.780  15.609
  163DOPC   H9R19720   0.711   2.844  15.575
  163DOPC  C21019721   0.502   2.822  15.583
  163DOPC  H10R19722   0.499   2.918  15.530
  163DOPC  C21119723   0.357   2.785  15.615
  163DOPC  H11R19724   0.318   2.839  15.705
  163DOPC  H11S19725   0.335   2.678  15.634
  163DOPC  C21219726   0.273   2.838  15.495
  163DOPC  H12R19727   0.334   2.831  15.402
  163DOPC  H12S19728   0.253   2.947  15.507
  163DOPC  C21319729   0.141   2.765  15.465
  163DOPC  H13R19730   0.064   2.797  15.539
  163DOPC  H13S19731   0.156   2.655  15.478
  163DOPC  C21419732   0.088   2.788  15.322
  163DOPC  H14R19733   0.053   2.893  15.315
  163DOPC  H14S19734  -0.003   2.725  15.308
  163DOPC  C21519735   0.187   2.761  15.205
  163DOPC  H15R19736   0.249   2.852  15.190
  163DOPC  H15S19737   0.125   2.750  15.113
  163DOPC  C21619738   0.283   2.640  15.218
  163DOPC  H16R19739   0.227   2.553  15.259
  163DOPC  H16S19740   0.362   2.661  15.292
  163DOPC  C21719741   0.353   2.599  15.085
  163DOPC  H17R19742   0.444   2.664  15.077
  163DOPC  H17S19743   0.287   2.622  14.999
  163DOPC  C21819744   0.399   2.454  15.072
  163DOPC  H18R19745   0.359   2.393  15.155
  163DOPC  H18S19746   0.509   2.450  15.068
  163DOPC  H18T19747   0.372   2.395  14.985
  163DOPC   C3319748   0.356   2.513  16.203
  163DOPC   H3X19749   0.401   2.612  16.229
  163DOPC   H3Y19750   0.247   2.520  16.223
  163DOPC   C3419751   0.375   2.494  16.052
  163DOPC   H4X19752   0.482   2.486  16.025
  163DOPC   H4Y19753   0.335   2.586  16.003
  163DOPC   C3519754   0.300   2.375  15.991
  163DOPC   H5X19755   0.286   2.405  15.884
  163DOPC   H5Y19756   0.199   2.364  16.036
  163DOPC   C3619757   0.377   2.243  15.994
  163DOPC   H6X19758   0.472   2.259  15.941
  163DOPC   H6Y19759   0.403   2.214  16.098
  163DOPC   C3719760   0.305   2.125  15.926
  163DOPC   H7X19761   0.376   2.039  15.917
  163DOPC   H7Y19762   0.225   2.090  15.994
  163DOPC   C3819763   0.242   2.161  15.788
  163DOPC   H8X19764   0.197   2.261  15.787
  163DOPC   H8Y19765   0.157   2.090  15.773
  163DOPC   C3919766   0.344   2.144  15.677
  163DOPC   H9X19767   0.379   2.041  15.679
  163DOPC  C31019768   0.389   2.221  15.575
  163DOPC  H10X19769   0.463   2.173  15.508
  163DOPC  C31119770   0.355   2.360  15.526
  163DOPC  H11X19771   0.273   2.398  15.592
  163DOPC  H11Y19772   0.310   2.349  15.425
  163DOPC  C31219773   0.452   2.484  15.517
  163DOPC  H12X19774   0.474   2.516  15.621
  163DOPC  H12Y19775   0.385   2.562  15.473
  163DOPC  C31319776   0.581   2.503  15.432
  163DOPC  H13X19777   0.584   2.609  15.399
  163DOPC  H13Y19778   0.678   2.488  15.483
  163DOPC  C31419779   0.600   2.417  15.310
  163DOPC  H14X19780   0.617   2.314  15.339
  163DOPC  H14Y19781   0.500   2.411  15.272
  163DOPC  C31519782   0.708   2.476  15.217
  163DOPC  H15X19783   0.790   2.519  15.280
  163DOPC  H15Y19784   0.665   2.564  15.164
  163DOPC  C31619785   0.777   2.375  15.122
  163DOPC  H16X19786   0.811   2.430  15.032
  163DOPC  H16Y19787   0.869   2.341  15.171
  163DOPC  C31719788   0.700   2.247  15.083
  163DOPC  H17X19789   0.662   2.198  15.174
  163DOPC  H17Y19790   0.613   2.273  15.019
  163DOPC  C31819791   0.788   2.144  15.011
  163DOPC  H18X19792   0.841   2.079  15.083
  163DOPC  H18Y19793   0.726   2.078  14.945
  163DOPC  H18Z19794   0.864   2.195  14.950
  164DOPC     N19795   1.154   1.333  17.003
  164DOPC   C1219796   1.243   1.310  16.880
  164DOPC  H12A19797   1.331   1.371  16.888
  164DOPC  H12B19798   1.187   1.340  16.792
  164DOPC   C1319799   1.226   1.295  17.129
  164DOPC  H13A19800   1.324   1.342  17.139
  164DOPC  H13B19801   1.167   1.318  17.217
  164DOPC  H13C19802   1.245   1.188  17.128
  164DOPC   C1419803   1.034   1.245  16.992
  164DOPC  H14A19804   0.978   1.268  16.902
  164DOPC  H14B19805   1.070   1.142  16.978
  164DOPC  H14C19806   0.973   1.247  17.081
  164DOPC   C1519807   1.104   1.471  17.012
  164DOPC  H15A19808   1.051   1.501  16.923
  164DOPC  H15B19809   1.183   1.540  17.038
  164DOPC  H15C19810   1.034   1.481  17.096
  164DOPC   C1119811   1.289   1.166  16.849
  164DOPC  H11A19812   1.349   1.169  16.755
  164DOPC  H11B19813   1.355   1.129  16.931
  164DOPC     P19814   1.190   0.932  16.791
  164DOPC   O1319815   1.060   0.890  16.735
  164DOPC   O1419816   1.237   0.863  16.913
  164DOPC   O1219817   1.176   1.083  16.830
  164DOPC   O1119818   1.301   0.935  16.677
  164DOPC    C119819   1.437   0.898  16.698
  164DOPC    HA19820   1.444   0.797  16.744
  164DOPC    HB19821   1.486   0.970  16.767
  164DOPC    C219822   1.521   0.897  16.565
  164DOPC    HS19823   1.622   0.861  16.593
  164DOPC   O2119824   1.528   1.030  16.511
  164DOPC   C2119825   1.610   1.045  16.409
  164DOPC   O2219826   1.689   0.963  16.367
  164DOPC   C2219827   1.581   1.178  16.346
  164DOPC   H2R19828   1.630   1.257  16.406
  164DOPC   H2S19829   1.471   1.194  16.345
  164DOPC    C319830   1.464   0.798  16.457
  164DOPC    HX19831   1.462   0.701  16.510
  164DOPC    HY19832   1.534   0.784  16.372
  164DOPC   O3119833   1.331   0.830  16.413
  164DOPC   C3119834   1.316   0.889  16.295
  164DOPC   O3219835   1.403   0.903  16.211
  164DOPC   C3219836   1.173   0.940  16.285
  164DOPC   H2X19837   1.105   0.855  16.265
  164DOPC   H2Y19838   1.146   0.982  16.384
  164DOPC   C2319839   1.631   1.176  16.203
  164DOPC   H3R19840   1.589   1.088  16.148
  164DOPC   H3S19841   1.742   1.165  16.199
  164DOPC   C2419842   1.586   1.302  16.132
  164DOPC   H4R19843   1.643   1.387  16.176
  164DOPC   H4S19844   1.479   1.322  16.149
  164DOPC   C2519845   1.615   1.288  15.984
  164DOPC   H5R19846   1.710   1.231  15.973
  164DOPC   H5S19847   1.631   1.388  15.940
  164DOPC   C2619848   1.505   1.217  15.903
  164DOPC   H6R19849   1.427   1.292  15.877
  164DOPC   H6S19850   1.457   1.136  15.962
  164DOPC   C2719851   1.572   1.161  15.777
  164DOPC   H7R19852   1.631   1.070  15.804
  164DOPC   H7S19853   1.647   1.238  15.750
  164DOPC   C2819854   1.483   1.137  15.654
  164DOPC   H8R19855   1.396   1.073  15.678
  164DOPC   H8S19856   1.545   1.085  15.577
  164DOPC   C2919857   1.449   1.276  15.605
  164DOPC   H9R19858   1.539   1.334  15.586
  164DOPC  C21019859   1.337   1.324  15.551
  164DOPC  H10R19860   1.336   1.428  15.515
  164DOPC  C21119861   1.213   1.246  15.525
  164DOPC  H11R19862   1.120   1.295  15.562
  164DOPC  H11S19863   1.216   1.144  15.571
  164DOPC  C21219864   1.209   1.240  15.372
  164DOPC  H12R19865   1.169   1.336  15.332
  164DOPC  H12S19866   1.133   1.164  15.347
  164DOPC  C21319867   1.341   1.212  15.296
  164DOPC  H13R19868   1.403   1.142  15.357
  164DOPC  H13S19869   1.402   1.304  15.285
  164DOPC  C21419870   1.316   1.145  15.160
  164DOPC  H14R19871   1.220   1.097  15.163
  164DOPC  H14S19872   1.388   1.064  15.147
  164DOPC  C21519873   1.277   1.226  15.039
  164DOPC  H15R19874   1.359   1.289  14.997
  164DOPC  H15S19875   1.202   1.298  15.076
  164DOPC  C21619876   1.216   1.137  14.926
  164DOPC  H16R19877   1.298   1.089  14.869
  164DOPC  H16S19878   1.166   1.214  14.863
  164DOPC  C21719879   1.106   1.028  14.940
  164DOPC  H17R19880   1.061   1.024  15.041
  164DOPC  H17S19881   1.152   0.927  14.923
  164DOPC  C21819882   0.997   1.049  14.833
  164DOPC  H18R19883   1.036   1.029  14.732
  164DOPC  H18S19884   0.961   1.154  14.832
  164DOPC  H18T19885   0.908   0.985  14.849
  164DOPC   C3319886   1.155   1.050  16.176
  164DOPC   H3X19887   1.245   1.115  16.171
  164DOPC   H3Y19888   1.072   1.115  16.211
  164DOPC   C3419889   1.115   0.997  16.037
  164DOPC   H4X19890   1.037   0.919  16.051
  164DOPC   H4Y19891   1.202   0.945  15.990
  164DOPC   C3519892   1.064   1.108  15.941
  164DOPC   H5X19893   1.140   1.125  15.862
  164DOPC   H5Y19894   1.061   1.202  16.002
  164DOPC   C3619895   0.928   1.083  15.866
  164DOPC   H6X19896   0.865   1.024  15.930
  164DOPC   H6Y19897   0.880   1.183  15.848
  164DOPC   C3719898   0.941   0.990  15.740
  164DOPC   H7X19899   1.022   1.045  15.689
  164DOPC   H7Y19900   0.981   0.895  15.778
  164DOPC   C3819901   0.832   0.948  15.638
  164DOPC   H8X19902   0.888   0.978  15.545
  164DOPC   H8Y19903   0.760   1.032  15.631
  164DOPC   C3919904   0.763   0.812  15.608
  164DOPC   H9X19905   0.669   0.813  15.673
  164DOPC  C31019906   0.775   0.676  15.554
  164DOPC  H10X19907   0.685   0.616  15.574
  164DOPC  C31119908   0.881   0.580  15.482
  164DOPC  H11X19909   0.801   0.512  15.456
  164DOPC  H11Y19910   0.935   0.523  15.565
  164DOPC  C31219911   0.968   0.519  15.357
  164DOPC  H12X19912   0.900   0.526  15.270
  164DOPC  H12Y19913   0.965   0.408  15.381
  164DOPC  C31319914   1.121   0.523  15.292
  164DOPC  H13X19915   1.146   0.415  15.287
  164DOPC  H13Y19916   1.111   0.562  15.189
  164DOPC  C31419917   1.261   0.589  15.335
  164DOPC  H14X19918   1.297   0.535  15.423
  164DOPC  H14Y19919   1.225   0.686  15.356
  164DOPC  C31519920   1.396   0.634  15.258
  164DOPC  H15X19921   1.479   0.564  15.272
  164DOPC  H15Y19922   1.429   0.721  15.322
  164DOPC  C31619923   1.400   0.699  15.116
  164DOPC  H16X19924   1.300   0.687  15.073
  164DOPC  H16Y19925   1.399   0.809  15.132
  164DOPC  C31719926   1.519   0.668  15.013
  164DOPC  H17X19927   1.483   0.614  14.925
  164DOPC  H17Y19928   1.548   0.760  14.961
  164DOPC  C31819929   1.642   0.581  15.044
  164DOPC  H18X19930   1.647   0.551  15.151
  164DOPC  H18Y19931   1.638   0.488  14.984
  164DOPC  H18Z19932   1.735   0.632  15.014
  165DOPC     N19933   6.137   0.752  17.082
  165DOPC   C1219934   6.119   0.623  17.001
  165DOPC  H12A19935   6.015   0.593  17.009
  165DOPC  H12B19936   6.183   0.545  17.041
  165DOPC   C1319937   6.221   0.848  17.007
  165DOPC  H13A19938   6.320   0.809  16.988
  165DOPC  H13B19939   6.176   0.862  16.907
  165DOPC  H13C19940   6.223   0.946  17.052
  165DOPC   C1419941   6.192   0.722  17.216
  165DOPC  H14A19942   6.291   0.678  17.208
  165DOPC  H14B19943   6.196   0.811  17.278
  165DOPC  H14C19944   6.127   0.652  17.267
  165DOPC   C1519945   6.003   0.820  17.091
  165DOPC  H15A19946   5.971   0.849  16.991
  165DOPC  H15B19947   6.007   0.910  17.152
  165DOPC  H15C19948   5.927   0.754  17.130
  165DOPC   C1119949   6.150   0.629  16.851
  165DOPC  H11A19950   6.259   0.637  16.836
  165DOPC  H11B19951   6.118   0.534  16.802
  165DOPC     P19952   5.970   0.732  16.693
  165DOPC   O1319953   5.923   0.867  16.658
  165DOPC   O1419954   5.872   0.642  16.756
  165DOPC   O1219955   6.092   0.743  16.791
  165DOPC   O1119956   6.039   0.664  16.569
  165DOPC    C119957   6.174   0.694  16.530
  165DOPC    HA19958   6.200   0.625  16.447
  165DOPC    HB19959   6.245   0.674  16.612
  165DOPC    C219960   6.193   0.839  16.479
  165DOPC    HS19961   6.167   0.909  16.562
  165DOPC   O2119962   6.106   0.852  16.369
  165DOPC   C2119963   6.053   0.969  16.348
  165DOPC   O2219964   6.084   1.074  16.402
  165DOPC   C2219965   5.952   0.955  16.236
  165DOPC   H2R19966   5.962   1.043  16.170
  165DOPC   H2S19967   5.851   0.957  16.282
  165DOPC    C319968   6.339   0.866  16.433
  165DOPC    HX19969   6.361   0.788  16.355
  165DOPC    HY19970   6.409   0.849  16.517
  165DOPC   O3119971   6.362   0.993  16.370
  165DOPC   C3119972   6.371   1.099  16.451
  165DOPC   O3219973   6.348   1.098  16.570
  165DOPC   C3219974   6.431   1.218  16.376
  165DOPC   H2X19975   6.372   1.309  16.398
  165DOPC   H2Y19976   6.529   1.233  16.427
  165DOPC   C2319977   5.972   0.825  16.155
  165DOPC   H3R19978   5.883   0.813  16.091
  165DOPC   H3S19979   5.974   0.734  16.220
  165DOPC   C2419980   6.099   0.831  16.069
  165DOPC   H4R19981   6.190   0.839  16.133
  165DOPC   H4S19982   6.093   0.926  16.012
  165DOPC   C2519983   6.113   0.711  15.975
  165DOPC   H5R19984   6.129   0.620  16.037
  165DOPC   H5S19985   6.204   0.724  15.912
  165DOPC   C2619986   5.991   0.688  15.881
  165DOPC   H6R19987   5.917   0.626  15.936
  165DOPC   H6S19988   6.028   0.625  15.797
  165DOPC   C2719989   5.920   0.813  15.820
  165DOPC   H7R19990   5.870   0.872  15.899
  165DOPC   H7S19991   5.842   0.777  15.749
  165DOPC   C2819992   6.020   0.900  15.740
  165DOPC   H8R19993   6.052   0.835  15.658
  165DOPC   H8S19994   6.101   0.902  15.814
  165DOPC   C2919995   6.022   1.044  15.689
  165DOPC   H9R19996   6.022   1.119  15.769
  165DOPC  C21019997   6.038   1.090  15.563
  165DOPC  H10R19998   6.039   1.199  15.549
  165DOPC  C21119999   6.056   1.013  15.434
  165DOPC  H11R20000   5.960   1.014  15.379
  165DOPC  H11S20001   6.079   0.905  15.451
  165DOPC  C21220002   6.162   1.073  15.339
  165DOPC  H12R20003   6.186   1.178  15.365
  165DOPC  H12S20004   6.122   1.074  15.236
  165DOPC  C21320005   6.290   0.989  15.338
  165DOPC  H13R20006   6.266   0.881  15.329
  165DOPC  H13S20007   6.340   1.007  15.435
  165DOPC  C21420008   6.388   1.032  15.231
  165DOPC  H14R20009   6.416   1.135  15.254
  165DOPC  H14S20010   6.335   1.037  15.134
  165DOPC  C21520011   6.515   0.944  15.228
  165DOPC  H15R20012   6.494   0.849  15.176
  165DOPC  H15S20013   6.544   0.920  15.333
  165DOPC  C21620014   6.636   1.012  15.164
  165DOPC  H16R20015   6.651   1.108  15.214
  165DOPC  H16S20016   6.619   1.038  15.058
  165DOPC  C21720017   6.766   0.933  15.178
  165DOPC  H17R20018   6.766   0.850  15.104
  165DOPC  H17S20019   6.771   0.889  15.280
  165DOPC  C21820020   6.888   1.021  15.156
  165DOPC  H18R20021   6.980   0.961  15.138
  165DOPC  H18S20022   6.905   1.088  15.243
  165DOPC  H18T20023   6.869   1.083  15.066
  165DOPC   C3320024   6.459   1.195  16.224
  165DOPC   H3X20025   6.502   1.095  16.206
  165DOPC   H3Y20026   6.533   1.271  16.199
  165DOPC   C3420027   6.345   1.227  16.125
  165DOPC   H4X20028   6.331   1.336  16.146
  165DOPC   H4Y20029   6.253   1.171  16.154
  165DOPC   C3520030   6.366   1.218  15.970
  165DOPC   H5X20031   6.467   1.253  15.942
  165DOPC   H5Y20032   6.300   1.294  15.924
  165DOPC   C3620033   6.327   1.085  15.900
  165DOPC   H6X20034   6.384   0.998  15.942
  165DOPC   H6Y20035   6.216   1.068  15.911
  165DOPC   C3720036   6.332   1.083  15.745
  165DOPC   H7X20037   6.412   1.129  15.692
  165DOPC   H7Y20038   6.261   1.158  15.708
  165DOPC   C3820039   6.309   0.942  15.682
  165DOPC   H8X20040   6.230   0.948  15.607
  165DOPC   H8Y20041   6.280   0.889  15.774
  165DOPC   C3920042   6.406   0.848  15.618
  165DOPC   H9X20043   6.500   0.891  15.581
  165DOPC  C31020044   6.377   0.720  15.592
  165DOPC  H10X20045   6.456   0.658  15.552
  165DOPC  C31120046   6.253   0.639  15.613
  165DOPC  H11X20047   6.165   0.699  15.586
  165DOPC  H11Y20048   6.242   0.601  15.717
  165DOPC  C31220049   6.259   0.521  15.515
  165DOPC  H12X20050   6.340   0.451  15.545
  165DOPC  H12Y20051   6.282   0.555  15.411
  165DOPC  C31320052   6.128   0.443  15.508
  165DOPC  H13X20053   6.145   0.358  15.441
  165DOPC  H13Y20054   6.104   0.401  15.609
  165DOPC  C31420055   6.007   0.521  15.456
  165DOPC  H14X20056   5.920   0.453  15.466
  165DOPC  H14Y20057   5.986   0.610  15.520
  165DOPC  C31520058   6.017   0.566  15.309
  165DOPC  H15X20059   6.066   0.485  15.250
  165DOPC  H15Y20060   6.080   0.657  15.299
  165DOPC  C31620061   5.876   0.591  15.252
  165DOPC  H16X20062   5.803   0.530  15.310
  165DOPC  H16Y20063   5.849   0.697  15.266
  165DOPC  C31720064   5.859   0.548  15.106
  165DOPC  H17X20065   5.878   0.439  15.098
  165DOPC  H17Y20066   5.753   0.564  15.078
  165DOPC  C31820067   5.945   0.624  15.007
  165DOPC  H18X20068   5.916   0.730  15.008
  165DOPC  H18Y20069   6.053   0.615  15.031
  165DOPC  H18Z20070   5.927   0.586  14.903
  166DOPC     N20071   7.307   2.623  16.856
  166DOPC   C1220072   7.343   2.529  16.971
  166DOPC  H12A20073   7.265   2.453  16.982
  166DOPC  H12B20074   7.346   2.581  17.065
  166DOPC   C1320075   7.191   2.709  16.892
  166DOPC  H13A20076   7.105   2.646  16.913
  166DOPC  H13B20077   7.209   2.767  16.981
  166DOPC  H13C20078   7.165   2.774  16.810
  166DOPC   C1420079   7.269   2.538  16.737
  166DOPC  H14A20080   7.239   2.595  16.650
  166DOPC  H14B20081   7.353   2.475  16.710
  166DOPC  H14C20082   7.189   2.468  16.761
  166DOPC   C1520083   7.427   2.705  16.818
  166DOPC  H15A20084   7.502   2.637  16.777
  166DOPC  H15B20085   7.471   2.752  16.905
  166DOPC  H15C20086   7.404   2.779  16.742
  166DOPC   C1120087   7.473   2.447  16.954
  166DOPC  H11A20088   7.559   2.508  16.922
  166DOPC  H11B20089   7.506   2.401  17.051
  166DOPC     P20090   7.370   2.217  16.903
  166DOPC   O1320091   7.247   2.261  16.972
  166DOPC   O1420092   7.456   2.122  16.977
  166DOPC   O1220093   7.450   2.346  16.857
  166DOPC   O1120094   7.339   2.150  16.762
  166DOPC    C120095   7.460   2.132  16.684
  166DOPC    HA20096   7.531   2.063  16.735
  166DOPC    HB20097   7.513   2.228  16.668
  166DOPC    C220098   7.430   2.071  16.546
  166DOPC    HS20099   7.524   2.066  16.487
  166DOPC   O2120100   7.331   2.149  16.475
  166DOPC   C2120101   7.378   2.267  16.437
  166DOPC   O2220102   7.490   2.310  16.454
  166DOPC   C2220103   7.272   2.344  16.360
  166DOPC   H2R20104   7.284   2.453  16.380
  166DOPC   H2S20105   7.173   2.312  16.397
  166DOPC    C320106   7.381   1.926  16.563
  166DOPC    HX20107   7.308   1.919  16.647
  166DOPC    HY20108   7.468   1.862  16.590
  166DOPC   O3120109   7.329   1.882  16.438
  166DOPC   C3120110   7.198   1.897  16.425
  166DOPC   O3220111   7.120   1.914  16.516
  166DOPC   C3220112   7.167   1.892  16.277
  166DOPC   H2X20113   7.144   1.788  16.250
  166DOPC   H2Y20114   7.078   1.952  16.258
  166DOPC   C2320115   7.282   2.316  16.208
  166DOPC   H3R20116   7.189   2.352  16.157
  166DOPC   H3S20117   7.283   2.207  16.196
  166DOPC   C2420118   7.405   2.374  16.137
  166DOPC   H4R20119   7.497   2.358  16.197
  166DOPC   H4S20120   7.392   2.484  16.124
  166DOPC   C2520121   7.427   2.313  15.998
  166DOPC   H5R20122   7.448   2.204  16.006
  166DOPC   H5S20123   7.519   2.357  15.952
  166DOPC   C2620124   7.308   2.337  15.904
  166DOPC   H6R20125   7.268   2.440  15.919
  166DOPC   H6S20126   7.226   2.265  15.926
  166DOPC   C2720127   7.350   2.322  15.758
  166DOPC   H7R20128   7.413   2.230  15.754
  166DOPC   H7S20129   7.413   2.408  15.729
  166DOPC   C2820130   7.232   2.308  15.661
  166DOPC   H8R20131   7.172   2.401  15.658
  166DOPC   H8S20132   7.165   2.226  15.694
  166DOPC   C2920133   7.296   2.275  15.530
  166DOPC   H9R20134   7.373   2.198  15.537
  166DOPC  C21020135   7.279   2.334  15.413
  166DOPC  H10R20136   7.329   2.288  15.326
  166DOPC  C21120137   7.188   2.452  15.386
  166DOPC  H11R20138   7.222   2.538  15.448
  166DOPC  H11S20139   7.084   2.428  15.417
  166DOPC  C21220140   7.191   2.497  15.238
  166DOPC  H12R20141   7.134   2.590  15.224
  166DOPC  H12S20142   7.147   2.419  15.173
  166DOPC  C21320143   7.334   2.528  15.197
  166DOPC  H13R20144   7.383   2.430  15.207
  166DOPC  H13S20145   7.381   2.599  15.269
  166DOPC  C21420146   7.358   2.576  15.053
  166DOPC  H14R20147   7.315   2.677  15.037
  166DOPC  H14S20148   7.306   2.506  14.985
  166DOPC  C21520149   7.509   2.577  15.022
  166DOPC  H15R20150   7.554   2.675  15.048
  166DOPC  H15S20151   7.524   2.562  14.912
  166DOPC  C21620152   7.584   2.466  15.097
  166DOPC  H16R20153   7.533   2.370  15.074
  166DOPC  H16S20154   7.580   2.482  15.208
  166DOPC  C21720155   7.730   2.451  15.064
  166DOPC  H17R20156   7.778   2.536  15.111
  166DOPC  H17S20157   7.750   2.461  14.956
  166DOPC  C21820158   7.783   2.318  15.118
  166DOPC  H18R20159   7.837   2.330  15.214
  166DOPC  H18S20160   7.849   2.267  15.044
  166DOPC  H18T20161   7.697   2.250  15.137
  166DOPC   C3320162   7.281   1.946  16.190
  166DOPC   H3X20163   7.354   1.865  16.168
  166DOPC   H3Y20164   7.340   2.024  16.243
  166DOPC   C3420165   7.224   2.005  16.061
  166DOPC   H4X20166   7.285   2.090  16.028
  166DOPC   H4Y20167   7.119   2.039  16.070
  166DOPC   C3520168   7.240   1.899  15.956
  166DOPC   H5X20169   7.187   1.809  15.988
  166DOPC   H5Y20170   7.347   1.873  15.964
  166DOPC   C3620171   7.204   1.942  15.814
  166DOPC   H6X20172   7.095   1.960  15.805
  166DOPC   H6Y20173   7.250   2.041  15.792
  166DOPC   C3720174   7.255   1.836  15.715
  166DOPC   H7X20175   7.197   1.742  15.726
  166DOPC   H7Y20176   7.241   1.872  15.611
  166DOPC   C3820177   7.405   1.805  15.737
  166DOPC   H8X20178   7.442   1.743  15.653
  166DOPC   H8Y20179   7.419   1.745  15.828
  166DOPC   C3920180   7.480   1.934  15.752
  166DOPC   H9X20181   7.498   1.970  15.854
  166DOPC  C31020182   7.514   2.010  15.650
  166DOPC  H10X20183   7.562   2.107  15.667
  166DOPC  C31120184   7.481   1.974  15.508
  166DOPC  H11X20185   7.380   2.009  15.478
  166DOPC  H11Y20186   7.482   1.865  15.489
  166DOPC  C31220187   7.587   2.044  15.427
  166DOPC  H12X20188   7.688   2.004  15.445
  166DOPC  H12Y20189   7.590   2.153  15.450
  166DOPC  C31320190   7.557   2.027  15.281
  166DOPC  H13X20191   7.458   2.076  15.266
  166DOPC  H13Y20192   7.633   2.088  15.228
  166DOPC  C31420193   7.557   1.883  15.228
  166DOPC  H14X20194   7.651   1.831  15.252
  166DOPC  H14Y20195   7.477   1.824  15.278
  166DOPC  C31520196   7.539   1.873  15.075
  166DOPC  H15X20197   7.461   1.796  15.055
  166DOPC  H15Y20198   7.631   1.835  15.026
  166DOPC  C31620199   7.496   2.006  15.013
  166DOPC  H16X20200   7.558   2.091  15.045
  166DOPC  H16Y20201   7.506   2.003  14.903
  166DOPC  C31720202   7.349   2.025  15.050
  166DOPC  H17X20203   7.295   1.975  14.968
  166DOPC  H17Y20204   7.332   1.968  15.144
  166DOPC  C31820205   7.288   2.162  15.074
  166DOPC  H18X20206   7.362   2.236  15.109
  166DOPC  H18Y20207   7.247   2.193  14.977
  166DOPC  H18Z20208   7.203   2.157  15.145
  167DOPC     N20209   6.513   1.180  16.866
  167DOPC   C1220210   6.638   1.175  16.779
  167DOPC  H12A20211   6.696   1.265  16.802
  167DOPC  H12B20212   6.607   1.180  16.675
  167DOPC   C1320213   6.437   1.303  16.829
  167DOPC  H13A20214   6.495   1.393  16.833
  167DOPC  H13B20215   6.391   1.291  16.731
  167DOPC  H13C20216   6.355   1.315  16.900
  167DOPC   C1420217   6.552   1.186  17.009
  167DOPC  H14A20218   6.466   1.186  17.075
  167DOPC  H14B20219   6.620   1.103  17.030
  167DOPC  H14C20220   6.612   1.274  17.031
  167DOPC   C1520221   6.422   1.063  16.848
  167DOPC  H15A20222   6.405   1.039  16.743
  167DOPC  H15B20223   6.322   1.086  16.884
  167DOPC  H15C20224   6.462   0.977  16.899
  167DOPC   C1120225   6.736   1.057  16.796
  167DOPC  H11A20226   6.688   0.966  16.761
  167DOPC  H11B20227   6.820   1.070  16.724
  167DOPC     P20228   6.916   1.099  16.978
  167DOPC   O1320229   6.965   1.028  17.097
  167DOPC   O1420230   6.908   1.247  16.976
  167DOPC   O1220231   6.781   1.037  16.929
  167DOPC   O1120232   7.015   1.048  16.865
  167DOPC    C120233   7.114   1.135  16.812
  167DOPC    HA20234   7.215   1.096  16.835
  167DOPC    HB20235   7.112   1.239  16.854
  167DOPC    C220236   7.100   1.148  16.659
  167DOPC    HS20237   7.182   1.217  16.632
  167DOPC   O2120238   6.969   1.196  16.624
  167DOPC   C2120239   6.974   1.307  16.558
  167DOPC   O2220240   7.060   1.392  16.565
  167DOPC   C2220241   6.865   1.306  16.456
  167DOPC   H2R20242   6.772   1.260  16.493
  167DOPC   H2S20243   6.907   1.241  16.376
  167DOPC    C320244   7.126   1.016  16.579
  167DOPC    HX20245   7.184   0.948  16.644
  167DOPC    HY20246   7.195   1.046  16.497
  167DOPC   O3120247   7.006   0.956  16.523
  167DOPC   C3120248   6.958   0.854  16.594
  167DOPC   O3220249   7.019   0.794  16.680
  167DOPC   C3220250   6.812   0.822  16.564
  167DOPC   H2X20251   6.812   0.729  16.505
  167DOPC   H2Y20252   6.767   0.792  16.660
  167DOPC   C2320253   6.843   1.449  16.405
  167DOPC   H3R20254   6.938   1.490  16.363
  167DOPC   H3S20255   6.814   1.517  16.488
  167DOPC   C2420256   6.736   1.448  16.297
  167DOPC   H4R20257   6.729   1.549  16.253
  167DOPC   H4S20258   6.639   1.427  16.347
  167DOPC   C2520259   6.759   1.340  16.190
  167DOPC   H5R20260   6.691   1.362  16.105
  167DOPC   H5S20261   6.729   1.241  16.231
  167DOPC   C2620262   6.900   1.318  16.135
  167DOPC   H6R20263   6.933   1.213  16.151
  167DOPC   H6S20264   6.975   1.385  16.185
  167DOPC   C2720265   6.905   1.353  15.989
  167DOPC   H7R20266   7.012   1.369  15.963
  167DOPC   H7S20267   6.845   1.447  15.979
  167DOPC   C2820268   6.844   1.258  15.890
  167DOPC   H8R20269   6.733   1.251  15.904
  167DOPC   H8S20270   6.886   1.155  15.901
  167DOPC   C2920271   6.881   1.327  15.761
  167DOPC   H9R20272   6.811   1.407  15.732
  167DOPC  C21020273   6.980   1.291  15.679
  167DOPC  H10R20274   7.003   1.355  15.592
  167DOPC  C21120275   7.069   1.173  15.708
  167DOPC  H11R20276   7.072   1.161  15.818
  167DOPC  H11S20277   7.170   1.209  15.685
  167DOPC  C21220278   7.045   1.031  15.634
  167DOPC  H12R20279   6.966   1.030  15.713
  167DOPC  H12S20280   7.147   1.007  15.669
  167DOPC  C21320281   7.023   0.873  15.659
  167DOPC  H13R20282   6.926   0.843  15.616
  167DOPC  H13S20283   7.016   0.849  15.767
  167DOPC  C21420284   7.134   0.778  15.606
  167DOPC  H14R20285   7.156   0.703  15.687
  167DOPC  H14S20286   7.223   0.836  15.590
  167DOPC  C21520287   7.116   0.698  15.476
  167DOPC  H15R20288   7.073   0.599  15.499
  167DOPC  H15S20289   7.218   0.678  15.435
  167DOPC  C21620290   7.030   0.760  15.364
  167DOPC  H16R20291   7.093   0.826  15.302
  167DOPC  H16S20292   6.947   0.820  15.406
  167DOPC  C21720293   6.971   0.651  15.275
  167DOPC  H17R20294   6.897   0.696  15.206
  167DOPC  H17S20295   6.916   0.577  15.338
  167DOPC  C21820296   7.076   0.577  15.193
  167DOPC  H18R20297   7.029   0.493  15.137
  167DOPC  H18S20298   7.155   0.535  15.259
  167DOPC  H18T20299   7.123   0.646  15.120
  167DOPC   C3320300   6.726   0.933  16.501
  167DOPC   H3X20301   6.782   1.027  16.483
  167DOPC   H3Y20302   6.637   0.957  16.564
  167DOPC   C3420303   6.670   0.880  16.372
  167DOPC   H4X20304   6.615   0.962  16.319
  167DOPC   H4Y20305   6.598   0.798  16.390
  167DOPC   C3520306   6.780   0.828  16.282
  167DOPC   H5X20307   6.819   0.729  16.313
  167DOPC   H5Y20308   6.867   0.897  16.281
  167DOPC   C3620309   6.716   0.819  16.148
  167DOPC   H6X20310   6.646   0.904  16.131
  167DOPC   H6Y20311   6.796   0.824  16.071
  167DOPC   C3720312   6.640   0.689  16.129
  167DOPC   H7X20313   6.695   0.615  16.192
  167DOPC   H7Y20314   6.535   0.689  16.166
  167DOPC   C3820315   6.655   0.656  15.980
  167DOPC   H8X20316   6.620   0.556  15.954
  167DOPC   H8Y20317   6.763   0.652  15.963
  167DOPC   C3920318   6.579   0.763  15.904
  167DOPC   H9X20319   6.472   0.737  15.909
  167DOPC  C31020320   6.610   0.876  15.834
  167DOPC  H10X20321   6.526   0.938  15.803
  167DOPC  C31120322   6.731   0.960  15.805
  167DOPC  H11X20323   6.829   0.915  15.831
  167DOPC  H11Y20324   6.717   1.043  15.874
  167DOPC  C31220325   6.721   1.023  15.661
  167DOPC  H12X20326   6.695   0.947  15.585
  167DOPC  H12Y20327   6.813   1.066  15.621
  167DOPC  C31320328   6.639   1.152  15.658
  167DOPC  H13X20329   6.586   1.162  15.753
  167DOPC  H13Y20330   6.696   1.244  15.663
  167DOPC  C31420331   6.570   1.185  15.527
  167DOPC  H14X20332   6.524   1.094  15.484
  167DOPC  H14Y20333   6.487   1.257  15.549
  167DOPC  C31520334   6.669   1.250  15.431
  167DOPC  H15X20335   6.729   1.168  15.387
  167DOPC  H15Y20336   6.741   1.316  15.484
  167DOPC  C31620337   6.598   1.338  15.329
  167DOPC  H16X20338   6.502   1.292  15.303
  167DOPC  H16Y20339   6.569   1.433  15.373
  167DOPC  C31720340   6.678   1.365  15.203
  167DOPC  H17X20341   6.722   1.467  15.202
  167DOPC  H17Y20342   6.764   1.294  15.204
  167DOPC  C31820343   6.594   1.343  15.077
  167DOPC  H18X20344   6.643   1.268  15.011
  167DOPC  H18Y20345   6.494   1.304  15.102
  167DOPC  H18Z20346   6.581   1.439  15.022
  168DOPC     N20347   2.098   7.516  16.974
  168DOPC   C1220348   2.069   7.579  16.838
  168DOPC  H12A20349   2.046   7.500  16.767
  168DOPC  H12B20350   2.158   7.628  16.801
  168DOPC   C1320351   2.241   7.476  16.986
  168DOPC  H13A20352   2.259   7.432  17.084
  168DOPC  H13B20353   2.269   7.404  16.910
  168DOPC  H13C20354   2.306   7.562  16.976
  168DOPC   C1420355   2.006   7.398  16.991
  168DOPC  H14A20356   2.016   7.329  16.907
  168DOPC  H14B20357   2.017   7.349  17.086
  168DOPC  H14C20358   1.903   7.434  16.981
  168DOPC   C1520359   2.072   7.614  17.083
  168DOPC  H15A20360   2.136   7.700  17.070
  168DOPC  H15B20361   2.093   7.572  17.181
  168DOPC  H15C20362   1.969   7.648  17.075
  168DOPC   C1120363   1.952   7.681  16.826
  168DOPC  H11A20364   1.980   7.774  16.879
  168DOPC  H11B20365   1.940   7.710  16.719
  168DOPC     P20366   1.739   7.538  16.791
  168DOPC   O1320367   1.693   7.617  16.675
  168DOPC   O1420368   1.641   7.468  16.877
  168DOPC   O1220369   1.830   7.631  16.882
  168DOPC   O1120370   1.847   7.429  16.744
  168DOPC    C120371   1.802   7.295  16.718
  168DOPC    HA20372   1.691   7.281  16.728
  168DOPC    HB20373   1.850   7.229  16.792
  168DOPC    C220374   1.836   7.241  16.577
  168DOPC    HS20375   1.816   7.131  16.576
  168DOPC   O2120376   1.969   7.271  16.535
  168DOPC   C2120377   2.054   7.191  16.583
  168DOPC   O2220378   2.037   7.111  16.674
  168DOPC   C2220379   2.176   7.197  16.491
  168DOPC   H2R20380   2.227   7.099  16.500
  168DOPC   H2S20381   2.240   7.278  16.529
  168DOPC    C320382   1.753   7.298  16.463
  168DOPC    HX20383   1.647   7.275  16.477
  168DOPC    HY20384   1.790   7.242  16.372
  168DOPC   O3120385   1.776   7.440  16.452
  168DOPC   C3120386   1.739   7.480  16.333
  168DOPC   O3220387   1.688   7.405  16.251
  168DOPC   C3220388   1.772   7.627  16.311
  168DOPC   H2X20389   1.819   7.668  16.402
  168DOPC   H2Y20390   1.844   7.631  16.227
  168DOPC   C2320391   2.142   7.228  16.343
  168DOPC   H3R20392   2.044   7.182  16.320
  168DOPC   H3S20393   2.220   7.179  16.279
  168DOPC   C2420394   2.132   7.376  16.305
  168DOPC   H4R20395   2.169   7.439  16.388
  168DOPC   H4S20396   2.024   7.396  16.293
  168DOPC   C2520397   2.204   7.415  16.174
  168DOPC   H5R20398   2.227   7.324  16.114
  168DOPC   H5S20399   2.303   7.460  16.200
  168DOPC   C2620400   2.123   7.512  16.087
  168DOPC   H6R20401   2.179   7.607  16.076
  168DOPC   H6S20402   2.028   7.538  16.139
  168DOPC   C2720403   2.087   7.459  15.947
  168DOPC   H7R20404   2.181   7.447  15.888
  168DOPC   H7S20405   2.029   7.539  15.896
  168DOPC   C2820406   2.009   7.326  15.942
  168DOPC   H8R20407   2.069   7.246  15.990
  168DOPC   H8S20408   1.998   7.297  15.835
  168DOPC   C2920409   1.875   7.336  16.009
  168DOPC   H9R20410   1.879   7.346  16.119
  168DOPC  C21020411   1.754   7.337  15.950
  168DOPC  H10R20412   1.664   7.354  16.011
  168DOPC  C21120413   1.731   7.329  15.802
  168DOPC  H11R20414   1.624   7.309  15.777
  168DOPC  H11S20415   1.791   7.248  15.759
  168DOPC  C21220416   1.768   7.464  15.743
  168DOPC  H12R20417   1.869   7.496  15.774
  168DOPC  H12S20418   1.694   7.535  15.785
  168DOPC  C21320419   1.768   7.472  15.591
  168DOPC  H13R20420   1.721   7.568  15.558
  168DOPC  H13S20421   1.706   7.389  15.550
  168DOPC  C21420422   1.910   7.469  15.533
  168DOPC  H14R20423   1.969   7.389  15.583
  168DOPC  H14S20424   1.961   7.566  15.553
  168DOPC  C21520425   1.912   7.441  15.385
  168DOPC  H15R20426   1.927   7.332  15.372
  168DOPC  H15S20427   1.997   7.493  15.335
  168DOPC  C21620428   1.783   7.476  15.313
  168DOPC  H16R20429   1.758   7.584  15.317
  168DOPC  H16S20430   1.694   7.430  15.359
  168DOPC  C21720431   1.796   7.417  15.174
  168DOPC  H17R20432   1.871   7.335  15.177
  168DOPC  H17S20433   1.836   7.491  15.103
  168DOPC  C21820434   1.665   7.352  15.135
  168DOPC  H18R20435   1.671   7.244  15.153
  168DOPC  H18S20436   1.635   7.374  15.031
  168DOPC  H18T20437   1.584   7.393  15.199
  168DOPC   C3320438   1.645   7.707  16.276
  168DOPC   H3X20439   1.579   7.708  16.366
  168DOPC   H3Y20440   1.590   7.657  16.193
  168DOPC   C3420441   1.672   7.853  16.236
  168DOPC   H4X20442   1.716   7.904  16.324
  168DOPC   H4Y20443   1.575   7.903  16.214
  168DOPC   C3520444   1.765   7.871  16.116
  168DOPC   H5X20445   1.868   7.838  16.145
  168DOPC   H5Y20446   1.770   7.981  16.093
  168DOPC   C3620447   1.727   7.799  15.987
  168DOPC   H6X20448   1.708   7.691  16.003
  168DOPC   H6Y20449   1.634   7.845  15.945
  168DOPC   C3720450   1.841   7.814  15.887
  168DOPC   H7X20451   1.885   7.915  15.895
  168DOPC   H7Y20452   1.922   7.741  15.912
  168DOPC   C3820453   1.804   7.798  15.740
  168DOPC   H8X20454   1.753   7.704  15.721
  168DOPC   H8Y20455   1.903   7.789  15.691
  168DOPC   C3920456   1.716   7.906  15.682
  168DOPC   H9X20457   1.612   7.908  15.718
  168DOPC  C31020458   1.756   7.990  15.586
  168DOPC  H10X20459   1.687   8.065  15.544
  168DOPC  C31120460   1.895   7.983  15.529
  168DOPC  H11X20461   1.972   7.989  15.609
  168DOPC  H11Y20462   1.914   8.069  15.461
  168DOPC  C31220463   1.918   7.858  15.445
  168DOPC  H12X20464   1.901   7.763  15.500
  168DOPC  H12Y20465   2.025   7.856  15.415
  168DOPC  C31320466   1.825   7.856  15.324
  168DOPC  H13X20467   1.726   7.814  15.355
  168DOPC  H13Y20468   1.808   7.960  15.288
  168DOPC  C31420469   1.886   7.776  15.212
  168DOPC  H14X20470   1.914   7.674  15.245
  168DOPC  H14Y20471   1.810   7.764  15.131
  168DOPC  C31520472   2.017   7.835  15.163
  168DOPC  H15X20473   2.100   7.789  15.222
  168DOPC  H15Y20474   2.021   7.944  15.180
  168DOPC  C31620475   2.034   7.800  15.017
  168DOPC  H16X20476   2.139   7.822  14.985
  168DOPC  H16Y20477   2.018   7.690  15.012
  168DOPC  C31720478   1.936   7.873  14.924
  168DOPC  H17X20479   1.961   7.849  14.818
  168DOPC  H17Y20480   1.832   7.838  14.941
  168DOPC  C31820481   1.939   8.025  14.935
  168DOPC  H18X20482   2.043   8.062  14.918
  168DOPC  H18Y20483   1.873   8.065  14.856
  168DOPC  H18Z20484   1.902   8.060  15.033
  169DOPC     N20485   0.569   1.116  17.016
  169DOPC   C1220486   0.511   1.251  16.978
  169DOPC  H12A20487   0.515   1.266  16.871
  169DOPC  H12B20488   0.568   1.330  17.025
  169DOPC   C1320489   0.512   1.013  16.924
  169DOPC  H13A20490   0.530   0.913  16.961
  169DOPC  H13B20491   0.403   1.029  16.915
  169DOPC  H13C20492   0.551   1.021  16.824
  169DOPC   C1420493   0.532   1.082  17.158
  169DOPC  H14A20494   0.580   0.992  17.193
  169DOPC  H14B20495   0.561   1.165  17.224
  169DOPC  H14C20496   0.424   1.071  17.165
  169DOPC   C1520497   0.717   1.117  17.007
  169DOPC  H15A20498   0.755   1.126  16.906
  169DOPC  H15B20499   0.758   1.026  17.049
  169DOPC  H15C20500   0.754   1.199  17.068
  169DOPC   C1120501   0.362   1.274  17.013
  169DOPC  H11A20502   0.340   1.252  17.120
  169DOPC  H11B20503   0.344   1.384  17.004
  169DOPC     P20504   0.221   1.270  16.800
  169DOPC   O1320505   0.160   1.398  16.842
  169DOPC   O1420506   0.144   1.177  16.717
  169DOPC   O1220507   0.277   1.194  16.929
  169DOPC   O1120508   0.358   1.302  16.733
  169DOPC    C120509   0.433   1.234  16.636
  169DOPC    HA20510   0.369   1.188  16.558
  169DOPC    HB20511   0.494   1.155  16.684
  169DOPC    C220512   0.524   1.341  16.575
  169DOPC    HS20513   0.549   1.418  16.652
  169DOPC   O2120514   0.454   1.398  16.466
  169DOPC   C2120515   0.371   1.497  16.482
  169DOPC   O2220516   0.347   1.562  16.582
  169DOPC   C2220517   0.330   1.530  16.339
  169DOPC   H2R20518   0.247   1.601  16.343
  169DOPC   H2S20519   0.298   1.436  16.291
  169DOPC    C320520   0.658   1.285  16.520
  169DOPC    HX20521   0.698   1.212  16.593
  169DOPC    HY20522   0.731   1.368  16.513
  169DOPC   O3120523   0.637   1.217  16.395
  169DOPC   C3120524   0.678   1.284  16.288
  169DOPC   O3220525   0.736   1.391  16.285
  169DOPC   C3220526   0.655   1.200  16.168
  169DOPC   H2X20527   0.567   1.135  16.179
  169DOPC   H2Y20528   0.645   1.260  16.075
  169DOPC   C2320529   0.457   1.589  16.274
  169DOPC   H3R20530   0.548   1.533  16.307
  169DOPC   H3S20531   0.469   1.690  16.317
  169DOPC   C2420532   0.469   1.586  16.122
  169DOPC   H4R20533   0.576   1.607  16.096
  169DOPC   H4S20534   0.410   1.667  16.074
  169DOPC   C2520535   0.434   1.451  16.061
  169DOPC   H5R20536   0.329   1.423  16.085
  169DOPC   H5S20537   0.497   1.376  16.107
  169DOPC   C2620538   0.449   1.453  15.910
  169DOPC   H6R20539   0.478   1.353  15.871
  169DOPC   H6S20540   0.529   1.522  15.876
  169DOPC   C2720541   0.313   1.490  15.855
  169DOPC   H7R20542   0.289   1.592  15.891
  169DOPC   H7S20543   0.237   1.426  15.903
  169DOPC   C2820544   0.306   1.470  15.704
  169DOPC   H8R20545   0.202   1.452  15.669
  169DOPC   H8S20546   0.367   1.383  15.673
  169DOPC   C2920547   0.355   1.601  15.656
  169DOPC   H9R20548   0.309   1.687  15.707
  169DOPC  C21020549   0.448   1.624  15.566
  169DOPC  H10R20550   0.461   1.727  15.532
  169DOPC  C21120551   0.525   1.522  15.492
  169DOPC  H11R20552   0.504   1.554  15.388
  169DOPC  H11S20553   0.484   1.419  15.505
  169DOPC  C21220554   0.677   1.517  15.510
  169DOPC  H12R20555   0.705   1.437  15.583
  169DOPC  H12S20556   0.718   1.613  15.549
  169DOPC  C21320557   0.737   1.484  15.374
  169DOPC  H13R20558   0.847   1.464  15.381
  169DOPC  H13S20559   0.723   1.570  15.305
  169DOPC  C21420560   0.660   1.364  15.317
  169DOPC  H14R20561   0.557   1.396  15.297
  169DOPC  H14S20562   0.658   1.280  15.390
  169DOPC  C21520563   0.709   1.317  15.183
  169DOPC  H15R20564   0.724   1.406  15.119
  169DOPC  H15S20565   0.637   1.260  15.123
  169DOPC  C21620566   0.825   1.225  15.211
  169DOPC  H16R20567   0.789   1.119  15.209
  169DOPC  H16S20568   0.862   1.243  15.315
  169DOPC  C21720569   0.937   1.253  15.116
  169DOPC  H17R20570   0.903   1.217  15.016
  169DOPC  H17S20571   1.023   1.191  15.149
  169DOPC  C21820572   0.980   1.400  15.108
  169DOPC  H18R20573   1.054   1.422  15.188
  169DOPC  H18S20574   0.900   1.475  15.119
  169DOPC  H18T20575   1.028   1.419  15.010
  169DOPC   C3320576   0.782   1.121  16.146
  169DOPC   H3X20577   0.869   1.187  16.123
  169DOPC   H3Y20578   0.749   1.067  16.058
  169DOPC   C3420579   0.816   1.016  16.251
  169DOPC   H4X20580   0.839   1.070  16.346
  169DOPC   H4Y20581   0.908   0.962  16.222
  169DOPC   C3520582   0.706   0.912  16.274
  169DOPC   H5X20583   0.608   0.961  16.291
  169DOPC   H5Y20584   0.732   0.862  16.371
  169DOPC   C3620585   0.695   0.801  16.168
  169DOPC   H6X20586   0.793   0.749  16.162
  169DOPC   H6Y20587   0.623   0.726  16.205
  169DOPC   C3720588   0.652   0.838  16.024
  169DOPC   H7X20589   0.738   0.878  15.967
  169DOPC   H7Y20590   0.632   0.741  15.976
  169DOPC   C3820591   0.530   0.933  16.009
  169DOPC   H8X20592   0.570   1.032  15.978
  169DOPC   H8Y20593   0.485   0.946  16.110
  169DOPC   C3920594   0.419   0.894  15.916
  169DOPC   H9X20595   0.388   0.790  15.921
  169DOPC  C31020596   0.360   0.970  15.824
  169DOPC  H10X20597   0.278   0.926  15.765
  169DOPC  C31120598   0.392   1.113  15.790
  169DOPC  H11X20599   0.415   1.170  15.882
  169DOPC  H11Y20600   0.304   1.162  15.743
  169DOPC  C31220601   0.508   1.124  15.690
  169DOPC  H12X20602   0.605   1.116  15.745
  169DOPC  H12Y20603   0.508   1.224  15.642
  169DOPC  C31320604   0.505   1.017  15.579
  169DOPC  H13X20605   0.588   1.034  15.507
  169DOPC  H13Y20606   0.521   0.919  15.627
  169DOPC  C31420607   0.371   1.005  15.505
  169DOPC  H14X20608   0.367   0.906  15.454
  169DOPC  H14Y20609   0.286   1.010  15.575
  169DOPC  C31520610   0.352   1.115  15.401
  169DOPC  H15X20611   0.387   1.212  15.442
  169DOPC  H15Y20612   0.243   1.124  15.382
  169DOPC  C31620613   0.425   1.080  15.272
  169DOPC  H16X20614   0.533   1.067  15.294
  169DOPC  H16Y20615   0.386   0.982  15.235
  169DOPC  C31720616   0.411   1.188  15.165
  169DOPC  H17X20617   0.446   1.281  15.211
  169DOPC  H17Y20618   0.472   1.170  15.076
  169DOPC  C31820619   0.274   1.226  15.123
  169DOPC  H18X20620   0.218   1.146  15.070
  169DOPC  H18Y20621   0.224   1.247  15.217
  169DOPC  H18Z20622   0.278   1.320  15.064
  170DOPC     N20623   6.953   7.059  16.782
  170DOPC   C1220624   6.892   7.019  16.917
  170DOPC  H12A20625   6.893   7.107  16.981
  170DOPC  H12B20626   6.956   6.946  16.964
  170DOPC   C1320627   7.100   7.086  16.797
  170DOPC  H13A20628   7.138   7.130  16.705
  170DOPC  H13B20629   7.122   7.154  16.878
  170DOPC  H13C20630   7.156   6.994  16.815
  170DOPC   C1420631   6.881   7.182  16.735
  170DOPC  H14A20632   6.773   7.163  16.736
  170DOPC  H14B20633   6.893   7.264  16.806
  170DOPC  H14C20634   6.910   7.215  16.637
  170DOPC   C1520635   6.937   6.948  16.683
  170DOPC  H15A20636   6.988   6.970  16.590
  170DOPC  H15B20637   6.832   6.932  16.664
  170DOPC  H15C20638   6.977   6.854  16.721
  170DOPC   C1120639   6.746   6.966  16.920
  170DOPC  H11A20640   6.734   6.884  16.847
  170DOPC  H11B20641   6.724   6.922  17.020
  170DOPC     P20642   6.624   7.181  16.999
  170DOPC   O1320643   6.749   7.260  17.015
  170DOPC   O1420644   6.574   7.104  17.115
  170DOPC   O1220645   6.653   7.070  16.888
  170DOPC   O1120646   6.505   7.259  16.933
  170DOPC    C120647   6.508   7.314  16.801
  170DOPC    HA20648   6.610   7.348  16.771
  170DOPC    HB20649   6.444   7.406  16.803
  170DOPC    C220650   6.447   7.218  16.694
  170DOPC    HS20651   6.348   7.185  16.733
  170DOPC   O2120652   6.533   7.108  16.661
  170DOPC   C2120653   6.481   6.989  16.646
  170DOPC   O2220654   6.369   6.954  16.681
  170DOPC   C2220655   6.590   6.899  16.584
  170DOPC   H2R20656   6.616   6.826  16.663
  170DOPC   H2S20657   6.679   6.960  16.560
  170DOPC    C320658   6.426   7.295  16.563
  170DOPC    HX20659   6.369   7.387  16.584
  170DOPC    HY20660   6.363   7.231  16.497
  170DOPC   O3120661   6.559   7.326  16.512
  170DOPC   C3120662   6.584   7.271  16.394
  170DOPC   O3220663   6.499   7.230  16.318
  170DOPC   C3220664   6.734   7.261  16.365
  170DOPC   H2X20665   6.768   7.163  16.405
  170DOPC   H2Y20666   6.743   7.257  16.254
  170DOPC   C2320667   6.550   6.821  16.456
  170DOPC   H3R20668   6.447   6.778  16.467
  170DOPC   H3S20669   6.620   6.734  16.445
  170DOPC   C2420670   6.558   6.904  16.327
  170DOPC   H4R20671   6.659   6.950  16.318
  170DOPC   H4S20672   6.483   6.986  16.334
  170DOPC   C2520673   6.529   6.821  16.201
  170DOPC   H5R20674   6.428   6.776  16.211
  170DOPC   H5S20675   6.602   6.737  16.194
  170DOPC   C2620676   6.534   6.901  16.071
  170DOPC   H6R20677   6.507   6.832  15.987
  170DOPC   H6S20678   6.638   6.937  16.052
  170DOPC   C2720679   6.438   7.022  16.066
  170DOPC   H7R20680   6.484   7.105  16.122
  170DOPC   H7S20681   6.343   6.996  16.117
  170DOPC   C2820682   6.407   7.069  15.922
  170DOPC   H8R20683   6.343   7.160  15.925
  170DOPC   H8S20684   6.346   6.989  15.873
  170DOPC   C2920685   6.534   7.093  15.845
  170DOPC   H9R20686   6.559   7.013  15.773
  170DOPC  C21020687   6.616   7.199  15.853
  170DOPC  H10R20688   6.713   7.193  15.800
  170DOPC  C21120689   6.604   7.321  15.940
  170DOPC  H11R20690   6.706   7.353  15.971
  170DOPC  H11S20691   6.553   7.295  16.035
  170DOPC  C21220692   6.529   7.442  15.879
  170DOPC  H12R20693   6.563   7.533  15.934
  170DOPC  H12S20694   6.422   7.427  15.905
  170DOPC  C21320695   6.532   7.466  15.724
  170DOPC  H13R20696   6.471   7.555  15.703
  170DOPC  H13S20697   6.479   7.382  15.675
  170DOPC  C21420698   6.676   7.480  15.668
  170DOPC  H14R20699   6.700   7.374  15.682
  170DOPC  H14S20700   6.727   7.549  15.738
  170DOPC  C21520701   6.734   7.512  15.524
  170DOPC  H15R20702   6.801   7.600  15.529
  170DOPC  H15S20703   6.662   7.530  15.445
  170DOPC  C21620704   6.809   7.398  15.455
  170DOPC  H16R20705   6.747   7.309  15.480
  170DOPC  H16S20706   6.910   7.388  15.497
  170DOPC  C21720707   6.822   7.404  15.301
  170DOPC  H17R20708   6.721   7.404  15.256
  170DOPC  H17S20709   6.873   7.310  15.267
  170DOPC  C21820710   6.901   7.522  15.246
  170DOPC  H18R20711   6.918   7.511  15.136
  170DOPC  H18S20712   7.001   7.531  15.295
  170DOPC  H18T20713   6.844   7.616  15.262
  170DOPC   C3320714   6.824   7.373  16.421
  170DOPC   H3X20715   6.805   7.388  16.529
  170DOPC   H3Y20716   6.801   7.469  16.369
  170DOPC   C3420717   6.973   7.341  16.401
  170DOPC   H4X20718   6.999   7.248  16.456
  170DOPC   H4Y20719   7.035   7.424  16.441
  170DOPC   C3520720   7.011   7.321  16.254
  170DOPC   H5X20721   6.957   7.235  16.208
  170DOPC   H5Y20722   7.120   7.296  16.251
  170DOPC   C3620723   6.991   7.445  16.167
  170DOPC   H6X20724   6.884   7.455  16.137
  170DOPC   H6Y20725   7.020   7.536  16.224
  170DOPC   C3720726   7.083   7.435  16.046
  170DOPC   H7X20727   7.185   7.450  16.085
  170DOPC   H7Y20728   7.081   7.331  16.004
  170DOPC   C3820729   7.061   7.540  15.940
  170DOPC   H8X20730   7.150   7.552  15.874
  170DOPC   H8Y20731   7.039   7.639  15.985
  170DOPC   C3920732   6.947   7.489  15.859
  170DOPC   H9X20733   6.848   7.525  15.891
  170DOPC  C31020734   6.958   7.401  15.759
  170DOPC  H10X20735   6.873   7.371  15.704
  170DOPC  C31120736   7.073   7.330  15.698
  170DOPC  H11X20737   7.159   7.351  15.762
  170DOPC  H11Y20738   7.094   7.372  15.597
  170DOPC  C31220739   7.045   7.178  15.685
  170DOPC  H12X20740   7.026   7.138  15.787
  170DOPC  H12Y20741   7.136   7.129  15.645
  170DOPC  C31320742   6.926   7.141  15.593
  170DOPC  H13X20743   6.834   7.188  15.632
  170DOPC  H13Y20744   6.947   7.181  15.492
  170DOPC  C31420745   6.890   6.992  15.576
  170DOPC  H14X20746   6.976   6.938  15.532
  170DOPC  H14Y20747   6.872   6.948  15.677
  170DOPC  C31520748   6.763   6.970  15.489
  170DOPC  H15X20749   6.675   7.004  15.548
  170DOPC  H15Y20750   6.751   6.861  15.471
  170DOPC  C31620751   6.760   7.044  15.354
  170DOPC  H16X20752   6.744   7.151  15.374
  170DOPC  H16Y20753   6.857   7.035  15.300
  170DOPC  C31720754   6.644   7.004  15.260
  170DOPC  H17X20755   6.553   6.982  15.319
  170DOPC  H17Y20756   6.621   7.092  15.195
  170DOPC  C31820757   6.677   6.888  15.167
  170DOPC  H18X20758   6.595   6.871  15.094
  170DOPC  H18Y20759   6.770   6.910  15.109
  170DOPC  H18Z20760   6.693   6.794  15.224
  171DOPC     N20761   3.894   2.868  13.076
  171DOPC   C1220762   3.794   2.958  13.147
  171DOPC  H12A20763   3.847   3.034  13.205
  171DOPC  H12B20764   3.734   2.900  13.215
  171DOPC   C1320765   3.822   2.788  12.971
  171DOPC  H13A20766   3.746   2.722  13.012
  171DOPC  H13B20767   3.770   2.860  12.907
  171DOPC  H13C20768   3.889   2.734  12.906
  171DOPC   C1420769   3.965   2.777  13.171
  171DOPC  H14A20770   3.895   2.710  13.219
  171DOPC  H14B20771   4.039   2.718  13.118
  171DOPC  H14C20772   4.017   2.833  13.247
  171DOPC   C1520773   3.994   2.957  13.009
  171DOPC  H15A20774   4.072   2.903  12.956
  171DOPC  H15B20775   4.040   3.024  13.081
  171DOPC  H15C20776   3.941   3.024  12.941
  171DOPC   C1120777   3.696   3.038  13.056
  171DOPC  H11A20778   3.640   2.970  12.988
  171DOPC  H11B20779   3.616   3.082  13.121
  171DOPC     P20780   3.779   3.280  13.044
  171DOPC   O1320781   3.646   3.345  13.043
  171DOPC   O1420782   3.895   3.350  12.982
  171DOPC   O1220783   3.766   3.136  12.980
  171DOPC   O1120784   3.815   3.239  13.192
  171DOPC    C120785   3.880   3.334  13.276
  171DOPC    HA20786   3.839   3.321  13.378
  171DOPC    HB20787   3.860   3.440  13.247
  171DOPC    C220788   4.034   3.312  13.282
  171DOPC    HS20789   4.074   3.327  13.179
  171DOPC   O2120790   4.062   3.180  13.328
  171DOPC   C2120791   4.188   3.139  13.324
  171DOPC   O2220792   4.283   3.198  13.276
  171DOPC   C2220793   4.196   3.000  13.387
  171DOPC   H2R20794   4.297   2.990  13.432
  171DOPC   H2S20795   4.185   2.924  13.307
  171DOPC    C320796   4.094   3.421  13.374
  171DOPC    HX20797   4.081   3.514  13.314
  171DOPC    HY20798   4.203   3.405  13.390
  171DOPC   O3120799   4.020   3.441  13.496
  171DOPC   C3120800   4.063   3.378  13.604
  171DOPC   O3220801   4.160   3.305  13.610
  171DOPC   C3220802   3.973   3.415  13.721
  171DOPC   H2X20803   4.023   3.383  13.814
  171DOPC   H2Y20804   3.963   3.526  13.723
  171DOPC   C2320805   4.089   2.982  13.496
  171DOPC   H3R20806   3.986   2.986  13.452
  171DOPC   H3S20807   4.096   3.069  13.566
  171DOPC   C2420808   4.102   2.856  13.581
  171DOPC   H4R20809   4.208   2.843  13.613
  171DOPC   H4S20810   4.073   2.766  13.522
  171DOPC   C2520811   4.014   2.869  13.705
  171DOPC   H5R20812   3.908   2.876  13.674
  171DOPC   H5S20813   4.041   2.963  13.759
  171DOPC   C2620814   4.030   2.752  13.803
  171DOPC   H6R20815   4.130   2.757  13.851
  171DOPC   H6S20816   4.026   2.656  13.746
  171DOPC   C2720817   3.920   2.749  13.910
  171DOPC   H7R20818   3.935   2.663  13.978
  171DOPC   H7S20819   3.825   2.732  13.856
  171DOPC   C2820820   3.904   2.879  13.992
  171DOPC   H8R20821   3.812   2.868  14.054
  171DOPC   H8S20822   3.883   2.963  13.922
  171DOPC   C2920823   4.022   2.905  14.083
  171DOPC   H9R20824   4.047   2.821  14.149
  171DOPC  C21020825   4.098   3.016  14.090
  171DOPC  H10R20826   4.180   3.019  14.163
  171DOPC  C21120827   4.083   3.143  14.008
  171DOPC  H11R20828   4.015   3.127  13.921
  171DOPC  H11S20829   4.181   3.173  13.964
  171DOPC  C21220830   4.026   3.261  14.090
  171DOPC  H12R20831   3.925   3.233  14.125
  171DOPC  H12S20832   4.013   3.348  14.022
  171DOPC  C21320833   4.112   3.307  14.210
  171DOPC  H13R20834   4.219   3.306  14.181
  171DOPC  H13S20835   4.098   3.236  14.294
  171DOPC  C21420836   4.075   3.450  14.256
  171DOPC  H14R20837   3.965   3.464  14.250
  171DOPC  H14S20838   4.118   3.521  14.182
  171DOPC  C21520839   4.122   3.486  14.398
  171DOPC  H15R20840   4.144   3.596  14.403
  171DOPC  H15S20841   4.215   3.431  14.424
  171DOPC  C21620842   4.014   3.460  14.502
  171DOPC  H16R20843   3.992   3.352  14.502
  171DOPC  H16S20844   3.924   3.517  14.468
  171DOPC  C21720845   4.044   3.506  14.645
  171DOPC  H17R20846   3.946   3.531  14.694
  171DOPC  H17S20847   4.105   3.599  14.643
  171DOPC  C21820848   4.111   3.399  14.731
  171DOPC  H18R20849   4.049   3.306  14.733
  171DOPC  H18S20850   4.125   3.434  14.835
  171DOPC  H18T20851   4.211   3.373  14.689
  171DOPC   C3320852   3.833   3.349  13.708
  171DOPC   H3X20853   3.828   3.259  13.772
  171DOPC   H3Y20854   3.817   3.313  13.604
  171DOPC   C3420855   3.718   3.447  13.738
  171DOPC   H4X20856   3.621   3.399  13.709
  171DOPC   H4Y20857   3.730   3.536  13.673
  171DOPC   C3520858   3.709   3.491  13.884
  171DOPC   H5X20859   3.629   3.568  13.894
  171DOPC   H5Y20860   3.805   3.538  13.915
  171DOPC   C3620861   3.675   3.375  13.978
  171DOPC   H6X20862   3.574   3.335  13.954
  171DOPC   H6Y20863   3.748   3.293  13.963
  171DOPC   C3720864   3.681   3.414  14.126
  171DOPC   H7X20865   3.779   3.464  14.142
  171DOPC   H7Y20866   3.602   3.489  14.151
  171DOPC   C3820867   3.667   3.289  14.215
  171DOPC   H8X20868   3.692   3.199  14.154
  171DOPC   H8Y20869   3.560   3.278  14.243
  171DOPC   C3920870   3.758   3.289  14.335
  171DOPC   H9X20871   3.860   3.253  14.318
  171DOPC  C31020872   3.725   3.334  14.456
  171DOPC  H10X20873   3.798   3.330  14.538
  171DOPC  C31120874   3.595   3.393  14.495
  171DOPC  H11X20875   3.533   3.426  14.408
  171DOPC  H11Y20876   3.615   3.482  14.558
  171DOPC  C31220877   3.517   3.297  14.584
  171DOPC  H12X20878   3.582   3.271  14.670
  171DOPC  H12Y20879   3.497   3.202  14.531
  171DOPC  C31320880   3.391   3.370  14.629
  171DOPC  H13X20881   3.422   3.474  14.657
  171DOPC  H13Y20882   3.320   3.377  14.544
  171DOPC  C31420883   3.320   3.313  14.751
  171DOPC  H14X20884   3.252   3.391  14.792
  171DOPC  H14Y20885   3.256   3.229  14.718
  171DOPC  C31520886   3.415   3.264  14.861
  171DOPC  H15X20887   3.471   3.174  14.826
  171DOPC  H15Y20888   3.352   3.229  14.946
  171DOPC  C31620889   3.513   3.370  14.914
  171DOPC  H16X20890   3.586   3.399  14.836
  171DOPC  H16Y20891   3.454   3.461  14.939
  171DOPC  C31720892   3.587   3.322  15.040
  171DOPC  H17X20893   3.615   3.411  15.100
  171DOPC  H17Y20894   3.516   3.262  15.100
  171DOPC  C31820895   3.711   3.238  15.015
  171DOPC  H18X20896   3.786   3.294  14.955
  171DOPC  H18Y20897   3.758   3.210  15.113
  171DOPC  H18Z20898   3.685   3.144  14.961
  172DOPC     N20899   3.182   4.418  12.930
  172DOPC   C1220900   3.164   4.393  13.080
  172DOPC  H12A20901   3.189   4.485  13.134
  172DOPC  H12B20902   3.233   4.318  13.114
  172DOPC   C1320903   3.108   4.320  12.842
  172DOPC  H13A20904   3.150   4.220  12.842
  172DOPC  H13B20905   3.005   4.311  12.873
  172DOPC  H13C20906   3.110   4.352  12.737
  172DOPC   C1420907   3.327   4.407  12.899
  172DOPC  H14A20908   3.363   4.307  12.920
  172DOPC  H14B20909   3.345   4.427  12.794
  172DOPC  H14C20910   3.387   4.476  12.957
  172DOPC   C1520911   3.129   4.555  12.898
  172DOPC  H15A20912   3.170   4.629  12.966
  172DOPC  H15B20913   3.022   4.554  12.918
  172DOPC  H15C20914   3.147   4.583  12.795
  172DOPC   C1120915   3.024   4.355  13.133
  172DOPC  H11A20916   2.990   4.261  13.084
  172DOPC  H11B20917   3.030   4.334  13.243
  172DOPC     P20918   2.908   4.582  13.204
  172DOPC   O1320919   2.885   4.535  13.343
  172DOPC   O1420920   2.804   4.665  13.138
  172DOPC   O1220921   2.932   4.459  13.105
  172DOPC   O1120922   3.043   4.665  13.200
  172DOPC    C120923   3.049   4.779  13.290
  172DOPC    HA20924   2.958   4.796  13.353
  172DOPC    HB20925   3.061   4.871  13.229
  172DOPC    C220926   3.170   4.768  13.386
  172DOPC    HS20927   3.248   4.708  13.333
  172DOPC   O2120928   3.130   4.710  13.511
  172DOPC   C2120929   3.173   4.586  13.536
  172DOPC   O2220930   3.246   4.521  13.463
  172DOPC   C2220931   3.133   4.543  13.677
  172DOPC   H2R20932   3.152   4.434  13.685
  172DOPC   H2S20933   3.024   4.561  13.691
  172DOPC    C320934   3.234   4.908  13.413
  172DOPC    HX20935   3.264   4.949  13.314
  172DOPC    HY20936   3.326   4.896  13.473
  172DOPC   O3120937   3.141   5.000  13.473
  172DOPC   C3120938   3.145   4.999  13.605
  172DOPC   O3220939   3.244   4.981  13.674
  172DOPC   C3220940   3.004   5.018  13.657
  172DOPC   H2X20941   3.002   5.102  13.730
  172DOPC   H2Y20942   2.936   5.040  13.572
  172DOPC   C2320943   3.218   4.615  13.784
  172DOPC   H3R20944   3.246   4.717  13.747
  172DOPC   H3S20945   3.309   4.555  13.801
  172DOPC   C2420946   3.149   4.637  13.918
  172DOPC   H4R20947   3.047   4.669  13.892
  172DOPC   H4S20948   3.198   4.722  13.971
  172DOPC   C2520949   3.150   4.515  14.013
  172DOPC   H5R20950   3.091   4.433  13.968
  172DOPC   H5S20951   3.097   4.541  14.108
  172DOPC   C2620952   3.288   4.464  14.057
  172DOPC   H6R20953   3.338   4.415  13.971
  172DOPC   H6S20954   3.271   4.383  14.133
  172DOPC   C2720955   3.386   4.567  14.119
  172DOPC   H7R20956   3.423   4.635  14.040
  172DOPC   H7S20957   3.473   4.512  14.160
  172DOPC   C2820958   3.329   4.654  14.233
  172DOPC   H8R20959   3.257   4.724  14.188
  172DOPC   H8S20960   3.411   4.717  14.276
  172DOPC   C2920961   3.264   4.567  14.338
  172DOPC   H9R20962   3.186   4.500  14.300
  172DOPC  C21020963   3.280   4.572  14.471
  172DOPC  H10R20964   3.220   4.502  14.531
  172DOPC  C21120965   3.366   4.666  14.551
  172DOPC  H11R20966   3.436   4.724  14.487
  172DOPC  H11S20967   3.428   4.609  14.622
  172DOPC  C21220968   3.279   4.766  14.629
  172DOPC  H12R20969   3.231   4.838  14.558
  172DOPC  H12S20970   3.343   4.825  14.698
  172DOPC  C21320971   3.166   4.701  14.711
  172DOPC  H13R20972   3.092   4.660  14.641
  172DOPC  H13S20973   3.113   4.779  14.767
  172DOPC  C21420974   3.206   4.582  14.799
  172DOPC  H14R20975   3.256   4.503  14.739
  172DOPC  H14S20976   3.113   4.537  14.840
  172DOPC  C21520977   3.297   4.621  14.915
  172DOPC  H15R20978   3.388   4.673  14.876
  172DOPC  H15S20979   3.330   4.529  14.968
  172DOPC  C21620980   3.222   4.710  15.013
  172DOPC  H16R20981   3.134   4.654  15.052
  172DOPC  H16S20982   3.187   4.801  14.960
  172DOPC  C21720983   3.306   4.760  15.128
  172DOPC  H17R20984   3.344   4.861  15.100
  172DOPC  H17S20985   3.390   4.689  15.145
  172DOPC  C21820986   3.227   4.776  15.255
  172DOPC  H18R20987   3.215   4.677  15.306
  172DOPC  H18S20988   3.129   4.817  15.226
  172DOPC  H18T20989   3.274   4.847  15.326
  172DOPC   C3320990   2.956   4.890  13.725
  172DOPC   H3X20991   3.013   4.877  13.819
  172DOPC   H3Y20992   2.974   4.799  13.663
  172DOPC   C3420993   2.806   4.899  13.749
  172DOPC   H4X20994   2.749   4.869  13.658
  172DOPC   H4Y20995   2.780   5.004  13.772
  172DOPC   C3520996   2.762   4.817  13.868
  172DOPC   H5X20997   2.794   4.711  13.855
  172DOPC   H5Y20998   2.651   4.825  13.875
  172DOPC   C3620999   2.812   4.871  14.000
  172DOPC   H6X21000   2.921   4.885  13.992
  172DOPC   H6Y21001   2.776   4.974  14.015
  172DOPC   C3721002   2.774   4.775  14.113
  172DOPC   H7X21003   2.750   4.825  14.209
  172DOPC   H7Y21004   2.684   4.716  14.085
  172DOPC   C3821005   2.894   4.685  14.132
  172DOPC   H8X21006   2.919   4.647  14.031
  172DOPC   H8Y21007   2.872   4.592  14.189
  172DOPC   C3921008   3.004   4.770  14.191
  172DOPC   H9X21009   3.071   4.822  14.120
  172DOPC  C31021010   3.027   4.780  14.321
  172DOPC  H10X21011   3.115   4.835  14.357
  172DOPC  C31121012   2.946   4.704  14.420
  172DOPC  H11X21013   3.014   4.632  14.468
  172DOPC  H11Y21014   2.867   4.640  14.377
  172DOPC  C31221015   2.878   4.793  14.523
  172DOPC  H12X21016   2.796   4.851  14.476
  172DOPC  H12Y21017   2.952   4.864  14.566
  172DOPC  C31321018   2.823   4.700  14.630
  172DOPC  H13X21019   2.736   4.646  14.586
  172DOPC  H13Y21020   2.897   4.620  14.654
  172DOPC  C31421021   2.780   4.765  14.761
  172DOPC  H14X21022   2.676   4.800  14.742
  172DOPC  H14Y21023   2.778   4.684  14.838
  172DOPC  C31521024   2.854   4.884  14.822
  172DOPC  H15X21025   2.775   4.951  14.861
  172DOPC  H15Y21026   2.912   4.942  14.748
  172DOPC  C31621027   2.937   4.849  14.945
  172DOPC  H16X21028   2.972   4.744  14.934
  172DOPC  H16Y21029   3.025   4.916  14.949
  172DOPC  C31721030   2.861   4.863  15.078
  172DOPC  H17X21031   2.773   4.794  15.077
  172DOPC  H17Y21032   2.929   4.827  15.158
  172DOPC  C31821033   2.816   5.004  15.116
  172DOPC  H18X21034   2.776   5.005  15.220
  172DOPC  H18Y21035   2.900   5.076  15.110
  172DOPC  H18Z21036   2.735   5.038  15.048
  173DOPC     N21037   2.077   3.006  12.880
  173DOPC   C1221038   2.189   2.961  12.973
  173DOPC  H12A21039   2.286   2.988  12.931
  173DOPC  H12B21040   2.191   2.853  12.976
  173DOPC   C1321041   2.107   2.958  12.741
  173DOPC  H13A21042   2.030   2.991  12.672
  173DOPC  H13B21043   2.203   2.995  12.707
  173DOPC  H13C21044   2.113   2.850  12.737
  173DOPC   C1421045   2.073   3.156  12.877
  173DOPC  H14A21046   2.065   3.192  12.980
  173DOPC  H14B21047   2.168   3.196  12.843
  173DOPC  H14C21048   1.993   3.195  12.817
  173DOPC   C1521049   1.945   2.955  12.929
  173DOPC  H15A21050   1.934   2.975  13.035
  173DOPC  H15B21051   1.939   2.847  12.916
  173DOPC  H15C21052   1.859   2.998  12.878
  173DOPC   C1121053   2.188   3.016  13.118
  173DOPC  H11A21054   2.092   2.986  13.166
  173DOPC  H11B21055   2.271   2.968  13.174
  173DOPC     P21056   2.196   3.238  13.256
  173DOPC   O1321057   2.183   3.384  13.224
  173DOPC   O1421058   2.303   3.193  13.347
  173DOPC   O1221059   2.207   3.158  13.119
  173DOPC   O1121060   2.053   3.190  13.309
  173DOPC    C121061   1.934   3.227  13.238
  173DOPC    HA21062   1.898   3.141  13.177
  173DOPC    HB21063   1.953   3.312  13.168
  173DOPC    C221064   1.813   3.275  13.327
  173DOPC    HS21065   1.737   3.317  13.259
  173DOPC   O2121066   1.859   3.374  13.419
  173DOPC   C2121067   1.779   3.469  13.462
  173DOPC   O2221068   1.678   3.508  13.407
  173DOPC   C2221069   1.855   3.545  13.573
  173DOPC   H2R21070   1.818   3.503  13.669
  173DOPC   H2S21071   1.826   3.651  13.569
  173DOPC    C321072   1.744   3.159  13.406
  173DOPC    HX21073   1.708   3.086  13.331
  173DOPC    HY21074   1.652   3.199  13.457
  173DOPC   O3121075   1.831   3.090  13.499
  173DOPC   C3121076   1.838   3.145  13.619
  173DOPC   O3221077   1.785   3.249  13.653
  173DOPC   C3221078   1.906   3.048  13.715
  173DOPC   H2X21079   1.905   2.946  13.671
  173DOPC   H2Y21080   2.012   3.081  13.727
  173DOPC   C2321081   2.010   3.531  13.572
  173DOPC   H3R21082   2.058   3.626  13.541
  173DOPC   H3S21083   2.050   3.452  13.504
  173DOPC   C2421084   2.060   3.493  13.711
  173DOPC   H4R21085   2.022   3.391  13.736
  173DOPC   H4S21086   2.017   3.564  13.784
  173DOPC   C2521087   2.213   3.491  13.723
  173DOPC   H5R21088   2.249   3.595  13.716
  173DOPC   H5S21089   2.256   3.434  13.637
  173DOPC   C2621090   2.260   3.424  13.854
  173DOPC   H6R21091   2.371   3.424  13.860
  173DOPC   H6S21092   2.228   3.318  13.845
  173DOPC   C2721093   2.199   3.487  13.980
  173DOPC   H7R21094   2.090   3.504  13.967
  173DOPC   H7S21095   2.245   3.585  14.000
  173DOPC   C2821096   2.213   3.406  14.108
  173DOPC   H8R21097   2.170   3.460  14.192
  173DOPC   H8S21098   2.320   3.394  14.131
  173DOPC   C2921099   2.137   3.280  14.084
  173DOPC   H9R21100   2.192   3.195  14.041
  173DOPC  C21021101   2.009   3.261  14.112
  173DOPC  H10R21102   1.969   3.164  14.090
  173DOPC  C21121103   1.904   3.349  14.173
  173DOPC  H11R21104   1.810   3.333  14.117
  173DOPC  H11S21105   1.928   3.457  14.168
  173DOPC  C21221106   1.886   3.297  14.318
  173DOPC  H12R21107   1.783   3.323  14.352
  173DOPC  H12S21108   1.958   3.348  14.387
  173DOPC  C21321109   1.908   3.145  14.333
  173DOPC  H13R21110   2.016   3.120  14.337
  173DOPC  H13S21111   1.863   3.094  14.245
  173DOPC  C21421112   1.835   3.081  14.450
  173DOPC  H14R21113   1.730   3.115  14.440
  173DOPC  H14S21114   1.878   3.117  14.545
  173DOPC  C21521115   1.837   2.927  14.440
  173DOPC  H15R21116   1.942   2.894  14.450
  173DOPC  H15S21117   1.801   2.898  14.339
  173DOPC  C21621118   1.750   2.854  14.543
  173DOPC  H16R21119   1.778   2.746  14.544
  173DOPC  H16S21120   1.644   2.859  14.512
  173DOPC  C21721121   1.768   2.910  14.683
  173DOPC  H17R21122   1.700   2.858  14.754
  173DOPC  H17S21123   1.744   3.017  14.691
  173DOPC  C21821124   1.912   2.902  14.728
  173DOPC  H18R21125   1.970   2.985  14.683
  173DOPC  H18S21126   1.960   2.807  14.698
  173DOPC  H18T21127   1.912   2.911  14.838
  173DOPC   C3321128   1.832   3.051  13.850
  173DOPC   H3X21129   1.730   3.008  13.841
  173DOPC   H3Y21130   1.821   3.157  13.883
  173DOPC   C3421131   1.910   2.980  13.961
  173DOPC   H4X21132   1.862   3.004  14.058
  173DOPC   H4Y21133   2.014   3.020  13.959
  173DOPC   C3521134   1.919   2.829  13.952
  173DOPC   H5X21135   1.948   2.804  13.849
  173DOPC   H5Y21136   1.820   2.782  13.973
  173DOPC   C3621137   2.026   2.771  14.046
  173DOPC   H6X21138   2.027   2.663  14.022
  173DOPC   H6Y21139   2.127   2.813  14.023
  173DOPC   C3721140   2.002   2.782  14.197
  173DOPC   H7X21141   2.030   2.884  14.233
  173DOPC   H7Y21142   1.893   2.766  14.214
  173DOPC   C3821143   2.081   2.674  14.275
  173DOPC   H8X21144   2.187   2.682  14.243
  173DOPC   H8Y21145   2.043   2.577  14.235
  173DOPC   C3921146   2.074   2.666  14.425
  173DOPC   H9X21147   1.991   2.607  14.465
  173DOPC  C31021148   2.158   2.725  14.513
  173DOPC  H10X21149   2.142   2.708  14.620
  173DOPC  C31121150   2.277   2.813  14.481
  173DOPC  H11X21151   2.303   2.809  14.373
  173DOPC  H11Y21152   2.367   2.778  14.537
  173DOPC  C31221153   2.251   2.961  14.518
  173DOPC  H12X21154   2.155   2.995  14.473
  173DOPC  H12Y21155   2.332   3.023  14.473
  173DOPC  C31321156   2.251   2.986  14.670
  173DOPC  H13X21157   2.180   2.917  14.720
  173DOPC  H13Y21158   2.352   2.961  14.708
  173DOPC  C31421159   2.217   3.130  14.714
  173DOPC  H14X21160   2.256   3.203  14.640
  173DOPC  H14Y21161   2.107   3.144  14.715
  173DOPC  C31521162   2.276   3.166  14.853
  173DOPC  H15X21163   2.246   3.269  14.880
  173DOPC  H15Y21164   2.386   3.167  14.851
  173DOPC  C31621165   2.241   3.067  14.965
  173DOPC  H16X21166   2.278   2.965  14.940
  173DOPC  H16Y21167   2.290   3.099  15.060
  173DOPC  C31721168   2.092   3.063  14.984
  173DOPC  H17X21169   2.049   3.030  14.889
  173DOPC  H17Y21170   2.061   2.989  15.059
  173DOPC  C31821171   2.033   3.198  15.014
  173DOPC  H18X21172   2.073   3.243  15.107
  173DOPC  H18Y21173   2.044   3.269  14.930
  173DOPC  H18Z21174   1.925   3.177  15.021
  174DOPC     N21175   4.884   2.455  13.025
  174DOPC   C1221176   4.951   2.347  12.940
  174DOPC  H12A21177   5.051   2.382  12.917
  174DOPC  H12B21178   4.900   2.336  12.844
  174DOPC   C1321179   4.836   2.565  12.936
  174DOPC  H13A21180   4.809   2.653  12.992
  174DOPC  H13B21181   4.916   2.595  12.867
  174DOPC  H13C21182   4.754   2.532  12.874
  174DOPC   C1421183   4.990   2.506  13.119
  174DOPC  H14A21184   5.046   2.420  13.157
  174DOPC  H14B21185   5.065   2.566  13.068
  174DOPC  H14C21186   4.953   2.560  13.204
  174DOPC   C1521187   4.770   2.396  13.101
  174DOPC  H15A21188   4.805   2.309  13.157
  174DOPC  H15B21189   4.691   2.362  13.036
  174DOPC  H15C21190   4.729   2.469  13.169
  174DOPC   C1121191   4.965   2.205  13.000
  174DOPC  H11A21192   4.865   2.160  13.016
  174DOPC  H11B21193   5.016   2.138  12.926
  174DOPC     P21194   5.189   2.191  13.131
  174DOPC   O1321195   5.246   2.321  13.091
  174DOPC   O1421196   5.231   2.076  13.049
  174DOPC   O1221197   5.032   2.207  13.126
  174DOPC   O1121198   5.220   2.168  13.284
  174DOPC    C121199   5.113   2.157  13.379
  174DOPC    HA21200   5.152   2.112  13.473
  174DOPC    HB21201   5.033   2.089  13.341
  174DOPC    C221202   5.049   2.295  13.415
  174DOPC    HS21203   5.036   2.351  13.320
  174DOPC   O2121204   5.135   2.367  13.505
  174DOPC   C2121205   5.105   2.495  13.514
  174DOPC   O2221206   5.022   2.553  13.444
  174DOPC   C2221207   5.185   2.560  13.626
  174DOPC   H2R21208   5.258   2.629  13.580
  174DOPC   H2S21209   5.241   2.481  13.681
  174DOPC    C321210   4.908   2.274  13.477
  174DOPC    HX21211   4.845   2.229  13.397
  174DOPC    HY21212   4.862   2.371  13.506
  174DOPC   O3121213   4.920   2.189  13.591
  174DOPC   C3121214   4.807   2.131  13.627
  174DOPC   O3221215   4.699   2.147  13.573
  174DOPC   C3221216   4.831   2.038  13.745
  174DOPC   H2X21217   4.749   2.053  13.818
  174DOPC   H2Y21218   4.822   1.935  13.706
  174DOPC   C2321219   5.090   2.635  13.722
  174DOPC   H3R21220   5.049   2.725  13.672
  174DOPC   H3S21221   5.150   2.670  13.809
  174DOPC   C2421222   4.974   2.547  13.771
  174DOPC   H4R21223   4.998   2.438  13.762
  174DOPC   H4S21224   4.887   2.566  13.704
  174DOPC   C2521225   4.932   2.576  13.915
  174DOPC   H5R21226   4.826   2.544  13.928
  174DOPC   H5S21227   4.937   2.686  13.931
  174DOPC   C2621228   5.016   2.504  14.022
  174DOPC   H6R21229   5.124   2.512  13.998
  174DOPC   H6S21230   4.989   2.396  14.023
  174DOPC   C2721231   4.987   2.566  14.159
  174DOPC   H7R21232   4.877   2.558  14.178
  174DOPC   H7S21233   5.012   2.675  14.150
  174DOPC   C2821234   5.061   2.511  14.283
  174DOPC   H8R21235   5.059   2.591  14.361
  174DOPC   H8S21236   5.168   2.497  14.257
  174DOPC   C2921237   5.000   2.384  14.336
  174DOPC   H9R21238   5.028   2.294  14.279
  174DOPC  C21021239   4.916   2.368  14.441
  174DOPC  H10R21240   4.879   2.266  14.460
  174DOPC  C21121241   4.860   2.470  14.536
  174DOPC  H11R21242   4.752   2.489  14.514
  174DOPC  H11S21243   4.910   2.569  14.524
  174DOPC  C21221244   4.874   2.431  14.685
  174DOPC  H12R21245   4.813   2.501  14.746
  174DOPC  H12S21246   4.981   2.445  14.712
  174DOPC  C21321247   4.838   2.288  14.731
  174DOPC  H13R21248   4.883   2.276  14.832
  174DOPC  H13S21249   4.884   2.209  14.668
  174DOPC  C21421250   4.689   2.261  14.751
  174DOPC  H14R21251   4.632   2.260  14.656
  174DOPC  H14S21252   4.648   2.345  14.813
  174DOPC  C21521253   4.666   2.129  14.826
  174DOPC  H15R21254   4.586   2.149  14.899
  174DOPC  H15S21255   4.758   2.103  14.882
  174DOPC  C21621256   4.620   2.013  14.736
  174DOPC  H16R21257   4.687   2.006  14.648
  174DOPC  H16S21258   4.518   2.040  14.699
  174DOPC  C21721259   4.614   1.875  14.804
  174DOPC  H17R21260   4.561   1.803  14.738
  174DOPC  H17S21261   4.555   1.883  14.897
  174DOPC  C21821262   4.745   1.806  14.832
  174DOPC  H18R21263   4.729   1.719  14.899
  174DOPC  H18S21264   4.811   1.875  14.884
  174DOPC  H18T21265   4.794   1.773  14.738
  174DOPC   C3321266   4.967   2.054  13.816
  174DOPC   H3X21267   4.987   2.161  13.841
  174DOPC   H3Y21268   5.048   2.020  13.747
  174DOPC   C3421269   4.971   1.975  13.946
  174DOPC   H4X21270   4.919   1.878  13.933
  174DOPC   H4Y21271   4.915   2.032  14.023
  174DOPC   C3521272   5.116   1.962  13.994
  174DOPC   H5X21273   5.185   1.972  13.906
  174DOPC   H5Y21274   5.137   1.863  14.039
  174DOPC   C3621275   5.145   2.074  14.095
  174DOPC   H6X21276   5.109   2.171  14.053
  174DOPC   H6Y21277   5.087   2.054  14.187
  174DOPC   C3721278   5.293   2.091  14.129
  174DOPC   H7X21279   5.334   1.993  14.162
  174DOPC   H7Y21280   5.347   2.123  14.038
  174DOPC   C3821281   5.315   2.194  14.242
  174DOPC   H8X21282   5.264   2.158  14.334
  174DOPC   H8Y21283   5.269   2.292  14.218
  174DOPC   C3921284   5.464   2.207  14.258
  174DOPC   H9X21285   5.513   2.274  14.186
  174DOPC  C31021286   5.537   2.149  14.355
  174DOPC  H10X21287   5.646   2.167  14.361
  174DOPC  C31121288   5.477   2.064  14.463
  174DOPC  H11X21289   5.552   1.997  14.511
  174DOPC  H11Y21290   5.398   1.998  14.421
  174DOPC  C31221291   5.415   2.158  14.567
  174DOPC  H12X21292   5.354   2.236  14.515
  174DOPC  H12Y21293   5.493   2.212  14.624
  174DOPC  C31321294   5.317   2.088  14.661
  174DOPC  H13X21295   5.261   2.010  14.607
  174DOPC  H13Y21296   5.373   2.038  14.743
  174DOPC  C31421297   5.217   2.191  14.713
  174DOPC  H14X21298   5.172   2.250  14.630
  174DOPC  H14Y21299   5.130   2.139  14.757
  174DOPC  C31521300   5.281   2.288  14.811
  174DOPC  H15X21301   5.193   2.323  14.869
  174DOPC  H15Y21302   5.327   2.375  14.760
  174DOPC  C31621303   5.382   2.230  14.911
  174DOPC  H16X21304   5.362   2.122  14.928
  174DOPC  H16Y21305   5.487   2.239  14.874
  174DOPC  C31721306   5.364   2.307  15.041
  174DOPC  H17X21307   5.384   2.414  15.025
  174DOPC  H17Y21308   5.256   2.299  15.068
  174DOPC  C31821309   5.443   2.253  15.159
  174DOPC  H18X21310   5.553   2.260  15.147
  174DOPC  H18Y21311   5.411   2.301  15.253
  174DOPC  H18Z21312   5.418   2.147  15.169
  175DOPC     N21313   3.161   5.684  13.052
  175DOPC   C1221314   3.136   5.833  13.031
  175DOPC  H12A21315   3.069   5.848  12.946
  175DOPC  H12B21316   3.229   5.880  13.004
  175DOPC   C1321317   3.257   5.638  12.946
  175DOPC  H13A21318   3.206   5.630  12.850
  175DOPC  H13B21319   3.339   5.707  12.935
  175DOPC  H13C21320   3.296   5.539  12.968
  175DOPC   C1421321   3.032   5.610  13.035
  175DOPC  H14A21322   3.045   5.503  13.044
  175DOPC  H14B21323   2.957   5.645  13.106
  175DOPC  H14C21324   2.991   5.627  12.935
  175DOPC   C1521325   3.215   5.653  13.189
  175DOPC  H15A21326   3.313   5.697  13.205
  175DOPC  H15B21327   3.226   5.547  13.205
  175DOPC  H15C21328   3.146   5.692  13.263
  175DOPC   C1121329   3.071   5.913  13.146
  175DOPC  H11A21330   3.126   5.898  13.242
  175DOPC  H11B21331   3.076   6.022  13.124
  175DOPC     P21332   2.815   5.952  13.101
  175DOPC   O1321333   2.824   5.958  12.954
  175DOPC   O1421334   2.809   6.083  13.169
  175DOPC   O1221335   2.937   5.869  13.162
  175DOPC   O1121336   2.691   5.865  13.144
  175DOPC    C121337   2.695   5.749  13.227
  175DOPC    HA21338   2.780   5.681  13.203
  175DOPC    HB21339   2.602   5.692  13.205
  175DOPC    C221340   2.692   5.780  13.380
  175DOPC    HS21341   2.615   5.858  13.397
  175DOPC   O2121342   2.823   5.822  13.424
  175DOPC   C2121343   2.829   5.873  13.545
  175DOPC   O2221344   2.737   5.886  13.623
  175DOPC   C2221345   2.975   5.912  13.571
  175DOPC   H2R21346   2.998   6.001  13.510
  175DOPC   H2S21347   3.038   5.827  13.536
  175DOPC    C321348   2.649   5.650  13.453
  175DOPC    HX21349   2.545   5.628  13.419
  175DOPC    HY21350   2.642   5.666  13.563
  175DOPC   O3121351   2.737   5.541  13.414
  175DOPC   C3121352   2.829   5.506  13.504
  175DOPC   O3221353   2.835   5.547  13.618
  175DOPC   C3221354   2.928   5.410  13.440
  175DOPC   H2X21355   2.875   5.353  13.362
  175DOPC   H2Y21356   3.005   5.469  13.389
  175DOPC   C2321357   3.007   5.938  13.720
  175DOPC   H3R21358   3.113   5.908  13.736
  175DOPC   H3S21359   2.946   5.873  13.787
  175DOPC   C2421360   2.996   6.086  13.759
  175DOPC   H4R21361   2.891   6.120  13.746
  175DOPC   H4S21362   3.060   6.145  13.689
  175DOPC   C2521363   3.046   6.111  13.902
  175DOPC   H5R21364   3.059   6.220  13.919
  175DOPC   H5S21365   3.144   6.061  13.910
  175DOPC   C2621366   2.958   6.053  14.013
  175DOPC   H6R21367   3.013   6.054  14.110
  175DOPC   H6S21368   2.935   5.947  13.991
  175DOPC   C2721369   2.829   6.133  14.030
  175DOPC   H7R21370   2.821   6.202  13.944
  175DOPC   H7S21371   2.834   6.195  14.122
  175DOPC   C2821372   2.704   6.044  14.029
  175DOPC   H8R21373   2.712   5.979  13.939
  175DOPC   H8S21374   2.613   6.104  14.014
  175DOPC   C2921375   2.688   5.969  14.157
  175DOPC   H9R21376   2.682   6.030  14.249
  175DOPC  C21021377   2.684   5.835  14.168
  175DOPC  H10R21378   2.675   5.790  14.267
  175DOPC  C21121379   2.694   5.736  14.055
  175DOPC  H11R21380   2.689   5.783  13.954
  175DOPC  H11S21381   2.607   5.667  14.056
  175DOPC  C21221382   2.828   5.662  14.068
  175DOPC  H12R21383   2.911   5.736  14.056
  175DOPC  H12S21384   2.837   5.590  13.983
  175DOPC  C21321385   2.844   5.587  14.202
  175DOPC  H13R21386   2.839   5.659  14.286
  175DOPC  H13S21387   2.945   5.540  14.205
  175DOPC  C21421388   2.733   5.482  14.220
  175DOPC  H14R21389   2.752   5.405  14.141
  175DOPC  H14S21390   2.634   5.527  14.200
  175DOPC  C21521391   2.724   5.415  14.357
  175DOPC  H15R21392   2.820   5.363  14.375
  175DOPC  H15S21393   2.645   5.338  14.349
  175DOPC  C21621394   2.679   5.503  14.475
  175DOPC  H16R21395   2.574   5.475  14.499
  175DOPC  H16S21396   2.679   5.610  14.445
  175DOPC  C21721397   2.761   5.493  14.605
  175DOPC  H17R21398   2.689   5.495  14.690
  175DOPC  H17S21399   2.823   5.585  14.613
  175DOPC  C21821400   2.854   5.371  14.623
  175DOPC  H18R21401   2.953   5.392  14.579
  175DOPC  H18S21402   2.812   5.280  14.575
  175DOPC  H18T21403   2.868   5.348  14.731
  175DOPC   C3321404   2.985   5.312  13.544
  175DOPC   H3X21405   3.026   5.225  13.488
  175DOPC   H3Y21406   2.906   5.274  13.612
  175DOPC   C3421407   3.095   5.367  13.634
  175DOPC   H4X21408   3.130   5.288  13.705
  175DOPC   H4Y21409   3.052   5.448  13.697
  175DOPC   C3521410   3.215   5.418  13.555
  175DOPC   H5X21411   3.185   5.486  13.473
  175DOPC   H5Y21412   3.269   5.331  13.510
  175DOPC   C3621413   3.308   5.496  13.644
  175DOPC   H6X21414   3.329   5.439  13.738
  175DOPC   H6Y21415   3.406   5.510  13.592
  175DOPC   C3721416   3.253   5.634  13.680
  175DOPC   H7X21417   3.233   5.693  13.587
  175DOPC   H7Y21418   3.158   5.628  13.738
  175DOPC   C3821419   3.360   5.699  13.765
  175DOPC   H8X21420   3.455   5.677  13.714
  175DOPC   H8Y21421   3.361   5.642  13.860
  175DOPC   C3921422   3.354   5.846  13.785
  175DOPC   H9X21423   3.352   5.908  13.694
  175DOPC  C31021424   3.360   5.905  13.905
  175DOPC  H10X21425   3.348   6.012  13.905
  175DOPC  C31121426   3.374   5.842  14.041
  175DOPC  H11X21427   3.470   5.874  14.088
  175DOPC  H11Y21428   3.373   5.731  14.039
  175DOPC  C31221429   3.259   5.889  14.131
  175DOPC  H12X21430   3.161   5.868  14.082
  175DOPC  H12Y21431   3.267   6.000  14.145
  175DOPC  C31321432   3.263   5.821  14.267
  175DOPC  H13X21433   3.240   5.712  14.256
  175DOPC  H13Y21434   3.367   5.829  14.306
  175DOPC  C31421435   3.169   5.886  14.369
  175DOPC  H14X21436   3.210   5.862  14.470
  175DOPC  H14Y21437   3.169   5.996  14.355
  175DOPC  C31521438   3.025   5.835  14.365
  175DOPC  H15X21439   3.028   5.724  14.365
  175DOPC  H15Y21440   2.977   5.867  14.269
  175DOPC  C31621441   2.940   5.883  14.483
  175DOPC  H16X21442   2.935   5.994  14.484
  175DOPC  H16Y21443   2.836   5.845  14.469
  175DOPC  C31721444   2.990   5.834  14.620
  175DOPC  H17X21445   3.009   5.724  14.615
  175DOPC  H17Y21446   3.087   5.883  14.645
  175DOPC  C31821447   2.890   5.862  14.732
  175DOPC  H18X21448   2.931   5.832  14.830
  175DOPC  H18Y21449   2.867   5.971  14.736
  175DOPC  H18Z21450   2.795   5.807  14.716
  176DOPC     N21451   2.979   1.842  13.024
  176DOPC   C1221452   2.933   1.774  13.152
  176DOPC  H12A21453   2.824   1.775  13.155
  176DOPC  H12B21454   2.969   1.833  13.236
  176DOPC   C1321455   3.111   1.787  12.978
  176DOPC  H13A21456   3.100   1.682  12.952
  176DOPC  H13B21457   3.151   1.841  12.893
  176DOPC  H13C21458   3.185   1.797  13.056
  176DOPC   C1421459   3.001   1.988  13.054
  176DOPC  H14A21460   2.913   2.038  13.093
  176DOPC  H14B21461   3.078   2.000  13.130
  176DOPC  H14C21462   3.039   2.044  12.969
  176DOPC   C1521463   2.878   1.816  12.916
  176DOPC  H15A21464   2.916   1.841  12.819
  176DOPC  H15B21465   2.782   1.863  12.937
  176DOPC  H15C21466   2.853   1.709  12.914
  176DOPC   C1121467   2.977   1.628  13.177
  176DOPC  H11A21468   3.088   1.621  13.181
  176DOPC  H11B21469   2.942   1.597  13.278
  176DOPC     P21470   2.778   1.495  13.076
  176DOPC   O1321471   2.772   1.366  13.004
  176DOPC   O1421472   2.692   1.607  13.031
  176DOPC   O1221473   2.930   1.541  13.074
  176DOPC   O1121474   2.751   1.466  13.232
  176DOPC    C121475   2.642   1.385  13.277
  176DOPC    HA21476   2.678   1.280  13.286
  176DOPC    HB21477   2.558   1.382  13.203
  176DOPC    C221478   2.578   1.425  13.416
  176DOPC    HS21479   2.473   1.454  13.397
  176DOPC   O2121480   2.646   1.531  13.486
  176DOPC   C2121481   2.647   1.651  13.434
  176DOPC   O2221482   2.596   1.685  13.329
  176DOPC   C2221483   2.711   1.752  13.531
  176DOPC   H2R21484   2.688   1.851  13.485
  176DOPC   H2S21485   2.820   1.741  13.531
  176DOPC    C321486   2.575   1.304  13.514
  176DOPC    HX21487   2.520   1.220  13.468
  176DOPC    HY21488   2.520   1.331  13.607
  176DOPC   O3121489   2.711   1.263  13.538
  176DOPC   C3121490   2.766   1.320  13.646
  176DOPC   O3221491   2.713   1.328  13.755
  176DOPC   C3221492   2.911   1.358  13.609
  176DOPC   H2X21493   2.964   1.345  13.705
  176DOPC   H2Y21494   2.947   1.287  13.532
  176DOPC   C2321495   2.648   1.754  13.673
  176DOPC   H3R21496   2.539   1.736  13.666
  176DOPC   H3S21497   2.662   1.856  13.717
  176DOPC   C2421498   2.705   1.653  13.773
  176DOPC   H4R21499   2.811   1.674  13.796
  176DOPC   H4S21500   2.697   1.553  13.727
  176DOPC   C2521501   2.625   1.653  13.902
  176DOPC   H5R21502   2.526   1.606  13.885
  176DOPC   H5S21503   2.611   1.761  13.928
  176DOPC   C2621504   2.692   1.588  14.023
  176DOPC   H6R21505   2.682   1.664  14.105
  176DOPC   H6S21506   2.800   1.573  14.003
  176DOPC   C2721507   2.627   1.456  14.069
  176DOPC   H7R21508   2.650   1.377  13.994
  176DOPC   H7S21509   2.517   1.469  14.071
  176DOPC   C2821510   2.671   1.409  14.209
  176DOPC   H8R21511   2.778   1.376  14.206
  176DOPC   H8S21512   2.612   1.318  14.235
  176DOPC   C2921513   2.653   1.519  14.311
  176DOPC   H9R21514   2.726   1.600  14.300
  176DOPC  C21021515   2.557   1.535  14.402
  176DOPC  H10R21516   2.559   1.623  14.468
  176DOPC  C21121517   2.441   1.443  14.424
  176DOPC  H11R21518   2.410   1.395  14.330
  176DOPC  H11S21519   2.354   1.501  14.460
  176DOPC  C21221520   2.468   1.339  14.532
  176DOPC  H12R21521   2.377   1.279  14.549
  176DOPC  H12S21522   2.488   1.397  14.624
  176DOPC  C21321523   2.580   1.237  14.506
  176DOPC  H13R21524   2.678   1.289  14.495
  176DOPC  H13S21525   2.564   1.178  14.413
  176DOPC  C21421526   2.587   1.141  14.625
  176DOPC  H14R21527   2.677   1.079  14.606
  176DOPC  H14S21528   2.500   1.073  14.626
  176DOPC  C21521529   2.596   1.216  14.760
  176DOPC  H15R21530   2.606   1.145  14.843
  176DOPC  H15S21531   2.501   1.269  14.780
  176DOPC  C21621532   2.717   1.311  14.756
  176DOPC  H16R21533   2.694   1.401  14.694
  176DOPC  H16S21534   2.795   1.255  14.702
  176DOPC  C21721535   2.776   1.359  14.890
  176DOPC  H17R21536   2.715   1.446  14.918
  176DOPC  H17S21537   2.878   1.399  14.870
  176DOPC  C21821538   2.781   1.259  15.007
  176DOPC  H18R21539   2.687   1.202  15.013
  176DOPC  H18S21540   2.792   1.314  15.102
  176DOPC  H18T21541   2.864   1.187  15.006
  176DOPC   C3321542   2.948   1.501  13.565
  176DOPC   H3X21543   2.898   1.567  13.638
  176DOPC   H3Y21544   2.907   1.523  13.464
  176DOPC   C3421545   3.100   1.525  13.572
  176DOPC   H4X21546   3.154   1.460  13.500
  176DOPC   H4Y21547   3.133   1.494  13.674
  176DOPC   C3521548   3.143   1.671  13.556
  176DOPC   H5X21549   3.111   1.713  13.458
  176DOPC   H5Y21550   3.255   1.679  13.562
  176DOPC   C3621551   3.086   1.753  13.670
  176DOPC   H6X21552   2.977   1.738  13.681
  176DOPC   H6Y21553   3.133   1.716  13.764
  176DOPC   C3721554   3.102   1.903  13.658
  176DOPC   H7X21555   3.207   1.933  13.637
  176DOPC   H7Y21556   3.038   1.941  13.576
  176DOPC   C3821557   3.054   1.962  13.790
  176DOPC   H8X21558   2.949   1.930  13.811
  176DOPC   H8Y21559   3.048   2.069  13.774
  176DOPC   C3921560   3.148   1.931  13.903
  176DOPC   H9X21561   3.252   1.963  13.887
  176DOPC  C31021562   3.117   1.869  14.018
  176DOPC  H10X21563   3.197   1.860  14.094
  176DOPC  C31121564   2.983   1.817  14.061
  176DOPC  H11X21565   2.918   1.793  13.974
  176DOPC  H11Y21566   2.929   1.895  14.119
  176DOPC  C31221567   2.995   1.689  14.146
  176DOPC  H12X21568   3.019   1.604  14.078
  176DOPC  H12Y21569   2.894   1.668  14.189
  176DOPC  C31321570   3.097   1.691  14.261
  176DOPC  H13X21571   3.199   1.694  14.218
  176DOPC  H13Y21572   3.083   1.781  14.325
  176DOPC  C31421573   3.087   1.564  14.347
  176DOPC  H14X21574   3.067   1.480  14.277
  176DOPC  H14Y21575   3.185   1.545  14.397
  176DOPC  C31521576   2.977   1.570  14.454
  176DOPC  H15X21577   2.964   1.470  14.501
  176DOPC  H15Y21578   2.882   1.596  14.405
  176DOPC  C31621579   3.003   1.675  14.562
  176DOPC  H16X21580   3.111   1.699  14.561
  176DOPC  H16Y21581   2.946   1.767  14.534
  176DOPC  C31721582   2.965   1.632  14.703
  176DOPC  H17X21583   2.943   1.723  14.763
  176DOPC  H17Y21584   2.871   1.571  14.700
  176DOPC  C31821585   3.078   1.556  14.773
  176DOPC  H18X21586   3.107   1.466  14.715
  176DOPC  H18Y21587   3.168   1.620  14.782
  176DOPC  H18Z21588   3.048   1.524  14.875
  177DOPC     N21589   4.891   5.978  12.885
  177DOPC   C1221590   4.952   5.917  13.010
  177DOPC  H12A21591   5.036   5.855  12.984
  177DOPC  H12B21592   4.877   5.852  13.057
  177DOPC   C1321593   4.758   6.034  12.925
  177DOPC  H13A21594   4.770   6.092  13.017
  177DOPC  H13B21595   4.709   6.096  12.851
  177DOPC  H13C21596   4.691   5.953  12.958
  177DOPC   C1421597   4.874   5.873  12.779
  177DOPC  H14A21598   4.963   5.814  12.765
  177DOPC  H14B21599   4.794   5.804  12.807
  177DOPC  H14C21600   4.846   5.916  12.684
  177DOPC   C1521601   4.982   6.088  12.838
  177DOPC  H15A21602   5.075   6.044  12.801
  177DOPC  H15B21603   5.008   6.153  12.921
  177DOPC  H15C21604   4.940   6.143  12.755
  177DOPC   C1121605   4.998   6.015  13.121
  177DOPC  H11A21606   5.062   5.962  13.195
  177DOPC  H11B21607   5.064   6.095  13.081
  177DOPC     P21608   4.788   5.982  13.270
  177DOPC   O1321609   4.688   5.926  13.178
  177DOPC   O1421610   4.739   6.057  13.387
  177DOPC   O1221611   4.885   6.075  13.183
  177DOPC   O1121612   4.882   5.861  13.314
  177DOPC    C121613   4.825   5.733  13.343
  177DOPC    HA21614   4.858   5.660  13.266
  177DOPC    HB21615   4.714   5.733  13.342
  177DOPC    C221616   4.872   5.682  13.482
  177DOPC    HS21617   4.826   5.583  13.504
  177DOPC   O2121618   4.836   5.776  13.585
  177DOPC   C2121619   4.707   5.781  13.613
  177DOPC   O2221620   4.621   5.707  13.568
  177DOPC   C2221621   4.683   5.887  13.721
  177DOPC   H2R21622   4.587   5.862  13.772
  177DOPC   H2S21623   4.671   5.983  13.668
  177DOPC    C321624   5.026   5.663  13.482
  177DOPC    HX21625   5.071   5.752  13.435
  177DOPC    HY21626   5.049   5.576  13.416
  177DOPC   O3121627   5.073   5.636  13.616
  177DOPC   C3121628   5.135   5.737  13.675
  177DOPC   O3221629   5.176   5.838  13.620
  177DOPC   C3221630   5.147   5.712  13.823
  177DOPC   H2X21631   5.046   5.714  13.868
  177DOPC   H2Y21632   5.190   5.611  13.838
  177DOPC   C2321633   4.798   5.897  13.824
  177DOPC   H3R21634   4.897   5.897  13.773
  177DOPC   H3S21635   4.795   5.809  13.892
  177DOPC   C2421636   4.793   6.027  13.904
  177DOPC   H4R21637   4.694   6.039  13.954
  177DOPC   H4S21638   4.806   6.112  13.833
  177DOPC   C2521639   4.905   6.031  14.008
  177DOPC   H5R21640   5.000   5.992  13.965
  177DOPC   H5S21641   4.876   5.961  14.090
  177DOPC   C2621642   4.931   6.172  14.062
  177DOPC   H6R21643   4.835   6.226  14.075
  177DOPC   H6S21644   4.989   6.229  13.986
  177DOPC   C2721645   5.007   6.170  14.196
  177DOPC   H7R21646   5.023   6.274  14.229
  177DOPC   H7S21647   5.107   6.124  14.177
  177DOPC   C2821648   4.940   6.089  14.309
  177DOPC   H8R21649   4.995   6.112  14.403
  177DOPC   H8S21650   4.956   5.981  14.290
  177DOPC   C2921651   4.793   6.119  14.318
  177DOPC   H9R21652   4.736   6.096  14.227
  177DOPC  C21021653   4.723   6.156  14.427
  177DOPC  H10R21654   4.615   6.172  14.417
  177DOPC  C21121655   4.776   6.177  14.566
  177DOPC  H11R21656   4.763   6.282  14.600
  177DOPC  H11S21657   4.885   6.153  14.575
  177DOPC  C21221658   4.697   6.083  14.655
  177DOPC  H12R21659   4.588   6.104  14.647
  177DOPC  H12S21660   4.725   6.105  14.760
  177DOPC  C21321661   4.723   5.934  14.625
  177DOPC  H13R21662   4.832   5.914  14.633
  177DOPC  H13S21663   4.692   5.911  14.520
  177DOPC  C21421664   4.643   5.844  14.720
  177DOPC  H14R21665   4.576   5.913  14.776
  177DOPC  H14S21666   4.711   5.802  14.796
  177DOPC  C21521667   4.552   5.741  14.651
  177DOPC  H15R21668   4.500   5.795  14.568
  177DOPC  H15S21669   4.473   5.711  14.722
  177DOPC  C21621670   4.614   5.612  14.590
  177DOPC  H16R21671   4.665   5.642  14.496
  177DOPC  H16S21672   4.533   5.540  14.564
  177DOPC  C21721673   4.718   5.540  14.676
  177DOPC  H17R21674   4.776   5.621  14.718
  177DOPC  H17S21675   4.787   5.477  14.617
  177DOPC  C21821676   4.669   5.466  14.798
  177DOPC  H18R21677   4.653   5.544  14.874
  177DOPC  H18S21678   4.743   5.397  14.842
  177DOPC  H18T21679   4.575   5.410  14.777
  177DOPC   C3321680   5.238   5.817  13.889
  177DOPC   H3X21681   5.189   5.917  13.887
  177DOPC   H3Y21682   5.334   5.827  13.833
  177DOPC   C3421683   5.267   5.775  14.032
  177DOPC   H4X21684   5.317   5.676  14.029
  177DOPC   H4Y21685   5.170   5.762  14.084
  177DOPC   C3521686   5.357   5.871  14.111
  177DOPC   H5X21687   5.311   5.972  14.117
  177DOPC   H5Y21688   5.454   5.881  14.057
  177DOPC   C3621689   5.383   5.817  14.251
  177DOPC   H6X21690   5.416   5.710  14.241
  177DOPC   H6Y21691   5.466   5.871  14.301
  177DOPC   C3721692   5.258   5.820  14.341
  177DOPC   H7X21693   5.256   5.915  14.398
  177DOPC   H7Y21694   5.166   5.823  14.280
  177DOPC   C3821695   5.249   5.696  14.432
  177DOPC   H8X21696   5.236   5.609  14.365
  177DOPC   H8Y21697   5.154   5.701  14.490
  177DOPC   C3921698   5.368   5.672  14.522
  177DOPC   H9X21699   5.404   5.568  14.519
  177DOPC  C31021700   5.432   5.757  14.604
  177DOPC  H10X21701   5.518   5.717  14.660
  177DOPC  C31121702   5.408   5.902  14.635
  177DOPC  H11X21703   5.329   5.949  14.572
  177DOPC  H11Y21704   5.501   5.960  14.618
  177DOPC  C31221705   5.363   5.924  14.780
  177DOPC  H12X21706   5.252   5.910  14.780
  177DOPC  H12Y21707   5.376   6.030  14.808
  177DOPC  C31321708   5.428   5.838  14.892
  177DOPC  H13X21709   5.501   5.763  14.857
  177DOPC  H13Y21710   5.492   5.913  14.943
  177DOPC  C31421711   5.315   5.795  14.990
  177DOPC  H14X21712   5.304   5.887  15.051
  177DOPC  H14Y21713   5.222   5.788  14.933
  177DOPC  C31521714   5.302   5.675  15.089
  177DOPC  H15X21715   5.213   5.695  15.149
  177DOPC  H15Y21716   5.370   5.686  15.172
  177DOPC  C31621717   5.315   5.526  15.049
  177DOPC  H16X21718   5.358   5.522  14.946
  177DOPC  H16Y21719   5.393   5.485  15.117
  177DOPC  C31721720   5.202   5.415  15.054
  177DOPC  H17X21721   5.156   5.410  14.953
  177DOPC  H17Y21722   5.269   5.332  15.074
  177DOPC  C31821723   5.099   5.364  15.158
  177DOPC  H18X21724   5.097   5.254  15.161
  177DOPC  H18Y21725   5.119   5.380  15.263
  177DOPC  H18Z21726   4.995   5.388  15.130
  178DOPC     N21727   2.177   5.761  12.873
  178DOPC   C1221728   2.074   5.788  12.984
  178DOPC  H12A21729   2.087   5.712  13.063
  178DOPC  H12B21730   1.973   5.774  12.949
  178DOPC   C1321731   2.316   5.771  12.932
  178DOPC  H13A21732   2.323   5.864  12.989
  178DOPC  H13B21733   2.337   5.693  13.004
  178DOPC  H13C21734   2.393   5.770  12.857
  178DOPC   C1421735   2.167   5.864  12.765
  178DOPC  H14A21736   2.239   5.848  12.686
  178DOPC  H14B21737   2.069   5.867  12.719
  178DOPC  H14C21738   2.185   5.962  12.808
  178DOPC   C1521739   2.157   5.626  12.813
  178DOPC  H15A21740   2.225   5.612  12.729
  178DOPC  H15B21741   2.056   5.613  12.775
  178DOPC  H15C21742   2.176   5.547  12.884
  178DOPC   C1121743   2.082   5.924  13.061
  178DOPC  H11A21744   2.077   6.009  12.990
  178DOPC  H11B21745   1.991   5.933  13.126
  178DOPC     P21746   2.207   5.838  13.268
  178DOPC   O1321747   2.348   5.805  13.296
  178DOPC   O1421748   2.116   5.724  13.245
  178DOPC   O1221749   2.200   5.934  13.140
  178DOPC   O1121750   2.148   5.925  13.386
  178DOPC    C121751   2.230   5.951  13.500
  178DOPC    HA21752   2.182   6.030  13.561
  178DOPC    HB21753   2.330   5.991  13.469
  178DOPC    C221754   2.249   5.826  13.589
  178DOPC    HS21755   2.275   5.739  13.523
  178DOPC   O2121756   2.127   5.801  13.661
  178DOPC   C2121757   2.110   5.678  13.703
  178DOPC   O2221758   2.193   5.588  13.696
  178DOPC   C2221759   1.967   5.661  13.755
  178DOPC   H2R21760   1.912   5.603  13.679
  178DOPC   H2S21761   1.919   5.760  13.765
  178DOPC    C321762   2.369   5.847  13.684
  178DOPC    HX21763   2.463   5.849  13.625
  178DOPC    HY21764   2.373   5.756  13.749
  178DOPC   O3121765   2.353   5.971  13.757
  178DOPC   C3121766   2.388   5.962  13.885
  178DOPC   O3221767   2.446   5.868  13.934
  178DOPC   C3221768   2.342   6.084  13.962
  178DOPC   H2X21769   2.399   6.083  14.058
  178DOPC   H2Y21770   2.366   6.177  13.906
  178DOPC   C2321771   1.965   5.586  13.889
  178DOPC   H3R21772   2.045   5.508  13.892
  178DOPC   H3S21773   1.869   5.531  13.900
  178DOPC   C2421774   1.984   5.676  14.012
  178DOPC   H4R21775   1.892   5.735  14.032
  178DOPC   H4S21776   2.067   5.747  13.992
  178DOPC   C2521777   2.019   5.592  14.135
  178DOPC   H5R21778   2.093   5.513  14.109
  178DOPC   H5S21779   1.926   5.539  14.168
  178DOPC   C2621780   2.075   5.675  14.251
  178DOPC   H6R21781   2.058   5.619  14.345
  178DOPC   H6S21782   2.016   5.768  14.261
  178DOPC   C2721783   2.226   5.705  14.244
  178DOPC   H7R21784   2.246   5.787  14.172
  178DOPC   H7S21785   2.280   5.615  14.209
  178DOPC   C2821786   2.276   5.744  14.385
  178DOPC   H8R21787   2.249   5.661  14.453
  178DOPC   H8S21788   2.214   5.829  14.419
  178DOPC   C2921789   2.423   5.766  14.406
  178DOPC   H9R21790   2.484   5.675  14.397
  178DOPC  C21021791   2.484   5.884  14.427
  178DOPC  H10R21792   2.593   5.887  14.440
  178DOPC  C21121793   2.416   6.018  14.431
  178DOPC  H11R21794   2.309   6.003  14.407
  178DOPC  H11S21795   2.455   6.081  14.348
  178DOPC  C21221796   2.423   6.102  14.559
  178DOPC  H12R21797   2.368   6.197  14.536
  178DOPC  H12S21798   2.527   6.131  14.584
  178DOPC  C21321799   2.354   6.039  14.681
  178DOPC  H13R21800   2.425   5.974  14.737
  178DOPC  H13S21801   2.270   5.975  14.647
  178DOPC  C21421802   2.298   6.148  14.774
  178DOPC  H14R21803   2.226   6.106  14.846
  178DOPC  H14S21804   2.242   6.221  14.712
  178DOPC  C21521805   2.411   6.222  14.846
  178DOPC  H15R21806   2.481   6.259  14.767
  178DOPC  H15S21807   2.468   6.153  14.912
  178DOPC  C21621808   2.366   6.346  14.924
  178DOPC  H16R21809   2.306   6.412  14.858
  178DOPC  H16S21810   2.459   6.400  14.954
  178DOPC  C21721811   2.288   6.316  15.052
  178DOPC  H17R21812   2.195   6.264  15.022
  178DOPC  H17S21813   2.258   6.411  15.101
  178DOPC  C21821814   2.366   6.233  15.154
  178DOPC  H18R21815   2.472   6.266  15.159
  178DOPC  H18S21816   2.364   6.126  15.125
  178DOPC  H18T21817   2.322   6.242  15.256
  178DOPC   C3321818   2.192   6.070  13.992
  178DOPC   H3X21819   2.174   5.969  14.035
  178DOPC   H3Y21820   2.132   6.078  13.899
  178DOPC   C3421821   2.141   6.171  14.095
  178DOPC   H4X21822   2.124   6.270  14.045
  178DOPC   H4Y21823   2.215   6.186  14.176
  178DOPC   C3521824   2.012   6.117  14.155
  178DOPC   H5X21825   1.954   6.062  14.077
  178DOPC   H5Y21826   1.947   6.200  14.186
  178DOPC   C3621827   2.039   6.025  14.276
  178DOPC   H6X21828   1.948   5.964  14.293
  178DOPC   H6Y21829   2.124   5.958  14.253
  178DOPC   C3721830   2.068   6.103  14.405
  178DOPC   H7X21831   2.172   6.139  14.411
  178DOPC   H7Y21832   2.013   6.197  14.389
  178DOPC   C3821833   2.029   6.033  14.538
  178DOPC   H8X21834   2.066   6.095  14.622
  178DOPC   H8Y21835   2.081   5.935  14.546
  178DOPC   C3921836   1.880   6.016  14.553
  178DOPC   H9X21837   1.830   6.109  14.578
  178DOPC  C31021838   1.804   5.908  14.565
  178DOPC  H10X21839   1.695   5.921  14.558
  178DOPC  C31121840   1.854   5.767  14.569
  178DOPC  H11X21841   1.953   5.757  14.520
  178DOPC  H11Y21842   1.783   5.699  14.518
  178DOPC  C31221843   1.867   5.731  14.718
  178DOPC  H12X21844   1.899   5.625  14.722
  178DOPC  H12Y21845   1.769   5.736  14.771
  178DOPC  C31321846   1.972   5.812  14.797
  178DOPC  H13X21847   2.069   5.801  14.743
  178DOPC  H13Y21848   1.947   5.920  14.800
  178DOPC  C31421849   1.988   5.762  14.940
  178DOPC  H14X21850   1.911   5.799  15.008
  178DOPC  H14Y21851   1.968   5.653  14.942
  178DOPC  C31521852   2.127   5.785  14.998
  178DOPC  H15X21853   2.206   5.759  14.923
  178DOPC  H15Y21854   2.132   5.707  15.078
  178DOPC  C31621855   2.159   5.922  15.063
  178DOPC  H16X21856   2.216   5.901  15.156
  178DOPC  H16Y21857   2.229   5.978  14.999
  178DOPC  C31721858   2.040   6.010  15.102
  178DOPC  H17X21859   2.000   6.064  15.013
  178DOPC  H17Y21860   1.960   5.942  15.138
  178DOPC  C31821861   2.066   6.109  15.217
  178DOPC  H18X21862   1.978   6.117  15.284
  178DOPC  H18Y21863   2.152   6.073  15.279
  178DOPC  H18Z21864   2.088   6.211  15.181
  179DOPC     N21865   5.918   5.206  12.874
  179DOPC   C1221866   5.892   5.133  13.005
  179DOPC  H12A21867   5.947   5.040  13.003
  179DOPC  H12B21868   5.787   5.105  13.014
  179DOPC   C1321869   6.066   5.222  12.859
  179DOPC  H13A21870   6.096   5.293  12.783
  179DOPC  H13B21871   6.108   5.254  12.955
  179DOPC  H13C21872   6.114   5.126  12.838
  179DOPC   C1421873   5.853   5.341  12.875
  179DOPC  H14A21874   5.892   5.396  12.961
  179DOPC  H14B21875   5.874   5.393  12.783
  179DOPC  H14C21876   5.746   5.333  12.885
  179DOPC   C1521877   5.872   5.126  12.757
  179DOPC  H15A21878   5.764   5.119  12.748
  179DOPC  H15B21879   5.912   5.025  12.764
  179DOPC  H15C21880   5.911   5.167  12.665
  179DOPC   C1121881   5.934   5.202  13.137
  179DOPC  H11A21882   5.884   5.300  13.149
  179DOPC  H11B21883   5.903   5.136  13.222
  179DOPC     P21884   6.159   5.254  13.266
  179DOPC   O1321885   6.295   5.285  13.216
  179DOPC   O1421886   6.142   5.149  13.369
  179DOPC   O1221887   6.074   5.218  13.138
  179DOPC   O1121888   6.091   5.389  13.316
  179DOPC    C121889   6.069   5.503  13.232
  179DOPC    HA21890   6.040   5.473  13.128
  179DOPC    HB21891   6.165   5.559  13.226
  179DOPC    C221892   5.961   5.604  13.286
  179DOPC    HS21893   5.999   5.707  13.264
  179DOPC   O2121894   5.940   5.587  13.425
  179DOPC   C2121895   6.035   5.633  13.503
  179DOPC   O2221896   6.123   5.712  13.469
  179DOPC   C2221897   6.007   5.586  13.646
  179DOPC   H2R21898   5.896   5.575  13.656
  179DOPC   H2S21899   6.041   5.666  13.716
  179DOPC    C321900   5.819   5.600  13.218
  179DOPC    HX21901   5.834   5.621  13.110
  179DOPC    HY21902   5.761   5.686  13.259
  179DOPC   O3121903   5.746   5.476  13.232
  179DOPC   C3121904   5.677   5.463  13.345
  179DOPC   O3221905   5.657   5.550  13.428
  179DOPC   C3221906   5.624   5.321  13.356
  179DOPC   H2X21907   5.514   5.321  13.344
  179DOPC   H2Y21908   5.668   5.257  13.277
  179DOPC   C2321909   6.069   5.451  13.682
  179DOPC   H3R21910   6.045   5.377  13.603
  179DOPC   H3S21911   6.029   5.416  13.780
  179DOPC   C2421912   6.219   5.458  13.694
  179DOPC   H4R21913   6.243   5.517  13.786
  179DOPC   H4S21914   6.253   5.511  13.603
  179DOPC   C2521915   6.285   5.322  13.708
  179DOPC   H5R21916   6.396   5.334  13.712
  179DOPC   H5S21917   6.259   5.259  13.620
  179DOPC   C2621918   6.237   5.257  13.837
  179DOPC   H6R21919   6.137   5.213  13.816
  179DOPC   H6S21920   6.220   5.335  13.915
  179DOPC   C2721921   6.336   5.155  13.895
  179DOPC   H7R21922   6.427   5.209  13.929
  179DOPC   H7S21923   6.366   5.084  13.814
  179DOPC   C2821924   6.275   5.081  14.013
  179DOPC   H8R21925   6.242   5.154  14.090
  179DOPC   H8S21926   6.348   5.011  14.059
  179DOPC   C2921927   6.157   5.007  13.958
  179DOPC   H9R21928   6.160   4.982  13.850
  179DOPC  C21021929   6.051   4.971  14.028
  179DOPC  H10R21930   5.970   4.923  13.974
  179DOPC  C21121931   6.032   5.000  14.174
  179DOPC  H11R21932   6.129   4.999  14.230
  179DOPC  H11S21933   5.969   4.921  14.220
  179DOPC  C21221934   5.968   5.137  14.196
  179DOPC  H12R21935   6.003   5.202  14.115
  179DOPC  H12S21936   6.012   5.176  14.290
  179DOPC  C21321937   5.815   5.133  14.216
  179DOPC  H13R21938   5.792   5.031  14.248
  179DOPC  H13S21939   5.757   5.135  14.124
  179DOPC  C21421940   5.753   5.214  14.330
  179DOPC  H14R21941   5.645   5.188  14.331
  179DOPC  H14S21942   5.758   5.323  14.311
  179DOPC  C21521943   5.818   5.180  14.467
  179DOPC  H15R21944   5.747   5.207  14.548
  179DOPC  H15S21945   5.906   5.246  14.477
  179DOPC  C21621946   5.863   5.032  14.486
  179DOPC  H16R21947   5.911   4.993  14.395
  179DOPC  H16S21948   5.776   4.967  14.505
  179DOPC  C21721949   5.977   5.009  14.588
  179DOPC  H17R21950   5.983   5.108  14.638
  179DOPC  H17S21951   6.073   4.992  14.535
  179DOPC  C21821952   5.949   4.903  14.695
  179DOPC  H18R21953   5.993   4.920  14.796
  179DOPC  H18S21954   5.975   4.801  14.668
  179DOPC  H18T21955   5.840   4.902  14.701
  179DOPC   C3321956   5.662   5.262  13.492
  179DOPC   H3X21957   5.622   5.159  13.502
  179DOPC   H3Y21958   5.610   5.322  13.570
  179DOPC   C3421959   5.814   5.263  13.514
  179DOPC   H4X21960   5.844   5.366  13.543
  179DOPC   H4Y21961   5.868   5.240  13.419
  179DOPC   C3521962   5.863   5.165  13.620
  179DOPC   H5X21963   5.965   5.193  13.654
  179DOPC   H5Y21964   5.873   5.063  13.578
  179DOPC   C3621965   5.770   5.162  13.741
  179DOPC   H6X21966   5.673   5.112  13.717
  179DOPC   H6Y21967   5.821   5.100  13.818
  179DOPC   C3721968   5.742   5.301  13.799
  179DOPC   H7X21969   5.830   5.367  13.784
  179DOPC   H7Y21970   5.654   5.352  13.755
  179DOPC   C3821971   5.720   5.283  13.947
  179DOPC   H8X21972   5.819   5.242  13.977
  179DOPC   H8Y21973   5.645   5.201  13.962
  179DOPC   C3921974   5.683   5.402  14.029
  179DOPC   H9X21975   5.577   5.418  14.049
  179DOPC  C31021976   5.772   5.486  14.082
  179DOPC  H10X21977   5.738   5.566  14.149
  179DOPC  C31121978   5.921   5.472  14.065
  179DOPC  H11X21979   5.954   5.514  13.969
  179DOPC  H11Y21980   5.952   5.368  14.059
  179DOPC  C31221981   5.996   5.538  14.180
  179DOPC  H12X21982   5.952   5.637  14.201
  179DOPC  H12Y21983   6.102   5.549  14.149
  179DOPC  C31321984   5.995   5.468  14.315
  179DOPC  H13X21985   5.894   5.473  14.362
  179DOPC  H13Y21986   6.023   5.363  14.304
  179DOPC  C31421987   6.100   5.533  14.402
  179DOPC  H14X21988   6.200   5.504  14.364
  179DOPC  H14Y21989   6.090   5.644  14.393
  179DOPC  C31521990   6.089   5.498  14.549
  179DOPC  H15X21991   6.070   5.390  14.565
  179DOPC  H15Y21992   6.000   5.553  14.588
  179DOPC  C31621993   6.218   5.541  14.617
  179DOPC  H16X21994   6.301   5.474  14.583
  179DOPC  H16Y21995   6.243   5.644  14.582
  179DOPC  C31721996   6.215   5.540  14.769
  179DOPC  H17X21997   6.223   5.436  14.805
  179DOPC  H17Y21998   6.307   5.591  14.805
  179DOPC  C31821999   6.092   5.605  14.833
  179DOPC  H18X22000   6.090   5.715  14.818
  179DOPC  H18Y22001   5.997   5.562  14.795
  179DOPC  H18Z22002   6.097   5.584  14.942
  180DOPC     N22003   6.449   3.243  12.881
  180DOPC   C1222004   6.337   3.259  12.982
  180DOPC  H12A22005   6.309   3.161  13.020
  180DOPC  H12B22006   6.251   3.299  12.930
  180DOPC   C1322007   6.532   3.125  12.920
  180DOPC  H13A22008   6.561   3.134  13.026
  180DOPC  H13B22009   6.477   3.032  12.912
  180DOPC  H13C22010   6.623   3.118  12.862
  180DOPC   C1422011   6.535   3.363  12.888
  180DOPC  H14A22012   6.626   3.352  12.830
  180DOPC  H14B22013   6.480   3.451  12.857
  180DOPC  H14C22014   6.561   3.378  12.994
  180DOPC   C1522015   6.394   3.231  12.742
  180DOPC  H15A22016   6.336   3.140  12.732
  180DOPC  H15B22017   6.474   3.234  12.671
  180DOPC  H15C22018   6.328   3.316  12.722
  180DOPC   C1122019   6.359   3.347  13.108
  180DOPC  H11A22020   6.376   3.452  13.076
  180DOPC  H11B22021   6.265   3.348  13.168
  180DOPC     P22022   6.452   3.166  13.267
  180DOPC   O1322023   6.585   3.100  13.274
  180DOPC   O1422024   6.343   3.088  13.203
  180DOPC   O1222025   6.470   3.302  13.186
  180DOPC   O1122026   6.404   3.214  13.408
  180DOPC    C122027   6.487   3.257  13.515
  180DOPC    HA22028   6.529   3.357  13.495
  180DOPC    HB22029   6.573   3.186  13.528
  180DOPC    C222030   6.400   3.255  13.644
  180DOPC    HS22031   6.459   3.292  13.730
  180DOPC   O2122032   6.375   3.112  13.655
  180DOPC   C2122033   6.469   3.030  13.707
  180DOPC   O2222034   6.574   3.065  13.757
  180DOPC   C2222035   6.417   2.882  13.695
  180DOPC   H2R22036   6.417   2.865  13.585
  180DOPC   H2S22037   6.312   2.884  13.728
  180DOPC    C322038   6.266   3.354  13.625
  180DOPC    HX22039   6.245   3.352  13.516
  180DOPC    HY22040   6.308   3.455  13.646
  180DOPC   O3122041   6.141   3.340  13.704
  180DOPC   C3122042   6.007   3.375  13.670
  180DOPC   O3222043   5.984   3.434  13.567
  180DOPC   C3222044   5.880   3.330  13.767
  180DOPC   H2X22045   5.903   3.367  13.866
  180DOPC   H2Y22046   5.797   3.396  13.733
  180DOPC   C2322047   6.483   2.755  13.763
  180DOPC   H3R22048   6.591   2.752  13.739
  180DOPC   H3S22049   6.436   2.667  13.713
  180DOPC   C2422050   6.464   2.730  13.915
  180DOPC   H4R22051   6.515   2.634  13.941
  180DOPC   H4S22052   6.356   2.716  13.939
  180DOPC   C2522053   6.525   2.842  13.999
  180DOPC   H5R22054   6.479   2.936  13.962
  180DOPC   H5S22055   6.634   2.847  13.979
  180DOPC   C2622056   6.504   2.841  14.151
  180DOPC   H6R22057   6.550   2.752  14.199
  180DOPC   H6S22058   6.394   2.840  14.169
  180DOPC   C2722059   6.563   2.968  14.215
  180DOPC   H7R22060   6.663   2.985  14.169
  180DOPC   H7S22061   6.580   2.955  14.324
  180DOPC   C2822062   6.473   3.091  14.197
  180DOPC   H8R22063   6.384   3.081  14.264
  180DOPC   H8S22064   6.434   3.094  14.093
  180DOPC   C2922065   6.553   3.215  14.230
  180DOPC   H9R22066   6.636   3.199  14.300
  180DOPC  C21022067   6.531   3.340  14.184
  180DOPC  H10R22068   6.597   3.422  14.215
  180DOPC  C21122069   6.420   3.379  14.091
  180DOPC  H11R22070   6.392   3.291  14.029
  180DOPC  H11S22071   6.455   3.456  14.019
  180DOPC  C21222072   6.296   3.433  14.168
  180DOPC  H12R22073   6.211   3.442  14.096
  180DOPC  H12S22074   6.320   3.536  14.203
  180DOPC  C21322075   6.252   3.349  14.291
  180DOPC  H13R22076   6.335   3.344  14.364
  180DOPC  H13S22077   6.231   3.245  14.258
  180DOPC  C21422078   6.129   3.405  14.363
  180DOPC  H14R22079   6.040   3.386  14.300
  180DOPC  H14S22080   6.141   3.515  14.374
  180DOPC  C21522081   6.090   3.344  14.499
  180DOPC  H15R22082   6.178   3.313  14.557
  180DOPC  H15S22083   6.027   3.254  14.479
  180DOPC  C21622084   5.998   3.440  14.575
  180DOPC  H16R22085   5.899   3.435  14.524
  180DOPC  H16S22086   6.038   3.544  14.566
  180DOPC  C21722087   5.966   3.408  14.720
  180DOPC  H17R22088   5.916   3.310  14.720
  180DOPC  H17S22089   5.891   3.482  14.757
  180DOPC  C21822090   6.086   3.410  14.814
  180DOPC  H18R22091   6.132   3.511  14.815
  180DOPC  H18S22092   6.163   3.337  14.780
  180DOPC  H18T22093   6.056   3.383  14.917
  180DOPC   C3322094   5.818   3.179  13.774
  180DOPC   H3X22095   5.908   3.127  13.797
  180DOPC   H3Y22096   5.782   3.145  13.676
  180DOPC   C3422097   5.744   3.095  13.887
  180DOPC   H4X22098   5.637   3.091  13.858
  180DOPC   H4Y22099   5.740   3.144  13.984
  180DOPC   C3522100   5.793   2.941  13.902
  180DOPC   H5X22101   5.826   2.908  13.802
  180DOPC   H5Y22102   5.701   2.885  13.926
  180DOPC   C3622103   5.903   2.899  14.011
  180DOPC   H6X22104   6.002   2.926  13.973
  180DOPC   H6Y22105   5.873   2.961  14.096
  180DOPC   C3722106   5.943   2.760  14.071
  180DOPC   H7X22107   5.863   2.735  14.143
  180DOPC   H7Y22108   5.947   2.683  13.992
  180DOPC   C3822109   6.081   2.748  14.148
  180DOPC   H8X22110   6.134   2.846  14.148
  180DOPC   H8Y22111   6.146   2.680  14.088
  180DOPC   C3922112   6.065   2.689  14.287
  180DOPC   H9X22113   5.960   2.678  14.317
  180DOPC  C31022114   6.159   2.646  14.375
  180DOPC  H10X22115   6.128   2.601  14.471
  180DOPC  C31122116   6.308   2.650  14.350
  180DOPC  H11X22117   6.331   2.755  14.328
  180DOPC  H11Y22118   6.329   2.590  14.259
  180DOPC  C31222119   6.416   2.607  14.455
  180DOPC  H12X22120   6.514   2.616  14.403
  180DOPC  H12Y22121   6.408   2.501  14.484
  180DOPC  C31322122   6.424   2.696  14.580
  180DOPC  H13X22123   6.327   2.700  14.633
  180DOPC  H13Y22124   6.499   2.653  14.650
  180DOPC  C31422125   6.470   2.835  14.538
  180DOPC  H14X22126   6.558   2.820  14.471
  180DOPC  H14Y22127   6.391   2.887  14.480
  180DOPC  C31522128   6.516   2.926  14.651
  180DOPC  H15X22129   6.571   3.009  14.600
  180DOPC  H15Y22130   6.588   2.873  14.717
  180DOPC  C31622131   6.400   2.983  14.732
  180DOPC  H16X22132   6.329   3.033  14.662
  180DOPC  H16Y22133   6.345   2.901  14.783
  180DOPC  C31722134   6.448   3.087  14.834
  180DOPC  H17X22135   6.358   3.138  14.876
  180DOPC  H17Y22136   6.497   3.033  14.919
  180DOPC  C31822137   6.546   3.190  14.777
  180DOPC  H18X22138   6.643   3.142  14.754
  180DOPC  H18Y22139   6.505   3.235  14.684
  180DOPC  H18Z22140   6.567   3.272  14.848
  181DOPC     N22141   0.711   3.825  12.975
  181DOPC   C1222142   0.843   3.902  12.961
  181DOPC  H12A22143   0.868   3.953  13.054
  181DOPC  H12B22144   0.835   3.980  12.887
  181DOPC   C1322145   0.720   3.748  13.104
  181DOPC  H13A22146   0.811   3.688  13.102
  181DOPC  H13B22147   0.735   3.815  13.188
  181DOPC  H13C22148   0.636   3.683  13.121
  181DOPC   C1422149   0.696   3.731  12.860
  181DOPC  H14A22150   0.612   3.665  12.872
  181DOPC  H14B22151   0.684   3.783  12.764
  181DOPC  H14C22152   0.786   3.672  12.850
  181DOPC   C1522153   0.593   3.916  12.984
  181DOPC  H15A22154   0.501   3.859  12.971
  181DOPC  H15B22155   0.590   3.990  12.905
  181DOPC  H15C22156   0.590   3.967  13.079
  181DOPC   C1122157   0.970   3.817  12.928
  181DOPC  H11A22158   0.955   3.760  12.834
  181DOPC  H11B22159   1.056   3.886  12.908
  181DOPC     P22160   1.078   3.785  13.161
  181DOPC   O1322161   1.051   3.931  13.167
  181DOPC   O1422162   1.215   3.731  13.150
  181DOPC   O1222163   1.001   3.726  13.034
  181DOPC   O1122164   1.001   3.701  13.277
  181DOPC    C122165   1.017   3.556  13.274
  181DOPC    HA22166   1.124   3.528  13.276
  181DOPC    HB22167   0.972   3.518  13.178
  181DOPC    C222168   0.949   3.464  13.386
  181DOPC    HS22169   0.911   3.373  13.336
  181DOPC   O2122170   0.839   3.532  13.447
  181DOPC   C2122171   0.764   3.465  13.535
  181DOPC   O2222172   0.777   3.348  13.567
  181DOPC   C2222173   0.662   3.560  13.594
  181DOPC   H2R22174   0.610   3.507  13.676
  181DOPC   H2S22175   0.588   3.576  13.515
  181DOPC    C322176   1.053   3.418  13.496
  181DOPC    HX22177   1.132   3.359  13.444
  181DOPC    HY22178   1.007   3.349  13.568
  181DOPC   O3122179   1.114   3.529  13.563
  181DOPC   C3122180   1.186   3.500  13.671
  181DOPC   O3222181   1.191   3.391  13.725
  181DOPC   C3222182   1.267   3.622  13.712
  181DOPC   H2X22183   1.212   3.679  13.789
  181DOPC   H2Y22184   1.361   3.584  13.759
  181DOPC   C2322185   0.734   3.687  13.642
  181DOPC   H3R22186   0.664   3.762  13.679
  181DOPC   H3S22187   0.794   3.735  13.561
  181DOPC   C2422188   0.824   3.658  13.761
  181DOPC   H4R22189   0.864   3.754  13.801
  181DOPC   H4S22190   0.910   3.599  13.721
  181DOPC   C2522191   0.754   3.581  13.875
  181DOPC   H5R22192   0.732   3.477  13.841
  181DOPC   H5S22193   0.658   3.630  13.903
  181DOPC   C2622194   0.844   3.571  13.997
  181DOPC   H6R22195   0.811   3.487  14.063
  181DOPC   H6S22196   0.839   3.664  14.055
  181DOPC   C2722197   0.988   3.548  13.951
  181DOPC   H7R22198   1.028   3.633  13.893
  181DOPC   H7S22199   0.987   3.456  13.887
  181DOPC   C2822200   1.082   3.533  14.067
  181DOPC   H8R22201   1.023   3.484  14.147
  181DOPC   H8S22202   1.107   3.635  14.106
  181DOPC   C2922203   1.203   3.455  14.021
  181DOPC   H9R22204   1.183   3.372  13.952
  181DOPC  C21022205   1.328   3.475  14.063
  181DOPC  H10R22206   1.413   3.417  14.022
  181DOPC  C21122207   1.358   3.580  14.164
  181DOPC  H11R22208   1.321   3.680  14.132
  181DOPC  H11S22209   1.467   3.591  14.184
  181DOPC  C21222210   1.285   3.535  14.292
  181DOPC  H12R22211   1.335   3.446  14.336
  181DOPC  H12S22212   1.177   3.515  14.283
  181DOPC  C21322213   1.289   3.651  14.383
  181DOPC  H13R22214   1.246   3.743  14.337
  181DOPC  H13S22215   1.398   3.664  14.377
  181DOPC  C21422216   1.231   3.636  14.524
  181DOPC  H14R22217   1.279   3.554  14.581
  181DOPC  H14S22218   1.122   3.615  14.522
  181DOPC  C21522219   1.259   3.767  14.593
  181DOPC  H15R22220   1.235   3.765  14.699
  181DOPC  H15S22221   1.193   3.849  14.556
  181DOPC  C21622222   1.406   3.804  14.565
  181DOPC  H16R22223   1.435   3.891  14.621
  181DOPC  H16S22224   1.406   3.845  14.462
  181DOPC  C21722225   1.516   3.691  14.572
  181DOPC  H17R22226   1.565   3.688  14.472
  181DOPC  H17S22227   1.469   3.592  14.585
  181DOPC  C21822228   1.624   3.699  14.679
  181DOPC  H18R22229   1.692   3.611  14.675
  181DOPC  H18S22230   1.575   3.709  14.778
  181DOPC  H18T22231   1.689   3.786  14.668
  181DOPC   C3322232   1.301   3.710  13.589
  181DOPC   H3X22233   1.325   3.648  13.500
  181DOPC   H3Y22234   1.393   3.762  13.616
  181DOPC   C3422235   1.196   3.816  13.550
  181DOPC   H4X22236   1.107   3.767  13.506
  181DOPC   H4Y22237   1.242   3.880  13.470
  181DOPC   C3522238   1.152   3.907  13.666
  181DOPC   H5X22239   1.243   3.946  13.717
  181DOPC   H5Y22240   1.094   3.848  13.740
  181DOPC   C3622241   1.066   4.026  13.621
  181DOPC   H6X22242   1.116   4.076  13.535
  181DOPC   H6Y22243   0.968   3.986  13.584
  181DOPC   C3722244   1.041   4.132  13.731
  181DOPC   H7X22245   1.130   4.199  13.734
  181DOPC   H7Y22246   0.953   4.194  13.700
  181DOPC   C3822247   1.017   4.075  13.873
  181DOPC   H8X22248   1.105   4.012  13.901
  181DOPC   H8Y22249   0.929   4.008  13.869
  181DOPC   C3922250   0.997   4.183  13.976
  181DOPC   H9X22251   0.954   4.276  13.937
  181DOPC  C31022252   1.019   4.173  14.109
  181DOPC  H10X22253   0.995   4.261  14.171
  181DOPC  C31122254   1.069   4.053  14.186
  181DOPC  H11X22255   1.153   4.085  14.252
  181DOPC  H11Y22256   1.110   3.974  14.119
  181DOPC  C31222257   0.961   3.987  14.276
  181DOPC  H12X22258   0.892   4.064  14.315
  181DOPC  H12Y22259   1.012   3.941  14.364
  181DOPC  C31322260   0.883   3.875  14.204
  181DOPC  H13X22261   0.833   3.914  14.114
  181DOPC  H13Y22262   0.958   3.801  14.167
  181DOPC  C31422263   0.780   3.798  14.290
  181DOPC  H14X22264   0.715   3.866  14.347
  181DOPC  H14Y22265   0.713   3.740  14.222
  181DOPC  C31522266   0.848   3.702  14.388
  181DOPC  H15X22267   0.911   3.764  14.456
  181DOPC  H15Y22268   0.916   3.634  14.332
  181DOPC  C31622269   0.749   3.619  14.471
  181DOPC  H16X22270   0.664   3.682  14.504
  181DOPC  H16Y22271   0.708   3.537  14.407
  181DOPC  C31722272   0.815   3.557  14.595
  181DOPC  H17X22273   0.739   3.494  14.646
  181DOPC  H17Y22274   0.897   3.490  14.561
  181DOPC  C31822275   0.872   3.658  14.695
  181DOPC  H18X22276   0.967   3.703  14.658
  181DOPC  H18Y22277   0.800   3.741  14.712
  181DOPC  H18Z22278   0.894   3.610  14.793
  182DOPC     N22279   2.556   0.916  13.206
  182DOPC   C1222280   2.536   1.011  13.088
  182DOPC  H12A22281   2.536   0.953  12.996
  182DOPC  H12B22282   2.624   1.075  13.081
  182DOPC   C1322283   2.584   0.996  13.329
  182DOPC  H13A22284   2.599   0.931  13.414
  182DOPC  H13B22285   2.675   1.053  13.316
  182DOPC  H13C22286   2.501   1.063  13.349
  182DOPC   C1422287   2.676   0.832  13.174
  182DOPC  H14A22288   2.759   0.895  13.140
  182DOPC  H14B22289   2.711   0.775  13.259
  182DOPC  H14C22290   2.655   0.762  13.093
  182DOPC   C1522291   2.434   0.831  13.224
  182DOPC  H15A22292   2.345   0.895  13.230
  182DOPC  H15B22293   2.441   0.769  13.313
  182DOPC  H15C22294   2.419   0.769  13.137
  182DOPC   C1122295   2.410   1.103  13.085
  182DOPC  H11A22296   2.408   1.162  13.179
  182DOPC  H11B22297   2.423   1.176  13.002
  182DOPC     P22298   2.205   1.026  12.939
  182DOPC   O1322299   2.291   1.010  12.821
  182DOPC   O1422300   2.111   1.141  12.940
  182DOPC   O1222301   2.290   1.028  13.075
  182DOPC   O1122302   2.121   0.892  12.943
  182DOPC    C122303   2.064   0.831  13.056
  182DOPC    HA22304   2.143   0.783  13.118
  182DOPC    HB22305   1.996   0.750  13.023
  182DOPC    C222306   1.984   0.931  13.142
  182DOPC    HS22307   1.953   1.017  13.078
  182DOPC   O2122308   2.076   0.970  13.245
  182DOPC   C2122309   2.054   1.089  13.293
  182DOPC   O2222310   1.956   1.159  13.275
  182DOPC   C2222311   2.179   1.131  13.371
  182DOPC   H2R22312   2.241   1.192  13.302
  182DOPC   H2S22313   2.237   1.041  13.401
  182DOPC    C322314   1.855   0.869  13.198
  182DOPC    HX22315   1.783   0.853  13.115
  182DOPC    HY22316   1.807   0.944  13.265
  182DOPC   O3122317   1.886   0.742  13.260
  182DOPC   C3122318   1.912   0.758  13.390
  182DOPC   O3222319   1.885   0.857  13.455
  182DOPC   C3222320   2.001   0.648  13.443
  182DOPC   H2X22321   1.940   0.584  13.510
  182DOPC   H2Y22322   2.038   0.586  13.358
  182DOPC   C2322323   2.142   1.215  13.494
  182DOPC   H3R22324   2.074   1.297  13.459
  182DOPC   H3S22325   2.232   1.263  13.538
  182DOPC   C2422326   2.069   1.136  13.602
  182DOPC   H4R22327   1.978   1.087  13.559
  182DOPC   H4S22328   2.033   1.210  13.674
  182DOPC   C2522329   2.150   1.031  13.679
  182DOPC   H5R22330   2.243   1.005  13.624
  182DOPC   H5S22331   2.087   0.940  13.686
  182DOPC   C2622332   2.184   1.072  13.824
  182DOPC   H6R22333   2.091   1.104  13.876
  182DOPC   H6S22334   2.254   1.158  13.822
  182DOPC   C2722335   2.246   0.955  13.901
  182DOPC   H7R22336   2.341   0.931  13.849
  182DOPC   H7S22337   2.179   0.867  13.894
  182DOPC   C2822338   2.276   0.979  14.049
  182DOPC   H8R22339   2.336   0.897  14.093
  182DOPC   H8S22340   2.181   0.979  14.106
  182DOPC   C2922341   2.350   1.107  14.070
  182DOPC   H9R22342   2.414   1.140  13.988
  182DOPC  C21022343   2.349   1.172  14.186
  182DOPC  H10R22344   2.409   1.264  14.193
  182DOPC  C21122345   2.275   1.127  14.310
  182DOPC  H11R22346   2.348   1.121  14.393
  182DOPC  H11S22347   2.235   1.024  14.300
  182DOPC  C21222348   2.159   1.214  14.359
  182DOPC  H12R22349   2.072   1.206  14.291
  182DOPC  H12S22350   2.190   1.320  14.362
  182DOPC  C21322351   2.121   1.181  14.504
  182DOPC  H13R22352   2.031   1.237  14.529
  182DOPC  H13S22353   2.196   1.223  14.574
  182DOPC  C21422354   2.108   1.032  14.540
  182DOPC  H14R22355   2.201   0.977  14.513
  182DOPC  H14S22356   2.025   0.984  14.484
  182DOPC  C21522357   2.085   1.014  14.690
  182DOPC  H15R22358   2.024   1.097  14.731
  182DOPC  H15S22359   2.184   1.019  14.739
  182DOPC  C21622360   2.014   0.885  14.727
  182DOPC  H16R22361   2.057   0.805  14.662
  182DOPC  H16S22362   1.906   0.893  14.703
  182DOPC  C21722363   2.036   0.848  14.875
  182DOPC  H17R22364   2.135   0.885  14.905
  182DOPC  H17S22365   2.036   0.739  14.894
  182DOPC  C21822366   1.940   0.917  14.968
  182DOPC  H18R22367   1.941   1.026  14.947
  182DOPC  H18S22368   1.972   0.900  15.073
  182DOPC  H18T22369   1.837   0.878  14.957
  182DOPC   C3322370   2.116   0.711  13.523
  182DOPC   H3X22371   2.093   0.696  13.631
  182DOPC   H3Y22372   2.122   0.821  13.506
  182DOPC   C3422373   2.252   0.655  13.484
  182DOPC   H4X22374   2.269   0.676  13.376
  182DOPC   H4Y22375   2.251   0.545  13.497
  182DOPC   C3522376   2.365   0.716  13.568
  182DOPC   H5X22377   2.368   0.827  13.555
  182DOPC   H5Y22378   2.463   0.675  13.534
  182DOPC   C3622379   2.344   0.680  13.715
  182DOPC   H6X22380   2.256   0.735  13.754
  182DOPC   H6Y22381   2.317   0.572  13.717
  182DOPC   C3722382   2.462   0.703  13.810
  182DOPC   H7X22383   2.553   0.652  13.771
  182DOPC   H7Y22384   2.491   0.810  13.813
  182DOPC   C3822385   2.430   0.654  13.953
  182DOPC   H8X22386   2.366   0.730  13.999
  182DOPC   H8Y22387   2.525   0.654  14.010
  182DOPC   C3922388   2.360   0.520  13.969
  182DOPC   H9X22389   2.404   0.439  13.909
  182DOPC  C31022390   2.252   0.490  14.044
  182DOPC  H10X22391   2.225   0.383  14.055
  182DOPC  C31122392   2.173   0.583  14.133
  182DOPC  H11X22393   2.064   0.561  14.127
  182DOPC  H11Y22394   2.186   0.690  14.105
  182DOPC  C31222395   2.221   0.568  14.278
  182DOPC  H12X22396   2.235   0.460  14.304
  182DOPC  H12Y22397   2.145   0.608  14.349
  182DOPC  C31322398   2.351   0.647  14.297
  182DOPC  H13X22399   2.424   0.613  14.221
  182DOPC  H13Y22400   2.329   0.754  14.275
  182DOPC  C31422401   2.411   0.638  14.437
  182DOPC  H14X22402   2.386   0.542  14.486
  182DOPC  H14Y22403   2.522   0.646  14.432
  182DOPC  C31522404   2.357   0.744  14.532
  182DOPC  H15X22405   2.246   0.732  14.537
  182DOPC  H15Y22406   2.378   0.845  14.491
  182DOPC  C31622407   2.418   0.729  14.672
  182DOPC  H16X22408   2.398   0.626  14.709
  182DOPC  H16Y22409   2.527   0.747  14.670
  182DOPC  C31722410   2.353   0.826  14.770
  182DOPC  H17X22411   2.378   0.931  14.745
  182DOPC  H17Y22412   2.246   0.811  14.748
  182DOPC  C31822413   2.374   0.798  14.919
  182DOPC  H18X22414   2.330   0.880  14.980
  182DOPC  H18Y22415   2.326   0.702  14.948
  182DOPC  H18Z22416   2.481   0.789  14.944
  183DOPC     N22417   6.687   5.181  13.056
  183DOPC   C1222418   6.712   5.310  12.977
  183DOPC  H12A22419   6.621   5.366  12.965
  183DOPC  H12B22420   6.747   5.283  12.878
  183DOPC   C1322421   6.642   5.205  13.197
  183DOPC  H13A22422   6.549   5.262  13.204
  183DOPC  H13B22423   6.625   5.113  13.251
  183DOPC  H13C22424   6.717   5.265  13.250
  183DOPC   C1422425   6.819   5.114  13.060
  183DOPC  H14A22426   6.864   5.113  12.962
  183DOPC  H14B22427   6.888   5.175  13.120
  183DOPC  H14C22428   6.815   5.016  13.103
  183DOPC   C1522429   6.590   5.096  12.983
  183DOPC  H15A22430   6.631   5.065  12.886
  183DOPC  H15B22431   6.499   5.153  12.962
  183DOPC  H15C22432   6.563   5.007  13.038
  183DOPC   C1122433   6.819   5.406  13.032
  183DOPC  H11A22434   6.833   5.495  12.967
  183DOPC  H11B22435   6.780   5.448  13.125
  183DOPC     P22436   7.076   5.364  12.985
  183DOPC   O1322437   7.044   5.397  12.844
  183DOPC   O1422438   7.155   5.240  13.007
  183DOPC   O1222439   6.942   5.343  13.061
  183DOPC   O1122440   7.137   5.486  13.062
  183DOPC    C122441   7.224   5.467  13.173
  183DOPC    HA22442   7.272   5.566  13.189
  183DOPC    HB22443   7.308   5.399  13.150
  183DOPC    C222444   7.159   5.437  13.314
  183DOPC    HS22445   7.238   5.427  13.392
  183DOPC   O2122446   7.066   5.326  13.324
  183DOPC   C2122447   7.127   5.218  13.373
  183DOPC   O2222448   7.244   5.191  13.357
  183DOPC   C2222449   7.040   5.137  13.469
  183DOPC   H2R22450   7.019   5.039  13.422
  183DOPC   H2S22451   6.944   5.189  13.486
  183DOPC    C322452   7.093   5.572  13.347
  183DOPC    HX22453   7.021   5.580  13.264
  183DOPC    HY22454   7.164   5.655  13.329
  183DOPC   O3122455   7.045   5.597  13.480
  183DOPC   C3122456   6.954   5.532  13.545
  183DOPC   O3222457   6.905   5.423  13.520
  183DOPC   C3222458   6.916   5.612  13.668
  183DOPC   H2X22459   6.975   5.706  13.674
  183DOPC   H2Y22460   6.808   5.638  13.666
  183DOPC   C2322461   7.117   5.116  13.603
  183DOPC   H3R22462   7.142   5.214  13.648
  183DOPC   H3S22463   7.214   5.064  13.580
  183DOPC   C2422464   7.045   5.031  13.709
  183DOPC   H4R22465   7.117   5.002  13.789
  183DOPC   H4S22466   7.013   4.936  13.661
  183DOPC   C2522467   6.923   5.097  13.774
  183DOPC   H5R22468   6.858   5.016  13.813
  183DOPC   H5S22469   6.865   5.154  13.698
  183DOPC   C2622470   6.955   5.189  13.893
  183DOPC   H6R22471   7.017   5.274  13.857
  183DOPC   H6S22472   7.017   5.135  13.967
  183DOPC   C2722473   6.826   5.241  13.960
  183DOPC   H7R22474   6.766   5.295  13.883
  183DOPC   H7S22475   6.851   5.313  14.040
  183DOPC   C2822476   6.736   5.131  14.020
  183DOPC   H8R22477   6.689   5.072  13.937
  183DOPC   H8S22478   6.651   5.181  14.072
  183DOPC   C2922479   6.812   5.040  14.113
  183DOPC   H9R22480   6.862   4.954  14.065
  183DOPC  C21022481   6.830   5.061  14.244
  183DOPC  H10R22482   6.892   4.991  14.302
  183DOPC  C21122483   6.776   5.179  14.320
  183DOPC  H11R22484   6.695   5.149  14.391
  183DOPC  H11S22485   6.732   5.255  14.252
  183DOPC  C21222486   6.887   5.250  14.399
  183DOPC  H12R22487   6.982   5.251  14.342
  183DOPC  H12S22488   6.905   5.196  14.495
  183DOPC  C21322489   6.850   5.396  14.427
  183DOPC  H13R22490   6.741   5.407  14.448
  183DOPC  H13S22491   6.871   5.453  14.334
  183DOPC  C21422492   6.931   5.455  14.542
  183DOPC  H14R22493   6.936   5.565  14.526
  183DOPC  H14S22494   7.036   5.419  14.536
  183DOPC  C21522495   6.876   5.435  14.685
  183DOPC  H15R22496   6.886   5.537  14.729
  183DOPC  H15S22497   6.941   5.366  14.743
  183DOPC  C21622498   6.727   5.408  14.708
  183DOPC  H16R22499   6.696   5.311  14.664
  183DOPC  H16S22500   6.672   5.489  14.655
  183DOPC  C21722501   6.684   5.415  14.857
  183DOPC  H17R22502   6.573   5.415  14.863
  183DOPC  H17S22503   6.719   5.512  14.901
  183DOPC  C21822504   6.738   5.306  14.949
  183DOPC  H18R22505   6.849   5.308  14.946
  183DOPC  H18S22506   6.703   5.205  14.920
  183DOPC  H18T22507   6.705   5.326  15.054
  183DOPC   C3322508   6.950   5.518  13.782
  183DOPC   H3X22509   7.055   5.482  13.768
  183DOPC   H3Y22510   6.884   5.429  13.778
  183DOPC   C3422511   6.941   5.584  13.917
  183DOPC   H4X22512   6.841   5.559  13.959
  183DOPC   H4Y22513   6.949   5.695  13.908
  183DOPC   C3522514   7.051   5.531  14.006
  183DOPC   H5X22515   7.146   5.516  13.949
  183DOPC   H5Y22516   7.021   5.431  14.044
  183DOPC   C3622517   7.083   5.623  14.121
  183DOPC   H6X22518   7.139   5.712  14.087
  183DOPC   H6Y22519   6.990   5.657  14.172
  183DOPC   C3722520   7.165   5.540  14.217
  183DOPC   H7X22521   7.111   5.444  14.237
  183DOPC   H7Y22522   7.262   5.515  14.167
  183DOPC   C3822523   7.187   5.613  14.347
  183DOPC   H8X22524   7.090   5.635  14.397
  183DOPC   H8Y22525   7.240   5.708  14.323
  183DOPC   C3922526   7.275   5.523  14.427
  183DOPC   H9X22527   7.260   5.416  14.407
  183DOPC  C31022528   7.340   5.560  14.537
  183DOPC  H10X22529   7.409   5.489  14.584
  183DOPC  C31122530   7.333   5.696  14.597
  183DOPC  H11X22531   7.226   5.713  14.618
  183DOPC  H11Y22532   7.368   5.771  14.523
  183DOPC  C31222533   7.407   5.720  14.731
  183DOPC  H12X22534   7.403   5.828  14.754
  183DOPC  H12Y22535   7.512   5.689  14.718
  183DOPC  C31322536   7.354   5.642  14.850
  183DOPC  H13X22537   7.244   5.634  14.844
  183DOPC  H13Y22538   7.394   5.540  14.834
  183DOPC  C31422539   7.400   5.682  14.993
  183DOPC  H14X22540   7.338   5.620  15.062
  183DOPC  H14Y22541   7.506   5.647  15.001
  183DOPC  C31522542   7.401   5.826  15.050
  183DOPC  H15X22543   7.491   5.876  15.011
  183DOPC  H15Y22544   7.415   5.818  15.160
  183DOPC  C31622545   7.284   5.923  15.025
  183DOPC  H16X22546   7.316   6.023  15.062
  183DOPC  H16Y22547   7.268   5.931  14.917
  183DOPC  C31722548   7.155   5.888  15.101
  183DOPC  H17X22549   7.152   5.779  15.113
  183DOPC  H17Y22550   7.167   5.930  15.203
  183DOPC  C31822551   7.022   5.941  15.045
  183DOPC  H18X22552   6.934   5.889  15.086
  183DOPC  H18Y22553   7.005   6.046  15.072
  183DOPC  H18Z22554   7.014   5.929  14.936
  184DOPC     N22555   4.615   0.462  13.174
  184DOPC   C1222556   4.594   0.540  13.045
  184DOPC  H12A22557   4.494   0.577  13.043
  184DOPC  H12B22558   4.607   0.474  12.959
  184DOPC   C1322559   4.746   0.390  13.167
  184DOPC  H13A22560   4.751   0.325  13.080
  184DOPC  H13B22561   4.827   0.461  13.150
  184DOPC  H13C22562   4.774   0.336  13.256
  184DOPC   C1422563   4.506   0.362  13.196
  184DOPC  H14A22564   4.410   0.410  13.203
  184DOPC  H14B22565   4.504   0.288  13.116
  184DOPC  H14C22566   4.523   0.310  13.290
  184DOPC   C1522567   4.618   0.555  13.292
  184DOPC  H15A22568   4.536   0.625  13.290
  184DOPC  H15B22569   4.711   0.613  13.291
  184DOPC  H15C22570   4.615   0.501  13.386
  184DOPC   C1122571   4.690   0.657  13.017
  184DOPC  H11A22572   4.647   0.727  12.942
  184DOPC  H11B22573   4.709   0.717  13.109
  184DOPC     P22574   4.954   0.629  13.011
  184DOPC   O1322575   5.043   0.653  12.895
  184DOPC   O1422576   4.994   0.520  13.103
  184DOPC   O1222577   4.807   0.599  12.962
  184DOPC   O1122578   4.933   0.763  13.090
  184DOPC    C122579   5.030   0.822  13.176
  184DOPC    HA22580   5.040   0.930  13.152
  184DOPC    HB22581   5.132   0.778  13.162
  184DOPC    C222582   4.990   0.809  13.326
  184DOPC    HS22583   5.079   0.837  13.387
  184DOPC   O2122584   4.940   0.678  13.355
  184DOPC   C2122585   5.030   0.594  13.403
  184DOPC   O2222586   5.147   0.620  13.424
  184DOPC   C2222587   4.963   0.463  13.442
  184DOPC   H2R22588   5.012   0.385  13.380
  184DOPC   H2S22589   4.856   0.467  13.416
  184DOPC    C322590   4.878   0.907  13.367
  184DOPC    HX22591   4.789   0.884  13.305
  184DOPC    HY22592   4.909   1.011  13.342
  184DOPC   O3122593   4.845   0.888  13.508
  184DOPC   C3122594   4.906   0.972  13.592
  184DOPC   O3222595   4.972   1.068  13.559
  184DOPC   C3222596   4.883   0.929  13.737
  184DOPC   H2X22597   4.783   0.885  13.746
  184DOPC   H2Y22598   4.959   0.853  13.762
  184DOPC   C2322599   4.981   0.431  13.592
  184DOPC   H3R22600   5.089   0.435  13.618
  184DOPC   H3S22601   4.946   0.327  13.610
  184DOPC   C2422602   4.902   0.525  13.685
  184DOPC   H4R22603   4.793   0.512  13.664
  184DOPC   H4S22604   4.928   0.631  13.663
  184DOPC   C2522605   4.929   0.496  13.834
  184DOPC   H5R22606   4.948   0.387  13.846
  184DOPC   H5S22607   4.838   0.520  13.894
  184DOPC   C2622608   5.047   0.577  13.889
  184DOPC   H6R22609   5.015   0.683  13.902
  184DOPC   H6S22610   5.129   0.576  13.813
  184DOPC   C2722611   5.104   0.522  14.021
  184DOPC   H7R22612   5.200   0.575  14.042
  184DOPC   H7S22613   5.128   0.414  14.007
  184DOPC   C2822614   5.011   0.536  14.143
  184DOPC   H8R22615   5.057   0.485  14.230
  184DOPC   H8S22616   4.916   0.482  14.122
  184DOPC   C2922617   4.989   0.681  14.177
  184DOPC   H9R22618   5.081   0.740  14.194
  184DOPC  C21022619   4.870   0.743  14.185
  184DOPC  H10R22620   4.868   0.850  14.212
  184DOPC  C21122621   4.735   0.681  14.162
  184DOPC  H11R22622   4.739   0.586  14.105
  184DOPC  H11S22623   4.671   0.751  14.103
  184DOPC  C21222624   4.665   0.655  14.297
  184DOPC  H12R22625   4.724   0.585  14.360
  184DOPC  H12S22626   4.566   0.607  14.278
  184DOPC  C21322627   4.643   0.788  14.369
  184DOPC  H13R22628   4.592   0.854  14.296
  184DOPC  H13S22629   4.741   0.834  14.397
  184DOPC  C21422630   4.558   0.783  14.495
  184DOPC  H14R22631   4.466   0.725  14.476
  184DOPC  H14S22632   4.528   0.888  14.521
  184DOPC  C21522633   4.633   0.726  14.615
  184DOPC  H15R22634   4.720   0.789  14.638
  184DOPC  H15S22635   4.671   0.625  14.588
  184DOPC  C21622636   4.543   0.716  14.738
  184DOPC  H16R22637   4.457   0.649  14.714
  184DOPC  H16S22638   4.501   0.816  14.765
  184DOPC  C21722639   4.617   0.662  14.860
  184DOPC  H17R22640   4.680   0.742  14.902
  184DOPC  H17S22641   4.686   0.581  14.830
  184DOPC  C21822642   4.519   0.609  14.964
  184DOPC  H18R22643   4.459   0.525  14.923
  184DOPC  H18S22644   4.449   0.689  14.996
  184DOPC  H18T22645   4.575   0.574  15.053
  184DOPC   C3322646   4.897   1.051  13.832
  184DOPC   H3X22647   4.838   1.136  13.790
  184DOPC   H3Y22648   5.003   1.083  13.837
  184DOPC   C3422649   4.848   1.028  13.975
  184DOPC   H4X22650   4.928   0.976  14.033
  184DOPC   H4Y22651   4.757   0.964  13.976
  184DOPC   C3522652   4.817   1.163  14.040
  184DOPC   H5X22653   4.736   1.215  13.982
  184DOPC   H5Y22654   4.908   1.227  14.034
  184DOPC   C3622655   4.774   1.153  14.186
  184DOPC   H6X22656   4.835   1.076  14.239
  184DOPC   H6Y22657   4.797   1.251  14.233
  184DOPC   C3722658   4.624   1.124  14.203
  184DOPC   H7X22659   4.566   1.204  14.152
  184DOPC   H7Y22660   4.600   1.029  14.151
  184DOPC   C3822661   4.582   1.115  14.350
  184DOPC   H8X22662   4.635   1.031  14.396
  184DOPC   H8Y22663   4.473   1.091  14.355
  184DOPC   C3922664   4.614   1.238  14.430
  184DOPC   H9X22665   4.543   1.321  14.415
  184DOPC  C31022666   4.723   1.257  14.508
  184DOPC  H10X22667   4.733   1.357  14.554
  184DOPC  C31122668   4.839   1.163  14.538
  184DOPC  H11X22669   4.927   1.204  14.484
  184DOPC  H11Y22670   4.822   1.064  14.491
  184DOPC  C31222671   4.891   1.136  14.683
  184DOPC  H12X22672   4.849   1.208  14.756
  184DOPC  H12Y22673   5.001   1.154  14.685
  184DOPC  C31322674   4.864   0.992  14.729
  184DOPC  H13X22675   4.757   0.982  14.759
  184DOPC  H13Y22676   4.881   0.925  14.641
  184DOPC  C31422677   4.954   0.935  14.841
  184DOPC  H14X22678   4.920   0.830  14.857
  184DOPC  H14Y22679   5.060   0.932  14.810
  184DOPC  C31522680   4.941   1.011  14.973
  184DOPC  H15X22681   4.832   1.026  14.990
  184DOPC  H15Y22682   4.987   1.111  14.963
  184DOPC  C31622683   5.002   0.942  15.097
  184DOPC  H16X22684   5.111   0.963  15.102
  184DOPC  H16Y22685   4.955   0.989  15.187
  184DOPC  C31722686   4.983   0.790  15.109
  184DOPC  H17X22687   4.877   0.763  15.091
  184DOPC  H17Y22688   5.044   0.740  15.030
  184DOPC  C31822689   5.029   0.742  15.247
  184DOPC  H18X22690   5.140   0.730  15.246
  184DOPC  H18Y22691   5.003   0.818  15.324
  184DOPC  H18Z22692   4.984   0.645  15.276
  185DOPC     N22693   6.311   6.039  13.133
  185DOPC   C1222694   6.383   5.912  13.182
  185DOPC  H12A22695   6.325   5.864  13.260
  185DOPC  H12B22696   6.478   5.939  13.227
  185DOPC   C1322697   6.188   5.996  13.058
  185DOPC  H13A22698   6.218   5.930  12.976
  185DOPC  H13B22699   6.117   5.945  13.122
  185DOPC  H13C22700   6.139   6.082  13.013
  185DOPC   C1422701   6.406   6.104  13.037
  185DOPC  H14A22702   6.501   6.129  13.083
  185DOPC  H14B22703   6.434   6.031  12.960
  185DOPC  H14C22704   6.367   6.191  12.988
  185DOPC   C1522705   6.272   6.136  13.241
  185DOPC  H15A22706   6.358   6.175  13.295
  185DOPC  H15B22707   6.204   6.095  13.315
  185DOPC  H15C22708   6.221   6.223  13.198
  185DOPC   C1122709   6.416   5.803  13.074
  185DOPC  H11A22710   6.452   5.711  13.126
  185DOPC  H11B22711   6.322   5.774  13.024
  185DOPC     P22712   6.662   5.798  12.971
  185DOPC   O1322713   6.749   5.910  12.929
  185DOPC   O1422714   6.672   5.667  12.902
  185DOPC   O1222715   6.510   5.846  12.974
  185DOPC   O1122716   6.681   5.773  13.123
  185DOPC    C122717   6.809   5.730  13.165
  185DOPC    HA22718   6.891   5.803  13.141
  185DOPC    HB22719   6.838   5.637  13.114
  185DOPC    C222720   6.808   5.701  13.316
  185DOPC    HS22721   6.860   5.608  13.336
  185DOPC   O2122722   6.674   5.685  13.364
  185DOPC   C2122723   6.631   5.559  13.346
  185DOPC   O2222724   6.696   5.460  13.323
  185DOPC   C2222725   6.489   5.550  13.386
  185DOPC   H2R22726   6.452   5.447  13.366
  185DOPC   H2S22727   6.428   5.623  13.330
  185DOPC    C322728   6.884   5.818  13.385
  185DOPC    HX22729   6.986   5.821  13.342
  185DOPC    HY22730   6.900   5.801  13.493
  185DOPC   O3122731   6.823   5.944  13.356
  185DOPC   C3122732   6.736   5.978  13.446
  185DOPC   O3222733   6.713   5.920  13.551
  185DOPC   C3222734   6.667   6.106  13.405
  185DOPC   H2X22735   6.740   6.164  13.343
  185DOPC   H2Y22736   6.579   6.084  13.343
  185DOPC   C2322737   6.500   5.577  13.534
  185DOPC   H3R22738   6.601   5.567  13.580
  185DOPC   H3S22739   6.442   5.501  13.588
  185DOPC   C2422740   6.452   5.717  13.564
  185DOPC   H4R22741   6.357   5.741  13.511
  185DOPC   H4S22742   6.527   5.792  13.531
  185DOPC   C2522743   6.433   5.719  13.712
  185DOPC   H5R22744   6.512   5.662  13.765
  185DOPC   H5S22745   6.335   5.672  13.730
  185DOPC   C2622746   6.422   5.857  13.766
  185DOPC   H6R22747   6.367   5.921  13.694
  185DOPC   H6S22748   6.524   5.898  13.782
  185DOPC   C2722749   6.340   5.848  13.894
  185DOPC   H7R22750   6.242   5.801  13.871
  185DOPC   H7S22751   6.323   5.954  13.921
  185DOPC   C2822752   6.408   5.772  14.007
  185DOPC   H8R22753   6.439   5.670  13.974
  185DOPC   H8S22754   6.339   5.758  14.093
  185DOPC   C2922755   6.524   5.863  14.037
  185DOPC   H9R22756   6.502   5.970  14.022
  185DOPC  C21022757   6.644   5.829  14.081
  185DOPC  H10R22758   6.722   5.906  14.091
  185DOPC  C21122759   6.684   5.688  14.111
  185DOPC  H11R22760   6.795   5.681  14.117
  185DOPC  H11S22761   6.648   5.617  14.033
  185DOPC  C21222762   6.628   5.654  14.249
  185DOPC  H12R22763   6.632   5.544  14.267
  185DOPC  H12S22764   6.522   5.686  14.259
  185DOPC  C21322765   6.715   5.724  14.353
  185DOPC  H13R22766   6.746   5.825  14.316
  185DOPC  H13S22767   6.809   5.667  14.367
  185DOPC  C21422768   6.648   5.748  14.487
  185DOPC  H14R22769   6.611   5.653  14.531
  185DOPC  H14S22770   6.561   5.817  14.474
  185DOPC  C21522771   6.755   5.814  14.573
  185DOPC  H15R22772   6.792   5.899  14.511
  185DOPC  H15S22773   6.840   5.745  14.590
  185DOPC  C21622774   6.707   5.871  14.705
  185DOPC  H16R22775   6.613   5.928  14.688
  185DOPC  H16S22776   6.783   5.939  14.747
  185DOPC  C21722777   6.685   5.764  14.808
  185DOPC  H17R22778   6.719   5.800  14.908
  185DOPC  H17S22779   6.746   5.675  14.783
  185DOPC  C21822780   6.538   5.732  14.813
  185DOPC  H18R22781   6.498   5.708  14.713
  185DOPC  H18S22782   6.487   5.825  14.847
  185DOPC  H18T22783   6.516   5.649  14.883
  185DOPC   C3322784   6.633   6.185  13.533
  185DOPC   H3X22785   6.634   6.290  13.503
  185DOPC   H3Y22786   6.714   6.177  13.609
  185DOPC   C3422787   6.499   6.144  13.599
  185DOPC   H4X22788   6.522   6.052  13.655
  185DOPC   H4Y22789   6.421   6.122  13.523
  185DOPC   C3522790   6.446   6.247  13.700
  185DOPC   H5X22791   6.352   6.296  13.665
  185DOPC   H5Y22792   6.525   6.324  13.701
  185DOPC   C3622793   6.428   6.201  13.845
  185DOPC   H6X22794   6.334   6.144  13.851
  185DOPC   H6Y22795   6.510   6.131  13.869
  185DOPC   C3722796   6.416   6.321  13.942
  185DOPC   H7X22797   6.422   6.415  13.884
  185DOPC   H7Y22798   6.312   6.323  13.981
  185DOPC   C3822799   6.513   6.330  14.062
  185DOPC   H8X22800   6.447   6.348  14.150
  185DOPC   H8Y22801   6.573   6.422  14.060
  185DOPC   C3922802   6.608   6.216  14.081
  185DOPC   H9X22803   6.664   6.179  13.994
  185DOPC  C31022804   6.632   6.165  14.202
  185DOPC  H10X22805   6.694   6.076  14.216
  185DOPC  C31122806   6.565   6.223  14.322
  185DOPC  H11X22807   6.455   6.209  14.317
  185DOPC  H11Y22808   6.583   6.332  14.328
  185DOPC  C31222809   6.620   6.159  14.447
  185DOPC  H12X22810   6.610   6.048  14.444
  185DOPC  H12Y22811   6.555   6.192  14.532
  185DOPC  C31322812   6.765   6.201  14.475
  185DOPC  H13X22813   6.833   6.151  14.402
  185DOPC  H13Y22814   6.779   6.311  14.465
  185DOPC  C31422815   6.795   6.157  14.617
  185DOPC  H14X22816   6.700   6.119  14.656
  185DOPC  H14Y22817   6.858   6.069  14.612
  185DOPC  C31522818   6.853   6.252  14.721
  185DOPC  H15X22819   6.821   6.356  14.700
  185DOPC  H15Y22820   6.964   6.251  14.712
  185DOPC  C31622821   6.817   6.206  14.866
  185DOPC  H16X22822   6.876   6.114  14.883
  185DOPC  H16Y22823   6.852   6.283  14.938
  185DOPC  C31722824   6.673   6.170  14.905
  185DOPC  H17X22825   6.615   6.263  14.919
  185DOPC  H17Y22826   6.618   6.112  14.828
  185DOPC  C31822827   6.670   6.086  15.033
  185DOPC  H18X22828   6.717   5.987  15.015
  185DOPC  H18Y22829   6.728   6.136  15.114
  185DOPC  H18Z22830   6.566   6.069  15.068
  186DOPC     N22831   0.497   2.974  12.931
  186DOPC   C1222832   0.435   3.105  12.889
  186DOPC  H12A22833   0.347   3.081  12.829
  186DOPC  H12B22834   0.506   3.159  12.826
  186DOPC   C1322835   0.390   2.891  12.992
  186DOPC  H13A22836   0.431   2.797  13.027
  186DOPC  H13B22837   0.345   2.944  13.076
  186DOPC  H13C22838   0.311   2.868  12.921
  186DOPC   C1422839   0.607   2.999  13.031
  186DOPC  H14A22840   0.683   3.066  12.989
  186DOPC  H14B22841   0.567   3.044  13.121
  186DOPC  H14C22842   0.660   2.908  13.057
  186DOPC   C1522843   0.551   2.899  12.814
  186DOPC  H15A22844   0.601   2.807  12.846
  186DOPC  H15B22845   0.622   2.959  12.759
  186DOPC  H15C22846   0.472   2.864  12.749
  186DOPC   C1122847   0.387   3.201  13.001
  186DOPC  H11A22848   0.470   3.215  13.075
  186DOPC  H11B22849   0.368   3.300  12.956
  186DOPC     P22850   0.229   3.199  13.213
  186DOPC   O1322851   0.162   3.331  13.196
  186DOPC   O1422852   0.350   3.201  13.295
  186DOPC   O1222853   0.267   3.152  13.063
  186DOPC   O1122854   0.128   3.091  13.265
  186DOPC    C122855   0.011   3.041  13.200
  186DOPC    HA22856   0.037   2.995  13.102
  186DOPC    HB22857  -0.060   3.125  13.180
  186DOPC    C222858  -0.073   2.939  13.287
  186DOPC    HS22859  -0.179   2.944  13.251
  186DOPC   O2122860  -0.057   2.979  13.427
  186DOPC   C2122861  -0.164   3.034  13.486
  186DOPC   O2222862  -0.277   3.027  13.441
  186DOPC   C2222863  -0.129   3.103  13.622
  186DOPC   H2R22864  -0.183   3.048  13.702
  186DOPC   H2S22865  -0.171   3.205  13.620
  186DOPC    C322866  -0.033   2.785  13.262
  186DOPC    HX22867  -0.018   2.777  13.152
  186DOPC    HY22868  -0.123   2.722  13.281
  186DOPC   O3122869   0.086   2.727  13.319
  186DOPC   C3122870   0.076   2.608  13.382
  186DOPC   O3222871  -0.027   2.556  13.420
  186DOPC   C3222872   0.215   2.538  13.394
  186DOPC   H2X22873   0.192   2.441  13.350
  186DOPC   H2Y22874   0.269   2.584  13.312
  186DOPC   C2322875   0.022   3.114  13.658
  186DOPC   H3R22876   0.069   3.198  13.603
  186DOPC   H3S22877   0.071   3.029  13.612
  186DOPC   C2422878   0.069   3.114  13.806
  186DOPC   H4R22879   0.041   3.023  13.861
  186DOPC   H4S22880   0.020   3.192  13.865
  186DOPC   C2522881   0.223   3.119  13.811
  186DOPC   H5R22882   0.260   3.222  13.788
  186DOPC   H5S22883   0.264   3.056  13.730
  186DOPC   C2622884   0.283   3.067  13.943
  186DOPC   H6R22885   0.388   3.037  13.926
  186DOPC   H6S22886   0.228   2.977  13.977
  186DOPC   C2722887   0.278   3.180  14.047
  186DOPC   H7R22888   0.172   3.200  14.071
  186DOPC   H7S22889   0.322   3.268  13.995
  186DOPC   C2822890   0.361   3.161  14.175
  186DOPC   H8R22891   0.469   3.159  14.148
  186DOPC   H8S22892   0.337   3.061  14.218
  186DOPC   C2922893   0.330   3.275  14.270
  186DOPC   H9R22894   0.372   3.372  14.241
  186DOPC  C21022895   0.253   3.267  14.381
  186DOPC  H10R22896   0.233   3.357  14.441
  186DOPC  C21122897   0.187   3.139  14.426
  186DOPC  H11R22898   0.266   3.061  14.416
  186DOPC  H11S22899   0.104   3.113  14.356
  186DOPC  C21222900   0.136   3.117  14.570
  186DOPC  H12R22901   0.221   3.135  14.641
  186DOPC  H12S22902   0.110   3.009  14.580
  186DOPC  C21322903   0.013   3.198  14.614
  186DOPC  H13R22904  -0.010   3.271  14.532
  186DOPC  H13S22905   0.041   3.258  14.703
  186DOPC  C21422906  -0.118   3.121  14.645
  186DOPC  H14R22907  -0.157   3.076  14.551
  186DOPC  H14S22908  -0.192   3.198  14.677
  186DOPC  C21522909  -0.121   3.010  14.754
  186DOPC  H15R22910  -0.119   2.912  14.702
  186DOPC  H15S22911  -0.220   3.014  14.804
  186DOPC  C21622912  -0.015   3.014  14.864
  186DOPC  H16R22913   0.084   3.036  14.820
  186DOPC  H16S22914  -0.009   2.915  14.914
  186DOPC  C21722915  -0.045   3.119  14.971
  186DOPC  H17R22916  -0.149   3.103  15.008
  186DOPC  H17S22917  -0.041   3.219  14.922
  186DOPC  C21822918   0.051   3.117  15.091
  186DOPC  H18R22919   0.020   3.191  15.167
  186DOPC  H18S22920   0.154   3.141  15.059
  186DOPC  H18T22921   0.051   3.017  15.138
  186DOPC   C3322922   0.301   2.524  13.532
  186DOPC   H3X22923   0.220   2.519  13.606
  186DOPC   H3Y22924   0.316   2.624  13.486
  186DOPC   C3422925   0.426   2.598  13.605
  186DOPC   H4X22926   0.405   2.705  13.628
  186DOPC   H4Y22927   0.511   2.602  13.534
  186DOPC   C3522928   0.479   2.568  13.747
  186DOPC   H5X22929   0.573   2.629  13.755
  186DOPC   H5Y22930   0.510   2.464  13.765
  186DOPC   C3622931   0.397   2.627  13.862
  186DOPC   H6X22932   0.451   2.610  13.959
  186DOPC   H6Y22933   0.387   2.737  13.850
  186DOPC   C3722934   0.258   2.566  13.873
  186DOPC   H7X22935   0.197   2.595  13.785
  186DOPC   H7Y22936   0.267   2.455  13.875
  186DOPC   C3822937   0.188   2.618  13.997
  186DOPC   H8X22938   0.171   2.727  13.990
  186DOPC   H8Y22939   0.258   2.604  14.081
  186DOPC   C3922940   0.059   2.546  14.020
  186DOPC   H9X22941  -0.029   2.584  13.967
  186DOPC  C31022942   0.040   2.450  14.109
  186DOPC  H10X22943  -0.059   2.406  14.113
  186DOPC  C31122944   0.143   2.394  14.203
  186DOPC  H11X22945   0.241   2.435  14.180
  186DOPC  H11Y22946   0.159   2.286  14.180
  186DOPC  C31222947   0.106   2.406  14.353
  186DOPC  H12X22948   0.192   2.374  14.415
  186DOPC  H12Y22949   0.025   2.332  14.361
  186DOPC  C31322950   0.051   2.540  14.411
  186DOPC  H13X22951   0.122   2.607  14.359
  186DOPC  H13Y22952  -0.053   2.559  14.378
  186DOPC  C31422953   0.072   2.582  14.561
  186DOPC  H14X22954   0.003   2.537  14.634
  186DOPC  H14Y22955   0.162   2.523  14.568
  186DOPC  C31522956   0.104   2.734  14.600
  186DOPC  H15X22957   0.020   2.783  14.650
  186DOPC  H15Y22958   0.116   2.782  14.502
  186DOPC  C31622959   0.241   2.785  14.660
  186DOPC  H16X22960   0.306   2.698  14.668
  186DOPC  H16Y22961   0.287   2.858  14.589
  186DOPC  C31722962   0.268   2.838  14.801
  186DOPC  H17X22963   0.256   2.948  14.806
  186DOPC  H17Y22964   0.201   2.789  14.874
  186DOPC  C31822965   0.417   2.804  14.829
  186DOPC  H18X22966   0.426   2.697  14.854
  186DOPC  H18Y22967   0.478   2.822  14.737
  186DOPC  H18Z22968   0.463   2.863  14.910
  187DOPC     N22969   5.799   1.197  12.984
  187DOPC   C1222970   5.943   1.197  13.034
  187DOPC  H12A22971   5.989   1.295  13.033
  187DOPC  H12B22972   6.004   1.141  12.963
  187DOPC   C1322973   5.744   1.334  12.978
  187DOPC  H13A22974   5.816   1.396  12.925
  187DOPC  H13B22975   5.648   1.338  12.928
  187DOPC  H13C22976   5.734   1.376  13.078
  187DOPC   C1422977   5.713   1.103  13.065
  187DOPC  H14A22978   5.761   1.004  13.063
  187DOPC  H14B22979   5.708   1.127  13.170
  187DOPC  H14C22980   5.614   1.088  13.025
  187DOPC   C1522981   5.804   1.131  12.850
  187DOPC  H15A22982   5.856   1.189  12.776
  187DOPC  H15B22983   5.706   1.100  12.814
  187DOPC  H15C22984   5.857   1.036  12.865
  187DOPC   C1122985   5.970   1.122  13.162
  187DOPC  H11A22986   6.069   1.154  13.205
  187DOPC  H11B22987   5.895   1.138  13.242
  187DOPC     P22988   6.101   0.905  13.117
  187DOPC   O1322989   6.207   0.989  13.056
  187DOPC   O1422990   6.068   0.774  13.057
  187DOPC   O1222991   5.969   0.988  13.116
  187DOPC   O1122992   6.107   0.903  13.275
  187DOPC    C122993   6.000   0.830  13.339
  187DOPC    HA22994   6.003   0.723  13.306
  187DOPC    HB22995   5.900   0.871  13.313
  187DOPC    C222996   6.019   0.829  13.493
  187DOPC    HS22997   5.939   0.765  13.538
  187DOPC   O2122998   6.018   0.961  13.553
  187DOPC   C2122999   5.897   1.011  13.558
  187DOPC   O2223000   5.796   0.959  13.516
  187DOPC   C2223001   5.898   1.143  13.637
  187DOPC   H2R23002   5.902   1.225  13.562
  187DOPC   H2S23003   5.988   1.148  13.701
  187DOPC    C323004   6.153   0.760  13.523
  187DOPC    HX23005   6.224   0.797  13.446
  187DOPC    HY23006   6.140   0.651  13.505
  187DOPC   O3123007   6.196   0.786  13.659
  187DOPC   C3123008   6.313   0.848  13.668
  187DOPC   O3223009   6.391   0.867  13.577
  187DOPC   C3223010   6.336   0.895  13.809
  187DOPC   H2X23011   6.362   1.003  13.804
  187DOPC   H2Y23012   6.243   0.884  13.869
  187DOPC   C2323013   5.769   1.160  13.722
  187DOPC   H3R23014   5.680   1.135  13.659
  187DOPC   H3S23015   5.757   1.266  13.752
  187DOPC   C2423016   5.765   1.072  13.848
  187DOPC   H4R23017   5.799   0.969  13.823
  187DOPC   H4S23018   5.658   1.064  13.880
  187DOPC   C2523019   5.845   1.126  13.967
  187DOPC   H5R23020   5.816   1.233  13.981
  187DOPC   H5S23021   5.953   1.124  13.943
  187DOPC   C2623022   5.817   1.054  14.101
  187DOPC   H6R23023   5.707   1.058  14.120
  187DOPC   H6S23024   5.862   1.111  14.183
  187DOPC   C2723025   5.861   0.906  14.111
  187DOPC   H7R23026   5.899   0.874  14.012
  187DOPC   H7S23027   5.770   0.846  14.133
  187DOPC   C2823028   5.968   0.867  14.218
  187DOPC   H8R23029   6.063   0.914  14.184
  187DOPC   H8S23030   5.984   0.757  14.207
  187DOPC   C2923031   5.949   0.903  14.364
  187DOPC   H9R23032   5.935   1.010  14.380
  187DOPC  C21023033   5.945   0.826  14.475
  187DOPC  H10R23034   5.929   0.879  14.571
  187DOPC  C21123035   5.958   0.677  14.496
  187DOPC  H11R23036   5.959   0.621  14.400
  187DOPC  H11S23037   5.867   0.643  14.551
  187DOPC  C21223038   6.072   0.627  14.586
  187DOPC  H12R23039   6.166   0.616  14.529
  187DOPC  H12S23040   6.046   0.525  14.622
  187DOPC  C21323041   6.102   0.714  14.708
  187DOPC  H13R23042   6.009   0.734  14.766
  187DOPC  H13S23043   6.139   0.813  14.674
  187DOPC  C21423044   6.208   0.642  14.792
  187DOPC  H14R23045   6.285   0.605  14.719
  187DOPC  H14S23046   6.164   0.554  14.843
  187DOPC  C21523047   6.283   0.730  14.891
  187DOPC  H15R23048   6.340   0.669  14.964
  187DOPC  H15S23049   6.212   0.790  14.949
  187DOPC  C21623050   6.378   0.821  14.815
  187DOPC  H16R23051   6.320   0.876  14.738
  187DOPC  H16S23052   6.453   0.756  14.766
  187DOPC  C21723053   6.449   0.923  14.901
  187DOPC  H17R23054   6.550   0.886  14.929
  187DOPC  H17S23055   6.388   0.923  14.993
  187DOPC  C21823056   6.454   1.067  14.847
  187DOPC  H18R23057   6.439   1.139  14.929
  187DOPC  H18S23058   6.376   1.084  14.770
  187DOPC  H18T23059   6.553   1.088  14.801
  187DOPC   C3323060   6.451   0.813  13.868
  187DOPC   H3X23061   6.546   0.825  13.816
  187DOPC   H3Y23062   6.428   0.706  13.853
  187DOPC   C3423063   6.474   0.836  14.015
  187DOPC   H4X23064   6.552   0.768  14.056
  187DOPC   H4Y23065   6.378   0.811  14.064
  187DOPC   C3523066   6.506   0.976  14.058
  187DOPC   H5X23067   6.485   1.052  13.980
  187DOPC   H5Y23068   6.613   0.982  14.087
  187DOPC   C3623069   6.428   1.002  14.184
  187DOPC   H6X23070   6.326   0.959  14.181
  187DOPC   H6Y23071   6.483   0.951  14.265
  187DOPC   C3723072   6.413   1.149  14.208
  187DOPC   H7X23073   6.406   1.161  14.317
  187DOPC   H7Y23074   6.507   1.199  14.177
  187DOPC   C3823075   6.293   1.198  14.124
  187DOPC   H8X23076   6.304   1.149  14.025
  187DOPC   H8Y23077   6.306   1.305  14.100
  187DOPC   C3923078   6.151   1.177  14.171
  187DOPC   H9X23079   6.086   1.140  14.091
  187DOPC  C31023080   6.095   1.194  14.293
  187DOPC  H10X23081   5.986   1.188  14.303
  187DOPC  C31123082   6.159   1.240  14.420
  187DOPC  H11X23083   6.121   1.341  14.446
  187DOPC  H11Y23084   6.264   1.252  14.394
  187DOPC  C31223085   6.168   1.156  14.549
  187DOPC  H12X23086   6.257   1.193  14.606
  187DOPC  H12Y23087   6.188   1.048  14.530
  187DOPC  C31323088   6.050   1.177  14.642
  187DOPC  H13X23089   5.999   1.273  14.617
  187DOPC  H13Y23090   5.976   1.095  14.627
  187DOPC  C31423091   6.093   1.180  14.789
  187DOPC  H14X23092   6.003   1.146  14.842
  187DOPC  H14Y23093   6.169   1.102  14.808
  187DOPC  C31523094   6.142   1.313  14.848
  187DOPC  H15X23095   6.069   1.395  14.827
  187DOPC  H15Y23096   6.237   1.341  14.800
  187DOPC  C31623097   6.167   1.298  15.000
  187DOPC  H16X23098   6.103   1.216  15.034
  187DOPC  H16Y23099   6.271   1.265  15.019
  187DOPC  C31723100   6.128   1.412  15.093
  187DOPC  H17X23101   6.125   1.371  15.197
  187DOPC  H17Y23102   6.207   1.489  15.092
  187DOPC  C31823103   5.991   1.472  15.062
  187DOPC  H18X23104   5.944   1.513  15.154
  187DOPC  H18Y23105   5.999   1.553  14.986
  187DOPC  H18Z23106   5.925   1.395  15.020
  188DOPC     N23107   1.416   0.748  12.885
  188DOPC   C1223108   1.401   0.671  13.015
  188DOPC  H12A23109   1.454   0.578  13.013
  188DOPC  H12B23110   1.295   0.652  13.029
  188DOPC   C1323111   1.544   0.827  12.891
  188DOPC  H13A23112   1.631   0.766  12.881
  188DOPC  H13B23113   1.547   0.904  12.816
  188DOPC  H13C23114   1.551   0.880  12.988
  188DOPC   C1423115   1.304   0.849  12.879
  188DOPC  H14A23116   1.207   0.803  12.871
  188DOPC  H14B23117   1.305   0.908  12.972
  188DOPC  H14C23118   1.317   0.917  12.796
  188DOPC   C1523119   1.409   0.666  12.761
  188DOPC  H15A23120   1.500   0.609  12.747
  188DOPC  H15B23121   1.401   0.731  12.673
  188DOPC  H15C23122   1.323   0.600  12.758
  188DOPC   C1123123   1.445   0.746  13.143
  188DOPC  H11A23124   1.409   0.689  13.231
  188DOPC  H11B23125   1.557   0.750  13.150
  188DOPC     P23126   1.446   0.993  13.227
  188DOPC   O1323127   1.371   1.113  13.184
  188DOPC   O1423128   1.592   0.993  13.205
  188DOPC   O1223129   1.388   0.875  13.143
  188DOPC   O1123130   1.407   0.944  13.374
  188DOPC    C123131   1.268   0.918  13.405
  188DOPC    HA23132   1.236   0.822  13.361
  188DOPC    HB23133   1.202   0.997  13.362
  188DOPC    C223134   1.234   0.915  13.560
  188DOPC    HS23135   1.123   0.924  13.566
  188DOPC   O2123136   1.293   1.017  13.643
  188DOPC   C2123137   1.344   1.128  13.598
  188DOPC   O2223138   1.339   1.175  13.487
  188DOPC   C2223139   1.409   1.203  13.712
  188DOPC   H2R23140   1.409   1.310  13.684
  188DOPC   H2S23141   1.515   1.169  13.713
  188DOPC    C323142   1.269   0.782  13.634
  188DOPC    HX23143   1.224   0.693  13.585
  188DOPC    HY23144   1.222   0.788  13.735
  188DOPC   O3123145   1.412   0.771  13.656
  188DOPC   C3123146   1.472   0.733  13.544
  188DOPC   O3223147   1.415   0.666  13.458
  188DOPC   C3223148   1.613   0.790  13.541
  188DOPC   H2X23149   1.660   0.739  13.455
  188DOPC   H2Y23150   1.607   0.898  13.515
  188DOPC   C2323151   1.343   1.180  13.850
  188DOPC   H3R23152   1.250   1.121  13.847
  188DOPC   H3S23153   1.321   1.280  13.894
  188DOPC   C2423154   1.449   1.118  13.939
  188DOPC   H4R23155   1.517   1.200  13.938
  188DOPC   H4S23156   1.500   1.033  13.890
  188DOPC   C2523157   1.428   1.101  14.088
  188DOPC   H5R23158   1.376   1.191  14.127
  188DOPC   H5S23159   1.526   1.092  14.139
  188DOPC   C2623160   1.355   0.974  14.118
  188DOPC   H6R23161   1.255   1.000  14.078
  188DOPC   H6S23162   1.349   0.957  14.227
  188DOPC   C2723163   1.418   0.854  14.046
  188DOPC   H7R23164   1.527   0.872  14.061
  188DOPC   H7S23165   1.400   0.856  13.936
  188DOPC   C2823166   1.380   0.715  14.099
  188DOPC   H8R23167   1.332   0.653  14.019
  188DOPC   H8S23168   1.306   0.725  14.181
  188DOPC   C2923169   1.503   0.650  14.154
  188DOPC   H9R23170   1.562   0.585  14.087
  188DOPC  C21023171   1.549   0.679  14.276
  188DOPC  H10R23172   1.647   0.635  14.303
  188DOPC  C21123173   1.492   0.776  14.379
  188DOPC  H11R23174   1.495   0.878  14.337
  188DOPC  H11S23175   1.564   0.778  14.464
  188DOPC  C21223176   1.356   0.752  14.451
  188DOPC  H12R23177   1.308   0.660  14.414
  188DOPC  H12S23178   1.295   0.839  14.419
  188DOPC  C21323179   1.357   0.748  14.608
  188DOPC  H13R23180   1.280   0.820  14.643
  188DOPC  H13S23181   1.454   0.788  14.643
  188DOPC  C21423182   1.330   0.612  14.682
  188DOPC  H14R23183   1.425   0.559  14.695
  188DOPC  H14S23184   1.262   0.547  14.624
  188DOPC  C21523185   1.274   0.626  14.826
  188DOPC  H15R23186   1.175   0.669  14.819
  188DOPC  H15S23187   1.325   0.712  14.873
  188DOPC  C21623188   1.249   0.501  14.920
  188DOPC  H16R23189   1.186   0.432  14.862
  188DOPC  H16S23190   1.185   0.544  14.999
  188DOPC  C21723191   1.353   0.412  14.997
  188DOPC  H17R23192   1.428   0.468  15.049
  188DOPC  H17S23193   1.412   0.342  14.936
  188DOPC  C21823194   1.308   0.338  15.122
  188DOPC  H18R23195   1.379   0.260  15.145
  188DOPC  H18S23196   1.207   0.293  15.118
  188DOPC  H18T23197   1.327   0.401  15.210
  188DOPC   C3323198   1.696   0.770  13.672
  188DOPC   H3X23199   1.801   0.747  13.644
  188DOPC   H3Y23200   1.660   0.683  13.729
  188DOPC   C3423201   1.702   0.890  13.769
  188DOPC   H4X23202   1.615   0.883  13.837
  188DOPC   H4Y23203   1.690   0.984  13.709
  188DOPC   C3523204   1.831   0.903  13.851
  188DOPC   H5X23205   1.857   1.012  13.853
  188DOPC   H5Y23206   1.918   0.853  13.803
  188DOPC   C3623207   1.822   0.860  13.999
  188DOPC   H6X23208   1.720   0.878  14.038
  188DOPC   H6Y23209   1.844   0.751  14.008
  188DOPC   C3723210   1.917   0.945  14.083
  188DOPC   H7X23211   2.008   0.955  14.021
  188DOPC   H7Y23212   1.874   1.047  14.095
  188DOPC   C3823213   1.955   0.897  14.224
  188DOPC   H8X23214   2.021   0.976  14.268
  188DOPC   H8Y23215   2.017   0.805  14.217
  188DOPC   C3923216   1.837   0.874  14.313
  188DOPC   H9X23217   1.802   0.770  14.312
  188DOPC  C31023218   1.767   0.963  14.386
  188DOPC  H10X23219   1.683   0.926  14.442
  188DOPC  C31123220   1.784   1.112  14.403
  188DOPC  H11X23221   1.692   1.161  14.363
  188DOPC  H11Y23222   1.870   1.145  14.341
  188DOPC  C31223223   1.797   1.176  14.543
  188DOPC  H12X23224   1.841   1.278  14.533
  188DOPC  H12Y23225   1.864   1.113  14.606
  188DOPC  C31323226   1.668   1.199  14.620
  188DOPC  H13X23227   1.693   1.239  14.721
  188DOPC  H13Y23228   1.608   1.277  14.568
  188DOPC  C31423229   1.596   1.066  14.633
  188DOPC  H14X23230   1.531   1.050  14.545
  188DOPC  H14Y23231   1.673   0.986  14.632
  188DOPC  C31523232   1.527   1.045  14.766
  188DOPC  H15X23233   1.441   0.976  14.753
  188DOPC  H15Y23234   1.488   1.142  14.804
  188DOPC  C31623235   1.626   0.985  14.867
  188DOPC  H16X23236   1.649   0.881  14.834
  188DOPC  H16Y23237   1.720   1.043  14.858
  188DOPC  C31723238   1.563   0.993  15.007
  188DOPC  H17X23239   1.552   1.102  15.026
  188DOPC  H17Y23240   1.461   0.950  14.996
  188DOPC  C31823241   1.622   0.934  15.137
  188DOPC  H18X23242   1.580   0.985  15.227
  188DOPC  H18Y23243   1.601   0.829  15.158
  188DOPC  H18Z23244   1.731   0.939  15.137
  189DOPC     N23245   3.686   0.240  13.007
  189DOPC   C1223246   3.631   0.118  13.081
  189DOPC  H12A23247   3.712   0.047  13.094
  189DOPC  H12B23248   3.559   0.068  13.015
  189DOPC   C1323249   3.813   0.203  12.937
  189DOPC  H13A23250   3.807   0.109  12.883
  189DOPC  H13B23251   3.843   0.280  12.866
  189DOPC  H13C23252   3.894   0.193  13.008
  189DOPC   C1423253   3.713   0.357  13.096
  189DOPC  H14A23254   3.624   0.380  13.154
  189DOPC  H14B23255   3.798   0.339  13.159
  189DOPC  H14C23256   3.736   0.444  13.034
  189DOPC   C1523257   3.585   0.281  12.906
  189DOPC  H15A23258   3.573   0.200  12.835
  189DOPC  H15B23259   3.611   0.373  12.856
  189DOPC  H15C23260   3.488   0.293  12.954
  189DOPC   C1123261   3.556   0.142  13.214
  189DOPC  H11A23262   3.535   0.044  13.263
  189DOPC  H11B23263   3.622   0.198  13.284
  189DOPC     P23264   3.307   0.142  13.134
  189DOPC   O1323265   3.352   0.019  13.067
  189DOPC   O1423266   3.225   0.239  13.057
  189DOPC   O1223267   3.436   0.216  13.194
  189DOPC   O1123268   3.227   0.108  13.266
  189DOPC    C123269   3.164   0.220  13.330
  189DOPC    HA23270   3.061   0.233  13.291
  189DOPC    HB23271   3.217   0.317  13.310
  189DOPC    C223272   3.160   0.202  13.484
  189DOPC    HS23273   3.124   0.298  13.529
  189DOPC   O2123274   3.290   0.165  13.537
  189DOPC   C2123275   3.373   0.268  13.535
  189DOPC   O2223276   3.343   0.380  13.501
  189DOPC   C2223277   3.513   0.234  13.584
  189DOPC   H2R23278   3.570   0.196  13.497
  189DOPC   H2S23279   3.508   0.156  13.662
  189DOPC    C323280   3.055   0.096  13.525
  189DOPC    HX23281   3.074   0.002  13.470
  189DOPC    HY23282   2.953   0.131  13.497
  189DOPC   O3123283   3.072   0.073  13.666
  189DOPC   C3123284   2.981   0.117  13.749
  189DOPC   O3223285   2.872   0.164  13.719
  189DOPC   C3223286   3.029   0.090  13.891
  189DOPC   H2X23287   3.138   0.071  13.891
  189DOPC   H2Y23288   3.009   0.181  13.952
  189DOPC   C2323289   3.580   0.362  13.638
  189DOPC   H3R23290   3.561   0.448  13.570
  189DOPC   H3S23291   3.691   0.350  13.642
  189DOPC   C2423292   3.530   0.397  13.778
  189DOPC   H4R23293   3.419   0.384  13.787
  189DOPC   H4S23294   3.550   0.504  13.797
  189DOPC   C2523295   3.603   0.323  13.890
  189DOPC   H5R23296   3.706   0.300  13.857
  189DOPC   H5S23297   3.552   0.227  13.913
  189DOPC   C2623298   3.613   0.412  14.014
  189DOPC   H6R23299   3.676   0.501  13.989
  189DOPC   H6S23300   3.666   0.359  14.095
  189DOPC   C2723301   3.476   0.463  14.062
  189DOPC   H7R23302   3.420   0.509  13.978
  189DOPC   H7S23303   3.493   0.544  14.137
  189DOPC   C2823304   3.383   0.357  14.122
  189DOPC   H8R23305   3.350   0.286  14.043
  189DOPC   H8S23306   3.292   0.409  14.159
  189DOPC   C2923307   3.456   0.285  14.233
  189DOPC   H9R23308   3.514   0.197  14.201
  189DOPC  C21023309   3.456   0.321  14.363
  189DOPC  H10R23310   3.513   0.260  14.434
  189DOPC  C21123311   3.384   0.439  14.422
  189DOPC  H11R23312   3.382   0.526  14.351
  189DOPC  H11S23313   3.435   0.474  14.514
  189DOPC  C21223314   3.238   0.402  14.455
  189DOPC  H12R23315   3.184   0.376  14.362
  189DOPC  H12S23316   3.187   0.492  14.499
  189DOPC  C21323317   3.225   0.285  14.554
  189DOPC  H13R23318   3.274   0.313  14.650
  189DOPC  H13S23319   3.278   0.197  14.514
  189DOPC  C21423320   3.080   0.246  14.581
  189DOPC  H14R23321   3.031   0.218  14.484
  189DOPC  H14S23322   3.025   0.335  14.621
  189DOPC  C21523323   3.066   0.129  14.679
  189DOPC  H15R23324   2.957   0.119  14.701
  189DOPC  H15S23325   3.119   0.152  14.774
  189DOPC  C21623326   3.113  -0.005  14.621
  189DOPC  H16R23327   3.218   0.001  14.585
  189DOPC  H16S23328   3.048  -0.023  14.533
  189DOPC  C21723329   3.098  -0.126  14.714
  189DOPC  H17R23330   3.030  -0.097  14.797
  189DOPC  H17S23331   3.195  -0.151  14.762
  189DOPC  C21823332   3.039  -0.252  14.649
  189DOPC  H18R23333   3.119  -0.315  14.606
  189DOPC  H18S23334   2.965  -0.227  14.569
  189DOPC  H18T23335   2.987  -0.313  14.725
  189DOPC   C3323336   2.949  -0.030  13.945
  189DOPC   H3X23337   2.983  -0.124  13.895
  189DOPC   H3Y23338   2.843  -0.014  13.918
  189DOPC   C3423339   2.952  -0.048  14.097
  189DOPC   H4X23340   2.864  -0.109  14.126
  189DOPC   H4Y23341   2.945   0.050  14.148
  189DOPC   C3523342   3.077  -0.122  14.142
  189DOPC   H5X23343   3.166  -0.063  14.111
  189DOPC   H5Y23344   3.083  -0.222  14.092
  189DOPC   C3623345   3.080  -0.141  14.293
  189DOPC   H6X23346   3.089  -0.040  14.339
  189DOPC   H6Y23347   2.984  -0.186  14.326
  189DOPC   C3723348   3.196  -0.230  14.338
  189DOPC   H7X23349   3.199  -0.236  14.448
  189DOPC   H7Y23350   3.177  -0.332  14.298
  189DOPC   C3823351   3.336  -0.185  14.294
  189DOPC   H8X23352   3.332  -0.161  14.188
  189DOPC   H8Y23353   3.401  -0.275  14.305
  189DOPC   C3923354   3.399  -0.062  14.350
  189DOPC   H9X23355   3.338   0.030  14.344
  189DOPC  C31023356   3.518  -0.061  14.412
  189DOPC  H10X23357   3.552   0.033  14.459
  189DOPC  C31123358   3.606  -0.183  14.435
  189DOPC  H11X23359   3.707  -0.149  14.467
  189DOPC  H11Y23360   3.618  -0.246  14.345
  189DOPC  C31223361   3.546  -0.270  14.549
  189DOPC  H12X23362   3.620  -0.342  14.589
  189DOPC  H12Y23363   3.458  -0.328  14.516
  189DOPC  C31323364   3.503  -0.175  14.660
  189DOPC  H13X23365   3.584  -0.098  14.670
  189DOPC  H13Y23366   3.409  -0.125  14.626
  189DOPC  C31423367   3.474  -0.225  14.798
  189DOPC  H14X23368   3.385  -0.292  14.801
  189DOPC  H14Y23369   3.560  -0.277  14.846
  189DOPC  C31523370   3.448  -0.092  14.865
  189DOPC  H15X23371   3.380  -0.028  14.803
  189DOPC  H15Y23372   3.544  -0.037  14.872
  189DOPC  C31623373   3.385  -0.101  15.001
  189DOPC  H16X23374   3.278  -0.128  14.989
  189DOPC  H16Y23375   3.435  -0.180  15.061
  189DOPC  C31723376   3.400   0.036  15.066
  189DOPC  H17X23377   3.395   0.021  15.175
  189DOPC  H17Y23378   3.500   0.079  15.046
  189DOPC  C31823379   3.290   0.132  15.021
  189DOPC  H18X23380   3.192   0.079  15.018
  189DOPC  H18Y23381   3.281   0.217  15.092
  189DOPC  H18Z23382   3.311   0.171  14.920
  190DOPC     N23383   2.169   7.123  13.236
  190DOPC   C1223384   2.295   7.172  13.166
  190DOPC  H12A23385   2.381   7.128  13.215
  190DOPC  H12B23386   2.301   7.280  13.178
  190DOPC   C1323387   2.141   6.980  13.198
  190DOPC  H13A23388   2.043   6.946  13.231
  190DOPC  H13B23389   2.139   6.969  13.090
  190DOPC  H13C23390   2.215   6.911  13.235
  190DOPC   C1423391   2.056   7.207  13.187
  190DOPC  H14A23392   2.064   7.312  13.212
  190DOPC  H14B23393   2.053   7.201  13.078
  190DOPC  H14C23394   1.957   7.170  13.216
  190DOPC   C1523395   2.179   7.135  13.384
  190DOPC  H15A23396   2.260   7.074  13.422
  190DOPC  H15B23397   2.089   7.095  13.429
  190DOPC  H15C23398   2.191   7.238  13.416
  190DOPC   C1123399   2.307   7.145  13.013
  190DOPC  H11A23400   2.412   7.167  12.983
  190DOPC  H11B23401   2.295   7.036  12.993
  190DOPC     P23402   2.250   7.371  12.899
  190DOPC   O1323403   2.158   7.432  12.801
  190DOPC   O1423404   2.395   7.376  12.870
  190DOPC   O1223405   2.213   7.220  12.933
  190DOPC   O1123406   2.224   7.437  13.037
  190DOPC    C123407   2.190   7.575  13.040
  190DOPC    HA23408   2.098   7.598  12.981
  190DOPC    HB23409   2.277   7.636  13.005
  190DOPC    C223410   2.166   7.619  13.184
  190DOPC    HS23411   2.187   7.728  13.196
  190DOPC   O2123412   2.247   7.539  13.270
  190DOPC   C2123413   2.366   7.583  13.289
  190DOPC   O2223414   2.433   7.656  13.218
  190DOPC   C2223415   2.400   7.530  13.426
  190DOPC   H2R23416   2.363   7.426  13.437
  190DOPC   H2S23417   2.347   7.594  13.500
  190DOPC    C323418   2.020   7.597  13.227
  190DOPC    HX23419   1.986   7.500  13.184
  190DOPC    HY23420   1.955   7.676  13.185
  190DOPC   O3123421   2.003   7.588  13.367
  190DOPC   C3123422   2.073   7.658  13.454
  190DOPC   O3223423   2.160   7.742  13.437
  190DOPC   C3223424   2.036   7.593  13.585
  190DOPC   H2X23425   1.925   7.599  13.588
  190DOPC   H2Y23426   2.066   7.486  13.579
  190DOPC   C2323427   2.548   7.535  13.457
  190DOPC   H3R23428   2.593   7.634  13.439
  190DOPC   H3S23429   2.601   7.463  13.392
  190DOPC   C2423430   2.562   7.492  13.602
  190DOPC   H4R23431   2.662   7.450  13.615
  190DOPC   H4S23432   2.486   7.415  13.627
  190DOPC   C2523433   2.555   7.601  13.707
  190DOPC   H5R23434   2.451   7.637  13.720
  190DOPC   H5S23435   2.621   7.686  13.678
  190DOPC   C2623436   2.611   7.539  13.834
  190DOPC   H6R23437   2.720   7.522  13.819
  190DOPC   H6S23438   2.564   7.440  13.849
  190DOPC   C2723439   2.591   7.625  13.956
  190DOPC   H7R23440   2.646   7.718  13.931
  190DOPC   H7S23441   2.641   7.581  14.045
  190DOPC   C2823442   2.446   7.668  13.990
  190DOPC   H8R23443   2.421   7.750  13.921
  190DOPC   H8S23444   2.454   7.714  14.091
  190DOPC   C2923445   2.326   7.580  13.988
  190DOPC   H9R23446   2.293   7.549  13.888
  190DOPC  C21023447   2.271   7.522  14.097
  190DOPC  H10R23448   2.182   7.459  14.087
  190DOPC  C21123449   2.329   7.538  14.234
  190DOPC  H11R23450   2.439   7.549  14.218
  190DOPC  H11S23451   2.317   7.441  14.286
  190DOPC  C21223452   2.303   7.642  14.346
  190DOPC  H12R23453   2.291   7.746  14.313
  190DOPC  H12S23454   2.397   7.627  14.403
  190DOPC  C21323455   2.185   7.608  14.434
  190DOPC  H13R23456   2.201   7.500  14.449
  190DOPC  H13S23457   2.093   7.633  14.376
  190DOPC  C21423458   2.171   7.649  14.580
  190DOPC  H14R23459   2.207   7.747  14.612
  190DOPC  H14S23460   2.220   7.570  14.642
  190DOPC  C21523461   2.023   7.648  14.610
  190DOPC  H15R23462   1.969   7.582  14.538
  190DOPC  H15S23463   1.980   7.750  14.598
  190DOPC  C21623464   1.995   7.601  14.750
  190DOPC  H16R23465   2.041   7.670  14.819
  190DOPC  H16S23466   2.046   7.509  14.783
  190DOPC  C21723467   1.845   7.590  14.760
  190DOPC  H17R23468   1.803   7.585  14.656
  190DOPC  H17S23469   1.803   7.682  14.802
  190DOPC  C21823470   1.800   7.462  14.825
  190DOPC  H18R23471   1.870   7.424  14.901
  190DOPC  H18S23472   1.783   7.399  14.737
  190DOPC  H18T23473   1.700   7.456  14.869
  190DOPC   C3323474   2.099   7.654  13.711
  190DOPC   H3X23475   2.077   7.763  13.716
  190DOPC   H3Y23476   2.210   7.647  13.707
  190DOPC   C3423477   2.046   7.581  13.835
  190DOPC   H4X23478   2.056   7.649  13.923
  190DOPC   H4Y23479   2.108   7.491  13.853
  190DOPC   C3523480   1.901   7.528  13.824
  190DOPC   H5X23481   1.900   7.437  13.761
  190DOPC   H5Y23482   1.840   7.607  13.774
  190DOPC   C3623483   1.836   7.500  13.961
  190DOPC   H6X23484   1.913   7.529  14.035
  190DOPC   H6Y23485   1.752   7.573  13.970
  190DOPC   C3723486   1.794   7.355  13.999
  190DOPC   H7X23487   1.723   7.318  13.921
  190DOPC   H7Y23488   1.888   7.295  13.990
  190DOPC   C3823489   1.757   7.336  14.162
  190DOPC   H8X23490   1.682   7.402  14.120
  190DOPC   H8Y23491   1.826   7.415  14.187
  190DOPC   C3923492   1.693   7.319  14.303
  190DOPC   H9X23493   1.629   7.406  14.317
  190DOPC  C31023494   1.688   7.201  14.375
  190DOPC  H10X23495   1.629   7.192  14.470
  190DOPC  C31123496   1.749   7.057  14.332
  190DOPC  H11X23497   1.782   7.007  14.231
  190DOPC  H11Y23498   1.676   6.981  14.355
  190DOPC  C31223499   1.834   6.991  14.462
  190DOPC  H12X23500   1.786   6.905  14.514
  190DOPC  H12Y23501   1.818   7.059  14.547
  190DOPC  C31323502   1.990   6.940  14.466
  190DOPC  H13X23503   2.002   6.842  14.417
  190DOPC  H13Y23504   2.051   7.009  14.408
  190DOPC  C31423505   2.071   6.936  14.604
  190DOPC  H14X23506   2.015   7.011  14.656
  190DOPC  H14Y23507   2.060   6.840  14.659
  190DOPC  C31523508   2.217   6.998  14.627
  190DOPC  H15X23509   2.236   7.074  14.549
  190DOPC  H15Y23510   2.290   6.916  14.612
  190DOPC  C31623511   2.237   7.054  14.774
  190DOPC  H16X23512   2.143   7.098  14.802
  190DOPC  H16Y23513   2.246   6.970  14.843
  190DOPC  C31723514   2.327   7.172  14.826
  190DOPC  H17X23515   2.433   7.157  14.799
  190DOPC  H17Y23516   2.295   7.268  14.781
  190DOPC  C31823517   2.314   7.192  14.981
  190DOPC  H18X23518   2.323   7.095  15.035
  190DOPC  H18Y23519   2.395   7.258  15.021
  190DOPC  H18Z23520   2.217   7.237  15.009
  191DOPC     N23521   4.959   7.267  13.192
  191DOPC   C1223522   4.916   7.406  13.147
  191DOPC  H12A23523   4.967   7.478  13.212
  191DOPC  H12B23524   4.810   7.418  13.162
  191DOPC   C1323525   4.934   7.245  13.337
  191DOPC  H13A23526   4.827   7.240  13.356
  191DOPC  H13B23527   4.977   7.152  13.369
  191DOPC  H13C23528   4.975   7.326  13.397
  191DOPC   C1423529   5.103   7.257  13.160
  191DOPC  H14A23530   5.117   7.282  13.054
  191DOPC  H14B23531   5.163   7.330  13.214
  191DOPC  H14C23532   5.140   7.157  13.177
  191DOPC   C1523533   4.886   7.161  13.113
  191DOPC  H15A23534   4.781   7.154  13.139
  191DOPC  H15B23535   4.927   7.061  13.130
  191DOPC  H15C23536   4.893   7.181  13.007
  191DOPC   C1123537   4.949   7.448  12.999
  191DOPC  H11A23538   4.900   7.378  12.928
  191DOPC  H11B23539   4.901   7.547  12.981
  191DOPC     P23540   5.169   7.584  12.998
  191DOPC   O1323541   5.124   7.689  12.904
  191DOPC   O1423542   5.314   7.561  13.010
  191DOPC   O1223543   5.089   7.451  12.968
  191DOPC   O1123544   5.114   7.619  13.142
  191DOPC    C123545   5.172   7.728  13.215
  191DOPC    HA23546   5.159   7.824  13.160
  191DOPC    HB23547   5.280   7.712  13.232
  191DOPC    C223548   5.098   7.742  13.351
  191DOPC    HS23549   5.135   7.832  13.404
  191DOPC   O2123550   5.114   7.625  13.433
  191DOPC   C2123551   5.233   7.601  13.481
  191DOPC   O2223552   5.333   7.670  13.466
  191DOPC   C2223553   5.227   7.469  13.559
  191DOPC   H2R23554   5.283   7.394  13.500
  191DOPC   H2S23555   5.121   7.436  13.567
  191DOPC    C323556   4.946   7.762  13.324
  191DOPC    HX23557   4.909   7.686  13.252
  191DOPC    HY23558   4.933   7.860  13.274
  191DOPC   O3123559   4.871   7.762  13.447
  191DOPC   C3123560   4.831   7.642  13.490
  191DOPC   O3223561   4.838   7.538  13.426
  191DOPC   C3223562   4.776   7.660  13.632
  191DOPC   H2X23563   4.860   7.695  13.696
  191DOPC   H2Y23564   4.702   7.742  13.626
  191DOPC   C2323565   5.286   7.477  13.702
  191DOPC   H3R23566   5.382   7.533  13.703
  191DOPC   H3S23567   5.308   7.373  13.736
  191DOPC   C2423568   5.188   7.539  13.803
  191DOPC   H4R23569   5.093   7.481  13.798
  191DOPC   H4S23570   5.165   7.644  13.775
  191DOPC   C2523571   5.240   7.535  13.947
  191DOPC   H5R23572   5.336   7.592  13.953
  191DOPC   H5S23573   5.263   7.430  13.975
  191DOPC   C2623574   5.143   7.594  14.051
  191DOPC   H6R23575   5.131   7.703  14.034
  191DOPC   H6S23576   5.187   7.581  14.152
  191DOPC   C2723577   5.003   7.529  14.048
  191DOPC   H7R23578   5.016   7.418  14.051
  191DOPC   H7S23579   4.950   7.554  13.954
  191DOPC   C2823580   4.916   7.569  14.169
  191DOPC   H8R23581   4.971   7.539  14.261
  191DOPC   H8S23582   4.823   7.507  14.167
  191DOPC   C2923583   4.879   7.715  14.167
  191DOPC   H9R23584   4.849   7.755  14.069
  191DOPC  C21023585   4.883   7.799  14.272
  191DOPC  H10R23586   4.857   7.905  14.256
  191DOPC  C21123587   4.924   7.763  14.412
  191DOPC  H11R23588   4.926   7.653  14.428
  191DOPC  H11S23589   4.850   7.802  14.485
  191DOPC  C21223590   5.063   7.819  14.445
  191DOPC  H12R23591   5.059   7.930  14.451
  191DOPC  H12S23592   5.134   7.791  14.363
  191DOPC  C21323593   5.119   7.762  14.576
  191DOPC  H13R23594   5.228   7.784  14.583
  191DOPC  H13S23595   5.107   7.651  14.576
  191DOPC  C21423596   5.050   7.820  14.700
  191DOPC  H14R23597   4.940   7.804  14.690
  191DOPC  H14S23598   5.068   7.929  14.705
  191DOPC  C21523599   5.098   7.754  14.829
  191DOPC  H15R23600   5.209   7.763  14.837
  191DOPC  H15S23601   5.073   7.645  14.825
  191DOPC  C21623602   5.033   7.813  14.955
  191DOPC  H16R23603   5.061   7.920  14.966
  191DOPC  H16S23604   5.071   7.758  15.044
  191DOPC  C21723605   4.880   7.800  14.951
  191DOPC  H17R23606   4.855   7.696  14.920
  191DOPC  H17S23607   4.838   7.869  14.875
  191DOPC  C21823608   4.815   7.828  15.085
  191DOPC  H18R23609   4.866   7.775  15.168
  191DOPC  H18S23610   4.709   7.795  15.083
  191DOPC  H18T23611   4.818   7.937  15.106
  191DOPC   C3323612   4.711   7.536  13.698
  191DOPC   H3X23613   4.790   7.468  13.735
  191DOPC   H3Y23614   4.648   7.479  13.626
  191DOPC   C3423615   4.623   7.580  13.817
  191DOPC   H4X23616   4.523   7.613  13.782
  191DOPC   H4Y23617   4.674   7.667  13.866
  191DOPC   C3523618   4.603   7.475  13.926
  191DOPC   H5X23619   4.545   7.521  14.009
  191DOPC   H5Y23620   4.705   7.453  13.965
  191DOPC   C3623621   4.532   7.347  13.881
  191DOPC   H6X23622   4.430   7.373  13.844
  191DOPC   H6Y23623   4.588   7.302  13.796
  191DOPC   C3723624   4.521   7.243  13.993
  191DOPC   H7X23625   4.455   7.285  14.073
  191DOPC   H7Y23626   4.470   7.152  13.954
  191DOPC   C3823627   4.657   7.204  14.054
  191DOPC   H8X23628   4.713   7.296  14.082
  191DOPC   H8Y23629   4.719   7.154  13.976
  191DOPC   C3923630   4.647   7.119  14.177
  191DOPC   H9X23631   4.651   7.010  14.159
  191DOPC  C31023632   4.632   7.167  14.302
  191DOPC  H10X23633   4.628   7.097  14.387
  191DOPC  C31123634   4.624   7.314  14.337
  191DOPC  H11X23635   4.589   7.373  14.249
  191DOPC  H11Y23636   4.725   7.353  14.362
  191DOPC  C31223637   4.527   7.344  14.452
  191DOPC  H12X23638   4.432   7.289  14.435
  191DOPC  H12Y23639   4.502   7.453  14.451
  191DOPC  C31323640   4.581   7.309  14.592
  191DOPC  H13X23641   4.491   7.291  14.657
  191DOPC  H13Y23642   4.639   7.214  14.591
  191DOPC  C31423643   4.660   7.422  14.659
  191DOPC  H14X23644   4.614   7.520  14.633
  191DOPC  H14Y23645   4.650   7.410  14.769
  191DOPC  C31523646   4.811   7.428  14.626
  191DOPC  H15X23647   4.849   7.519  14.677
  191DOPC  H15Y23648   4.828   7.443  14.518
  191DOPC  C31623649   4.892   7.307  14.676
  191DOPC  H16X23650   4.837   7.257  14.758
  191DOPC  H16Y23651   4.904   7.231  14.595
  191DOPC  C31723652   5.030   7.352  14.729
  191DOPC  H17X23653   5.095   7.381  14.644
  191DOPC  H17Y23654   5.013   7.443  14.791
  191DOPC  C31823655   5.102   7.251  14.818
  191DOPC  H18X23656   5.139   7.164  14.759
  191DOPC  H18Y23657   5.189   7.298  14.869
  191DOPC  H18Z23658   5.033   7.214  14.897
  192DOPC     N23659   7.722   5.097  12.917
  192DOPC   C1223660   7.782   5.034  13.042
  192DOPC  H12A23661   7.790   4.927  13.026
  192DOPC  H12B23662   7.710   5.046  13.123
  192DOPC   C1323663   7.621   5.202  12.957
  192DOPC  H13A23664   7.669   5.275  13.023
  192DOPC  H13B23665   7.578   5.255  12.872
  192DOPC  H13C23666   7.540   5.165  13.018
  192DOPC   C1423667   7.661   4.989  12.835
  192DOPC  H14A23668   7.602   5.028  12.754
  192DOPC  H14B23669   7.739   4.920  12.800
  192DOPC  H14C23670   7.595   4.927  12.895
  192DOPC   C1523671   7.831   5.164  12.840
  192DOPC  H15A23672   7.906   5.092  12.811
  192DOPC  H15B23673   7.881   5.233  12.908
  192DOPC  H15C23674   7.794   5.218  12.755
  192DOPC   C1123675   7.921   5.084  13.093
  192DOPC  H11A23676   7.941   5.037  13.193
  192DOPC  H11B23677   8.000   5.043  13.026
  192DOPC     P23678   7.893   5.308  13.229
  192DOPC   O1323679   7.911   5.451  13.195
  192DOPC   O1423680   7.965   5.252  13.345
  192DOPC   O1223681   7.931   5.227  13.098
  192DOPC   O1123682   7.739   5.284  13.233
  192DOPC    C123683   7.674   5.180  13.303
  192DOPC    HA23684   7.728   5.084  13.293
  192DOPC    HB23685   7.572   5.169  13.257
  192DOPC    C223686   7.649   5.202  13.454
  192DOPC    HS23687   7.576   5.283  13.468
  192DOPC   O2123688   7.767   5.227  13.534
  192DOPC   C2123689   7.793   5.358  13.544
  192DOPC   O2223690   7.738   5.444  13.479
  192DOPC   C2223691   7.892   5.394  13.654
  192DOPC   H2R23692   7.993   5.365  13.620
  192DOPC   H2S23693   7.866   5.336  13.744
  192DOPC    C323694   7.575   5.075  13.501
  192DOPC    HX23695   7.634   4.984  13.476
  192DOPC    HY23696   7.481   5.068  13.443
  192DOPC   O3123697   7.542   5.088  13.641
  192DOPC   C3123698   7.645   5.052  13.715
  192DOPC   O3223699   7.748   5.000  13.673
  192DOPC   C3223700   7.611   5.075  13.861
  192DOPC   H2X23701   7.562   5.175  13.869
  192DOPC   H2Y23702   7.539   4.999  13.895
  192DOPC   C2323703   7.883   5.547  13.682
  192DOPC   H3R23704   7.788   5.568  13.735
  192DOPC   H3S23705   7.877   5.604  13.586
  192DOPC   C2423706   7.999   5.610  13.761
  192DOPC   H4R23707   7.971   5.714  13.788
  192DOPC   H4S23708   8.088   5.617  13.695
  192DOPC   C2523709   8.041   5.535  13.888
  192DOPC   H5R23710   8.115   5.595  13.945
  192DOPC   H5S23711   8.091   5.441  13.855
  192DOPC   C2623712   7.925   5.498  13.980
  192DOPC   H6R23713   7.839   5.461  13.920
  192DOPC   H6S23714   7.888   5.585  14.037
  192DOPC   C2723715   7.965   5.383  14.074
  192DOPC   H7R23716   8.031   5.421  14.155
  192DOPC   H7S23717   8.024   5.309  14.016
  192DOPC   C2823718   7.841   5.311  14.128
  192DOPC   H8R23719   7.867   5.205  14.148
  192DOPC   H8S23720   7.762   5.313  14.049
  192DOPC   C2923721   7.789   5.376  14.251
  192DOPC   H9R23722   7.854   5.455  14.291
  192DOPC  C21023723   7.679   5.342  14.320
  192DOPC  H10R23724   7.654   5.402  14.408
  192DOPC  C21123725   7.583   5.229  14.288
  192DOPC  H11R23726   7.564   5.175  14.382
  192DOPC  H11S23727   7.625   5.157  14.216
  192DOPC  C21223728   7.446   5.279  14.240
  192DOPC  H12R23729   7.458   5.347  14.154
  192DOPC  H12S23730   7.409   5.337  14.325
  192DOPC  C21323731   7.340   5.173  14.203
  192DOPC  H13R23732   7.367   5.129  14.104
  192DOPC  H13S23733   7.243   5.225  14.190
  192DOPC  C21423734   7.319   5.058  14.302
  192DOPC  H14R23735   7.414   5.001  14.311
  192DOPC  H14S23736   7.243   4.988  14.260
  192DOPC  C21523737   7.272   5.100  14.442
  192DOPC  H15R23738   7.168   5.141  14.436
  192DOPC  H15S23739   7.338   5.181  14.479
  192DOPC  C21623740   7.274   4.986  14.545
  192DOPC  H16R23741   7.378   4.946  14.546
  192DOPC  H16S23742   7.204   4.907  14.512
  192DOPC  C21723743   7.238   5.033  14.686
  192DOPC  H17R23744   7.139   5.084  14.682
  192DOPC  H17S23745   7.319   5.104  14.712
  192DOPC  C21823746   7.236   4.937  14.804
  192DOPC  H18R23747   7.202   4.988  14.897
  192DOPC  H18S23748   7.341   4.905  14.822
  192DOPC  H18T23749   7.171   4.849  14.787
  192DOPC   C3323750   7.738   5.073  13.948
  192DOPC   H3X23751   7.707   5.092  14.052
  192DOPC   H3Y23752   7.807   5.153  13.914
  192DOPC   C3423753   7.815   4.941  13.948
  192DOPC   H4X23754   7.881   4.936  13.858
  192DOPC   H4Y23755   7.744   4.856  13.943
  192DOPC   C3523756   7.904   4.919  14.071
  192DOPC   H5X23757   7.845   4.919  14.164
  192DOPC   H5Y23758   7.976   5.004  14.079
  192DOPC   C3623759   7.981   4.788  14.057
  192DOPC   H6X23760   8.032   4.789  13.958
  192DOPC   H6Y23761   8.063   4.789  14.132
  192DOPC   C3723762   7.898   4.657  14.065
  192DOPC   H7X23763   7.870   4.635  13.959
  192DOPC   H7Y23764   7.963   4.573  14.097
  192DOPC   C3823765   7.763   4.655  14.146
  192DOPC   H8X23766   7.704   4.574  14.097
  192DOPC   H8Y23767   7.709   4.749  14.123
  192DOPC   C3923768   7.751   4.623  14.293
  192DOPC   H9X23769   7.767   4.516  14.315
  192DOPC  C31023770   7.714   4.703  14.396
  192DOPC  H10X23771   7.711   4.658  14.497
  192DOPC  C31123772   7.672   4.849  14.390
  192DOPC  H11X23773   7.564   4.848  14.415
  192DOPC  H11Y23774   7.678   4.889  14.287
  192DOPC  C31223775   7.726   4.958  14.485
  192DOPC  H12X23776   7.738   4.922  14.589
  192DOPC  H12Y23777   7.645   5.034  14.494
  192DOPC  C31323778   7.850   5.033  14.436
  192DOPC  H13X23779   7.936   4.964  14.428
  192DOPC  H13Y23780   7.830   5.071  14.333
  192DOPC  C31423781   7.882   5.152  14.527
  192DOPC  H14X23782   7.796   5.222  14.525
  192DOPC  H14Y23783   7.892   5.118  14.632
  192DOPC  C31523784   8.011   5.226  14.488
  192DOPC  H15X23785   8.025   5.215  14.378
  192DOPC  H15Y23786   8.097   5.177  14.538
  192DOPC  C31623787   8.013   5.377  14.521
  192DOPC  H16X23788   8.115   5.417  14.502
  192DOPC  H16Y23789   7.947   5.430  14.452
  192DOPC  C31723790   7.965   5.418  14.661
  192DOPC  H17X23791   7.946   5.528  14.659
  192DOPC  H17Y23792   7.868   5.369  14.683
  192DOPC  C31823793   8.067   5.387  14.770
  192DOPC  H18X23794   8.031   5.425  14.868
  192DOPC  H18Y23795   8.084   5.278  14.777
  192DOPC  H18Z23796   8.164   5.437  14.746
  193DOPC     N23797   7.352   1.627  12.969
  193DOPC   C1223798   7.283   1.636  13.103
  193DOPC  H12A23799   7.274   1.536  13.145
  193DOPC  H12B23800   7.181   1.672  13.088
  193DOPC   C1323801   7.312   1.501  12.898
  193DOPC  H13A23802   7.348   1.504  12.795
  193DOPC  H13B23803   7.352   1.412  12.945
  193DOPC  H13C23804   7.204   1.492  12.895
  193DOPC   C1423805   7.500   1.634  12.989
  193DOPC  H14A23806   7.522   1.728  13.039
  193DOPC  H14B23807   7.536   1.554  13.052
  193DOPC  H14C23808   7.553   1.629  12.895
  193DOPC   C1523809   7.309   1.744  12.887
  193DOPC  H15A23810   7.362   1.750  12.794
  193DOPC  H15B23811   7.323   1.837  12.943
  193DOPC  H15C23812   7.202   1.741  12.869
  193DOPC   C1123813   7.348   1.730  13.208
  193DOPC  H11A23814   7.288   1.717  13.297
  193DOPC  H11B23815   7.450   1.697  13.236
  193DOPC     P23816   7.209   1.947  13.157
  193DOPC   O1323817   7.098   1.850  13.150
  193DOPC   O1423818   7.230   2.031  13.037
  193DOPC   O1223819   7.348   1.868  13.171
  193DOPC   O1123820   7.202   2.042  13.285
  193DOPC    C123821   7.089   2.060  13.372
  193DOPC    HA23822   6.994   2.040  13.318
  193DOPC    HB23823   7.087   2.165  13.406
  193DOPC    C223824   7.094   1.968  13.497
  193DOPC    HS23825   7.177   2.001  13.563
  193DOPC   O2123826   7.113   1.838  13.447
  193DOPC   C2123827   7.188   1.756  13.508
  193DOPC   O2223828   7.278   1.778  13.587
  193DOPC   C2223829   7.137   1.619  13.461
  193DOPC   H2R23830   7.224   1.561  13.422
  193DOPC   H2S23831   7.062   1.630  13.380
  193DOPC    C323832   6.960   1.964  13.578
  193DOPC    HX23833   6.911   1.870  13.544
  193DOPC    HY23834   6.898   2.048  13.543
  193DOPC   O3123835   6.967   1.954  13.723
  193DOPC   C3123836   6.847   1.968  13.781
  193DOPC   O3223837   6.752   2.026  13.732
  193DOPC   C3223838   6.832   1.891  13.910
  193DOPC   H2X23839   6.721   1.886  13.922
  193DOPC   H2Y23840   6.869   1.789  13.897
  193DOPC   C2323841   7.082   1.545  13.581
  193DOPC   H3R23842   7.164   1.555  13.656
  193DOPC   H3S23843   7.074   1.438  13.555
  193DOPC   C2423844   6.947   1.597  13.636
  193DOPC   H4R23845   6.865   1.587  13.561
  193DOPC   H4S23846   6.959   1.705  13.658
  193DOPC   C2523847   6.908   1.531  13.769
  193DOPC   H5R23848   6.857   1.434  13.751
  193DOPC   H5S23849   6.836   1.595  13.822
  193DOPC   C2623850   7.036   1.510  13.851
  193DOPC   H6R23851   7.087   1.607  13.861
  193DOPC   H6S23852   7.104   1.439  13.798
  193DOPC   C2723853   7.027   1.441  13.985
  193DOPC   H7R23854   7.125   1.443  14.037
  193DOPC   H7S23855   7.004   1.336  13.959
  193DOPC   C2823856   6.914   1.483  14.075
  193DOPC   H8R23857   6.890   1.399  14.144
  193DOPC   H8S23858   6.823   1.494  14.013
  193DOPC   C2923859   6.950   1.607  14.149
  193DOPC   H9R23860   6.918   1.701  14.103
  193DOPC  C21023861   6.991   1.607  14.276
  193DOPC  H10R23862   7.015   1.702  14.327
  193DOPC  C21123863   7.004   1.481  14.355
  193DOPC  H11R23864   7.083   1.497  14.426
  193DOPC  H11S23865   7.038   1.394  14.295
  193DOPC  C21223866   6.883   1.446  14.440
  193DOPC  H12R23867   6.909   1.353  14.496
  193DOPC  H12S23868   6.794   1.424  14.378
  193DOPC  C21323869   6.855   1.557  14.542
  193DOPC  H13R23870   6.789   1.634  14.500
  193DOPC  H13S23871   6.950   1.609  14.568
  193DOPC  C21423872   6.797   1.499  14.670
  193DOPC  H14R23873   6.719   1.423  14.648
  193DOPC  H14S23874   6.750   1.581  14.729
  193DOPC  C21523875   6.906   1.436  14.754
  193DOPC  H15R23876   7.002   1.481  14.728
  193DOPC  H15S23877   6.926   1.336  14.716
  193DOPC  C21623878   6.865   1.437  14.901
  193DOPC  H16R23879   6.763   1.395  14.899
  193DOPC  H16S23880   6.858   1.542  14.936
  193DOPC  C21723881   6.946   1.355  15.002
  193DOPC  H17R23882   6.926   1.249  14.987
  193DOPC  H17S23883   6.911   1.381  15.104
  193DOPC  C21823884   7.096   1.377  15.005
  193DOPC  H18R23885   7.113   1.478  15.042
  193DOPC  H18S23886   7.140   1.369  14.903
  193DOPC  H18T23887   7.145   1.303  15.072
  193DOPC   C3323888   6.886   1.960  14.036
  193DOPC   H3X23889   6.851   1.898  14.121
  193DOPC   H3Y23890   6.839   2.060  14.051
  193DOPC   C3423891   7.039   1.967  14.047
  193DOPC   H4X23892   7.065   1.965  14.156
  193DOPC   H4Y23893   7.080   2.060  14.005
  193DOPC   C3523894   7.114   1.856  13.974
  193DOPC   H5X23895   7.119   1.873  13.865
  193DOPC   H5Y23896   7.060   1.761  13.988
  193DOPC   C3623897   7.257   1.837  14.023
  193DOPC   H6X23898   7.322   1.911  13.973
  193DOPC   H6Y23899   7.262   1.852  14.133
  193DOPC   C3723900   7.304   1.695  13.992
  193DOPC   H7X23901   7.238   1.627  14.051
  193DOPC   H7Y23902   7.289   1.673  13.884
  193DOPC   C3823903   7.451   1.673  14.028
  193DOPC   H8X23904   7.474   1.732  14.118
  193DOPC   H8Y23905   7.515   1.711  13.945
  193DOPC   C3923906   7.472   1.525  14.048
  193DOPC   H9X23907   7.474   1.465  13.956
  193DOPC  C31023908   7.479   1.463  14.167
  193DOPC  H10X23909   7.476   1.353  14.167
  193DOPC  C31123910   7.469   1.524  14.304
  193DOPC  H11X23911   7.479   1.634  14.301
  193DOPC  H11Y23912   7.552   1.488  14.368
  193DOPC  C31223913   7.331   1.489  14.366
  193DOPC  H12X23914   7.302   1.384  14.344
  193DOPC  H12Y23915   7.259   1.553  14.309
  193DOPC  C31323916   7.313   1.516  14.518
  193DOPC  H13X23917   7.209   1.522  14.553
  193DOPC  H13Y23918   7.348   1.433  14.579
  193DOPC  C31423919   7.373   1.647  14.563
  193DOPC  H14X23920   7.356   1.658  14.672
  193DOPC  H14Y23921   7.483   1.649  14.545
  193DOPC  C31523922   7.304   1.760  14.488
  193DOPC  H15X23923   7.195   1.761  14.510
  193DOPC  H15Y23924   7.313   1.747  14.377
  193DOPC  C31623925   7.368   1.893  14.518
  193DOPC  H16X23926   7.472   1.889  14.480
  193DOPC  H16Y23927   7.307   1.967  14.461
  193DOPC  C31723928   7.362   1.937  14.664
  193DOPC  H17X23929   7.405   1.861  14.733
  193DOPC  H17Y23930   7.425   2.028  14.674
  193DOPC  C31823931   7.218   1.972  14.698
  193DOPC  H18X23932   7.179   2.046  14.625
  193DOPC  H18Y23933   7.155   1.883  14.690
  193DOPC  H18Z23934   7.206   2.016  14.799
  194DOPC     N23935   1.735   0.376  12.858
  194DOPC   C1223936   1.816   0.263  12.920
  194DOPC  H12A23937   1.919   0.301  12.928
  194DOPC  H12B23938   1.822   0.179  12.853
  194DOPC   C1323939   1.589   0.353  12.880
  194DOPC  H13A23940   1.530   0.435  12.842
  194DOPC  H13B23941   1.556   0.263  12.829
  194DOPC  H13C23942   1.572   0.340  12.987
  194DOPC   C1423943   1.772   0.393  12.713
  194DOPC  H14A23944   1.877   0.424  12.708
  194DOPC  H14B23945   1.765   0.302  12.656
  194DOPC  H14C23946   1.714   0.469  12.663
  194DOPC   C1523947   1.782   0.499  12.930
  194DOPC  H15A23948   1.890   0.509  12.913
  194DOPC  H15B23949   1.771   0.486  13.038
  194DOPC  H15C23950   1.734   0.587  12.894
  194DOPC   C1123951   1.779   0.216  13.062
  194DOPC  H11A23952   1.679   0.169  13.064
  194DOPC  H11B23953   1.854   0.137  13.087
  194DOPC     P23954   1.812   0.295  13.308
  194DOPC   O1323955   1.845   0.422  13.374
  194DOPC   O1423956   1.908   0.184  13.323
  194DOPC   O1223957   1.787   0.325  13.154
  194DOPC   O1123958   1.667   0.244  13.343
  194DOPC    C123959   1.552   0.304  13.282
  194DOPC    HA23960   1.525   0.249  13.190
  194DOPC    HB23961   1.570   0.410  13.254
  194DOPC    C223962   1.432   0.300  13.379
  194DOPC    HS23963   1.360   0.379  13.350
  194DOPC   O2123964   1.470   0.323  13.515
  194DOPC   C2123965   1.553   0.422  13.544
  194DOPC   O2223966   1.606   0.498  13.466
  194DOPC   C2223967   1.560   0.442  13.695
  194DOPC   H2R23968   1.500   0.367  13.746
  194DOPC   H2S23969   1.516   0.541  13.719
  194DOPC    C323970   1.360   0.161  13.365
  194DOPC    HX23971   1.298   0.168  13.274
  194DOPC    HY23972   1.285   0.148  13.446
  194DOPC   O3123973   1.452   0.049  13.351
  194DOPC   C3123974   1.492   0.006  13.472
  194DOPC   O3223975   1.437   0.039  13.575
  194DOPC   C3223976   1.611  -0.086  13.475
  194DOPC   H2X23977   1.600  -0.172  13.406
  194DOPC   H2Y23978   1.700  -0.025  13.448
  194DOPC   C2323979   1.703   0.424  13.745
  194DOPC   H3R23980   1.711   0.460  13.850
  194DOPC   H3S23981   1.775   0.481  13.682
  194DOPC   C2423982   1.735   0.274  13.740
  194DOPC   H4R23983   1.721   0.239  13.634
  194DOPC   H4S23984   1.661   0.218  13.801
  194DOPC   C2523985   1.878   0.238  13.779
  194DOPC   H5R23986   1.947   0.291  13.710
  194DOPC   H5S23987   1.885   0.129  13.758
  194DOPC   C2623988   1.917   0.261  13.926
  194DOPC   H6R23989   1.926   0.371  13.945
  194DOPC   H6S23990   2.018   0.217  13.942
  194DOPC   C2723991   1.820   0.197  14.027
  194DOPC   H7R23992   1.753   0.130  13.968
  194DOPC   H7S23993   1.756   0.275  14.072
  194DOPC   C2823994   1.883   0.105  14.134
  194DOPC   H8R23995   1.973   0.055  14.093
  194DOPC   H8S23996   1.809   0.022  14.148
  194DOPC   C2923997   1.916   0.161  14.270
  194DOPC   H9R23998   2.006   0.224  14.276
  194DOPC  C21023999   1.832   0.158  14.375
  194DOPC  H10R24000   1.857   0.210  14.468
  194DOPC  C21124001   1.693   0.098  14.370
  194DOPC  H11R24002   1.653   0.088  14.473
  194DOPC  H11S24003   1.692  -0.004  14.326
  194DOPC  C21224004   1.603   0.193  14.286
  194DOPC  H12R24005   1.498   0.176  14.319
  194DOPC  H12S24006   1.606   0.164  14.180
  194DOPC  C21324007   1.636   0.346  14.299
  194DOPC  H13R24008   1.596   0.409  14.219
  194DOPC  H13S24009   1.743   0.370  14.297
  194DOPC  C21424010   1.577   0.380  14.433
  194DOPC  H14R24011   1.624   0.301  14.494
  194DOPC  H14S24012   1.466   0.363  14.428
  194DOPC  C21524013   1.605   0.502  14.518
  194DOPC  H15R24014   1.578   0.472  14.621
  194DOPC  H15S24015   1.528   0.576  14.500
  194DOPC  C21624016   1.748   0.555  14.519
  194DOPC  H16R24017   1.741   0.666  14.532
  194DOPC  H16S24018   1.801   0.537  14.424
  194DOPC  C21724019   1.821   0.502  14.642
  194DOPC  H17R24020   1.881   0.411  14.621
  194DOPC  H17S24021   1.744   0.473  14.717
  194DOPC  C21824022   1.899   0.608  14.714
  194DOPC  H18R24023   1.909   0.585  14.822
  194DOPC  H18S24024   1.843   0.704  14.709
  194DOPC  H18T24025   2.000   0.620  14.670
  194DOPC   C3324026   1.625  -0.135  13.623
  194DOPC   H3X24027   1.622  -0.049  13.693
  194DOPC   H3Y24028   1.723  -0.183  13.636
  194DOPC   C3424029   1.518  -0.237  13.665
  194DOPC   H4X24030   1.550  -0.336  13.624
  194DOPC   H4Y24031   1.420  -0.212  13.617
  194DOPC   C3524032   1.496  -0.243  13.817
  194DOPC   H5X24033   1.591  -0.216  13.866
  194DOPC   H5Y24034   1.466  -0.346  13.847
  194DOPC   C3624035   1.392  -0.144  13.871
  194DOPC   H6X24036   1.428  -0.041  13.854
  194DOPC   H6Y24037   1.306  -0.156  13.806
  194DOPC   C3724038   1.335  -0.163  14.013
  194DOPC   H7X24039   1.279  -0.074  14.048
  194DOPC   H7Y24040   1.264  -0.248  14.008
  194DOPC   C3824041   1.441  -0.198  14.116
  194DOPC   H8X24042   1.493  -0.108  14.154
  194DOPC   H8Y24043   1.509  -0.262  14.057
  194DOPC   C3924044   1.389  -0.289  14.221
  194DOPC   H9X24045   1.340  -0.378  14.177
  194DOPC  C31024046   1.401  -0.276  14.355
  194DOPC  H10X24047   1.365  -0.359  14.418
  194DOPC  C31124048   1.473  -0.164  14.431
  194DOPC  H11X24049   1.464  -0.068  14.376
  194DOPC  H11Y24050   1.583  -0.173  14.447
  194DOPC  C31224051   1.428  -0.156  14.575
  194DOPC  H12X24052   1.380  -0.252  14.602
  194DOPC  H12Y24053   1.353  -0.076  14.572
  194DOPC  C31324054   1.537  -0.128  14.680
  194DOPC  H13X24055   1.599  -0.220  14.678
  194DOPC  H13Y24056   1.598  -0.041  14.649
  194DOPC  C31424057   1.486  -0.106  14.826
  194DOPC  H14X24058   1.397  -0.042  14.812
  194DOPC  H14Y24059   1.452  -0.204  14.865
  194DOPC  C31524060   1.571  -0.036  14.938
  194DOPC  H15X24061   1.563   0.073  14.929
  194DOPC  H15Y24062   1.679  -0.050  14.942
  194DOPC  C31624063   1.532  -0.073  15.082
  194DOPC  H16X24064   1.473  -0.167  15.081
  194DOPC  H16Y24065   1.623  -0.081  15.145
  194DOPC  C31724066   1.455   0.038  15.144
  194DOPC  H17X24067   1.425   0.039  15.250
  194DOPC  H17Y24068   1.523   0.126  15.132
  194DOPC  C31824069   1.333   0.043  15.060
  194DOPC  H18X24070   1.368   0.123  14.991
  194DOPC  H18Y24071   1.319  -0.053  15.005
  194DOPC  H18Z24072   1.238   0.072  15.109
  195DOPC     N24073   5.693   7.546  13.068
  195DOPC   C1224074   5.689   7.456  13.191
  195DOPC  H12A24075   5.602   7.393  13.182
  195DOPC  H12B24076   5.677   7.518  13.280
  195DOPC   C1324077   5.585   7.648  13.077
  195DOPC  H13A24078   5.486   7.602  13.080
  195DOPC  H13B24079   5.596   7.712  13.163
  195DOPC  H13C24080   5.581   7.709  12.987
  195DOPC   C1424081   5.671   7.465  12.944
  195DOPC  H14A24082   5.690   7.523  12.855
  195DOPC  H14B24083   5.743   7.383  12.945
  195DOPC  H14C24084   5.571   7.424  12.940
  195DOPC   C1524085   5.828   7.608  13.055
  195DOPC  H15A24086   5.854   7.668  13.141
  195DOPC  H15B24087   5.836   7.669  12.965
  195DOPC  H15C24088   5.903   7.530  13.041
  195DOPC   C1124089   5.808   7.362  13.220
  195DOPC  H11A24090   5.900   7.420  13.246
  195DOPC  H11B24091   5.780   7.301  13.309
  195DOPC     P24092   5.967   7.245  13.045
  195DOPC   O1324093   5.993   7.358  12.954
  195DOPC   O1424094   5.954   7.111  12.983
  195DOPC   O1224095   5.827   7.273  13.112
  195DOPC   O1124096   6.071   7.242  13.163
  195DOPC    C124097   6.179   7.335  13.177
  195DOPC    HA24098   6.144   7.439  13.161
  195DOPC    HB24099   6.261   7.313  13.105
  195DOPC    C224100   6.236   7.327  13.321
  195DOPC    HS24101   6.298   7.233  13.323
  195DOPC   O2124102   6.124   7.329  13.412
  195DOPC   C2124103   6.098   7.209  13.460
  195DOPC   O2224104   6.174   7.114  13.454
  195DOPC   C2224105   5.962   7.206  13.527
  195DOPC   H2R24106   5.891   7.257  13.461
  195DOPC   H2S24107   5.973   7.264  13.621
  195DOPC    C324108   6.330   7.441  13.362
  195DOPC    HX24109   6.421   7.443  13.298
  195DOPC    HY24110   6.365   7.416  13.466
  195DOPC   O3124111   6.261   7.567  13.353
  195DOPC   C3124112   6.237   7.630  13.468
  195DOPC   O3224113   6.286   7.602  13.575
  195DOPC   C3224114   6.136   7.742  13.445
  195DOPC   H2X24115   6.148   7.816  13.527
  195DOPC   H2Y24116   6.162   7.791  13.349
  195DOPC   C2324117   5.908   7.064  13.560
  195DOPC   H3R24118   5.982   7.012  13.626
  195DOPC   H3S24119   5.899   7.002  13.467
  195DOPC   C2424120   5.771   7.068  13.631
  195DOPC   H4R24121   5.745   6.967  13.667
  195DOPC   H4S24122   5.694   7.096  13.556
  195DOPC   C2524123   5.762   7.169  13.746
  195DOPC   H5R24124   5.663   7.160  13.796
  195DOPC   H5S24125   5.769   7.272  13.705
  195DOPC   C2624126   5.871   7.155  13.852
  195DOPC   H6R24127   5.861   7.247  13.912
  195DOPC   H6S24128   5.973   7.161  13.810
  195DOPC   C2724129   5.858   7.024  13.931
  195DOPC   H7R24130   5.953   6.967  13.922
  195DOPC   H7S24131   5.777   6.960  13.891
  195DOPC   C2824132   5.833   7.041  14.081
  195DOPC   H8R24133   5.919   6.989  14.126
  195DOPC   H8S24134   5.743   6.984  14.114
  195DOPC   C2924135   5.837   7.178  14.138
  195DOPC   H9R24136   5.744   7.232  14.117
  195DOPC  C21024137   5.946   7.256  14.154
  195DOPC  H10R24138   5.929   7.344  14.215
  195DOPC  C21124139   6.091   7.231  14.118
  195DOPC  H11R24140   6.097   7.161  14.031
  195DOPC  H11S24141   6.153   7.190  14.200
  195DOPC  C21224142   6.163   7.363  14.087
  195DOPC  H12R24143   6.115   7.409  13.998
  195DOPC  H12S24144   6.269   7.342  14.058
  195DOPC  C21324145   6.162   7.464  14.204
  195DOPC  H13R24146   6.078   7.444  14.273
  195DOPC  H13S24147   6.139   7.561  14.158
  195DOPC  C21424148   6.288   7.468  14.293
  195DOPC  H14R24149   6.375   7.502  14.233
  195DOPC  H14S24150   6.310   7.365  14.329
  195DOPC  C21524151   6.280   7.560  14.417
  195DOPC  H15R24152   6.289   7.663  14.379
  195DOPC  H15S24153   6.369   7.544  14.481
  195DOPC  C21624154   6.152   7.551  14.503
  195DOPC  H16R24155   6.143   7.448  14.543
  195DOPC  H16S24156   6.064   7.571  14.438
  195DOPC  C21724157   6.140   7.652  14.620
  195DOPC  H17R24158   6.044   7.634  14.674
  195DOPC  H17S24159   6.130   7.754  14.577
  195DOPC  C21824160   6.253   7.649  14.724
  195DOPC  H18R24161   6.243   7.736  14.794
  195DOPC  H18S24162   6.352   7.657  14.676
  195DOPC  H18T24163   6.250   7.556  14.784
  195DOPC   C3324164   5.990   7.689  13.439
  195DOPC   H3X24165   5.985   7.591  13.387
  195DOPC   H3Y24166   5.933   7.761  13.376
  195DOPC   C3424167   5.919   7.681  13.576
  195DOPC   H4X24168   5.810   7.673  13.557
  195DOPC   H4Y24169   5.936   7.776  13.632
  195DOPC   C3524170   5.961   7.562  13.662
  195DOPC   H5X24171   6.067   7.575  13.695
  195DOPC   H5Y24172   5.957   7.471  13.599
  195DOPC   C3624173   5.875   7.539  13.788
  195DOPC   H6X24174   5.769   7.522  13.761
  195DOPC   H6Y24175   5.913   7.445  13.836
  195DOPC   C3724176   5.886   7.651  13.892
  195DOPC   H7X24177   5.994   7.678  13.901
  195DOPC   H7Y24178   5.832   7.742  13.858
  195DOPC   C3824179   5.840   7.611  14.034
  195DOPC   H8X24180   5.884   7.684  14.106
  195DOPC   H8Y24181   5.886   7.513  14.057
  195DOPC   C3924182   5.690   7.608  14.057
  195DOPC   H9X24183   5.629   7.654  13.977
  195DOPC  C31024184   5.629   7.549  14.162
  195DOPC  H10X24185   5.519   7.547  14.167
  195DOPC  C31124186   5.700   7.476  14.274
  195DOPC  H11X24187   5.810   7.485  14.262
  195DOPC  H11Y24188   5.673   7.368  14.269
  195DOPC  C31224189   5.675   7.515  14.420
  195DOPC  H12X24190   5.567   7.503  14.444
  195DOPC  H12Y24191   5.704   7.621  14.438
  195DOPC  C31324192   5.757   7.423  14.513
  195DOPC  H13X24193   5.706   7.325  14.519
  195DOPC  H13Y24194   5.858   7.404  14.469
  195DOPC  C31424195   5.777   7.479  14.654
  195DOPC  H14X24196   5.833   7.405  14.715
  195DOPC  H14Y24197   5.839   7.571  14.647
  195DOPC  C31524198   5.644   7.514  14.723
  195DOPC  H15X24199   5.582   7.422  14.730
  195DOPC  H15Y24200   5.588   7.587  14.660
  195DOPC  C31624201   5.662   7.574  14.863
  195DOPC  H16X24202   5.722   7.668  14.857
  195DOPC  H16Y24203   5.561   7.601  14.901
  195DOPC  C31724204   5.728   7.477  14.961
  195DOPC  H17X24205   5.685   7.376  14.944
  195DOPC  H17Y24206   5.837   7.471  14.939
  195DOPC  C31824207   5.708   7.515  15.108
  195DOPC  H18X24208   5.751   7.438  15.175
  195DOPC  H18Y24209   5.757   7.613  15.130
  195DOPC  H18Z24210   5.600   7.525  15.131
  196DOPC     N24211   0.779   1.130  12.921
  196DOPC   C1224212   0.915   1.071  12.955
  196DOPC  H12A24213   0.975   1.151  12.995
  196DOPC  H12B24214   0.965   1.036  12.866
  196DOPC   C1324215   0.679   1.018  12.913
  196DOPC  H13A24216   0.718   0.937  12.854
  196DOPC  H13B24217   0.664   0.975  13.012
  196DOPC  H13C24218   0.585   1.050  12.872
  196DOPC   C1424219   0.786   1.205  12.792
  196DOPC  H14A24220   0.812   1.134  12.712
  196DOPC  H14B24221   0.691   1.248  12.761
  196DOPC  H14C24222   0.861   1.283  12.791
  196DOPC   C1524223   0.732   1.214  13.036
  196DOPC  H15A24224   0.630   1.248  13.026
  196DOPC  H15B24225   0.798   1.296  13.057
  196DOPC  H15C24226   0.732   1.149  13.125
  196DOPC   C1124227   0.915   0.955  13.057
  196DOPC  H11A24228   0.876   0.862  13.011
  196DOPC  H11B24229   1.019   0.935  13.092
  196DOPC     P24230   0.764   0.897  13.265
  196DOPC   O1324231   0.700   0.985  13.366
  196DOPC   O1424232   0.863   0.798  13.309
  196DOPC   O1224233   0.836   0.995  13.167
  196DOPC   O1124234   0.654   0.830  13.171
  196DOPC    C124235   0.622   0.690  13.182
  196DOPC    HA24236   0.695   0.633  13.245
  196DOPC    HB24237   0.628   0.645  13.081
  196DOPC    C224238   0.479   0.667  13.239
  196DOPC    HS24239   0.407   0.706  13.164
  196DOPC   O2124240   0.471   0.730  13.366
  196DOPC   C2124241   0.410   0.843  13.365
  196DOPC   O2224242   0.360   0.900  13.269
  196DOPC   C2224243   0.393   0.888  13.509
  196DOPC   H2R24244   0.297   0.847  13.544
  196DOPC   H2S24245   0.386   0.998  13.502
  196DOPC    C324246   0.436   0.520  13.265
  196DOPC    HX24247   0.425   0.468  13.168
  196DOPC    HY24248   0.336   0.521  13.314
  196DOPC   O3124249   0.536   0.455  13.345
  196DOPC   C3124250   0.531   0.480  13.474
  196DOPC   O3224251   0.434   0.517  13.538
  196DOPC   C3224252   0.668   0.456  13.534
  196DOPC   H2X24253   0.647   0.438  13.640
  196DOPC   H2Y24254   0.710   0.364  13.490
  196DOPC   C2324255   0.507   0.849  13.606
  196DOPC   H3R24256   0.599   0.819  13.553
  196DOPC   H3S24257   0.476   0.766  13.673
  196DOPC   C2424258   0.541   0.973  13.686
  196DOPC   H4R24259   0.455   0.989  13.754
  196DOPC   H4S24260   0.553   1.059  13.617
  196DOPC   C2524261   0.668   0.965  13.768
  196DOPC   H5R24262   0.757   0.952  13.703
  196DOPC   H5S24263   0.659   0.880  13.839
  196DOPC   C2624264   0.678   1.092  13.851
  196DOPC   H6R24265   0.590   1.088  13.919
  196DOPC   H6S24266   0.670   1.181  13.785
  196DOPC   C2724267   0.803   1.101  13.934
  196DOPC   H7R24268   0.811   1.203  13.979
  196DOPC   H7S24269   0.892   1.085  13.868
  196DOPC   C2824270   0.802   0.997  14.045
  196DOPC   H8R24271   0.902   1.012  14.088
  196DOPC   H8S24272   0.794   0.893  14.007
  196DOPC   C2924273   0.702   1.022  14.152
  196DOPC   H9R24274   0.735   1.099  14.223
  196DOPC  C21024275   0.590   0.955  14.180
  196DOPC  H10R24276   0.536   0.985  14.270
  196DOPC  C21124277   0.525   0.835  14.117
  196DOPC  H11R24278   0.554   0.821  14.011
  196DOPC  H11S24279   0.415   0.845  14.122
  196DOPC  C21224280   0.568   0.715  14.201
  196DOPC  H12R24281   0.673   0.687  14.177
  196DOPC  H12S24282   0.504   0.627  14.176
  196DOPC  C21324283   0.556   0.739  14.353
  196DOPC  H13R24284   0.449   0.759  14.376
  196DOPC  H13S24285   0.617   0.824  14.390
  196DOPC  C21424286   0.603   0.620  14.431
  196DOPC  H14R24287   0.713   0.624  14.444
  196DOPC  H14S24288   0.583   0.528  14.372
  196DOPC  C21524289   0.536   0.617  14.568
  196DOPC  H15R24290   0.486   0.520  14.584
  196DOPC  H15S24291   0.461   0.698  14.577
  196DOPC  C21624292   0.639   0.625  14.677
  196DOPC  H16R24293   0.690   0.723  14.668
  196DOPC  H16S24294   0.713   0.546  14.654
  196DOPC  C21724295   0.583   0.604  14.818
  196DOPC  H17R24296   0.647   0.661  14.890
  196DOPC  H17S24297   0.588   0.497  14.845
  196DOPC  C21824298   0.438   0.647  14.834
  196DOPC  H18R24299   0.411   0.651  14.941
  196DOPC  H18S24300   0.367   0.581  14.782
  196DOPC  H18T24301   0.425   0.748  14.789
  196DOPC   C3324302   0.766   0.575  13.511
  196DOPC   H3X24303   0.710   0.668  13.487
  196DOPC   H3Y24304   0.827   0.554  13.420
  196DOPC   C3424305   0.861   0.605  13.627
  196DOPC   H4X24306   0.921   0.696  13.601
  196DOPC   H4Y24307   0.932   0.520  13.636
  196DOPC   C3524308   0.792   0.630  13.761
  196DOPC   H5X24309   0.703   0.565  13.776
  196DOPC   H5Y24310   0.753   0.732  13.761
  196DOPC   C3624311   0.883   0.608  13.880
  196DOPC   H6X24312   0.815   0.593  13.968
  196DOPC   H6Y24313   0.947   0.519  13.872
  196DOPC   C3724314   0.978   0.722  13.911
  196DOPC   H7X24315   1.072   0.710  13.854
  196DOPC   H7Y24316   0.935   0.820  13.883
  196DOPC   C3824317   1.007   0.707  14.060
  196DOPC   H8X24318   1.069   0.616  14.071
  196DOPC   H8Y24319   0.913   0.692  14.117
  196DOPC   C3924320   1.081   0.825  14.108
  196DOPC   H9X24321   1.152   0.856  14.032
  196DOPC  C31024322   1.062   0.897  14.220
  196DOPC  H10X24323   1.122   0.987  14.238
  196DOPC  C31124324   0.956   0.870  14.322
  196DOPC  H11X24325   0.900   0.776  14.302
  196DOPC  H11Y24326   0.882   0.952  14.324
  196DOPC  C31224327   1.018   0.861  14.460
  196DOPC  H12X24328   1.055   0.960  14.494
  196DOPC  H12Y24329   1.104   0.792  14.455
  196DOPC  C31324330   0.922   0.802  14.561
  196DOPC  H13X24331   0.850   0.880  14.594
  196DOPC  H13Y24332   0.867   0.717  14.517
  196DOPC  C31424333   1.006   0.749  14.675
  196DOPC  H14X24334   1.059   0.658  14.640
  196DOPC  H14Y24335   1.084   0.826  14.695
  196DOPC  C31524336   0.933   0.724  14.808
  196DOPC  H15X24337   0.832   0.768  14.805
  196DOPC  H15Y24338   0.989   0.776  14.888
  196DOPC  C31624339   0.932   0.574  14.841
  196DOPC  H16X24340   0.859   0.526  14.776
  196DOPC  H16Y24341   1.027   0.530  14.809
  196DOPC  C31724342   0.907   0.541  14.989
  196DOPC  H17X24343   0.955   0.623  15.047
  196DOPC  H17Y24344   0.798   0.549  15.008
  196DOPC  C31824345   0.959   0.406  15.040
  196DOPC  H18X24346   0.939   0.322  14.974
  196DOPC  H18Y24347   1.067   0.403  15.051
  196DOPC  H18Z24348   0.917   0.377  15.137
  197DOPC     N24349   1.294   7.352  12.929
  197DOPC   C1224350   1.357   7.412  13.055
  197DOPC  H12A24351   1.281   7.460  13.114
  197DOPC  H12B24352   1.432   7.485  13.026
  197DOPC   C1324353   1.187   7.252  12.962
  197DOPC  H13A24354   1.148   7.205  12.872
  197DOPC  H13B24355   1.227   7.173  13.025
  197DOPC  H13C24356   1.101   7.294  13.013
  197DOPC   C1424357   1.403   7.277  12.856
  197DOPC  H14A24358   1.435   7.192  12.917
  197DOPC  H14B24359   1.370   7.243  12.758
  197DOPC  H14C24360   1.491   7.339  12.844
  197DOPC   C1524361   1.240   7.459  12.843
  197DOPC  H15A24362   1.147   7.499  12.883
  197DOPC  H15B24363   1.221   7.420  12.743
  197DOPC  H15C24364   1.313   7.539  12.829
  197DOPC   C1124365   1.433   7.315  13.146
  197DOPC  H11A24366   1.431   7.356  13.251
  197DOPC  H11B24367   1.377   7.219  13.145
  197DOPC     P24368   1.644   7.183  13.186
  197DOPC   O1324369   1.623   7.210  13.329
  197DOPC   O1424370   1.783   7.171  13.138
  197DOPC   O1224371   1.569   7.298  13.103
  197DOPC   O1124372   1.559   7.059  13.136
  197DOPC    C124373   1.532   6.941  13.211
  197DOPC    HA24374   1.594   6.935  13.303
  197DOPC    HB24375   1.556   6.853  13.149
  197DOPC    C224376   1.382   6.928  13.253
  197DOPC    HS24377   1.326   6.902  13.160
  197DOPC   O2124378   1.336   7.053  13.306
  197DOPC   C2124379   1.207   7.074  13.297
  197DOPC   O2224380   1.125   6.999  13.249
  197DOPC   C2224381   1.180   7.214  13.352
  197DOPC   H2R24382   1.073   7.234  13.356
  197DOPC   H2S24383   1.225   7.290  13.287
  197DOPC    C324384   1.360   6.813  13.356
  197DOPC    HX24385   1.414   6.724  13.317
  197DOPC    HY24386   1.251   6.787  13.357
  197DOPC   O3124387   1.414   6.850  13.486
  197DOPC   C3124388   1.326   6.863  13.586
  197DOPC   O3224389   1.212   6.822  13.583
  197DOPC   C3224390   1.379   6.940  13.708
  197DOPC   H2X24391   1.296   7.008  13.737
  197DOPC   H2Y24392   1.392   6.871  13.793
  197DOPC   C2324393   1.234   7.226  13.493
  197DOPC   H3R24394   1.345   7.234  13.494
  197DOPC   H3S24395   1.205   7.135  13.550
  197DOPC   C2424396   1.172   7.345  13.561
  197DOPC   H4R24397   1.063   7.356  13.536
  197DOPC   H4S24398   1.224   7.438  13.529
  197DOPC   C2524399   1.183   7.324  13.710
  197DOPC   H5R24400   1.160   7.419  13.761
  197DOPC   H5S24401   1.286   7.288  13.734
  197DOPC   C2624402   1.080   7.227  13.765
  197DOPC   H6R24403   1.112   7.124  13.741
  197DOPC   H6S24404   0.980   7.244  13.719
  197DOPC   C2724405   1.069   7.255  13.915
  197DOPC   H7R24406   1.010   7.348  13.931
  197DOPC   H7S24407   1.173   7.275  13.951
  197DOPC   C2824408   1.014   7.141  13.997
  197DOPC   H8R24409   0.915   7.107  13.964
  197DOPC   H8S24410   0.997   7.183  14.099
  197DOPC   C2924411   1.124   7.037  13.990
  197DOPC   H9R24412   1.146   6.994  13.891
  197DOPC  C21024413   1.181   6.984  14.097
  197DOPC  H10R24414   1.259   6.907  14.086
  197DOPC  C21124415   1.140   7.019  14.235
  197DOPC  H11R24416   1.130   6.921  14.283
  197DOPC  H11S24417   1.036   7.056  14.238
  197DOPC  C21224418   1.226   7.103  14.326
  197DOPC  H12R24419   1.187   7.100  14.431
  197DOPC  H12S24420   1.225   7.210  14.299
  197DOPC  C21324421   1.363   7.042  14.340
  197DOPC  H13R24422   1.415   7.115  14.403
  197DOPC  H13S24423   1.412   7.023  14.242
  197DOPC  C21424424   1.355   6.918  14.426
  197DOPC  H14R24425   1.422   6.840  14.389
  197DOPC  H14S24426   1.254   6.876  14.418
  197DOPC  C21524427   1.371   6.944  14.575
  197DOPC  H15R24428   1.309   7.031  14.605
  197DOPC  H15S24429   1.477   6.965  14.601
  197DOPC  C21624430   1.314   6.819  14.641
  197DOPC  H16R24431   1.364   6.729  14.599
  197DOPC  H16S24432   1.206   6.814  14.614
  197DOPC  C21724433   1.322   6.823  14.790
  197DOPC  H17R24434   1.292   6.926  14.818
  197DOPC  H17S24435   1.426   6.804  14.823
  197DOPC  C21824436   1.225   6.729  14.860
  197DOPC  H18R24437   1.246   6.623  14.836
  197DOPC  H18S24438   1.121   6.753  14.831
  197DOPC  H18T24439   1.231   6.741  14.969
  197DOPC   C3324440   1.504   7.026  13.678
  197DOPC   H3X24441   1.468   7.109  13.613
  197DOPC   H3Y24442   1.575   6.967  13.616
  197DOPC   C3424443   1.582   7.085  13.797
  197DOPC   H4X24444   1.520   7.090  13.889
  197DOPC   H4Y24445   1.608   7.189  13.769
  197DOPC   C3524446   1.716   7.010  13.818
  197DOPC   H5X24447   1.762   6.992  13.718
  197DOPC   H5Y24448   1.695   6.914  13.863
  197DOPC   C3624449   1.823   7.073  13.908
  197DOPC   H6X24450   1.856   7.163  13.851
  197DOPC   H6Y24451   1.776   7.100  14.006
  197DOPC   C3724452   1.948   6.987  13.931
  197DOPC   H7X24453   1.914   6.881  13.922
  197DOPC   H7Y24454   2.020   7.007  13.849
  197DOPC   C3824455   2.022   6.996  14.067
  197DOPC   H8X24456   2.069   6.896  14.081
  197DOPC   H8Y24457   1.948   6.998  14.147
  197DOPC   C3924458   2.133   7.096  14.095
  197DOPC   H9X24459   2.228   7.072  14.047
  197DOPC  C31024460   2.129   7.200  14.181
  197DOPC  H10X24461   2.217   7.257  14.207
  197DOPC  C31124462   2.010   7.232  14.264
  197DOPC  H11X24463   1.972   7.141  14.305
  197DOPC  H11Y24464   1.938   7.240  14.190
  197DOPC  C31224465   2.005   7.341  14.374
  197DOPC  H12X24466   1.925   7.418  14.362
  197DOPC  H12Y24467   2.094   7.397  14.346
  197DOPC  C31324468   1.966   7.273  14.511
  197DOPC  H13X24469   1.861   7.303  14.529
  197DOPC  H13Y24470   1.971   7.169  14.496
  197DOPC  C31424471   2.032   7.277  14.650
  197DOPC  H14X24472   2.142   7.268  14.653
  197DOPC  H14Y24473   2.012   7.383  14.658
  197DOPC  C31524474   1.952   7.221  14.777
  197DOPC  H15X24475   1.848   7.238  14.746
  197DOPC  H15Y24476   1.991   7.276  14.866
  197DOPC  C31624477   1.903   7.085  14.836
  197DOPC  H16X24478   1.848   7.025  14.759
  197DOPC  H16Y24479   1.982   7.020  14.880
  197DOPC  C31724480   1.799   7.107  14.945
  197DOPC  H17X24481   1.848   7.143  15.038
  197DOPC  H17Y24482   1.723   7.183  14.915
  197DOPC  C31824483   1.728   6.976  14.970
  197DOPC  H18X24484   1.798   6.890  14.968
  197DOPC  H18Y24485   1.681   6.980  15.069
  197DOPC  H18Z24486   1.650   6.957  14.893
  198DOPC     N24487   7.120   6.708  12.963
  198DOPC   C1224488   7.059   6.595  12.879
  198DOPC  H12A24489   7.112   6.590  12.785
  198DOPC  H12B24490   6.955   6.619  12.855
  198DOPC   C1324491   7.047   6.721  13.093
  198DOPC  H13A24492   6.941   6.732  13.080
  198DOPC  H13B24493   7.058   6.628  13.150
  198DOPC  H13C24494   7.084   6.799  13.157
  198DOPC   C1424495   7.107   6.833  12.883
  198DOPC  H14A24496   7.007   6.845  12.842
  198DOPC  H14B24497   7.123   6.919  12.947
  198DOPC  H14C24498   7.180   6.838  12.804
  198DOPC   C1524499   7.262   6.672  12.999
  198DOPC  H15A24500   7.331   6.668  12.916
  198DOPC  H15B24501   7.261   6.573  13.047
  198DOPC  H15C24502   7.303   6.740  13.074
  198DOPC   C1124503   7.054   6.456  12.944
  198DOPC  H11A24504   7.014   6.382  12.871
  198DOPC  H11B24505   7.155   6.424  12.977
  198DOPC     P24506   6.890   6.359  13.131
  198DOPC   O1324507   6.982   6.281  13.214
  198DOPC   O1424508   6.796   6.297  13.035
  198DOPC   O1224509   6.970   6.468  13.055
  198DOPC   O1124510   6.806   6.460  13.216
  198DOPC    C124511   6.734   6.565  13.149
  198DOPC    HA24512   6.648   6.523  13.091
  198DOPC    HB24513   6.798   6.627  13.084
  198DOPC    C224514   6.680   6.647  13.263
  198DOPC    HS24515   6.772   6.673  13.324
  198DOPC   O2124516   6.589   6.561  13.328
  198DOPC   C2124517   6.624   6.528  13.447
  198DOPC   O2224518   6.737   6.521  13.493
  198DOPC   C2224519   6.493   6.502  13.516
  198DOPC   H2R24520   6.472   6.395  13.515
  198DOPC   H2S24521   6.410   6.540  13.453
  198DOPC    C324522   6.601   6.776  13.249
  198DOPC    HX24523   6.495   6.755  13.221
  198DOPC    HY24524   6.643   6.848  13.176
  198DOPC   O3124525   6.607   6.819  13.385
  198DOPC   C3124526   6.595   6.941  13.427
  198DOPC   O3224527   6.563   7.039  13.362
  198DOPC   C3224528   6.618   6.940  13.577
  198DOPC   H2X24529   6.586   7.038  13.617
  198DOPC   H2Y24530   6.555   6.860  13.620
  198DOPC   C2324531   6.482   6.574  13.652
  198DOPC   H3R24532   6.400   6.532  13.713
  198DOPC   H3S24533   6.450   6.673  13.615
  198DOPC   C2424534   6.606   6.614  13.734
  198DOPC   H4R24535   6.569   6.704  13.787
  198DOPC   H4S24536   6.692   6.647  13.673
  198DOPC   C2524537   6.655   6.521  13.844
  198DOPC   H5R24538   6.621   6.419  13.830
  198DOPC   H5S24539   6.610   6.563  13.937
  198DOPC   C2624540   6.806   6.509  13.865
  198DOPC   H6R24541   6.860   6.525  13.769
  198DOPC   H6S24542   6.829   6.405  13.899
  198DOPC   C2724543   6.847   6.605  13.975
  198DOPC   H7R24544   6.779   6.594  14.063
  198DOPC   H7S24545   6.832   6.707  13.936
  198DOPC   C2824546   6.989   6.581  14.023
  198DOPC   H8R24547   7.048   6.533  13.942
  198DOPC   H8S24548   6.984   6.510  14.109
  198DOPC   C2924549   7.051   6.711  14.059
  198DOPC   H9R24550   7.046   6.787  13.979
  198DOPC  C21024551   7.109   6.746  14.174
  198DOPC  H10R24552   7.157   6.842  14.169
  198DOPC  C21124553   7.130   6.665  14.301
  198DOPC  H11R24554   7.239   6.644  14.310
  198DOPC  H11S24555   7.079   6.567  14.290
  198DOPC  C21224556   7.086   6.719  14.440
  198DOPC  H12R24557   7.152   6.802  14.472
  198DOPC  H12S24558   7.100   6.637  14.514
  198DOPC  C21324559   6.939   6.762  14.447
  198DOPC  H13R24560   6.878   6.679  14.407
  198DOPC  H13S24561   6.922   6.850  14.380
  198DOPC  C21424562   6.887   6.797  14.589
  198DOPC  H14R24563   6.889   6.705  14.651
  198DOPC  H14S24564   6.781   6.829  14.579
  198DOPC  C21524565   6.962   6.908  14.663
  198DOPC  H15R24566   6.977   6.992  14.593
  198DOPC  H15S24567   7.063   6.871  14.693
  198DOPC  C21624568   6.888   6.962  14.787
  198DOPC  H16R24569   6.924   6.911  14.878
  198DOPC  H16S24570   6.779   6.940  14.776
  198DOPC  C21724571   6.903   7.113  14.807
  198DOPC  H17R24572   7.011   7.138  14.813
  198DOPC  H17S24573   6.857   7.139  14.906
  198DOPC  C21824574   6.835   7.194  14.697
  198DOPC  H18R24575   6.818   7.298  14.731
  198DOPC  H18S24576   6.736   7.149  14.672
  198DOPC  H18T24577   6.897   7.196  14.606
  198DOPC   C3324578   6.761   6.906  13.621
  198DOPC   H3X24579   6.829   6.984  13.582
  198DOPC   H3Y24580   6.793   6.807  13.581
  198DOPC   C3424581   6.775   6.903  13.774
  198DOPC   H4X24582   6.876   6.869  13.804
  198DOPC   H4Y24583   6.707   6.831  13.821
  198DOPC   C3524584   6.745   7.037  13.836
  198DOPC   H5X24585   6.638   7.063  13.819
  198DOPC   H5Y24586   6.807   7.115  13.787
  198DOPC   C3624587   6.771   7.032  13.985
  198DOPC   H6X24588   6.829   6.941  14.014
  198DOPC   H6Y24589   6.831   7.120  14.014
  198DOPC   C3724590   6.644   7.043  14.067
  198DOPC   H7X24591   6.677   7.093  14.161
  198DOPC   H7Y24592   6.568   7.106  14.017
  198DOPC   C3824593   6.589   6.907  14.103
  198DOPC   H8X24594   6.675   6.840  14.126
  198DOPC   H8Y24595   6.534   6.860  14.018
  198DOPC   C3924596   6.504   6.937  14.222
  198DOPC   H9X24597   6.432   7.020  14.212
  198DOPC  C31024598   6.507   6.864  14.333
  198DOPC  H10X24599   6.443   6.891  14.419
  198DOPC  C31124600   6.594   6.745  14.349
  198DOPC  H11X24601   6.691   6.779  14.388
  198DOPC  H11Y24602   6.612   6.690  14.254
  198DOPC  C31224603   6.526   6.647  14.444
  198DOPC  H12X24604   6.447   6.591  14.391
  198DOPC  H12Y24605   6.479   6.701  14.529
  198DOPC  C31324606   6.627   6.549  14.502
  198DOPC  H13X24607   6.680   6.497  14.419
  198DOPC  H13Y24608   6.706   6.605  14.556
  198DOPC  C31424609   6.556   6.449  14.594
  198DOPC  H14X24610   6.479   6.396  14.534
  198DOPC  H14Y24611   6.629   6.374  14.630
  198DOPC  C31524612   6.488   6.509  14.718
  198DOPC  H15X24613   6.471   6.427  14.791
  198DOPC  H15Y24614   6.389   6.550  14.690
  198DOPC  C31624615   6.565   6.620  14.788
  198DOPC  H16X24616   6.575   6.710  14.724
  198DOPC  H16Y24617   6.507   6.651  14.878
  198DOPC  C31724618   6.701   6.572  14.831
  198DOPC  H17X24619   6.693   6.471  14.879
  198DOPC  H17Y24620   6.770   6.561  14.745
  198DOPC  C31824621   6.760   6.667  14.931
  198DOPC  H18X24622   6.701   6.668  15.024
  198DOPC  H18Y24623   6.863   6.634  14.951
  198DOPC  H18Z24624   6.763   6.770  14.890
  199DOPC     N24625   6.422   0.276  12.949
  199DOPC   C1224626   6.392   0.425  12.946
  199DOPC  H12A24627   6.393   0.458  12.843
  199DOPC  H12B24628   6.471   0.479  12.999
  199DOPC   C1324629   6.447   0.234  13.090
  199DOPC  H13A24630   6.531   0.290  13.132
  199DOPC  H13B24631   6.362   0.266  13.151
  199DOPC  H13C24632   6.463   0.128  13.099
  199DOPC   C1424633   6.539   0.240  12.863
  199DOPC  H14A24634   6.547   0.132  12.856
  199DOPC  H14B24635   6.527   0.280  12.763
  199DOPC  H14C24636   6.631   0.278  12.906
  199DOPC   C1524637   6.302   0.206  12.893
  199DOPC  H15A24638   6.289   0.233  12.788
  199DOPC  H15B24639   6.213   0.242  12.945
  199DOPC  H15C24640   6.308   0.099  12.900
  199DOPC   C1124641   6.258   0.471  13.010
  199DOPC  H11A24642   6.244   0.581  12.994
  199DOPC  H11B24643   6.173   0.424  12.956
  199DOPC     P24644   6.333   0.530  13.244
  199DOPC   O1324645   6.252   0.650  13.269
  199DOPC   O1424646   6.472   0.545  13.193
  199DOPC   O1224647   6.251   0.435  13.149
  199DOPC   O1124648   6.336   0.446  13.377
  199DOPC    C124649   6.373   0.509  13.499
  199DOPC    HA24650   6.299   0.481  13.577
  199DOPC    HB24651   6.375   0.621  13.494
  199DOPC    C224652   6.513   0.462  13.541
  199DOPC    HS24653   6.587   0.500  13.466
  199DOPC   O2124654   6.511   0.320  13.551
  199DOPC   C2124655   6.585   0.251  13.469
  199DOPC   O2224656   6.657   0.292  13.380
  199DOPC   C2224657   6.576   0.108  13.516
  199DOPC   H2R24658   6.609   0.042  13.433
  199DOPC   H2S24659   6.471   0.084  13.542
  199DOPC    C324660   6.549   0.518  13.680
  199DOPC    HX24661   6.557   0.628  13.673
  199DOPC    HY24662   6.650   0.475  13.704
  199DOPC   O3124663   6.447   0.481  13.775
  199DOPC   C3124664   6.492   0.460  13.897
  199DOPC   O3224665   6.607   0.467  13.933
  199DOPC   C3224666   6.374   0.437  13.990
  199DOPC   H2X24667   6.287   0.398  13.934
  199DOPC   H2Y24668   6.406   0.366  14.069
  199DOPC   C2324669   6.668   0.092  13.638
  199DOPC   H3R24670   6.769   0.133  13.618
  199DOPC   H3S24671   6.675  -0.016  13.656
  199DOPC   C2424672   6.616   0.143  13.772
  199DOPC   H4R24673   6.597   0.252  13.769
  199DOPC   H4S24674   6.695   0.125  13.849
  199DOPC   C2524675   6.490   0.066  13.814
  199DOPC   H5R24676   6.504  -0.043  13.796
  199DOPC   H5S24677   6.404   0.099  13.752
  199DOPC   C2624678   6.461   0.088  13.961
  199DOPC   H6R24679   6.454   0.196  13.976
  199DOPC   H6S24680   6.545   0.052  14.025
  199DOPC   C2724681   6.330   0.025  14.008
  199DOPC   H7R24682   6.350  -0.081  14.036
  199DOPC   H7S24683   6.256   0.023  13.925
  199DOPC   C2824684   6.278   0.106  14.128
  199DOPC   H8R24685   6.365   0.154  14.179
  199DOPC   H8S24686   6.236   0.038  14.201
  199DOPC   C2924687   6.173   0.207  14.092
  199DOPC   H9R24688   6.164   0.230  13.984
  199DOPC  C21024689   6.089   0.264  14.180
  199DOPC  H10R24690   6.016   0.339  14.144
  199DOPC  C21124691   6.086   0.236  14.328
  199DOPC  H11R24692   6.139   0.141  14.353
  199DOPC  H11S24693   5.980   0.218  14.356
  199DOPC  C21224694   6.141   0.344  14.423
  199DOPC  H12R24695   6.092   0.330  14.522
  199DOPC  H12S24696   6.112   0.444  14.386
  199DOPC  C21324697   6.293   0.343  14.451
  199DOPC  H13R24698   6.317   0.438  14.504
  199DOPC  H13S24699   6.354   0.339  14.359
  199DOPC  C21424700   6.335   0.227  14.540
  199DOPC  H14R24701   6.326   0.134  14.483
  199DOPC  H14S24702   6.267   0.221  14.627
  199DOPC  C21524703   6.477   0.236  14.590
  199DOPC  H15R24704   6.546   0.243  14.502
  199DOPC  H15S24705   6.504   0.143  14.644
  199DOPC  C21624706   6.496   0.356  14.681
  199DOPC  H16R24707   6.499   0.449  14.621
  199DOPC  H16S24708   6.596   0.337  14.723
  199DOPC  C21724709   6.405   0.375  14.802
  199DOPC  H17R24710   6.298   0.355  14.782
  199DOPC  H17S24711   6.413   0.483  14.830
  199DOPC  C21824712   6.456   0.299  14.925
  199DOPC  H18R24713   6.417   0.347  15.017
  199DOPC  H18S24714   6.566   0.303  14.930
  199DOPC  H18T24715   6.424   0.193  14.921
  199DOPC   C3324716   6.341   0.568  14.060
  199DOPC   H3X24717   6.297   0.640  13.988
  199DOPC   H3Y24718   6.437   0.605  14.103
  199DOPC   C3424719   6.243   0.559  14.175
  199DOPC   H4X24720   6.274   0.472  14.235
  199DOPC   H4Y24721   6.142   0.539  14.135
  199DOPC   C3524722   6.242   0.684  14.265
  199DOPC   H5X24723   6.157   0.672  14.335
  199DOPC   H5Y24724   6.221   0.774  14.204
  199DOPC   C3624725   6.371   0.708  14.345
  199DOPC   H6X24726   6.401   0.613  14.394
  199DOPC   H6Y24727   6.448   0.737  14.271
  199DOPC   C3724728   6.361   0.821  14.450
  199DOPC   H7X24729   6.311   0.909  14.406
  199DOPC   H7Y24730   6.293   0.782  14.529
  199DOPC   C3824731   6.491   0.867  14.527
  199DOPC   H8X24732   6.522   0.778  14.585
  199DOPC   H8Y24733   6.452   0.943  14.598
  199DOPC   C3924734   6.619   0.927  14.474
  199DOPC   H9X24735   6.644   1.029  14.508
  199DOPC  C31024736   6.706   0.861  14.397
  199DOPC  H10X24737   6.797   0.912  14.362
  199DOPC  C31124738   6.687   0.718  14.353
  199DOPC  H11X24739   6.670   0.715  14.243
  199DOPC  H11Y24740   6.599   0.675  14.404
  199DOPC  C31224741   6.788   0.609  14.385
  199DOPC  H12X24742   6.885   0.627  14.337
  199DOPC  H12Y24743   6.743   0.514  14.350
  199DOPC  C31324744   6.810   0.592  14.533
  199DOPC  H13X24745   6.912   0.627  14.555
  199DOPC  H13Y24746   6.737   0.661  14.580
  199DOPC  C31424747   6.798   0.447  14.582
  199DOPC  H14X24748   6.706   0.401  14.543
  199DOPC  H14Y24749   6.884   0.386  14.550
  199DOPC  C31524750   6.817   0.434  14.731
  199DOPC  H15X24751   6.926   0.445  14.750
  199DOPC  H15Y24752   6.792   0.332  14.766
  199DOPC  C31624753   6.740   0.541  14.808
  199DOPC  H16X24754   6.740   0.643  14.766
  199DOPC  H16Y24755   6.633   0.515  14.818
  199DOPC  C31724756   6.807   0.558  14.941
  199DOPC  H17X24757   6.869   0.469  14.961
  199DOPC  H17Y24758   6.873   0.648  14.934
  199DOPC  C31824759   6.703   0.574  15.048
  199DOPC  H18X24760   6.751   0.560  15.146
  199DOPC  H18Y24761   6.655   0.674  15.042
  199DOPC  H18Z24762   6.623   0.497  15.038
  200DOPC     N24763   1.196   0.187  12.918
  200DOPC   C1224764   1.198   0.337  12.949
  200DOPC  H12A24765   1.149   0.386  12.864
  200DOPC  H12B24766   1.300   0.372  12.956
  200DOPC   C1324767   1.247   0.107  13.034
  200DOPC  H13A24768   1.187   0.130  13.122
  200DOPC  H13B24769   1.238   0.001  13.018
  200DOPC  H13C24770   1.350   0.129  13.057
  200DOPC   C1424771   1.273   0.164  12.793
  200DOPC  H14A24772   1.379   0.178  12.810
  200DOPC  H14B24773   1.257   0.063  12.755
  200DOPC  H14C24774   1.243   0.232  12.714
  200DOPC   C1524775   1.058   0.132  12.890
  200DOPC  H15A24776   1.011   0.175  12.802
  200DOPC  H15B24777   0.991   0.155  12.974
  200DOPC  H15C24778   1.056   0.025  12.881
  200DOPC   C1124779   1.122   0.388  13.072
  200DOPC  H11A24780   1.173   0.363  13.168
  200DOPC  H11B24781   1.106   0.498  13.069
  200DOPC     P24782   0.874   0.323  13.146
  200DOPC   O1324783   0.821   0.185  13.148
  200DOPC   O1424784   0.787   0.433  13.100
  200DOPC   O1224785   1.000   0.325  13.058
  200DOPC   O1124786   0.939   0.351  13.288
  200DOPC    C124787   0.999   0.238  13.354
  200DOPC    HA24788   1.084   0.274  13.415
  200DOPC    HB24789   1.044   0.164  13.284
  200DOPC    C224790   0.896   0.165  13.444
  200DOPC    HS24791   0.795   0.171  13.396
  200DOPC   O2124792   0.896   0.234  13.571
  200DOPC   C2124793   0.837   0.189  13.681
  200DOPC   O2224794   0.784   0.082  13.696
  200DOPC   C2224795   0.852   0.296  13.790
  200DOPC   H2R24796   0.764   0.362  13.784
  200DOPC   H2S24797   0.940   0.356  13.762
  200DOPC    C324798   0.935   0.015  13.451
  200DOPC    HX24799   0.939  -0.022  13.345
  200DOPC    HY24800   0.856  -0.043  13.503
  200DOPC   O3124801   1.066   0.001  13.508
  200DOPC   C3124802   1.060  -0.041  13.634
  200DOPC   O3224803   0.979  -0.118  13.681
  200DOPC   C3224804   1.167   0.029  13.714
  200DOPC   H2X24805   1.155   0.002  13.821
  200DOPC   H2Y24806   1.259  -0.017  13.680
  200DOPC   C2324807   0.867   0.253  13.939
  200DOPC   H3R24808   0.767   0.236  13.983
  200DOPC   H3S24809   0.913   0.338  13.995
  200DOPC   C2424810   0.952   0.129  13.966
  200DOPC   H4R24811   1.046   0.158  14.018
  200DOPC   H4S24812   0.978   0.080  13.871
  200DOPC   C2524813   0.881   0.023  14.049
  200DOPC   H5R24814   0.828  -0.042  13.976
  200DOPC   H5S24815   0.809   0.072  14.117
  200DOPC   C2624816   0.976  -0.058  14.137
  200DOPC   H6R24817   1.065  -0.088  14.078
  200DOPC   H6S24818   0.925  -0.150  14.171
  200DOPC   C2724819   1.015   0.027  14.259
  200DOPC   H7R24820   0.929   0.033  14.330
  200DOPC   H7S24821   1.032   0.129  14.222
  200DOPC   C2824822   1.139  -0.017  14.335
  200DOPC   H8R24823   1.147   0.040  14.430
  200DOPC   H8S24824   1.231   0.009  14.277
  200DOPC   C2924825   1.130  -0.165  14.356
  200DOPC   H9R24826   1.154  -0.222  14.265
  200DOPC  C21024827   1.091  -0.233  14.464
  200DOPC  H10R24828   1.089  -0.343  14.458
  200DOPC  C21124829   1.043  -0.175  14.593
  200DOPC  H11R24830   0.952  -0.228  14.625
  200DOPC  H11S24831   1.007  -0.073  14.572
  200DOPC  C21224832   1.125  -0.181  14.723
  200DOPC  H12R24833   1.234  -0.193  14.712
  200DOPC  H12S24834   1.091  -0.267  14.786
  200DOPC  C21324835   1.108  -0.050  14.797
  200DOPC  H13R24836   1.177  -0.055  14.882
  200DOPC  H13S24837   1.009  -0.048  14.845
  200DOPC  C21424838   1.146   0.071  14.708
  200DOPC  H14R24839   1.067   0.109  14.645
  200DOPC  H14S24840   1.222   0.036  14.637
  200DOPC  C21524841   1.213   0.183  14.784
  200DOPC  H15R24842   1.273   0.120  14.845
  200DOPC  H15S24843   1.141   0.238  14.848
  200DOPC  C21624844   1.314   0.268  14.708
  200DOPC  H16R24845   1.345   0.359  14.758
  200DOPC  H16S24846   1.261   0.305  14.617
  200DOPC  C21724847   1.453   0.208  14.672
  200DOPC  H17R24848   1.460   0.287  14.599
  200DOPC  H17S24849   1.449   0.116  14.611
  200DOPC  C21824850   1.590   0.231  14.745
  200DOPC  H18R24851   1.663   0.284  14.681
  200DOPC  H18S24852   1.645   0.136  14.760
  200DOPC  H18T24853   1.587   0.290  14.838
  200DOPC   C3324854   1.165   0.181  13.693
  200DOPC   H3X24855   1.083   0.224  13.752
  200DOPC   H3Y24856   1.150   0.209  13.587
  200DOPC   C3424857   1.287   0.254  13.741
  200DOPC   H4X24858   1.276   0.363  13.720
  200DOPC   H4Y24859   1.376   0.218  13.687
  200DOPC   C3524860   1.310   0.227  13.888
  200DOPC   H5X24861   1.386   0.147  13.900
  200DOPC   H5Y24862   1.215   0.189  13.930
  200DOPC   C3624863   1.348   0.348  13.971
  200DOPC   H6X24864   1.450   0.382  13.945
  200DOPC   H6Y24865   1.277   0.432  13.957
  200DOPC   C3724866   1.347   0.300  14.115
  200DOPC   H7X24867   1.376   0.192  14.118
  200DOPC   H7Y24868   1.425   0.355  14.168
  200DOPC   C3824869   1.215   0.322  14.189
  200DOPC   H8X24870   1.206   0.239  14.262
  200DOPC   H8Y24871   1.130   0.316  14.118
  200DOPC   C3924872   1.217   0.452  14.263
  200DOPC   H9X24873   1.317   0.495  14.279
  200DOPC  C31024874   1.110   0.518  14.311
  200DOPC  H10X24875   1.125   0.617  14.355
  200DOPC  C31124876   0.968   0.474  14.302
  200DOPC  H11X24877   0.940   0.457  14.196
  200DOPC  H11Y24878   0.901   0.554  14.340
  200DOPC  C31224879   0.944   0.345  14.382
  200DOPC  H12X24880   1.021   0.270  14.358
  200DOPC  H12Y24881   0.846   0.302  14.351
  200DOPC  C31324882   0.947   0.361  14.534
  200DOPC  H13X24883   1.053   0.358  14.568
  200DOPC  H13Y24884   0.906   0.460  14.561
  200DOPC  C31424885   0.868   0.250  14.602
  200DOPC  H14X24886   0.768   0.247  14.562
  200DOPC  H14Y24887   0.903   0.150  14.575
  200DOPC  C31524888   0.853   0.270  14.752
  200DOPC  H15X24889   0.780   0.352  14.764
  200DOPC  H15Y24890   0.953   0.301  14.787
  200DOPC  C31624891   0.799   0.147  14.826
  200DOPC  H16X24892   0.706   0.123  14.774
  200DOPC  H16Y24893   0.867   0.065  14.808
  200DOPC  C31724894   0.756   0.158  14.973
  200DOPC  H17X24895   0.703   0.065  15.004
  200DOPC  H17Y24896   0.844   0.162  15.040
  200DOPC  C31824897   0.665   0.279  14.996
  200DOPC  H18X24898   0.659   0.306  15.103
  200DOPC  H18Y24899   0.705   0.367  14.944
  200DOPC  H18Z24900   0.563   0.259  14.954
  201SOD    SOD24901   7.226   1.885  17.510
  202SOD    SOD24902   6.574   6.386  12.450
  203SOD    SOD24903   7.046   1.832  19.942
  204SOD    SOD24904   7.367   6.946   9.963
  205SOD    SOD24905   6.179   3.132  19.695
  206SOD    SOD24906   2.708   2.551  11.429
  207SOD    SOD24907   1.622   1.175  12.003
  208SOD    SOD24908   3.725   3.174  18.773
  209SOD    SOD24909   1.063   2.690  12.643
  210SOD    SOD24910   4.700   0.701  17.228
  211SOD    SOD24911   2.353   2.532  19.272
  212SOD    SOD24912   0.542   5.012  19.175
  213SOD    SOD24913   2.463   5.560  10.012
  214SOD    SOD24914   2.306   3.212  18.798
  215SOD    SOD24915   6.651   5.079  19.351
  216SOD    SOD24916   1.898   5.681  18.546
  217SOD    SOD24917   0.941   2.653  11.471
  218SOD    SOD24918   5.915   4.105  19.371
  219SOD    SOD24919   7.087   2.824  19.630
  220SOD    SOD24920   4.019   2.141  10.576
  221SOD    SOD24921   0.332   7.015  11.273
  222SOD    SOD24922   4.925   5.392  18.070
  223SOD    SOD24923   2.796   6.079  11.512
  224SOD    SOD24924   0.378   4.683  10.722
  225SOD    SOD24925   3.095   2.109  11.531
  226SOD    SOD24926   0.875   7.276  19.362
  227CLA    CLA24927   6.011   3.607  11.521
  228CLA    CLA24928   4.964   4.876  10.101
  229CLA    CLA24929   0.449   4.652  11.895
  230CLA    CLA24930   5.820   3.079  18.108
  231CLA    CLA24931   4.582   6.631  19.880
  232CLA    CLA24932   4.697   2.787  19.713
  233CLA    CLA24933   4.586   1.240  18.181
  234CLA    CLA24934   6.226   5.696  19.003
  235CLA    CLA24935   1.464   0.664  10.072
  236CLA    CLA24936   2.685   0.583  18.490
  237CLA    CLA24937   2.516   2.109  17.705
  238CLA    CLA24938   5.280   1.427  11.714
  239CLA    CLA24939   7.296   0.695  12.185
  240CLA    CLA24940   6.427   4.022  17.140
  241CLA    CLA24941   4.853   7.260  12.373
  242CLA    CLA24942   5.220   3.167  18.197
  243CLA    CLA24943   0.800   0.645  11.548
  244CLA    CLA24944   3.424   2.485  12.064
  245CLA    CLA24945   7.162   6.357  11.995
  246CLA    CLA24946   1.093   0.750  19.715
  247CLA    CLA24947   4.095   0.743  11.557
  248CLA    CLA24948   4.533   4.435  11.844
  249CLA    CLA24949   1.895   6.177  11.890
  250CLA    CLA24950   4.607   2.798  18.765
  251CLA    CLA24951   1.266   3.270  17.954
  252CLA    CLA24952   0.651   2.282  12.359
  253TIP3   OH224953   4.094   4.871  16.946
  253TIP3    H124954   4.091   4.783  16.904
  253TIP3    H224955   4.154   4.857  17.020
  254TIP3   OH224956   4.094   4.454  17.130
  254TIP3    H124957   4.021   4.497  17.177
  254TIP3    H224958   4.085   4.490  17.041
  255TIP3   OH224959   2.838   4.408  16.958
  255TIP3    H124960   2.864   4.478  17.019
  255TIP3    H224961   2.772   4.453  16.902
  256TIP3   OH224962   2.517   4.733  17.032
  256TIP3    H124963   2.436   4.742  16.981
  256TIP3    H224964   2.481   4.707  17.119
  257TIP3   OH224965   2.307   2.837  16.975
  257TIP3    H124966   2.326   2.886  17.056
  257TIP3    H224967   2.391   2.845  16.927
  258TIP3   OH224968   6.040   4.035  17.183
  258TIP3    H124969   6.071   4.125  17.164
  258TIP3    H224970   6.082   3.984  17.111
  259TIP3   OH224971   5.811   4.023  16.872
  259TIP3    H124972   5.882   4.085  16.849
  259TIP3    H224973   5.757   4.017  16.793
  260TIP3   OH224974   6.184   3.903  16.998
  260TIP3    H124975   6.265   3.922  17.050
  260TIP3    H224976   6.204   3.818  16.955
  261TIP3   OH224977   1.650   2.459  17.005
  261TIP3    H124978   1.717   2.446  16.937
  261TIP3    H224979   1.573   2.482  16.953
  262TIP3   OH224980   6.240   2.362  17.040
  262TIP3    H124981   6.168   2.381  16.976
  262TIP3    H224982   6.245   2.266  17.044
  263TIP3   OH224983   5.812   2.529  16.968
  263TIP3    H124984   5.825   2.618  17.004
  263TIP3    H224985   5.752   2.544  16.894
  264TIP3   OH224986   2.904   6.295  17.041
  264TIP3    H124987   2.905   6.257  17.130
  264TIP3    H224988   2.815   6.337  17.040
  265TIP3   OH224989   2.752   6.039  16.956
  265TIP3    H124990   2.706   5.989  17.026
  265TIP3    H224991   2.826   6.076  17.004
  266TIP3   OH224992   2.655   6.489  17.026
  266TIP3    H124993   2.624   6.580  17.007
  266TIP3    H224994   2.637   6.443  16.941
  267TIP3   OH224995   1.352   5.753  17.111
  267TIP3    H124996   1.392   5.666  17.100
  267TIP3    H224997   1.363   5.798  17.025
  268TIP3   OH224998   1.051   5.589  17.015
  268TIP3    H124999   1.118   5.555  17.076
  268TIP3    H225000   1.089   5.673  16.988
  269TIP3   OH225001   1.231   5.441  17.153
  269TIP3    H125002   1.236   5.430  17.056
  269TIP3    H225003   1.276   5.362  17.187
  270TIP3   OH225004   1.210   5.190  16.942
  270TIP3    H125005   1.170   5.204  17.029
  270TIP3    H225006   1.207   5.093  16.933
  271TIP3   OH225007   3.419   0.635  17.087
  271TIP3    H125008   3.402   0.725  17.120
  271TIP3    H225009   3.342   0.583  17.117
  272TIP3   OH225010   0.631   5.328  17.035
  272TIP3    H125011   0.662   5.237  17.031
  272TIP3    H225012   0.620   5.353  16.942
  273TIP3   OH225013   5.568   7.048  16.991
  273TIP3    H125014   5.482   7.090  16.971
  273TIP3    H225015   5.632   7.116  16.973
  274TIP3   OH225016   1.893   0.452  16.984
  274TIP3    H125017   1.908   0.437  17.079
  274TIP3    H225018   1.980   0.430  16.949
  275TIP3   OH225019   2.638   0.065  17.053
  275TIP3    H125020   2.721   0.093  17.092
  275TIP3    H225021   2.574   0.106  17.114
  276TIP3   OH225022   2.391   0.348  17.100
  276TIP3    H125023   2.427   0.425  17.145
  276TIP3    H225024   2.454   0.337  17.027
  277TIP3   OH225025   5.289   0.152  17.102
  277TIP3    H125026   5.248   0.130  17.017
  277TIP3    H225027   5.307   0.246  17.091
  278TIP3   OH225028   5.428   0.558  16.948
  278TIP3    H125029   5.462   0.589  16.864
  278TIP3    H225030   5.368   0.629  16.973
  279TIP3   OH225031   7.196   1.819  16.964
  279TIP3    H125032   7.113   1.818  16.915
  279TIP3    H225033   7.233   1.906  16.941
  280TIP3   OH225034   7.485   1.676  17.164
  280TIP3    H125035   7.518   1.744  17.103
  280TIP3    H225036   7.491   1.598  17.106
  281TIP3   OH225037   7.398   1.062  16.684
  281TIP3    H125038   7.415   1.134  16.746
  281TIP3    H225039   7.472   1.005  16.714
  282TIP3   OH225040   1.005   0.231  17.004
  282TIP3    H125041   0.929   0.172  16.995
  282TIP3    H225042   1.018   0.234  17.100
  283TIP3   OH225043   1.471   0.470  16.874
  283TIP3    H125044   1.437   0.406  16.939
  283TIP3    H225045   1.414   0.448  16.799
  284TIP3   OH225046   4.141   3.643  12.894
  284TIP3    H125047   4.211   3.589  12.933
  284TIP3    H225048   4.162   3.729  12.933
  285TIP3   OH225049   4.462   3.952  12.910
  285TIP3    H125050   4.418   4.002  12.840
  285TIP3    H225051   4.555   3.958  12.882
  286TIP3   OH225052   4.996   3.692  13.008
  286TIP3    H125053   5.048   3.766  13.045
  286TIP3    H225054   5.056   3.617  13.017
  287TIP3   OH225055   4.831   4.050  12.991
  287TIP3    H125056   4.910   4.098  12.965
  287TIP3    H225057   4.775   4.118  13.030
  288TIP3   OH225058   3.225   5.210  13.034
  288TIP3    H125059   3.219   5.114  13.034
  288TIP3    H225060   3.140   5.234  12.991
  289TIP3   OH225061   3.784   5.265  12.957
  289TIP3    H125062   3.751   5.352  12.933
  289TIP3    H225063   3.715   5.236  13.020
  290TIP3   OH225064   4.546   5.401  12.971
  290TIP3    H125065   4.505   5.321  13.007
  290TIP3    H225066   4.572   5.446  13.053
  291TIP3   OH225067   4.322   5.001  12.930
  291TIP3    H125068   4.252   4.936  12.911
  291TIP3    H225069   4.401   4.945  12.922
  292TIP3   OH225070   2.939   5.211  12.931
  292TIP3    H125071   2.865   5.272  12.949
  292TIP3    H225072   2.896   5.124  12.934
  293TIP3   OH225073   2.377   5.272  12.856
  293TIP3    H125074   2.393   5.178  12.837
  293TIP3    H225075   2.412   5.278  12.946
  294TIP3   OH225076   2.577   5.478  13.058
  294TIP3    H125077   2.586   5.441  12.969
  294TIP3    H225078   2.590   5.398  13.114
  295TIP3   OH225079   2.521   5.048  12.898
  295TIP3    H125080   2.494   4.958  12.922
  295TIP3    H225081   2.592   5.031  12.835
  296TIP3   OH225082   2.664   5.320  12.801
  296TIP3    H125083   2.692   5.290  12.713
  296TIP3    H225084   2.572   5.289  12.807
  297TIP3   OH225085   2.440   1.607  13.130
  297TIP3    H125086   2.497   1.548  13.078
  297TIP3    H225087   2.509   1.640  13.192
  298TIP3   OH225088   2.520   1.893  13.141
  298TIP3    H125089   2.515   1.825  13.074
  298TIP3    H225090   2.509   1.843  13.223
  299TIP3   OH225091   1.921   1.500  12.989
  299TIP3    H125092   1.840   1.464  12.950
  299TIP3    H225093   1.993   1.469  12.929
  300TIP3   OH225094   2.154   1.456  12.858
  300TIP3    H125095   2.215   1.531  12.873
  300TIP3    H225096   2.194   1.380  12.903
  301TIP3   OH225097   1.985   1.964  12.927
  301TIP3    H125098   2.015   1.901  12.994
  301TIP3    H225099   1.966   2.044  12.976
  302TIP3   OH225100   2.303   1.701  12.914
  302TIP3    H125101   2.233   1.735  12.972
  302TIP3    H225102   2.369   1.675  12.981
  303TIP3   OH225103   5.816   6.030  12.918
  303TIP3    H125104   5.755   6.073  12.856
  303TIP3    H225105   5.891   6.090  12.915
  304TIP3   OH225106   2.829   6.570  12.924
  304TIP3    H125107   2.883   6.610  12.854
  304TIP3    H225108   2.866   6.482  12.934
  305TIP3   OH225109   2.365   6.710  13.074
  305TIP3    H125110   2.417   6.628  13.083
  305TIP3    H225111   2.301   6.688  13.007
  306TIP3   OH225112   0.794   5.464  12.990
  306TIP3    H125113   0.791   5.552  13.033
  306TIP3    H225114   0.869   5.420  13.029
  307TIP3   OH225115   0.582   5.115  12.895
  307TIP3    H125116   0.676   5.103  12.914
  307TIP3    H225117   0.552   5.024  12.900
  308TIP3   OH225118   0.804   4.917  12.885
  308TIP3    H125119   0.899   4.914  12.895
  308TIP3    H225120   0.775   4.827  12.909
  309TIP3   OH225121   3.982   7.235  12.978
  309TIP3    H125122   3.930   7.167  13.024
  309TIP3    H225123   4.055   7.183  12.942
  310TIP3   OH225124   3.622   7.203  12.899
  310TIP3    H125125   3.613   7.245  12.812
  310TIP3    H225126   3.545   7.239  12.944
  311TIP3   OH225127   1.027   2.381  12.881
  311TIP3    H125128   1.049   2.299  12.831
  311TIP3    H225129   1.108   2.433  12.879
  312TIP3   OH225130   0.685   2.477  12.850
  312TIP3    H125131   0.676   2.392  12.805
  312TIP3    H225132   0.674   2.452  12.943
  313TIP3   OH225133   7.051   2.543  12.786
  313TIP3    H125134   7.134   2.499  12.805
  313TIP3    H225135   6.993   2.499  12.850
  314TIP3   OH225136   6.717   2.278  13.023
  314TIP3    H125137   6.677   2.200  13.062
  314TIP3    H225138   6.736   2.247  12.933
  315TIP3   OH225139   6.783   2.808  13.057
  315TIP3    H125140   6.815   2.720  13.082
  315TIP3    H225141   6.707   2.822  13.115
  316TIP3   OH225142   5.486   0.217  12.929
  316TIP3    H125143   5.413   0.160  12.903
  316TIP3    H225144   5.446   0.278  12.994
  317TIP3   OH225145   5.742   0.220  13.021
  317TIP3    H125146   5.729   0.126  13.007
  317TIP3    H225147   5.658   0.256  12.986
  318TIP3   OH225148   5.925   0.424  12.976
  318TIP3    H125149   5.837   0.395  13.003
  318TIP3    H225150   5.961   0.467  13.056
  319TIP3   OH225151   6.965   1.175  12.888
  319TIP3    H125152   6.905   1.169  12.965
  319TIP3    H225153   6.936   1.102  12.834
  320TIP3   OH225154   0.239   6.703  12.873
  320TIP3    H125155   0.261   6.797  12.882
  320TIP3    H225156   0.238   6.674  12.965
  321TIP3   OH225157   7.306   0.264  12.956
  321TIP3    H125158   7.246   0.214  12.894
  321TIP3    H225159   7.377   0.282  12.894
  322TIP3   OH225160   6.993   0.373  12.887
  322TIP3    H125161   7.013   0.283  12.857
  322TIP3    H225162   7.042   0.383  12.970
  323TIP3   OH225163   1.208   0.993  17.662
  323TIP3    H125164   1.210   1.084  17.698
  323TIP3    H225165   1.141   1.001  17.592
  324TIP3   OH225166   1.100   0.870  18.010
  324TIP3    H125167   1.101   0.835  18.103
  324TIP3    H225168   1.056   0.796  17.962
  325TIP3   OH225169   0.335   0.901  18.186
  325TIP3    H125170   0.293   0.825  18.231
  325TIP3    H225171   0.407   0.921  18.248
  326TIP3   OH225172   1.413   1.185  17.859
  326TIP3    H125173   1.400   1.114  17.924
  326TIP3    H225174   1.427   1.260  17.918
  327TIP3   OH225175   0.365   1.335  18.000
  327TIP3    H125176   0.344   1.243  17.970
  327TIP3    H225177   0.461   1.329  17.997
  328TIP3   OH225178   0.137   0.740  17.514
  328TIP3    H125179   0.044   0.708  17.513
  328TIP3    H225180   0.187   0.659  17.492
  329TIP3   OH225181   0.165   0.919  17.804
  329TIP3    H125182   0.160   0.826  17.831
  329TIP3    H225183   0.170   0.912  17.707
  330TIP3   OH225184   1.182   1.739  17.843
  330TIP3    H125185   1.251   1.682  17.801
  330TIP3    H225186   1.141   1.672  17.900
  331TIP3   OH225187   0.917   1.190  18.075
  331TIP3    H125188   0.952   1.118  18.021
  331TIP3    H225189   0.997   1.208  18.131
  332TIP3   OH225190   1.781   0.283  18.088
  332TIP3    H125191   1.794   0.363  18.143
  332TIP3    H225192   1.845   0.301  18.017
  333TIP3   OH225193   1.281   0.614  18.111
  333TIP3    H125194   1.300   0.521  18.133
  333TIP3    H225195   1.258   0.605  18.017
  334TIP3   OH225196   1.322   0.400  17.635
  334TIP3    H125197   1.373   0.376  17.715
  334TIP3    H225198   1.382   0.467  17.600
  335TIP3   OH225199   0.193   0.638  17.876
  335TIP3    H125200   0.282   0.610  17.899
  335TIP3    H225201   0.179   0.598  17.789
  336TIP3   OH225202   1.800   0.458  18.314
  336TIP3    H125203   1.755   0.545  18.303
  336TIP3    H225204   1.798   0.445  18.410
  337TIP3   OH225205   0.443   0.314  18.230
  337TIP3    H125206   0.415   0.371  18.158
  337TIP3    H225207   0.370   0.327  18.295
  338TIP3   OH225208   1.144   1.266  17.557
  338TIP3    H125209   1.091   1.261  17.476
  338TIP3    H225210   1.128   1.360  17.580
  339TIP3   OH225211   0.719   1.077  18.220
  339TIP3    H125212   0.662   1.149  18.252
  339TIP3    H225213   0.782   1.127  18.163
  340TIP3   OH225214   1.508   0.401  17.820
  340TIP3    H125215   1.482   0.387  17.912
  340TIP3    H225216   1.602   0.417  17.831
  341TIP3   OH225217   0.559   1.294  18.288
  341TIP3    H125218   0.556   1.364  18.222
  341TIP3    H225219   0.466   1.292  18.318
  342TIP3   OH225220   0.081   1.219  17.450
  342TIP3    H125221   0.118   1.201  17.363
  342TIP3    H225222   0.155   1.260  17.497
  343TIP3   OH225223   1.513   1.388  18.058
  343TIP3    H125224   1.421   1.407  18.086
  343TIP3    H225225   1.533   1.471  18.011
  344TIP3   OH225226   1.561   0.197  18.223
  344TIP3    H125227   1.500   0.225  18.153
  344TIP3    H225228   1.645   0.203  18.172
  345TIP3   OH225229   0.869   0.099  17.932
  345TIP3    H125230   0.846   0.008  17.961
  345TIP3    H225231   0.793   0.150  17.966
  346TIP3   OH225232   1.343   1.566  17.728
  346TIP3    H125233   1.357   1.486  17.673
  346TIP3    H225234   1.429   1.613  17.714
  347TIP3   OH225235   1.456   1.361  17.574
  347TIP3    H125236   1.441   1.298  17.501
  347TIP3    H225237   1.432   1.305  17.650
  348TIP3   OH225238   1.608   1.230  18.445
  348TIP3    H125239   1.628   1.160  18.378
  348TIP3    H225240   1.621   1.309  18.388
  349TIP3   OH225241   1.075   0.926  17.416
  349TIP3    H125242   1.010   0.983  17.370
  349TIP3    H225243   1.149   0.920  17.354
  350TIP3   OH225244   1.094   0.792  17.112
  350TIP3    H125245   1.176   0.795  17.163
  350TIP3    H225246   1.131   0.823  17.026
  351TIP3   OH225247   1.813   0.880  18.242
  351TIP3    H125248   1.745   0.949  18.227
  351TIP3    H225249   1.872   0.900  18.166
  352TIP3   OH225250   1.427   0.923  17.518
  352TIP3    H125251   1.353   0.941  17.580
  352TIP3    H225252   1.494   0.882  17.578
  353TIP3   OH225253   1.396   0.732  18.431
  353TIP3    H125254   1.379   0.825  18.456
  353TIP3    H225255   1.331   0.723  18.358
  354TIP3   OH225256   0.590   1.005  17.693
  354TIP3    H125257   0.540   0.987  17.610
  354TIP3    H225258   0.637   0.923  17.708
  355TIP3   OH225259   0.708   1.317  17.967
  355TIP3    H125260   0.709   1.299  17.872
  355TIP3    H225261   0.789   1.274  18.001
  356TIP3   OH225262   0.626   0.875  18.059
  356TIP3    H125263   0.658   0.923  17.982
  356TIP3    H225264   0.627   0.945  18.128
  357TIP3   OH225265   1.263   1.436  18.138
  357TIP3    H125266   1.250   1.506  18.205
  357TIP3    H225267   1.213   1.362  18.178
  358TIP3   OH225268   0.700   1.317  18.520
  358TIP3    H125269   0.627   1.357  18.574
  358TIP3    H225270   0.655   1.306  18.433
  359TIP3   OH225271   1.312   0.859  17.282
  359TIP3    H125272   1.361   0.891  17.363
  359TIP3    H225273   1.353   0.913  17.212
  360TIP3   OH225274   0.450   0.942  18.434
  360TIP3    H125275   0.432   1.018  18.493
  360TIP3    H225276   0.359   0.910  18.420
  361TIP3   OH225277   1.056   1.568  17.581
  361TIP3    H125278   1.059   1.595  17.673
  361TIP3    H225279   1.025   1.650  17.537
  362TIP3   OH225280   0.521   1.492  18.616
  362TIP3    H125281   0.514   1.516  18.521
  362TIP3    H225282   0.427   1.494  18.642
  363TIP3   OH225283   1.677   0.079  17.272
  363TIP3    H125284   1.618   0.135  17.326
  363TIP3    H225285   1.666   0.122  17.187
  364TIP3   OH225286   0.472   0.895  17.468
  364TIP3    H125287   0.413   0.959  17.426
  364TIP3    H225288   0.435   0.812  17.435
  365TIP3   OH225289   0.162   1.130  18.374
  365TIP3    H125290   0.073   1.141  18.335
  365TIP3    H225291   0.160   1.035  18.398
  366TIP3   OH225292   0.126   1.446  18.026
  366TIP3    H125293   0.201   1.383  18.024
  366TIP3    H225294   0.160   1.504  18.098
  367TIP3   OH225295   1.875   1.473  18.609
  367TIP3    H125296   1.861   1.380  18.586
  367TIP3    H225297   1.785   1.493  18.643
  368TIP3   OH225298   0.951   1.418  18.509
  368TIP3    H125299   0.957   1.495  18.568
  368TIP3    H225300   0.856   1.392  18.512
  369TIP3   OH225301   1.017   1.797  17.449
  369TIP3    H125302   0.977   1.827  17.367
  369TIP3    H225303   1.017   1.879  17.500
  370TIP3   OH225304   1.303   1.722  17.464
  370TIP3    H125305   1.207   1.710  17.456
  370TIP3    H225306   1.328   1.641  17.512
  371TIP3   OH225307   1.561   0.634  18.635
  371TIP3    H125308   1.514   0.674  18.558
  371TIP3    H225309   1.560   0.540  18.609
  372TIP3   OH225310   0.314   1.335  18.413
  372TIP3    H125311   0.327   1.308  18.505
  372TIP3    H225312   0.253   1.262  18.384
  373TIP3   OH225313   0.600   0.221  18.018
  373TIP3    H125314   0.507   0.205  17.992
  373TIP3    H225315   0.586   0.257  18.108
  374TIP3   OH225316   0.996   0.166  18.419
  374TIP3    H125317   1.049   0.085  18.419
  374TIP3    H225318   0.920   0.132  18.367
  375TIP3   OH225319   1.361   0.465  18.449
  375TIP3    H125320   1.301   0.451  18.526
  375TIP3    H225321   1.385   0.559  18.460
  376TIP3   OH225322   0.569   0.617  18.127
  376TIP3    H125323   0.498   0.623  18.193
  376TIP3    H225324   0.586   0.712  18.112
  377TIP3   OH225325   1.118   0.660  17.445
  377TIP3    H125326   1.113   0.758  17.439
  377TIP3    H225327   1.202   0.641  17.398
  378TIP3   OH225328   1.026   0.722  18.650
  378TIP3    H125329   0.982   0.639  18.682
  378TIP3    H225330   1.101   0.723  18.711
  379TIP3   OH225331   1.262   0.612  17.827
  379TIP3    H125332   1.228   0.691  17.782
  379TIP3    H225333   1.248   0.545  17.758
  380TIP3   OH225334   0.339   0.631  18.294
  380TIP3    H125335   0.374   0.670  18.375
  380TIP3    H225336   0.307   0.545  18.325
  381TIP3   OH225337   1.121   0.767  18.261
  381TIP3    H125338   1.178   0.712  18.203
  381TIP3    H225339   1.078   0.697  18.316
  382TIP3   OH225340   1.281   0.312  18.058
  382TIP3    H125341   1.224   0.318  18.138
  382TIP3    H225342   1.220   0.278  17.990
  383TIP3   OH225343   1.581   1.879  18.716
  383TIP3    H125344   1.606   1.922  18.631
  383TIP3    H225345   1.662   1.897  18.766
  384TIP3   OH225346   0.408   1.135  18.622
  384TIP3    H125347   0.474   1.132  18.695
  384TIP3    H225348   0.326   1.119  18.673
  385TIP3   OH225349   0.986   0.646  17.923
  385TIP3    H125350   1.030   0.567  17.889
  385TIP3    H225351   0.936   0.607  17.995
  386TIP3   OH225352   0.849   0.507  18.157
  386TIP3    H125353   0.773   0.564  18.178
  386TIP3    H225354   0.915   0.540  18.221
  387TIP3   OH225355   0.875   1.106  17.349
  387TIP3    H125356   0.799   1.049  17.344
  387TIP3    H225357   0.860   1.147  17.438
  388TIP3   OH225358   1.627   1.082  18.228
  388TIP3    H125359   1.677   1.134  18.159
  388TIP3    H225360   1.539   1.076  18.187
  389TIP3   OH225361   1.223   0.404  17.185
  389TIP3    H125362   1.153   0.453  17.140
  389TIP3    H225363   1.285   0.476  17.208
  390TIP3   OH225364   0.996   1.157  18.469
  390TIP3    H125365   0.974   1.128  18.558
  390TIP3    H225366   0.995   1.254  18.480
  391TIP3   OH225367   1.361   0.587  17.329
  391TIP3    H125368   1.436   0.584  17.390
  391TIP3    H225369   1.368   0.678  17.295
  392TIP3   OH225370   0.423   1.084  17.914
  392TIP3    H125371   0.462   1.066  17.827
  392TIP3    H225372   0.445   1.007  17.968
  393TIP3   OH225373   0.177   0.855  18.434
  393TIP3    H125374   0.174   0.841  18.530
  393TIP3    H225375   0.082   0.851  18.411
  394TIP3   OH225376   0.791   0.864  18.631
  394TIP3    H125377   0.734   0.810  18.574
  394TIP3    H225378   0.877   0.817  18.628
  395TIP3   OH225379   1.288   1.391  18.499
  395TIP3    H125380   1.207   1.400  18.448
  395TIP3    H225381   1.260   1.430  18.585
  396TIP3   OH225382   1.819   0.612  17.324
  396TIP3    H125383   1.755   0.595  17.252
  396TIP3    H225384   1.846   0.702  17.301
  397TIP3   OH225385   1.846   1.181  18.568
  397TIP3    H125386   1.756   1.197  18.532
  397TIP3    H225387   1.900   1.182  18.486
  398TIP3   OH225388   1.649   1.480  17.308
  398TIP3    H125389   1.659   1.417  17.381
  398TIP3    H225390   1.730   1.470  17.256
  399TIP3   OH225391   1.373   0.986  18.035
  399TIP3    H125392   1.285   0.954  18.012
  399TIP3    H225393   1.429   0.918  17.992
  400TIP3   OH225394   0.621   1.368  17.695
  400TIP3    H125395   0.674   1.444  17.661
  400TIP3    H225396   0.534   1.388  17.657
  401TIP3   OH225397   0.205   0.888  17.155
  401TIP3    H125398   0.188   0.912  17.063
  401TIP3    H225399   0.124   0.835  17.167
  402TIP3   OH225400   0.785   1.175  17.602
  402TIP3    H125401   0.732   1.253  17.627
  402TIP3    H225402   0.744   1.108  17.659
  403TIP3   OH225403   0.845   1.580  18.288
  403TIP3    H125404   0.903   1.651  18.253
  403TIP3    H225405   0.899   1.546  18.363
  404TIP3   OH225406   0.661   1.613  17.578
  404TIP3    H125407   0.570   1.625  17.604
  404TIP3    H225408   0.695   1.703  17.585
  405TIP3   OH225409   1.130   1.184  18.224
  405TIP3    H125410   1.089   1.137  18.301
  405TIP3    H225411   1.182   1.113  18.183
  406TIP3   OH225412   1.465   1.625  18.457
  406TIP3    H125413   1.377   1.583  18.444
  406TIP3    H225414   1.476   1.687  18.382
  407TIP3   OH225415   0.260   0.393  18.419
  407TIP3    H125416   0.182   0.442  18.446
  407TIP3    H225417   0.227   0.301  18.419
  408TIP3   OH225418   1.472   1.148  17.385
  408TIP3    H125419   1.459   1.061  17.429
  408TIP3    H225420   1.569   1.152  17.376
  409TIP3   OH225421   0.249   1.562  18.233
  409TIP3    H125422   0.302   1.482  18.246
  409TIP3    H225423   0.229   1.585  18.324
  410TIP3   OH225424   0.673   1.357  17.229
  410TIP3    H125425   0.753   1.347  17.283
  410TIP3    H225426   0.666   1.453  17.224
  411TIP3   OH225427   1.159   0.351  18.306
  411TIP3    H125428   1.242   0.362  18.358
  411TIP3    H225429   1.110   0.284  18.359
  412TIP3   OH225430   1.204   0.279  17.430
  412TIP3    H125431   1.224   0.331  17.349
  412TIP3    H225432   1.245   0.331  17.503
  413TIP3   OH225433   0.945   1.491  17.285
  413TIP3    H125434   0.868   1.553  17.288
  413TIP3    H225435   1.009   1.543  17.336
  414TIP3   OH225436   0.962   0.462  17.565
  414TIP3    H125437   1.014   0.505  17.493
  414TIP3    H225438   0.926   0.537  17.613
  415TIP3   OH225439   1.004   0.587  18.426
  415TIP3    H125440   1.011   0.648  18.503
  415TIP3    H225441   1.034   0.501  18.460
  416TIP3   OH225442   1.014   0.155  17.579
  416TIP3    H125443   1.017   0.222  17.649
  416TIP3    H225444   1.087   0.191  17.523
  417TIP3   OH225445   0.731   1.649  17.300
  417TIP3    H125446   0.701   1.737  17.272
  417TIP3    H225447   0.690   1.639  17.388
  418TIP3   OH225448   1.602   0.382  18.505
  418TIP3    H125449   1.504   0.396  18.500
  418TIP3    H225450   1.618   0.350  18.416
  419TIP3   OH225451   1.481   0.745  17.895
  419TIP3    H125452   1.406   0.681  17.894
  419TIP3    H225453   1.544   0.700  17.955
  420TIP3   OH225454   1.566   1.681  18.054
  420TIP3    H125455   1.567   1.745  17.980
  420TIP3    H225456   1.662   1.672  18.066
  421TIP3   OH225457   0.300   0.168  17.940
  421TIP3    H125458   0.296   0.158  17.841
  421TIP3    H225459   0.310   0.073  17.964
  422TIP3   OH225460   0.224   1.452  17.529
  422TIP3    H125461   0.139   1.468  17.569
  422TIP3    H225462   0.235   1.535  17.479
  423TIP3   OH225463   0.156   1.758  18.684
  423TIP3    H125464   0.218   1.759  18.760
  423TIP3    H225465   0.127   1.666  18.694
  424TIP3   OH225466   0.628   1.660  18.826
  424TIP3    H125467   0.707   1.612  18.856
  424TIP3    H225468   0.604   1.610  18.747
  425TIP3   OH225469   1.231   1.501  18.736
  425TIP3    H125470   1.197   1.415  18.772
  425TIP3    H225471   1.319   1.506  18.781
  426TIP3   OH225472   1.498   1.554  17.010
  426TIP3    H125473   1.486   1.494  17.085
  426TIP3    H225474   1.594   1.546  17.001
  427TIP3   OH225475   0.196   1.148  18.805
  427TIP3    H125476   0.212   1.052  18.797
  427TIP3    H225477   0.099   1.145  18.789
  428TIP3   OH225478   0.786   1.133  18.696
  428TIP3    H125479   0.767   1.189  18.617
  428TIP3    H225480   0.793   1.041  18.659
  429TIP3   OH225481   1.352   1.101  18.487
  429TIP3    H125482   1.440   1.147  18.487
  429TIP3    H225483   1.297   1.180  18.498
  430TIP3   OH225484   0.223   0.852  18.777
  430TIP3    H125485   0.280   0.778  18.750
  430TIP3    H225486   0.239   0.861  18.873
  431TIP3   OH225487   0.614   0.732  18.414
  431TIP3    H125488   0.563   0.811  18.440
  431TIP3    H225489   0.691   0.774  18.370
  432TIP3   OH225490   1.146   1.030  18.800
  432TIP3    H125491   1.214   0.978  18.754
  432TIP3    H225492   1.117   0.966  18.868
  433TIP3   OH225493   1.684   1.024  16.976
  433TIP3    H125494   1.745   0.978  16.917
  433TIP3    H225495   1.720   1.116  16.973
  434TIP3   OH225496   0.655   0.509  18.541
  434TIP3    H125497   0.706   0.458  18.475
  434TIP3    H225498   0.648   0.596  18.495
  435TIP3   OH225499   0.704   0.338  18.316
  435TIP3    H125500   0.758   0.375  18.242
  435TIP3    H225501   0.612   0.364  18.293
  436TIP3   OH225502   0.830   0.858  18.321
  436TIP3    H125503   0.923   0.884  18.317
  436TIP3    H225504   0.786   0.940  18.288
  437TIP3   OH225505   1.273   0.620  18.841
  437TIP3    H125506   1.307   0.529  18.844
  437TIP3    H225507   1.353   0.673  18.854
  438TIP3   OH225508   1.415   0.936  18.688
  438TIP3    H125509   1.381   0.991  18.614
  438TIP3    H225510   1.507   0.923  18.658
  439TIP3   OH225511   0.454   0.622  18.725
  439TIP3    H125512   0.405   0.541  18.747
  439TIP3    H225513   0.522   0.586  18.666
  440TIP3   OH225514   0.756   0.082  18.326
  440TIP3    H125515   0.750   0.181  18.340
  440TIP3    H225516   0.661   0.060  18.324
  441TIP3   OH225517   0.916   0.493  18.749
  441TIP3    H125518   0.866   0.469  18.829
  441TIP3    H225519   0.849   0.469  18.683
  442TIP3   OH225520   1.188   0.380  18.654
  442TIP3    H125521   1.096   0.393  18.682
  442TIP3    H225522   1.228   0.342  18.735
  443TIP3   OH225523   1.366   0.303  18.876
  443TIP3    H125524   1.358   0.204  18.880
  443TIP3    H225525   1.326   0.327  18.964
  444TIP3   OH225526   0.327   0.390  18.791
  444TIP3    H125527   0.324   0.328  18.716
  444TIP3    H225528   0.290   0.333  18.862
  445TIP3   OH225529   0.770   0.065  18.603
  445TIP3    H125530   0.765  -0.032  18.607
  445TIP3    H225531   0.804   0.080  18.512
  446TIP3   OH225532   0.829   0.147  18.853
  446TIP3    H125533   0.822   0.114  18.761
  446TIP3    H225534   0.765   0.220  18.854
  447TIP3   OH225535   0.821   1.861  17.129
  447TIP3    H125536   0.807   1.936  17.191
  447TIP3    H225537   0.735   1.862  17.083
  448TIP3   OH225538   0.112   1.642  17.844
  448TIP3    H125539   0.119   1.547  17.867
  448TIP3    H225540   0.189   1.675  17.892
  449TIP3   OH225541   1.839   1.730  18.067
  449TIP3    H125542   1.876   1.741  18.155
  449TIP3    H225543   1.885   1.799  18.018
  450TIP3   OH225544   1.772   1.691  18.361
  450TIP3    H125545   1.743   1.613  18.307
  450TIP3    H225546   1.797   1.644  18.442
  451TIP3   OH225547   1.655   1.255  18.856
  451TIP3    H125548   1.563   1.260  18.891
  451TIP3    H225549   1.692   1.335  18.900
  452TIP3   OH225550   1.766   1.107  17.377
  452TIP3    H125551   1.849   1.158  17.390
  452TIP3    H225552   1.775   1.042  17.450
  453TIP3   OH225553   1.805   0.930  17.585
  453TIP3    H125554   1.727   0.877  17.615
  453TIP3    H225555   1.861   0.932  17.667
  454TIP3   OH225556   1.795   1.182  18.049
  454TIP3    H125557   1.858   1.106  18.041
  454TIP3    H225558   1.847   1.254  18.009
  455TIP3   OH225559   1.647   1.460  18.294
  455TIP3    H125560   1.579   1.495  18.354
  455TIP3    H225561   1.596   1.435  18.214
  456TIP3   OH225562   1.846   0.902  17.196
  456TIP3    H125563   1.764   0.895  17.144
  456TIP3    H225564   1.829   0.982  17.248
  457TIP3   OH225565   1.666   0.612  17.085
  457TIP3    H125566   1.695   0.682  17.025
  457TIP3    H225567   1.627   0.549  17.021
  458TIP3   OH225568   1.605   0.771  17.658
  458TIP3    H125569   1.571   0.687  17.622
  458TIP3    H225570   1.573   0.768  17.751
  459TIP3   OH225571   0.159   1.069  18.033
  459TIP3    H125572   0.176   1.015  17.953
  459TIP3    H225573   0.231   1.038  18.092
  460TIP3   OH225574   1.699   0.952  18.597
  460TIP3    H125575   1.748   0.867  18.604
  460TIP3    H225576   1.770   1.018  18.582
  461TIP3   OH225577   1.814   0.700  18.646
  461TIP3    H125578   1.724   0.661  18.644
  461TIP3    H225579   1.870   0.620  18.666
  462TIP3   OH225580   1.572   0.550  17.489
  462TIP3    H125581   1.584   0.457  17.519
  462TIP3    H225582   1.659   0.563  17.448
  463TIP3   OH225583   1.650   0.577  18.044
  463TIP3    H125584   1.746   0.603  18.046
  463TIP3    H225585   1.636   0.575  18.140
  464TIP3   OH225586   1.636   0.683  18.291
  464TIP3    H125587   1.544   0.712  18.304
  464TIP3    H225588   1.683   0.768  18.281
  465TIP3   OH225589   0.117   0.531  18.697
  465TIP3    H125590   0.205   0.507  18.733
  465TIP3    H225591   0.095   0.458  18.639
  466TIP3   OH225592   1.920   0.075  18.847
  466TIP3    H125593   1.998   0.065  18.788
  466TIP3    H225594   1.875   0.141  18.791
  467TIP3   OH225595   1.651   0.285  17.510
  467TIP3    H125596   1.674   0.242  17.595
  467TIP3    H225597   1.581   0.225  17.478
  468TIP3   OH225598   0.127   0.360  18.022
  468TIP3    H125599   0.184   0.285  17.994
  468TIP3    H225600   0.185   0.414  18.076
  469TIP3   OH225601   0.069   0.661  18.114
  469TIP3    H125602   0.119   0.644  18.032
  469TIP3    H225603   0.045   0.755  18.108
  470TIP3   OH225604   1.790   0.275  18.699
  470TIP3    H125605   1.716   0.339  18.702
  470TIP3    H225606   1.771   0.231  18.614
  471TIP3   OH225607   1.534   1.741  17.691
  471TIP3    H125608   1.586   1.744  17.608
  471TIP3    H225609   1.570   1.814  17.743
  472TIP3   OH225610   0.113   0.199  18.283
  472TIP3    H125611   0.033   0.164  18.326
  472TIP3    H225612   0.070   0.275  18.239
  473TIP3   OH225613   0.252   1.424  18.704
  473TIP3    H125614   0.176   1.422  18.646
  473TIP3    H225615   0.263   1.331  18.729
  474TIP3   OH225616   0.573   1.590  18.359
  474TIP3    H125617   0.571   1.674  18.309
  474TIP3    H225618   0.667   1.566  18.353
  475TIP3   OH225619   0.981   1.693  18.595
  475TIP3    H125620   0.982   1.671  18.690
  475TIP3    H225621   1.071   1.729  18.584
  476TIP3   OH225622   1.205   1.846  18.551
  476TIP3    H125623   1.274   1.789  18.517
  476TIP3    H225624   1.244   1.877  18.636
  477TIP3   OH225625   1.741   0.138  18.451
  477TIP3    H125626   1.657   0.164  18.409
  477TIP3    H225627   1.722   0.042  18.466
  478TIP3   OH225628   0.318   1.893  18.334
  478TIP3    H125629   0.229   1.923  18.302
  478TIP3    H225630   0.295   1.855  18.420
  479TIP3   OH225631   0.549   1.847  18.207
  479TIP3    H125632   0.457   1.846  18.243
  479TIP3    H225633   0.560   1.942  18.191
  480TIP3   OH225634   1.009   1.786  18.145
  480TIP3    H125635   0.996   1.855  18.077
  480TIP3    H225636   1.035   1.845  18.219
  481TIP3   OH225637   1.217   1.661  18.292
  481TIP3    H125638   1.151   1.693  18.228
  481TIP3    H225639   1.288   1.725  18.273
  482TIP3   OH225640   1.472   1.819  18.261
  482TIP3    H125641   1.492   1.907  18.224
  482TIP3    H225642   1.505   1.764  18.186
  483TIP3   OH225643   0.443   1.577  17.887
  483TIP3    H125644   0.419   1.491  17.927
  483TIP3    H225645   0.526   1.593  17.934
  484TIP3   OH225646   0.706   1.599  18.020
  484TIP3    H125647   0.732   1.505  18.012
  484TIP3    H225648   0.739   1.618  18.109
  485TIP3   OH225649   1.075   0.264  17.881
  485TIP3    H125650   1.004   0.197  17.895
  485TIP3    H225651   1.142   0.209  17.835
  486TIP3   OH225652   1.521   0.109  17.895
  486TIP3    H125653   1.583   0.140  17.826
  486TIP3    H225654   1.440   0.159  17.875
  487TIP3   OH225655   1.748   0.177  17.729
  487TIP3    H125656   1.782   0.106  17.671
  487TIP3    H225657   1.820   0.246  17.729
  488TIP3   OH225658   0.324   0.137  17.683
  488TIP3    H125659   0.328   0.201  17.609
  488TIP3    H225660   0.309   0.053  17.637
  489TIP3   OH225661   0.169   0.097  17.285
  489TIP3    H125662   0.146   0.169  17.225
  489TIP3    H225663   0.128   0.122  17.369
  490TIP3   OH225664   0.765   0.142  17.690
  490TIP3    H125665   0.833   0.134  17.621
  490TIP3    H225666   0.820   0.145  17.770
  491TIP3   OH225667   1.276   0.121  17.775
  491TIP3    H125668   1.316   0.101  17.690
  491TIP3    H225669   1.284   0.037  17.825
  492TIP3   OH225670   1.444   0.151  17.402
  492TIP3    H125671   1.349   0.179  17.398
  492TIP3    H225672   1.436   0.054  17.403
  493TIP3   OH225673   0.170   1.667  17.367
  493TIP3    H125674   0.104   1.628  17.307
  493TIP3    H225675   0.180   1.757  17.335
  494TIP3   OH225676   0.859   0.258  17.321
  494TIP3    H125677   0.877   0.214  17.405
  494TIP3    H225678   0.851   0.351  17.347
  495TIP3   OH225679   1.065   1.715  17.172
  495TIP3    H125680   1.125   1.791  17.174
  495TIP3    H225681   0.976   1.757  17.176
  496TIP3   OH225682   1.688   1.695  17.477
  496TIP3    H125683   1.668   1.619  17.419
  496TIP3    H225684   1.705   1.761  17.405
  497TIP3   OH225685   0.264   0.137  18.639
  497TIP3    H125686   0.250   0.046  18.610
  497TIP3    H225687   0.355   0.129  18.675
  498TIP3   OH225688   0.495   0.099  18.785
  498TIP3    H125689   0.584   0.112  18.748
  498TIP3    H225690   0.482   0.002  18.774
  499TIP3   OH225691   1.322   0.042  18.833
  499TIP3    H125692   1.268  -0.036  18.850
  499TIP3    H225693   1.391   0.003  18.777
  500TIP3   OH225694   1.641   1.599  18.645
  500TIP3    H125695   1.569   1.597  18.578
  500TIP3    H225696   1.628   1.688  18.681
  501TIP3   OH225697   3.099   0.994  17.666
  501TIP3    H125698   3.058   1.035  17.743
  501TIP3    H225699   3.030   1.000  17.597
  502TIP3   OH225700   2.990   0.877  17.983
  502TIP3    H125701   2.983   0.845  18.076
  502TIP3    H225702   2.920   0.822  17.940
  503TIP3   OH225703   2.187   0.886  18.147
  503TIP3    H125704   2.187   0.813  18.210
  503TIP3    H225705   2.244   0.950  18.192
  504TIP3   OH225706   2.303   1.351  17.985
  504TIP3    H125707   2.264   1.265  17.959
  504TIP3    H225708   2.396   1.325  17.973
  505TIP3   OH225709   1.967   0.668  17.547
  505TIP3    H125710   1.937   0.756  17.572
  505TIP3    H225711   1.887   0.635  17.503
  506TIP3   OH225712   2.014   0.932  17.793
  506TIP3    H125713   2.060   0.847  17.809
  506TIP3    H225714   2.075   0.980  17.735
  507TIP3   OH225715   2.800   1.112  18.081
  507TIP3    H125716   2.846   1.084  18.001
  507TIP3    H225717   2.874   1.152  18.132
  508TIP3   OH225718   3.672   0.303  18.068
  508TIP3    H125719   3.681   0.375  18.134
  508TIP3    H225720   3.748   0.327  18.011
  509TIP3   OH225721   3.153   0.612  18.113
  509TIP3    H125722   3.170   0.517  18.125
  509TIP3    H225723   3.140   0.612  18.016
  510TIP3   OH225724   2.447   0.395  17.784
  510TIP3    H125725   2.467   0.475  17.731
  510TIP3    H225726   2.410   0.335  17.715
  511TIP3   OH225727   3.215   0.416  17.639
  511TIP3    H125728   3.260   0.391  17.723
  511TIP3    H225729   3.278   0.482  17.607
  512TIP3   OH225730   2.097   0.670  17.875
  512TIP3    H125731   2.157   0.624  17.937
  512TIP3    H225732   2.116   0.621  17.792
  513TIP3   OH225733   2.579   0.804  17.824
  513TIP3    H125734   2.663   0.760  17.849
  513TIP3    H225735   2.544   0.737  17.762
  514TIP3   OH225736   3.691   0.448  18.311
  514TIP3    H125737   3.640   0.531  18.307
  514TIP3    H225738   3.687   0.426  18.405
  515TIP3   OH225739   2.334   0.307  18.208
  515TIP3    H125740   2.303   0.370  18.138
  515TIP3    H225741   2.259   0.314  18.272
  516TIP3   OH225742   2.551   1.078  18.181
  516TIP3    H125743   2.505   1.158  18.216
  516TIP3    H225744   2.627   1.118  18.134
  517TIP3   OH225745   3.382   0.413  17.846
  517TIP3    H125746   3.377   0.328  17.891
  517TIP3    H225747   3.464   0.448  17.887
  518TIP3   OH225748   2.303   0.494  17.993
  518TIP3    H125749   2.369   0.552  18.039
  518TIP3    H225750   2.351   0.467  17.911
  519TIP3   OH225751   2.433   1.286  18.298
  519TIP3    H125752   2.413   1.362  18.242
  519TIP3    H225753   2.348   1.273  18.346
  520TIP3   OH225754   2.020   1.220  17.384
  520TIP3    H125755   2.009   1.259  17.295
  520TIP3    H225756   2.071   1.289  17.429
  521TIP3   OH225757   3.432   0.215  18.222
  521TIP3    H125758   3.356   0.263  18.186
  521TIP3    H225759   3.486   0.204  18.141
  522TIP3   OH225760   2.725   0.094  17.906
  522TIP3    H125761   2.732   0.007  17.950
  522TIP3    H225762   2.667   0.143  17.968
  523TIP3   OH225763   3.499   1.230  18.448
  523TIP3    H125764   3.514   1.161  18.378
  523TIP3    H225765   3.507   1.311  18.394
  524TIP3   OH225766   2.945   0.882  17.383
  524TIP3    H125767   2.888   0.936  17.325
  524TIP3    H225768   3.030   0.883  17.334
  525TIP3   OH225769   3.000   0.751  17.122
  525TIP3    H125770   3.080   0.789  17.162
  525TIP3    H225771   3.035   0.667  17.089
  526TIP3   OH225772   3.683   0.867  18.228
  526TIP3    H125773   3.634   0.950  18.243
  526TIP3    H225774   3.738   0.895  18.152
  527TIP3   OH225775   3.318   0.912  17.503
  527TIP3    H125776   3.248   0.937  17.568
  527TIP3    H225777   3.382   0.863  17.561
  528TIP3   OH225778   3.266   0.734  18.435
  528TIP3    H125779   3.262   0.829  18.450
  528TIP3    H225780   3.195   0.723  18.370
  529TIP3   OH225781   2.442   0.986  17.681
  529TIP3    H125782   2.431   0.943  17.595
  529TIP3    H225783   2.496   0.921  17.730
  530TIP3   OH225784   2.593   1.306  17.952
  530TIP3    H125785   2.609   1.327  17.858
  530TIP3    H225786   2.673   1.259  17.980
  531TIP3   OH225787   2.455   0.866  18.060
  531TIP3    H125788   2.500   0.870  17.973
  531TIP3    H225789   2.497   0.940  18.110
  532TIP3   OH225790   3.166   1.426  18.130
  532TIP3    H125791   3.124   1.489  18.189
  532TIP3    H225792   3.131   1.341  18.159
  533TIP3   OH225793   2.594   1.317  18.510
  533TIP3    H125794   2.525   1.369  18.558
  533TIP3    H225795   2.551   1.307  18.422
  534TIP3   OH225796   3.202   0.847  17.273
  534TIP3    H125797   3.253   0.873  17.353
  534TIP3    H225798   3.246   0.906  17.207
  535TIP3   OH225799   2.234   0.996  18.411
  535TIP3    H125800   2.248   1.061  18.482
  535TIP3    H225801   2.170   0.936  18.453
  536TIP3   OH225802   2.927   1.554  17.639
  536TIP3    H125803   2.985   1.634  17.646
  536TIP3    H225804   2.919   1.548  17.544
  537TIP3   OH225805   2.416   1.496  18.610
  537TIP3    H125806   2.402   1.526  18.517
  537TIP3    H225807   2.323   1.476  18.635
  538TIP3   OH225808   3.554   0.074  17.288
  538TIP3    H125809   3.479   0.062  17.349
  538TIP3    H225810   3.525   0.155  17.246
  539TIP3   OH225811   2.342   0.892  17.418
  539TIP3    H125812   2.272   0.957  17.433
  539TIP3    H225813   2.291   0.811  17.398
  540TIP3   OH225814   1.986   1.172  18.346
  540TIP3    H125815   1.940   1.164  18.261
  540TIP3    H225816   2.029   1.085  18.351
  541TIP3   OH225817   1.977   1.411  18.021
  541TIP3    H125818   2.074   1.411  18.019
  541TIP3    H225819   1.959   1.490  18.072
  542TIP3   OH225820   3.752   1.475  18.588
  542TIP3    H125821   3.745   1.379  18.575
  542TIP3    H225822   3.666   1.491  18.633
  543TIP3   OH225823   2.832   1.449  18.508
  543TIP3    H125824   2.828   1.537  18.550
  543TIP3    H225825   2.740   1.415  18.511
  544TIP3   OH225826   2.261   1.696  17.660
  544TIP3    H125827   2.304   1.680  17.747
  544TIP3    H225828   2.175   1.651  17.674
  545TIP3   OH225829   3.438   0.643  18.636
  545TIP3    H125830   3.393   0.674  18.555
  545TIP3    H225831   3.439   0.548  18.617
  546TIP3   OH225832   2.206   1.291  18.434
  546TIP3    H125833   2.203   1.256  18.527
  546TIP3    H225834   2.125   1.251  18.397
  547TIP3   OH225835   2.505   0.200  18.038
  547TIP3    H125836   2.430   0.225  17.981
  547TIP3    H225837   2.471   0.240  18.122
  548TIP3   OH225838   2.877   0.168  18.446
  548TIP3    H125839   2.910   0.080  18.420
  548TIP3    H225840   2.794   0.169  18.397
  549TIP3   OH225841   3.259   0.454  18.469
  549TIP3    H125842   3.185   0.437  18.532
  549TIP3    H225843   3.239   0.547  18.446
  550TIP3   OH225844   3.356   0.954  17.094
  550TIP3    H125845   3.328   0.921  17.007
  550TIP3    H225846   3.449   0.978  17.073
  551TIP3   OH225847   2.907   0.324  17.140
  551TIP3    H125848   2.842   0.295  17.208
  551TIP3    H225849   2.876   0.282  17.059
  552TIP3   OH225850   2.475   0.620  18.158
  552TIP3    H125851   2.420   0.641  18.235
  552TIP3    H225852   2.468   0.708  18.112
  553TIP3   OH225853   2.465   0.624  17.640
  553TIP3    H125854   2.370   0.598  17.638
  553TIP3    H225855   2.496   0.594  17.550
  554TIP3   OH225856   3.040   0.676  17.527
  554TIP3    H125857   2.990   0.753  17.491
  554TIP3    H225858   3.089   0.651  17.449
  555TIP3   OH225859   2.913   0.736  18.686
  555TIP3    H125860   2.865   0.651  18.676
  555TIP3    H225861   2.994   0.706  18.730
  556TIP3   OH225862   3.116   0.609  17.836
  556TIP3    H125863   3.106   0.677  17.767
  556TIP3    H225864   3.130   0.530  17.781
  557TIP3   OH225865   2.186   0.638  18.297
  557TIP3    H125866   2.256   0.677  18.355
  557TIP3    H225867   2.179   0.547  18.332
  558TIP3   OH225868   1.926   0.377  17.730
  558TIP3    H125869   1.996   0.375  17.797
  558TIP3    H225870   1.969   0.341  17.651
  559TIP3   OH225871   2.010   0.409  17.269
  559TIP3    H125872   2.087   0.456  17.233
  559TIP3    H225873   1.954   0.485  17.298
  560TIP3   OH225874   3.009   0.798  18.244
  560TIP3    H125875   3.073   0.741  18.196
  560TIP3    H225876   2.979   0.733  18.313
  561TIP3   OH225877   2.740   0.383  17.741
  561TIP3    H125878   2.649   0.351  17.754
  561TIP3    H225879   2.779   0.358  17.827
  562TIP3   OH225880   2.205   0.543  17.634
  562TIP3    H125881   2.125   0.574  17.585
  562TIP3    H225882   2.235   0.465  17.583
  563TIP3   OH225883   2.544   0.538  17.403
  563TIP3    H125884   2.638   0.551  17.430
  563TIP3    H225885   2.533   0.609  17.339
  564TIP3   OH225886   3.179   0.314  18.065
  564TIP3    H125887   3.108   0.313  18.132
  564TIP3    H225888   3.146   0.258  17.993
  565TIP3   OH225889   2.393   0.743  17.136
  565TIP3    H125890   2.323   0.679  17.112
  565TIP3    H225891   2.476   0.706  17.102
  566TIP3   OH225892   3.460   1.888  18.706
  566TIP3    H125893   3.501   1.885  18.617
  566TIP3    H225894   3.537   1.913  18.759
  567TIP3   OH225895   2.221   1.141  18.672
  567TIP3    H125896   2.303   1.143  18.725
  567TIP3    H225897   2.156   1.106  18.736
  568TIP3   OH225898   2.840   0.674  17.908
  568TIP3    H125899   2.916   0.633  17.861
  568TIP3    H225900   2.832   0.612  17.983
  569TIP3   OH225901   2.348   0.303  17.546
  569TIP3    H125902   2.303   0.224  17.581
  569TIP3    H225903   2.425   0.264  17.502
  570TIP3   OH225904   2.750   0.519  18.158
  570TIP3    H125905   2.668   0.572  18.150
  570TIP3    H225906   2.776   0.547  18.247
  571TIP3   OH225907   2.728   1.075  17.337
  571TIP3    H125908   2.718   1.002  17.399
  571TIP3    H225909   2.733   1.150  17.398
  572TIP3   OH225910   3.515   1.079  18.231
  572TIP3    H125911   3.562   1.130  18.161
  572TIP3    H225912   3.430   1.058  18.187
  573TIP3   OH225913   3.156   0.430  17.071
  573TIP3    H125914   3.067   0.391  17.080
  573TIP3    H225915   3.168   0.469  17.159
  574TIP3   OH225916   2.879   1.141  18.467
  574TIP3    H125917   2.835   1.070  18.515
  574TIP3    H225918   2.858   1.221  18.518
  575TIP3   OH225919   3.222   0.574  17.306
  575TIP3    H125920   3.303   0.571  17.362
  575TIP3    H225921   3.220   0.671  17.289
  576TIP3   OH225922   2.289   1.080  17.909
  576TIP3    H125923   2.349   1.062  17.836
  576TIP3    H225924   2.302   1.004  17.968
  577TIP3   OH225925   1.969   0.888  18.475
  577TIP3    H125926   1.949   0.818  18.541
  577TIP3    H225927   1.920   0.855  18.396
  578TIP3   OH225928   2.685   0.873  18.659
  578TIP3    H125929   2.654   0.799  18.603
  578TIP3    H225930   2.779   0.844  18.664
  579TIP3   OH225931   3.168   1.371  18.490
  579TIP3    H125932   3.095   1.393  18.430
  579TIP3    H225933   3.140   1.419  18.571
  580TIP3   OH225934   3.707   0.628  17.298
  580TIP3    H125935   3.640   0.602  17.235
  580TIP3    H225936   3.713   0.726  17.281
  581TIP3   OH225937   3.732   1.187  18.588
  581TIP3    H125938   3.637   1.203  18.571
  581TIP3    H225939   3.766   1.173  18.497
  582TIP3   OH225940   3.590   1.449  17.336
  582TIP3    H125941   3.544   1.368  17.313
  582TIP3    H225942   3.578   1.509  17.261
  583TIP3   OH225943   3.287   0.964  18.066
  583TIP3    H125944   3.193   0.945  18.051
  583TIP3    H225945   3.328   0.901  18.003
  584TIP3   OH225946   2.519   1.402  17.678
  584TIP3    H125947   2.568   1.479  17.644
  584TIP3    H225948   2.430   1.424  17.645
  585TIP3   OH225949   2.122   0.899  17.153
  585TIP3    H125950   2.106   0.989  17.123
  585TIP3    H225951   2.029   0.872  17.171
  586TIP3   OH225952   2.681   1.183  17.605
  586TIP3    H125953   2.640   1.272  17.603
  586TIP3    H225954   2.632   1.144  17.679
  587TIP3   OH225955   2.721   1.592  18.287
  587TIP3    H125956   2.780   1.656  18.242
  587TIP3    H225957   2.779   1.556  18.357
  588TIP3   OH225958   2.501   1.630  17.528
  588TIP3    H125959   2.419   1.669  17.566
  588TIP3    H225960   2.569   1.692  17.566
  589TIP3   OH225961   3.011   1.183  18.229
  589TIP3    H125962   2.965   1.158  18.315
  589TIP3    H225963   3.056   1.100  18.209
  590TIP3   OH225964   3.352   1.625  18.448
  590TIP3    H125965   3.261   1.591  18.431
  590TIP3    H225966   3.357   1.698  18.382
  591TIP3   OH225967   3.733   1.779  17.143
  591TIP3    H125968   3.745   1.849  17.078
  591TIP3    H225969   3.668   1.822  17.201
  592TIP3   OH225970   2.135   0.364  18.384
  592TIP3    H125971   2.043   0.393  18.380
  592TIP3    H225972   2.128   0.281  18.435
  593TIP3   OH225973   3.366   1.149  17.381
  593TIP3    H125974   3.352   1.060  17.416
  593TIP3    H225975   3.463   1.155  17.385
  594TIP3   OH225976   2.126   1.560  18.232
  594TIP3    H125977   2.184   1.484  18.247
  594TIP3    H225978   2.126   1.598  18.321
  595TIP3   OH225979   2.578   1.355  17.280
  595TIP3    H125980   2.668   1.335  17.252
  595TIP3    H225981   2.580   1.453  17.278
  596TIP3   OH225982   3.043   0.330  18.312
  596TIP3    H125983   3.113   0.337  18.379
  596TIP3    H225984   2.978   0.276  18.362
  597TIP3   OH225985   3.089   0.290  17.445
  597TIP3    H125986   3.070   0.352  17.373
  597TIP3    H225987   3.146   0.343  17.505
  598TIP3   OH225988   2.797   0.498  17.500
  598TIP3    H125989   2.892   0.520  17.509
  598TIP3    H225990   2.775   0.462  17.589
  599TIP3   OH225991   2.994   0.584  18.411
  599TIP3    H125992   2.912   0.604  18.460
  599TIP3    H225993   2.982   0.491  18.384
  600TIP3   OH225994   2.885   0.193  17.571
  600TIP3    H125995   2.864   0.258  17.641
  600TIP3    H225996   2.975   0.225  17.544
  601TIP3   OH225997   2.542   1.644  17.263
  601TIP3    H125998   2.588   1.725  17.238
  601TIP3    H225999   2.525   1.655  17.360
  602TIP3   OH226000   3.502   0.367  18.507
  602TIP3    H126001   3.406   0.383  18.517
  602TIP3    H226002   3.506   0.348  18.411
  603TIP3   OH226003   3.361   0.716  17.888
  603TIP3    H126004   3.288   0.653  17.896
  603TIP3    H226005   3.431   0.672  17.941
  604TIP3   OH226006   2.119   0.644  17.051
  604TIP3    H126007   2.147   0.728  17.093
  604TIP3    H226008   2.059   0.679  16.983
  605TIP3   OH226009   3.448   1.689  18.069
  605TIP3    H126010   3.441   1.763  18.005
  605TIP3    H226011   3.544   1.688  18.086
  606TIP3   OH226012   2.221   0.156  17.941
  606TIP3    H126013   2.203   0.140  17.847
  606TIP3    H226014   2.206   0.065  17.975
  607TIP3   OH226015   2.066   1.490  17.566
  607TIP3    H126016   1.988   1.540  17.538
  607TIP3    H226017   2.130   1.524  17.503
  608TIP3   OH226018   2.006   1.742  18.686
  608TIP3    H126019   2.071   1.724  18.758
  608TIP3    H226020   1.973   1.651  18.669
  609TIP3   OH226021   2.497   1.649  18.830
  609TIP3    H126022   2.585   1.613  18.853
  609TIP3    H226023   2.483   1.612  18.741
  610TIP3   OH226024   3.123   1.499  18.727
  610TIP3    H126025   3.087   1.412  18.759
  610TIP3    H226026   3.208   1.499  18.778
  611TIP3   OH226027   1.976   1.122  18.796
  611TIP3    H126028   1.948   1.029  18.793
  611TIP3    H226029   1.934   1.155  18.713
  612TIP3   OH226030   2.675   1.144  18.703
  612TIP3    H126031   2.650   1.191  18.620
  612TIP3    H226032   2.667   1.048  18.680
  613TIP3   OH226033   3.254   1.097  18.478
  613TIP3    H126034   3.335   1.151  18.473
  613TIP3    H226035   3.190   1.170  18.494
  614TIP3   OH226036   2.137   0.825  18.757
  614TIP3    H126037   2.192   0.746  18.763
  614TIP3    H226038   2.168   0.882  18.830
  615TIP3   OH226039   2.417   0.757  18.398
  615TIP3    H126040   2.405   0.834  18.454
  615TIP3    H226041   2.514   0.761  18.386
  616TIP3   OH226042   2.701   0.809  17.083
  616TIP3    H126043   2.680   0.818  16.989
  616TIP3    H226044   2.792   0.774  17.085
  617TIP3   OH226045   3.034   1.026  18.797
  617TIP3    H126046   3.111   1.004  18.741
  617TIP3    H226047   2.981   0.945  18.790
  618TIP3   OH226048   3.583   0.987  16.964
  618TIP3    H126049   3.602   0.967  16.871
  618TIP3    H226050   3.621   1.075  16.973
  619TIP3   OH226051   2.465   0.375  18.553
  619TIP3    H126052   2.525   0.319  18.501
  619TIP3    H226053   2.504   0.461  18.527
  620TIP3   OH226054   2.579   0.330  18.319
  620TIP3    H126055   2.622   0.401  18.267
  620TIP3    H226056   2.484   0.354  18.314
  621TIP3   OH226057   2.694   0.917  18.366
  621TIP3    H126058   2.775   0.897  18.318
  621TIP3    H226059   2.647   0.974  18.304
  622TIP3   OH226060   3.176   0.627  18.841
  622TIP3    H126061   3.205   0.534  18.845
  622TIP3    H226062   3.259   0.676  18.856
  623TIP3   OH226063   3.307   0.940  18.690
  623TIP3    H126064   3.282   0.992  18.611
  623TIP3    H226065   3.392   0.904  18.660
  624TIP3   OH226066   2.392   0.586  18.764
  624TIP3    H126067   2.306   0.546  18.737
  624TIP3    H226068   2.449   0.556  18.692
  625TIP3   OH226069   2.654   0.081  18.318
  625TIP3    H126070   2.643   0.178  18.323
  625TIP3    H226071   2.570   0.061  18.277
  626TIP3   OH226072   2.772   0.477  18.764
  626TIP3    H126073   2.697   0.464  18.825
  626TIP3    H226074   2.723   0.484  18.679
  627TIP3   OH226075   3.058   0.394  18.652
  627TIP3    H126076   2.963   0.412  18.658
  627TIP3    H226077   3.068   0.326  18.720
  628TIP3   OH226078   3.286   0.289  18.844
  628TIP3    H126079   3.252   0.196  18.837
  628TIP3    H226080   3.229   0.323  18.916
  629TIP3   OH226081   2.186   0.412  18.774
  629TIP3    H126082   2.231   0.348  18.718
  629TIP3    H226083   2.168   0.361  18.857
  630TIP3   OH226084   2.639   0.059  18.612
  630TIP3    H126085   2.614  -0.037  18.604
  630TIP3    H226086   2.701   0.071  18.538
  631TIP3   OH226087   2.702   0.125  18.876
  631TIP3    H126088   2.703   0.094  18.783
  631TIP3    H226089   2.650   0.206  18.866
  632TIP3   OH226090   2.687   1.899  17.157
  632TIP3    H126091   2.770   1.899  17.204
  632TIP3    H226092   2.681   1.993  17.131
  633TIP3   OH226093   1.895   1.832  17.601
  633TIP3    H126094   1.820   1.780  17.564
  633TIP3    H226095   1.929   1.771  17.670
  634TIP3   OH226096   1.965   1.661  17.790
  634TIP3    H126097   1.902   1.588  17.804
  634TIP3    H226098   1.992   1.680  17.881
  635TIP3   OH226099   3.709   1.776  18.115
  635TIP3    H126100   3.733   1.788  18.209
  635TIP3    H226101   3.786   1.820  18.074
  636TIP3   OH226102   3.670   1.673  18.383
  636TIP3    H126103   3.643   1.597  18.326
  636TIP3    H226104   3.695   1.627  18.466
  637TIP3   OH226105   3.540   1.253  18.864
  637TIP3    H126106   3.447   1.261  18.897
  637TIP3    H226107   3.578   1.337  18.896
  638TIP3   OH226108   3.625   1.115  17.416
  638TIP3    H126109   3.718   1.147  17.416
  638TIP3    H226110   3.634   1.028  17.461
  639TIP3   OH226111   3.685   0.904  17.583
  639TIP3    H126112   3.613   0.847  17.616
  639TIP3    H226113   3.743   0.920  17.660
  640TIP3   OH226114   3.661   1.183  18.038
  640TIP3    H126115   3.728   1.114  18.020
  640TIP3    H226116   3.710   1.265  18.021
  641TIP3   OH226117   3.527   1.462  18.290
  641TIP3    H126118   3.469   1.514  18.350
  641TIP3    H226119   3.467   1.450  18.215
  642TIP3   OH226120   3.713   0.884  17.242
  642TIP3    H126121   3.662   0.922  17.169
  642TIP3    H226122   3.780   0.952  17.258
  643TIP3   OH226123   3.478   0.766  17.653
  643TIP3    H126124   3.463   0.675  17.625
  643TIP3    H226125   3.445   0.764  17.745
  644TIP3   OH226126   1.971   0.989  18.054
  644TIP3    H126127   1.981   0.969  17.957
  644TIP3    H226128   2.063   0.966  18.083
  645TIP3   OH226129   3.596   0.943  18.590
  645TIP3    H126130   3.637   0.861  18.625
  645TIP3    H226131   3.675   0.993  18.560
  646TIP3   OH226132   3.692   0.703  18.672
  646TIP3    H126133   3.602   0.665  18.656
  646TIP3    H226134   3.746   0.621  18.680
  647TIP3   OH226135   3.454   0.551  17.455
  647TIP3    H126136   3.475   0.457  17.480
  647TIP3    H226137   3.546   0.580  17.445
  648TIP3   OH226138   3.537   0.583  18.049
  648TIP3    H126139   3.635   0.600  18.056
  648TIP3    H226140   3.517   0.584  18.144
  649TIP3   OH226141   3.523   0.667  18.311
  649TIP3    H126142   3.430   0.695  18.323
  649TIP3    H226143   3.568   0.748  18.276
  650TIP3   OH226144   1.959   0.479  18.668
  650TIP3    H126145   2.048   0.463  18.711
  650TIP3    H226146   1.915   0.394  18.690
  651TIP3   OH226147   3.793   0.081  18.839
  651TIP3    H126148   3.878   0.071  18.793
  651TIP3    H226149   3.753   0.145  18.776
  652TIP3   OH226150   3.534   0.306  17.494
  652TIP3    H126151   3.572   0.259  17.571
  652TIP3    H226152   3.456   0.248  17.476
  653TIP3   OH226153   2.051   0.367  17.990
  653TIP3    H126154   2.081   0.277  18.013
  653TIP3    H226155   2.138   0.411  17.984
  654TIP3   OH226156   1.904   0.651  18.061
  654TIP3    H126157   1.957   0.632  17.981
  654TIP3    H226158   1.968   0.707  18.107
  655TIP3   OH226159   3.674   0.258  18.687
  655TIP3    H126160   3.597   0.318  18.694
  655TIP3    H226161   3.658   0.219  18.598
  656TIP3   OH226162   1.929   0.241  17.477
  656TIP3    H126163   1.835   0.267  17.473
  656TIP3    H226164   1.961   0.288  17.397
  657TIP3   OH226165   1.955   0.160  18.281
  657TIP3    H126166   1.895   0.168  18.358
  657TIP3    H226167   1.904   0.208  18.214
  658TIP3   OH226168   2.156   1.427  18.690
  658TIP3    H126169   2.069   1.456  18.657
  658TIP3    H226170   2.136   1.366  18.762
  659TIP3   OH226171   2.452   1.586  18.352
  659TIP3    H126172   2.451   1.677  18.316
  659TIP3    H226173   2.548   1.570  18.349
  660TIP3   OH226174   2.857   1.709  18.604
  660TIP3    H126175   2.875   1.677  18.695
  660TIP3    H226176   2.945   1.744  18.580
  661TIP3   OH226177   3.085   1.847  18.553
  661TIP3    H126178   3.163   1.797  18.526
  661TIP3    H226179   3.117   1.885  18.639
  662TIP3   OH226180   3.631   0.137  18.444
  662TIP3    H126181   3.549   0.158  18.396
  662TIP3    H226182   3.611   0.043  18.466
  663TIP3   OH226183   2.185   1.876  18.307
  663TIP3    H126184   2.101   1.918  18.278
  663TIP3    H226185   2.177   1.882  18.404
  664TIP3   OH226186   2.438   1.821  18.223
  664TIP3    H126187   2.343   1.838  18.243
  664TIP3    H226188   2.448   1.875  18.142
  665TIP3   OH226189   2.873   1.783  18.163
  665TIP3    H126190   2.822   1.827  18.090
  665TIP3    H226191   2.906   1.861  18.211
  666TIP3   OH226192   3.093   1.651  18.294
  666TIP3    H126193   3.015   1.694  18.253
  666TIP3    H226194   3.162   1.716  18.272
  667TIP3   OH226195   3.358   1.831  18.274
  667TIP3    H126196   3.355   1.923  18.242
  667TIP3    H226197   3.389   1.785  18.192
  668TIP3   OH226198   2.146   1.713  18.006
  668TIP3    H126199   2.129   1.657  18.085
  668TIP3    H226200   2.238   1.683  17.983
  669TIP3   OH226201   2.373   1.612  17.890
  669TIP3    H126202   2.360   1.518  17.915
  669TIP3    H226203   2.463   1.628  17.926
  670TIP3   OH226204   2.603   1.584  18.026
  670TIP3    H126205   2.636   1.493  18.018
  670TIP3    H226206   2.625   1.602  18.119
  671TIP3   OH226207   2.934   0.267  17.894
  671TIP3    H126208   2.881   0.186  17.898
  671TIP3    H226209   3.007   0.240  17.835
  672TIP3   OH226210   3.433   0.117  17.878
  672TIP3    H126211   3.508   0.138  17.817
  672TIP3    H226212   3.363   0.098  17.815
  673TIP3   OH226213   3.624   0.154  17.695
  673TIP3    H126214   3.670   0.083  17.650
  673TIP3    H226215   3.697   0.214  17.726
  674TIP3   OH226216   2.184   0.120  17.650
  674TIP3    H126217   2.135   0.141  17.567
  674TIP3    H226218   2.166   0.024  17.659
  675TIP3   OH226219   2.131   0.091  17.351
  675TIP3    H126220   2.155   0.165  17.294
  675TIP3    H226221   2.034   0.095  17.354
  676TIP3   OH226222   2.641   0.119  17.650
  676TIP3    H126223   2.722   0.147  17.602
  676TIP3    H226224   2.672   0.115  17.743
  677TIP3   OH226225   3.164   0.146  17.783
  677TIP3    H126226   3.198   0.149  17.692
  677TIP3    H226227   3.166   0.051  17.806
  678TIP3   OH226228   3.316   0.161  17.444
  678TIP3    H126229   3.231   0.197  17.410
  678TIP3    H226230   3.302   0.066  17.425
  679TIP3   OH226231   2.012   1.648  17.341
  679TIP3    H126232   2.008   1.608  17.254
  679TIP3    H226233   2.023   1.743  17.321
  680TIP3   OH226234   2.716   0.274  17.337
  680TIP3    H126235   2.779   0.232  17.398
  680TIP3    H226236   2.715   0.365  17.372
  681TIP3   OH226237   2.118   0.108  18.671
  681TIP3    H126238   2.135   0.027  18.622
  681TIP3    H226239   2.205   0.125  18.712
  682TIP3   OH226240   2.364   0.107  18.773
  682TIP3    H126241   2.449   0.142  18.739
  682TIP3    H226242   2.377   0.011  18.750
  683TIP3   OH226243   2.228   1.793  17.035
  683TIP3    H126244   2.188   1.825  17.119
  683TIP3    H226245   2.282   1.719  17.066
  684TIP3   OH226246   3.174   0.033  18.815
  684TIP3    H126247   3.139  -0.056  18.836
  684TIP3    H226248   3.243   0.010  18.753
  685TIP3   OH226249   3.524   1.592  18.655
  685TIP3    H126250   3.457   1.591  18.582
  685TIP3    H226251   3.510   1.680  18.692
  686TIP3   OH226252   4.959   1.000  17.671
  686TIP3    H126253   4.948   1.097  17.660
  686TIP3    H226254   4.885   0.966  17.620
  687TIP3   OH226255   4.814   0.878  18.042
  687TIP3    H126256   4.822   0.829  18.126
  687TIP3    H226257   4.785   0.805  17.983
  688TIP3   OH226258   4.073   0.907  18.179
  688TIP3    H126259   4.095   0.817  18.205
  688TIP3    H226260   4.160   0.949  18.186
  689TIP3   OH226261   4.192   1.330  17.972
  689TIP3    H126262   4.160   1.238  17.962
  689TIP3    H226263   4.280   1.320  17.927
  690TIP3   OH226264   3.853   0.646  17.542
  690TIP3    H126265   3.820   0.731  17.574
  690TIP3    H226266   3.843   0.663  17.445
  691TIP3   OH226267   3.905   0.911  17.800
  691TIP3    H126268   3.958   0.831  17.817
  691TIP3    H226269   3.972   0.977  17.773
  692TIP3   OH226270   4.815   1.152  17.979
  692TIP3    H126271   4.808   1.055  17.978
  692TIP3    H226272   4.761   1.176  18.058
  693TIP3   OH226273   5.549   0.295  18.099
  693TIP3    H126274   5.556   0.360  18.173
  693TIP3    H226275   5.606   0.339  18.033
  694TIP3   OH226276   5.051   0.616  18.098
  694TIP3    H126277   5.060   0.519  18.100
  694TIP3    H226278   5.021   0.631  18.006
  695TIP3   OH226279   4.343   0.393  17.779
  695TIP3    H126280   4.353   0.474  17.724
  695TIP3    H226281   4.298   0.334  17.715
  696TIP3   OH226282   5.092   0.417  17.661
  696TIP3    H126283   5.147   0.390  17.738
  696TIP3    H226284   5.156   0.479  17.620
  697TIP3   OH226285   3.975   0.650  17.889
  697TIP3    H126286   4.033   0.601  17.949
  697TIP3    H226287   4.011   0.623  17.802
  698TIP3   OH226288   4.480   0.806  17.836
  698TIP3    H126289   4.574   0.785  17.847
  698TIP3    H226290   4.453   0.734  17.776
  699TIP3   OH226291   5.570   0.453  18.317
  699TIP3    H126292   5.530   0.543  18.302
  699TIP3    H226293   5.567   0.446  18.414
  700TIP3   OH226294   4.213   0.314  18.209
  700TIP3    H126295   4.182   0.367  18.132
  700TIP3    H226296   4.139   0.322  18.273
  701TIP3   OH226297   4.925   1.238  17.559
  701TIP3    H126298   4.899   1.216  17.468
  701TIP3    H226299   4.917   1.333  17.556
  702TIP3   OH226300   4.400   1.025  18.273
  702TIP3    H126301   4.338   1.089  18.313
  702TIP3    H226302   4.468   1.093  18.247
  703TIP3   OH226303   5.290   0.388  17.831
  703TIP3    H126304   5.265   0.353  17.919
  703TIP3    H226305   5.375   0.428  17.853
  704TIP3   OH226306   4.201   0.492  17.999
  704TIP3    H126307   4.262   0.560  18.034
  704TIP3    H226308   4.249   0.463  17.917
  705TIP3   OH226309   4.293   1.272  18.313
  705TIP3    H126310   4.283   1.322  18.230
  705TIP3    H226311   4.203   1.276  18.352
  706TIP3   OH226312   3.865   1.223  17.383
  706TIP3    H126313   3.894   1.284  17.314
  706TIP3    H226314   3.913   1.259  17.460
  707TIP3   OH226315   5.290   1.411  18.084
  707TIP3    H126316   5.192   1.415  18.094
  707TIP3    H226317   5.298   1.469  18.007
  708TIP3   OH226318   5.317   0.192  18.208
  708TIP3    H126319   5.246   0.221  18.147
  708TIP3    H226320   5.394   0.194  18.148
  709TIP3   OH226321   4.629   0.092  17.891
  709TIP3    H126322   4.628   0.001  17.929
  709TIP3    H226323   4.570   0.138  17.955
  710TIP3   OH226324   5.126   1.575  17.716
  710TIP3    H126325   5.137   1.495  17.661
  710TIP3    H226326   5.138   1.646  17.652
  711TIP3   OH226327   5.382   1.242  18.448
  711TIP3    H126328   5.392   1.167  18.384
  711TIP3    H226329   5.396   1.318  18.388
  712TIP3   OH226330   4.815   0.861  17.364
  712TIP3    H126331   4.767   0.946  17.367
  712TIP3    H226332   4.899   0.890  17.324
  713TIP3   OH226333   4.897   0.753  17.118
  713TIP3    H126334   4.981   0.787  17.156
  713TIP3    H226335   4.930   0.714  17.036
  714TIP3   OH226336   5.593   0.885  18.244
  714TIP3    H126337   5.519   0.948  18.231
  714TIP3    H226338   5.651   0.918  18.171
  715TIP3   OH226339   5.182   0.735  18.428
  715TIP3    H126340   5.163   0.823  18.464
  715TIP3    H226341   5.123   0.735  18.349
  716TIP3   OH226342   4.325   0.988  17.690
  716TIP3    H126343   4.314   0.970  17.595
  716TIP3    H226344   4.390   0.920  17.716
  717TIP3   OH226345   4.455   1.342  17.913
  717TIP3    H126346   4.501   1.290  17.843
  717TIP3    H226347   4.503   1.311  17.993
  718TIP3   OH226348   4.339   0.871  18.066
  718TIP3    H126349   4.396   0.868  17.985
  718TIP3    H226350   4.380   0.943  18.117
  719TIP3   OH226351   5.016   1.437  18.118
  719TIP3    H126352   4.987   1.490  18.195
  719TIP3    H226353   4.986   1.347  18.145
  720TIP3   OH226354   4.490   1.307  18.506
  720TIP3    H126355   4.415   1.354  18.548
  720TIP3    H226356   4.455   1.290  18.415
  721TIP3   OH226357   5.099   0.890  17.286
  721TIP3    H126358   5.123   0.963  17.347
  721TIP3    H226359   5.162   0.912  17.212
  722TIP3   OH226360   4.193   0.879  18.454
  722TIP3    H126361   4.208   0.975  18.459
  722TIP3    H226362   4.112   0.873  18.508
  723TIP3   OH226363   4.299   1.483  18.606
  723TIP3    H126364   4.281   1.523  18.517
  723TIP3    H226365   4.208   1.470  18.638
  724TIP3   OH226366   5.461   0.092  17.315
  724TIP3    H126367   5.397   0.105  17.241
  724TIP3    H226368   5.534   0.145  17.278
  725TIP3   OH226369   4.264   0.883  17.437
  725TIP3    H126370   4.201   0.954  17.409
  725TIP3    H226371   4.204   0.806  17.439
  726TIP3   OH226372   3.836   1.165  18.344
  726TIP3    H126373   3.780   1.160  18.265
  726TIP3    H226374   3.887   1.081  18.336
  727TIP3   OH226375   3.842   1.423  17.996
  727TIP3    H126376   3.937   1.406  18.002
  727TIP3    H226377   3.832   1.489  18.065
  728TIP3   OH226378   5.663   1.478  18.607
  728TIP3    H126379   5.640   1.386  18.585
  728TIP3    H226380   5.574   1.510  18.635
  729TIP3   OH226381   4.747   1.408  18.517
  729TIP3    H126382   4.734   1.505  18.513
  729TIP3    H226383   4.654   1.379  18.505
  730TIP3   OH226384   5.045   1.731  17.145
  730TIP3    H126385   5.094   1.651  17.124
  730TIP3    H226386   5.091   1.764  17.223
  731TIP3   OH226387   5.329   0.615  18.644
  731TIP3    H126388   5.288   0.651  18.564
  731TIP3    H226389   5.336   0.521  18.619
  732TIP3   OH226390   4.059   1.283  18.437
  732TIP3    H126391   4.076   1.247  18.527
  732TIP3    H226392   3.969   1.249  18.417
  733TIP3   OH226393   4.393   0.205  18.036
  733TIP3    H126394   4.332   0.239  17.968
  733TIP3    H226395   4.357   0.252  18.114
  734TIP3   OH226396   4.758   0.171  18.420
  734TIP3    H126397   4.805   0.085  18.426
  734TIP3    H226398   4.684   0.140  18.363
  735TIP3   OH226399   5.134   0.465  18.446
  735TIP3    H126400   5.069   0.444  18.517
  735TIP3    H226401   5.159   0.556  18.468
  736TIP3   OH226402   4.749   0.422  17.152
  736TIP3    H126403   4.732   0.341  17.205
  736TIP3    H226404   4.687   0.410  17.078
  737TIP3   OH226405   4.365   0.623  18.166
  737TIP3    H126406   4.283   0.608  18.218
  737TIP3    H226407   4.358   0.718  18.144
  738TIP3   OH226408   4.367   0.627  17.646
  738TIP3    H126409   4.270   0.625  17.643
  738TIP3    H226410   4.388   0.594  17.556
  739TIP3   OH226411   4.952   0.672  17.511
  739TIP3    H126412   4.916   0.749  17.463
  739TIP3    H226413   4.993   0.621  17.441
  740TIP3   OH226414   4.789   0.718  18.667
  740TIP3    H126415   4.751   0.631  18.693
  740TIP3    H226416   4.870   0.716  18.720
  741TIP3   OH226417   5.017   0.620  17.815
  741TIP3    H126418   4.999   0.690  17.748
  741TIP3    H226419   5.027   0.543  17.755
  742TIP3   OH226420   4.120   0.634  18.290
  742TIP3    H126421   4.144   0.680  18.373
  742TIP3    H226422   4.083   0.550  18.323
  743TIP3   OH226423   4.409   0.433  17.023
  743TIP3    H126424   4.387   0.343  17.050
  743TIP3    H226425   4.420   0.418  16.926
  744TIP3   OH226426   3.812   0.344  17.729
  744TIP3    H126427   3.872   0.360  17.804
  744TIP3    H226428   3.825   0.424  17.676
  745TIP3   OH226429   4.897   0.757  18.269
  745TIP3    H126430   4.961   0.712  18.209
  745TIP3    H226431   4.860   0.682  18.320
  746TIP3   OH226432   4.637   0.398  17.718
  746TIP3    H126433   4.548   0.361  17.738
  746TIP3    H226434   4.683   0.379  17.803
  747TIP3   OH226435   4.084   0.538  17.641
  747TIP3    H126436   4.006   0.563  17.587
  747TIP3    H226437   4.128   0.466  17.590
  748TIP3   OH226438   4.397   0.542  17.395
  748TIP3    H126439   4.490   0.564  17.407
  748TIP3    H226440   4.365   0.608  17.329
  749TIP3   OH226441   5.066   0.301  18.054
  749TIP3    H126442   5.005   0.306  18.132
  749TIP3    H226443   5.017   0.246  17.991
  750TIP3   OH226444   4.285   0.679  17.197
  750TIP3    H126445   4.207   0.628  17.170
  750TIP3    H226446   4.338   0.680  17.116
  751TIP3   OH226447   5.332   1.895  18.722
  751TIP3    H126448   5.344   1.923  18.630
  751TIP3    H226449   5.422   1.904  18.758
  752TIP3   OH226450   4.115   1.130  18.669
  752TIP3    H126451   4.192   1.122  18.730
  752TIP3    H226452   4.042   1.097  18.723
  753TIP3   OH226453   4.754   0.652  17.923
  753TIP3    H126454   4.826   0.614  17.869
  753TIP3    H226455   4.723   0.573  17.970
  754TIP3   OH226456   4.216   0.297  17.561
  754TIP3    H126457   4.180   0.215  17.601
  754TIP3    H226458   4.282   0.263  17.497
  755TIP3   OH226459   4.598   0.473  18.175
  755TIP3    H126460   4.537   0.550  18.174
  755TIP3    H226461   4.674   0.508  18.225
  756TIP3   OH226462   5.398   1.086  18.234
  756TIP3    H126463   5.441   1.132  18.159
  756TIP3    H226464   5.304   1.087  18.211
  757TIP3   OH226465   5.021   0.427  17.086
  757TIP3    H126466   4.928   0.430  17.117
  757TIP3    H226467   5.068   0.472  17.157
  758TIP3   OH226468   4.851   1.148  18.518
  758TIP3    H126469   4.773   1.093  18.503
  758TIP3    H226470   4.813   1.238  18.526
  759TIP3   OH226471   5.116   0.601  17.300
  759TIP3    H126472   5.184   0.579  17.368
  759TIP3    H226473   5.131   0.697  17.291
  760TIP3   OH226474   4.162   1.069  17.902
  760TIP3    H126475   4.221   1.057  17.825
  760TIP3    H226476   4.192   0.998  17.961
  761TIP3   OH226477   3.844   0.888  18.464
  761TIP3    H126478   3.839   0.823  18.537
  761TIP3    H226479   3.789   0.845  18.395
  762TIP3   OH226480   4.563   0.858  18.653
  762TIP3    H126481   4.522   0.794  18.593
  762TIP3    H226482   4.650   0.815  18.667
  763TIP3   OH226483   5.057   1.409  18.488
  763TIP3    H126484   4.973   1.399  18.441
  763TIP3    H226485   5.027   1.437  18.577
  764TIP3   OH226486   5.598   0.613  17.334
  764TIP3    H126487   5.544   0.567  17.267
  764TIP3    H226488   5.591   0.709  17.309
  765TIP3   OH226489   5.608   1.188  18.578
  765TIP3    H126490   5.516   1.206  18.549
  765TIP3    H226491   5.653   1.180  18.491
  766TIP3   OH226492   4.536   1.218  17.629
  766TIP3    H126493   4.545   1.242  17.534
  766TIP3    H226494   4.452   1.171  17.633
  767TIP3   OH226495   4.589   1.572  18.293
  767TIP3    H126496   4.650   1.633  18.251
  767TIP3    H226497   4.608   1.487  18.249
  768TIP3   OH226498   4.937   1.188  18.240
  768TIP3    H126499   4.907   1.172  18.332
  768TIP3    H226500   4.929   1.100  18.201
  769TIP3   OH226501   5.228   1.639  18.473
  769TIP3    H126502   5.141   1.593  18.464
  769TIP3    H226503   5.227   1.696  18.393
  770TIP3   OH226504   5.637   1.790  17.221
  770TIP3    H126505   5.628   1.852  17.146
  770TIP3    H226506   5.555   1.740  17.215
  771TIP3   OH226507   4.025   0.352  18.406
  771TIP3    H126508   3.950   0.409  18.429
  771TIP3    H226509   3.986   0.263  18.416
  772TIP3   OH226510   3.991   1.524  18.249
  772TIP3    H126511   4.067   1.463  18.244
  772TIP3    H226512   4.000   1.557  18.339
  773TIP3   OH226513   4.105   1.068  17.329
  773TIP3    H126514   4.015   1.068  17.292
  773TIP3    H226515   4.144   1.138  17.272
  774TIP3   OH226516   4.920   0.347  18.302
  774TIP3    H126517   4.986   0.366  18.371
  774TIP3    H226518   4.864   0.281  18.350
  775TIP3   OH226519   4.959   0.331  17.452
  775TIP3    H126520   5.012   0.382  17.390
  775TIP3    H226521   5.015   0.339  17.533
  776TIP3   OH226522   4.670   0.516  17.465
  776TIP3    H126523   4.766   0.520  17.480
  776TIP3    H226524   4.642   0.480  17.552
  777TIP3   OH226525   4.789   0.580  18.437
  777TIP3    H126526   4.790   0.632  18.520
  777TIP3    H226527   4.805   0.487  18.462
  778TIP3   OH226528   4.769   0.188  17.563
  778TIP3    H126529   4.748   0.256  17.630
  778TIP3    H226530   4.854   0.221  17.527
  779TIP3   OH226531   4.355   0.282  17.314
  779TIP3    H126532   4.346   0.378  17.324
  779TIP3    H226533   4.452   0.271  17.322
  780TIP3   OH226534   5.376   0.383  18.503
  780TIP3    H126535   5.279   0.392  18.492
  780TIP3    H226536   5.401   0.359  18.411
  781TIP3   OH226537   5.247   0.746  17.894
  781TIP3    H126538   5.165   0.697  17.888
  781TIP3    H226539   5.306   0.686  17.946
  782TIP3   OH226540   4.181   1.278  17.177
  782TIP3    H126541   4.251   1.323  17.226
  782TIP3    H226542   4.232   1.220  17.118
  783TIP3   OH226543   3.991   0.594  17.079
  783TIP3    H126544   3.975   0.688  17.098
  783TIP3    H226545   4.000   0.597  16.982
  784TIP3   OH226546   5.336   1.677  18.028
  784TIP3    H126547   5.371   1.687  17.937
  784TIP3    H226548   5.420   1.672  18.078
  785TIP3   OH226549   4.082   0.164  17.920
  785TIP3    H126550   4.071   0.142  17.825
  785TIP3    H226551   4.077   0.074  17.958
  786TIP3   OH226552   3.978   1.424  17.522
  786TIP3    H126553   3.948   1.490  17.585
  786TIP3    H226554   3.975   1.478  17.440
  787TIP3   OH226555   3.889   1.756  18.687
  787TIP3    H126556   3.955   1.739  18.758
  787TIP3    H226557   3.863   1.665  18.662
  788TIP3   OH226558   4.381   1.642  18.827
  788TIP3    H126559   4.472   1.610  18.843
  788TIP3    H226560   4.362   1.599  18.742
  789TIP3   OH226561   5.010   1.514  18.739
  789TIP3    H126562   4.973   1.425  18.758
  789TIP3    H226563   5.097   1.506  18.786
  790TIP3   OH226564   3.866   1.119  18.808
  790TIP3    H126565   3.832   1.030  18.822
  790TIP3    H226566   3.818   1.143  18.726
  791TIP3   OH226567   4.563   1.127  18.696
  791TIP3    H126568   4.545   1.184  18.617
  791TIP3    H226569   4.573   1.037  18.659
  792TIP3   OH226570   5.123   1.102  18.483
  792TIP3    H126571   5.195   1.169  18.481
  792TIP3    H226572   5.043   1.159  18.494
  793TIP3   OH226573   4.021   0.830  18.771
  793TIP3    H126574   4.091   0.764  18.778
  793TIP3    H226575   4.038   0.889  18.847
  794TIP3   OH226576   4.500   0.865  17.240
  794TIP3    H126577   4.424   0.868  17.302
  794TIP3    H226578   4.467   0.933  17.179
  795TIP3   OH226579   4.421   0.718  18.444
  795TIP3    H126580   4.338   0.766  18.459
  795TIP3    H226581   4.467   0.779  18.383
  796TIP3   OH226582   4.908   1.011  18.814
  796TIP3    H126583   4.975   0.984  18.751
  796TIP3    H226584   4.893   0.929  18.866
  797TIP3   OH226585   4.457   0.484  18.560
  797TIP3    H126586   4.465   0.422  18.484
  797TIP3    H226587   4.460   0.568  18.507
  798TIP3   OH226588   4.441   0.339  18.342
  798TIP3    H126589   4.495   0.373  18.267
  798TIP3    H226590   4.349   0.354  18.310
  799TIP3   OH226591   4.605   0.860  18.319
  799TIP3    H126592   4.690   0.903  18.306
  799TIP3    H226593   4.543   0.926  18.282
  800TIP3   OH226594   5.039   0.618  18.833
  800TIP3    H126595   5.075   0.528  18.842
  800TIP3    H226596   5.115   0.674  18.857
  801TIP3   OH226597   5.190   0.943  18.686
  801TIP3    H126598   5.156   0.999  18.613
  801TIP3    H226599   5.283   0.934  18.658
  802TIP3   OH226600   4.277   0.580  18.743
  802TIP3    H126601   4.199   0.527  18.720
  802TIP3    H226602   4.344   0.541  18.681
  803TIP3   OH226603   4.523   0.092  18.322
  803TIP3    H126604   4.503   0.187  18.341
  803TIP3    H226605   4.440   0.067  18.278
  804TIP3   OH226606   4.667   0.484  18.751
  804TIP3    H126607   4.607   0.464  18.826
  804TIP3    H226608   4.605   0.467  18.677
  805TIP3   OH226609   4.953   0.397  18.641
  805TIP3    H126610   4.859   0.397  18.669
  805TIP3    H226611   4.993   0.346  18.714
  806TIP3   OH226612   5.148   0.300  18.845
  806TIP3    H126613   5.135   0.202  18.851
  806TIP3    H226614   5.108   0.327  18.931
  807TIP3   OH226615   4.060   0.396  18.764
  807TIP3    H126616   4.041   0.316  18.712
  807TIP3    H226617   4.059   0.361  18.857
  808TIP3   OH226618   4.539   0.069  18.610
  808TIP3    H126619   4.529  -0.028  18.616
  808TIP3    H226620   4.562   0.085  18.517
  809TIP3   OH226621   4.587   0.131  18.877
  809TIP3    H126622   4.600   0.093  18.788
  809TIP3    H226623   4.534   0.210  18.856
  810TIP3   OH226624   3.900   1.657  17.803
  810TIP3    H126625   3.835   1.586  17.808
  810TIP3    H226626   3.916   1.674  17.898
  811TIP3   OH226627   5.613   1.704  18.054
  811TIP3    H126628   5.613   1.714  18.152
  811TIP3    H226629   5.698   1.746  18.035
  812TIP3   OH226630   5.558   1.702  18.334
  812TIP3    H126631   5.517   1.614  18.315
  812TIP3    H226632   5.598   1.680  18.420
  813TIP3   OH226633   5.428   1.246  18.862
  813TIP3    H126634   5.336   1.254  18.894
  813TIP3    H226635   5.468   1.325  18.901
  814TIP3   OH226636   5.555   1.181  18.042
  814TIP3    H126637   5.630   1.117  18.041
  814TIP3    H226638   5.604   1.265  18.029
  815TIP3   OH226639   5.423   1.470  18.305
  815TIP3    H126640   5.349   1.506  18.356
  815TIP3    H226641   5.378   1.449  18.219
  816TIP3   OH226642   5.587   0.883  17.259
  816TIP3    H126643   5.537   0.919  17.185
  816TIP3    H226644   5.602   0.961  17.314
  817TIP3   OH226645   3.850   0.975  18.053
  817TIP3    H126646   3.864   0.936  17.964
  817TIP3    H226647   3.939   0.966  18.093
  818TIP3   OH226648   5.468   0.950  18.605
  818TIP3    H126649   5.517   0.865  18.617
  818TIP3    H226650   5.538   1.017  18.594
  819TIP3   OH226651   5.581   0.704  18.653
  819TIP3    H126652   5.490   0.665  18.657
  819TIP3    H226653   5.638   0.626  18.667
  820TIP3   OH226654   5.297   0.536  17.501
  820TIP3    H126655   5.339   0.446  17.504
  820TIP3    H226656   5.375   0.589  17.482
  821TIP3   OH226657   5.416   0.575  18.041
  821TIP3    H126658   5.510   0.606  18.047
  821TIP3    H226659   5.395   0.557  18.133
  822TIP3   OH226660   5.424   0.679  18.317
  822TIP3    H126661   5.336   0.701  18.352
  822TIP3    H226662   5.462   0.766  18.292
  823TIP3   OH226663   3.827   0.480  18.660
  823TIP3    H126664   3.918   0.476  18.697
  823TIP3    H226665   3.786   0.396  18.689
  824TIP3   OH226666   5.693   0.071  18.844
  824TIP3    H126667   5.774   0.058  18.790
  824TIP3    H226668   5.655   0.142  18.789
  825TIP3   OH226669   5.421   0.298  17.508
  825TIP3    H126670   5.430   0.270  17.601
  825TIP3    H226671   5.359   0.228  17.475
  826TIP3   OH226672   3.941   0.382  17.991
  826TIP3    H126673   3.981   0.291  17.984
  826TIP3    H226674   4.023   0.432  18.006
  827TIP3   OH226675   3.792   0.637  18.079
  827TIP3    H126676   3.846   0.611  18.001
  827TIP3    H226677   3.834   0.720  18.103
  828TIP3   OH226678   5.566   0.288  18.699
  828TIP3    H126679   5.486   0.345  18.701
  828TIP3    H226680   5.546   0.236  18.619
  829TIP3   OH226681   5.602   0.285  17.144
  829TIP3    H126682   5.614   0.207  17.087
  829TIP3    H226683   5.680   0.337  17.119
  830TIP3   OH226684   3.832   0.168  18.258
  830TIP3    H126685   3.771   0.173  18.336
  830TIP3    H226686   3.788   0.235  18.201
  831TIP3   OH226687   4.044   1.417  18.688
  831TIP3    H126688   3.961   1.448  18.650
  831TIP3    H226689   4.016   1.358  18.760
  832TIP3   OH226690   4.309   1.609  18.369
  832TIP3    H126691   4.349   1.678  18.313
  832TIP3    H226692   4.385   1.550  18.381
  833TIP3   OH226693   4.740   1.697  18.608
  833TIP3    H126694   4.755   1.659  18.697
  833TIP3    H226695   4.828   1.736  18.588
  834TIP3   OH226696   4.967   1.847  18.554
  834TIP3    H126697   5.039   1.787  18.531
  834TIP3    H226698   4.996   1.878  18.643
  835TIP3   OH226699   5.506   0.144  18.453
  835TIP3    H126700   5.422   0.168  18.411
  835TIP3    H226701   5.487   0.049  18.472
  836TIP3   OH226702   4.073   1.873  18.320
  836TIP3    H126703   3.999   1.935  18.306
  836TIP3    H226704   4.075   1.858  18.416
  837TIP3   OH226705   4.321   1.857  18.210
  837TIP3    H126706   4.226   1.834  18.231
  837TIP3    H226707   4.314   1.953  18.222
  838TIP3   OH226708   4.764   1.797  18.147
  838TIP3    H126709   4.715   1.868  18.102
  838TIP3    H226710   4.800   1.849  18.222
  839TIP3   OH226711   4.982   1.660  18.292
  839TIP3    H126712   4.918   1.691  18.227
  839TIP3    H226713   5.059   1.715  18.270
  840TIP3   OH226714   5.236   1.796  18.261
  840TIP3    H126715   5.253   1.891  18.251
  840TIP3    H226716   5.261   1.764  18.171
  841TIP3   OH226717   4.013   1.734  18.056
  841TIP3    H126718   4.000   1.705  18.148
  841TIP3    H226719   4.094   1.684  18.031
  842TIP3   OH226720   4.231   1.603  17.974
  842TIP3    H126721   4.198   1.511  17.964
  842TIP3    H226722   4.324   1.586  17.954
  843TIP3   OH226723   4.807   0.300  17.906
  843TIP3    H126724   4.767   0.212  17.918
  843TIP3    H226725   4.883   0.275  17.850
  844TIP3   OH226726   5.321   0.106  17.894
  844TIP3    H126727   5.397   0.154  17.853
  844TIP3    H226728   5.256   0.110  17.823
  845TIP3   OH226729   5.528   0.182  17.731
  845TIP3    H126730   5.560   0.114  17.668
  845TIP3    H226731   5.592   0.256  17.721
  846TIP3   OH226732   4.073   0.104  17.662
  846TIP3    H126733   4.014   0.117  17.589
  846TIP3    H226734   4.072   0.005  17.672
  847TIP3   OH226735   4.538   0.078  17.637
  847TIP3    H126736   4.618   0.116  17.595
  847TIP3    H226737   4.565   0.087  17.731
  848TIP3   OH226738   5.018   0.144  17.796
  848TIP3    H126739   5.055   0.145  17.707
  848TIP3    H226740   5.032   0.052  17.823
  849TIP3   OH226741   5.200   0.158  17.446
  849TIP3    H126742   5.144   0.187  17.372
  849TIP3    H226743   5.238   0.078  17.406
  850TIP3   OH226744   3.888   1.629  17.345
  850TIP3    H126745   3.838   1.638  17.262
  850TIP3    H226746   3.869   1.714  17.386
  851TIP3   OH226747   4.619   0.272  17.344
  851TIP3    H126748   4.659   0.232  17.424
  851TIP3    H226749   4.625   0.366  17.368
  852TIP3   OH226750   4.005   0.098  18.676
  852TIP3    H126751   4.011   0.007  18.643
  852TIP3    H226752   4.095   0.110  18.713
  853TIP3   OH226753   4.243   0.085  18.793
  853TIP3    H126754   4.326   0.126  18.764
  853TIP3    H226755   4.255  -0.005  18.753
  854TIP3   OH226756   4.076   1.723  17.067
  854TIP3    H126757   4.104   1.725  17.160
  854TIP3    H226758   4.158   1.745  17.022
  855TIP3   OH226759   5.090   0.045  18.845
  855TIP3    H126760   5.033  -0.029  18.867
  855TIP3    H226761   5.155  -0.004  18.793
  856TIP3   OH226762   5.431   1.603  18.635
  856TIP3    H126763   5.362   1.595  18.565
  856TIP3    H226764   5.401   1.685  18.677
  857TIP3   OH226765   6.869   0.999  17.665
  857TIP3    H126766   6.871   1.097  17.655
  857TIP3    H226767   6.804   0.976  17.597
  858TIP3   OH226768   6.744   0.870  17.997
  858TIP3    H126769   6.759   0.832  18.088
  858TIP3    H226770   6.654   0.905  18.001
  859TIP3   OH226771   5.956   0.883  18.150
  859TIP3    H126772   5.950   0.812  18.216
  859TIP3    H226773   6.046   0.914  18.169
  860TIP3   OH226774   7.110   1.211  17.878
  860TIP3    H126775   7.104   1.135  17.937
  860TIP3    H226776   7.104   1.285  17.940
  861TIP3   OH226777   6.073   1.345  17.987
  861TIP3    H126778   6.037   1.257  17.963
  861TIP3    H226779   6.167   1.327  17.969
  862TIP3   OH226780   5.741   0.693  17.558
  862TIP3    H126781   5.681   0.758  17.596
  862TIP3    H226782   5.679   0.636  17.509
  863TIP3   OH226783   5.814   0.915  17.804
  863TIP3    H126784   5.848   0.823  17.813
  863TIP3    H226785   5.829   0.940  17.713
  864TIP3   OH226786   6.831   1.772  17.841
  864TIP3    H126787   6.886   1.700  17.801
  864TIP3    H226788   6.792   1.725  17.915
  865TIP3   OH226789   6.565   1.142  18.097
  865TIP3    H126790   6.594   1.154  18.006
  865TIP3    H226791   6.649   1.162  18.144
  866TIP3   OH226792   7.433   0.343  18.103
  866TIP3    H126793   7.462   0.408  18.169
  866TIP3    H226794   7.466   0.382  18.020
  867TIP3   OH226795   6.214   0.401  17.769
  867TIP3    H126796   6.219   0.485  17.720
  867TIP3    H226797   6.183   0.339  17.700
  868TIP3   OH226798   5.872   0.652  17.891
  868TIP3    H126799   5.945   0.620  17.947
  868TIP3    H226800   5.893   0.607  17.807
  869TIP3   OH226801   6.351   0.798  17.837
  869TIP3    H126802   6.429   0.741  17.842
  869TIP3    H226803   6.289   0.735  17.794
  870TIP3   OH226804   7.519   0.448  18.342
  870TIP3    H126805   7.457   0.523  18.331
  870TIP3    H226806   7.492   0.421  18.430
  871TIP3   OH226807   6.100   0.306  18.207
  871TIP3    H126808   6.067   0.371  18.142
  871TIP3    H226809   6.028   0.307  18.275
  872TIP3   OH226810   6.811   1.266  17.578
  872TIP3    H126811   6.810   1.272  17.480
  872TIP3    H226812   6.766   1.350  17.602
  873TIP3   OH226813   6.335   1.060  18.208
  873TIP3    H126814   6.280   1.136  18.240
  873TIP3    H226815   6.411   1.106  18.166
  874TIP3   OH226816   6.093   0.504  17.995
  874TIP3    H126817   6.161   0.558  18.042
  874TIP3    H226818   6.145   0.469  17.919
  875TIP3   OH226819   6.207   1.278  18.294
  875TIP3    H126820   6.191   1.354  18.237
  875TIP3    H226821   6.121   1.274  18.342
  876TIP3   OH226822   5.798   1.227  17.355
  876TIP3    H126823   5.734   1.282  17.309
  876TIP3    H226824   5.833   1.294  17.419
  877TIP3   OH226825   7.159   1.412  18.059
  877TIP3    H126826   7.064   1.430  18.081
  877TIP3    H226827   7.184   1.501  18.027
  878TIP3   OH226828   7.223   0.170  18.227
  878TIP3    H126829   7.154   0.202  18.166
  878TIP3    H226830   7.298   0.166  18.165
  879TIP3   OH226831   6.460   0.083  17.898
  879TIP3    H126832   6.473  -0.002  17.944
  879TIP3    H226833   6.424   0.140  17.968
  880TIP3   OH226834   6.976   1.575  17.728
  880TIP3    H126835   7.002   1.485  17.700
  880TIP3    H226836   7.038   1.629  17.675
  881TIP3   OH226837   7.131   1.374  17.585
  881TIP3    H126838   7.124   1.310  17.510
  881TIP3    H226839   7.139   1.313  17.660
  882TIP3   OH226840   7.252   1.214  18.442
  882TIP3    H126841   7.265   1.153  18.365
  882TIP3    H226842   7.260   1.302  18.398
  883TIP3   OH226843   7.420   0.855  18.217
  883TIP3    H126844   7.369   0.939  18.212
  883TIP3    H226845   7.493   0.872  18.153
  884TIP3   OH226846   7.057   0.923  17.472
  884TIP3    H126847   6.991   0.945  17.540
  884TIP3    H226848   7.120   0.870  17.523
  885TIP3   OH226849   7.069   0.740  18.415
  885TIP3    H126850   7.047   0.809  18.480
  885TIP3    H226851   7.027   0.782  18.338
  886TIP3   OH226852   6.238   0.994  17.682
  886TIP3    H126853   6.204   0.958  17.597
  886TIP3    H226854   6.292   0.923  17.720
  887TIP3   OH226855   6.363   1.319  17.971
  887TIP3    H126856   6.380   1.295  17.879
  887TIP3    H226857   6.428   1.266  18.020
  888TIP3   OH226858   6.224   0.875  18.068
  888TIP3    H126859   6.267   0.866  17.980
  888TIP3    H226860   6.276   0.947  18.109
  889TIP3   OH226861   6.913   1.437  18.143
  889TIP3    H126862   6.861   1.503  18.191
  889TIP3    H226863   6.874   1.356  18.182
  890TIP3   OH226864   6.371   1.317  18.502
  890TIP3    H126865   6.300   1.362  18.552
  890TIP3    H226866   6.324   1.305  18.415
  891TIP3   OH226867   6.050   0.905  18.439
  891TIP3    H126868   6.072   0.995  18.466
  891TIP3    H226869   5.980   0.885  18.504
  892TIP3   OH226870   6.703   1.513  17.647
  892TIP3    H126871   6.768   1.554  17.707
  892TIP3    H226872   6.697   1.576  17.576
  893TIP3   OH226873   6.195   1.489  18.617
  893TIP3    H126874   6.187   1.530  18.528
  893TIP3    H226875   6.101   1.468  18.635
  894TIP3   OH226876   7.316   0.071  17.277
  894TIP3    H126877   7.240   0.122  17.309
  894TIP3    H226878   7.370   0.142  17.236
  895TIP3   OH226879   6.115   0.893  17.449
  895TIP3    H126880   6.096   0.977  17.400
  895TIP3    H226881   6.025   0.864  17.467
  896TIP3   OH226882   5.769   1.165  18.366
  896TIP3    H126883   5.736   1.143  18.279
  896TIP3    H226884   5.801   1.076  18.394
  897TIP3   OH226885   5.717   1.423  18.011
  897TIP3    H126886   5.813   1.421  18.030
  897TIP3    H226887   5.690   1.507  18.051
  898TIP3   OH226888   7.531   1.487  18.576
  898TIP3    H126889   7.525   1.392  18.572
  898TIP3    H226890   7.450   1.503  18.630
  899TIP3   OH226891   6.621   1.419  18.502
  899TIP3    H126892   6.633   1.496  18.560
  899TIP3    H226893   6.526   1.396  18.511
  900TIP3   OH226894   6.722   1.831  17.449
  900TIP3    H126895   6.655   1.767  17.475
  900TIP3    H226896   6.692   1.914  17.494
  901TIP3   OH226897   6.056   1.679  17.654
  901TIP3    H126898   6.067   1.648  17.747
  901TIP3    H226899   5.962   1.662  17.635
  902TIP3   OH226900   6.964   1.766  17.161
  902TIP3    H126901   7.030   1.712  17.114
  902TIP3    H226902   6.907   1.696  17.196
  903TIP3   OH226903   6.969   1.734  17.477
  903TIP3    H126904   6.881   1.774  17.461
  903TIP3    H226905   6.951   1.640  17.460
  904TIP3   OH226906   7.219   0.645  18.634
  904TIP3    H126907   7.158   0.659  18.558
  904TIP3    H226908   7.264   0.563  18.602
  905TIP3   OH226909   5.985   1.296  18.438
  905TIP3    H126910   5.991   1.265  18.531
  905TIP3    H226911   5.897   1.260  18.415
  906TIP3   OH226912   6.269   0.219  18.030
  906TIP3    H126913   6.198   0.239  17.967
  906TIP3    H226914   6.226   0.250  18.113
  907TIP3   OH226915   6.653   0.165  18.400
  907TIP3    H126916   6.695   0.077  18.412
  907TIP3    H226917   6.578   0.138  18.343
  908TIP3   OH226918   7.021   0.468  18.443
  908TIP3    H126919   6.954   0.450  18.512
  908TIP3    H226920   7.031   0.564  18.450
  909TIP3   OH226921   6.251   0.633  18.162
  909TIP3    H126922   6.171   0.623  18.218
  909TIP3    H226923   6.239   0.726  18.132
  910TIP3   OH226924   6.235   0.648  17.660
  910TIP3    H126925   6.137   0.638  17.653
  910TIP3    H226926   6.261   0.656  17.568
  911TIP3   OH226927   6.673   0.713  18.659
  911TIP3    H126928   6.630   0.627  18.684
  911TIP3    H226929   6.748   0.712  18.719
  912TIP3   OH226930   6.008   0.628  18.295
  912TIP3    H126931   6.032   0.677  18.375
  912TIP3    H226932   5.966   0.549  18.330
  913TIP3   OH226933   6.351   0.419  17.018
  913TIP3    H126934   6.313   0.363  17.087
  913TIP3    H226935   6.387   0.355  16.957
  914TIP3   OH226936   5.700   0.389  17.726
  914TIP3    H126937   5.764   0.391  17.799
  914TIP3    H226938   5.752   0.360  17.650
  915TIP3   OH226939   5.828   0.422  17.313
  915TIP3    H126940   5.879   0.418  17.232
  915TIP3    H226941   5.772   0.500  17.300
  916TIP3   OH226942   6.794   0.761  18.244
  916TIP3    H126943   6.877   0.715  18.228
  916TIP3    H226944   6.745   0.697  18.301
  917TIP3   OH226945   5.981   0.565  17.633
  917TIP3    H126946   5.899   0.586  17.584
  917TIP3    H226947   5.995   0.471  17.612
  918TIP3   OH226948   7.242   1.852  18.719
  918TIP3    H126949   7.284   1.878  18.635
  918TIP3    H226950   7.314   1.872  18.781
  919TIP3   OH226951   5.990   1.144  18.679
  919TIP3    H126952   6.069   1.143  18.737
  919TIP3    H226953   5.922   1.103  18.735
  920TIP3   OH226954   6.096   0.290  17.543
  920TIP3    H126955   6.041   0.221  17.589
  920TIP3    H226956   6.156   0.234  17.492
  921TIP3   OH226957   6.481   0.480  18.181
  921TIP3    H126958   6.416   0.554  18.178
  921TIP3    H226959   6.558   0.524  18.221
  922TIP3   OH226960   6.503   1.139  17.364
  922TIP3    H126961   6.455   1.057  17.359
  922TIP3    H226962   6.491   1.164  17.459
  923TIP3   OH226963   7.268   1.072  18.221
  923TIP3    H126964   7.314   1.118  18.149
  923TIP3    H226965   7.180   1.055  18.182
  924TIP3   OH226966   6.669   1.153  18.478
  924TIP3    H126967   6.635   1.132  18.566
  924TIP3    H226968   6.650   1.249  18.477
  925TIP3   OH226969   6.040   1.093  17.889
  925TIP3    H126970   6.084   1.061  17.809
  925TIP3    H226971   6.057   1.021  17.952
  926TIP3   OH226972   6.735   1.299  17.315
  926TIP3    H126973   6.685   1.382  17.304
  926TIP3    H226974   6.669   1.228  17.310
  927TIP3   OH226975   5.748   0.899  18.474
  927TIP3    H126976   5.728   0.834  18.544
  927TIP3    H226977   5.699   0.862  18.398
  928TIP3   OH226978   6.450   0.860  18.643
  928TIP3    H126979   6.397   0.797  18.594
  928TIP3    H226980   6.540   0.818  18.642
  929TIP3   OH226981   6.946   1.381  18.495
  929TIP3    H126982   6.863   1.377  18.446
  929TIP3    H226983   6.918   1.431  18.574
  930TIP3   OH226984   7.532   0.583  17.312
  930TIP3    H126985   7.465   0.568  17.241
  930TIP3    H226986   7.576   0.659  17.272
  931TIP3   OH226987   7.476   1.182  18.573
  931TIP3    H126988   7.387   1.208  18.539
  931TIP3    H226989   7.527   1.169  18.490
  932TIP3   OH226990   7.328   1.451  17.336
  932TIP3    H126991   7.267   1.383  17.370
  932TIP3    H226992   7.331   1.428  17.242
  933TIP3   OH226993   7.053   0.980  18.048
  933TIP3    H126994   6.959   0.975  18.021
  933TIP3    H226995   7.084   0.901  17.999
  934TIP3   OH226996   6.285   1.429  17.648
  934TIP3    H126997   6.298   1.523  17.623
  934TIP3    H226998   6.191   1.418  17.631
  935TIP3   OH226999   6.411   1.189  17.610
  935TIP3    H127000   6.370   1.278  17.620
  935TIP3    H227001   6.344   1.129  17.647
  936TIP3   OH227002   6.483   1.593  18.296
  936TIP3    H127003   6.544   1.662  18.267
  936TIP3    H227004   6.534   1.546  18.365
  937TIP3   OH227005   6.308   1.688  17.556
  937TIP3    H127006   6.213   1.692  17.584
  937TIP3    H227007   6.339   1.770  17.601
  938TIP3   OH227008   6.793   1.184  18.232
  938TIP3    H127009   6.753   1.149  18.316
  938TIP3    H227010   6.870   1.127  18.220
  939TIP3   OH227011   7.124   1.628  18.456
  939TIP3    H127012   7.035   1.588  18.459
  939TIP3    H227013   7.118   1.691  18.381
  940TIP3   OH227014   5.917   0.347  18.409
  940TIP3    H127015   5.852   0.413  18.440
  940TIP3    H227016   5.878   0.263  18.436
  941TIP3   OH227017   7.168   1.213  17.363
  941TIP3    H127018   7.112   1.137  17.337
  941TIP3    H227019   7.257   1.172  17.360
  942TIP3   OH227020   5.884   1.548  18.246
  942TIP3    H127021   5.943   1.472  18.258
  942TIP3    H227022   5.906   1.598  18.325
  943TIP3   OH227023   6.379   1.363  17.230
  943TIP3    H127024   6.425   1.299  17.287
  943TIP3    H227025   6.384   1.446  17.280
  944TIP3   OH227026   6.029   1.086  17.281
  944TIP3    H127027   5.946   1.134  17.309
  944TIP3    H227028   6.061   1.148  17.213
  945TIP3   OH227029   6.809   0.356  18.300
  945TIP3    H127030   6.874   0.346  18.372
  945TIP3    H227031   6.753   0.279  18.319
  946TIP3   OH227032   6.648   1.568  17.304
  946TIP3    H127033   6.554   1.595  17.316
  946TIP3    H227034   6.657   1.576  17.206
  947TIP3   OH227035   6.667   0.596  18.412
  947TIP3    H127036   6.677   0.638  18.501
  947TIP3    H227037   6.702   0.505  18.423
  948TIP3   OH227038   6.395   1.641  17.311
  948TIP3    H127039   6.322   1.684  17.265
  948TIP3    H227040   6.362   1.649  17.404
  949TIP3   OH227041   6.257   0.297  17.244
  949TIP3    H127042   6.240   0.367  17.309
  949TIP3    H227043   6.337   0.257  17.281
  950TIP3   OH227044   7.262   0.384  18.489
  950TIP3    H127045   7.170   0.414  18.474
  950TIP3    H227046   7.274   0.328  18.411
  951TIP3   OH227047   7.078   0.735  17.909
  951TIP3    H127048   7.026   0.663  17.872
  951TIP3    H227049   7.149   0.686  17.957
  952TIP3   OH227050   7.253   1.674  18.054
  952TIP3    H127051   7.255   1.741  17.982
  952TIP3    H227052   7.347   1.676  18.082
  953TIP3   OH227053   5.953   0.144  17.964
  953TIP3    H127054   5.948   0.123  17.869
  953TIP3    H227055   5.964   0.051  17.995
  954TIP3   OH227056   5.865   1.436  17.497
  954TIP3    H127057   5.835   1.451  17.588
  954TIP3    H227058   5.863   1.525  17.458
  955TIP3   OH227059   5.779   1.752  18.692
  955TIP3    H127060   5.844   1.743  18.764
  955TIP3    H227061   5.757   1.658  18.675
  956TIP3   OH227062   6.275   1.649  18.831
  956TIP3    H127063   6.356   1.601  18.859
  956TIP3    H227064   6.255   1.603  18.748
  957TIP3   OH227065   6.676   1.561  17.041
  957TIP3    H127066   6.603   1.529  16.986
  957TIP3    H227067   6.755   1.523  16.998
  958TIP3   OH227068   6.891   1.501  18.738
  958TIP3    H127069   6.860   1.412  18.767
  958TIP3    H227070   6.978   1.503  18.783
  959TIP3   OH227071   5.747   1.131  18.799
  959TIP3    H127072   5.717   1.038  18.792
  959TIP3    H227073   5.711   1.166  18.714
  960TIP3   OH227074   6.435   1.123  18.677
  960TIP3    H127075   6.418   1.178  18.597
  960TIP3    H227076   6.424   1.030  18.644
  961TIP3   OH227077   7.016   1.082  18.485
  961TIP3    H127078   7.108   1.119  18.483
  961TIP3    H227079   6.972   1.163  18.515
  962TIP3   OH227080   5.915   0.835  18.747
  962TIP3    H127081   5.959   0.751  18.766
  962TIP3    H227082   5.940   0.890  18.824
  963TIP3   OH227083   6.247   0.732  18.428
  963TIP3    H127084   6.173   0.796  18.428
  963TIP3    H227085   6.316   0.782  18.381
  964TIP3   OH227086   6.775   1.012  18.804
  964TIP3    H127087   6.848   0.974  18.752
  964TIP3    H227088   6.746   0.931  18.849
  965TIP3   OH227089   6.336   0.513  18.549
  965TIP3    H127090   6.351   0.448  18.478
  965TIP3    H227091   6.327   0.595  18.495
  966TIP3   OH227092   6.330   0.338  18.347
  966TIP3    H127093   6.391   0.380  18.283
  966TIP3    H227094   6.245   0.342  18.299
  967TIP3   OH227095   6.482   0.864  18.319
  967TIP3    H127096   6.574   0.892  18.319
  967TIP3    H227097   6.435   0.944  18.286
  968TIP3   OH227098   6.952   0.605  18.843
  968TIP3    H127099   6.992   0.519  18.831
  968TIP3    H227100   7.027   0.666  18.850
  969TIP3   OH227101   7.044   0.921  18.695
  969TIP3    H127102   7.019   0.976  18.617
  969TIP3    H227103   7.134   0.891  18.672
  970TIP3   OH227104   6.161   0.590  18.754
  970TIP3    H127105   6.076   0.543  18.738
  970TIP3    H227106   6.219   0.552  18.683
  971TIP3   OH227107   6.405   0.091  18.321
  971TIP3    H127108   6.390   0.188  18.334
  971TIP3    H227109   6.314   0.062  18.303
  972TIP3   OH227110   6.550   0.491  18.749
  972TIP3    H127111   6.494   0.472  18.826
  972TIP3    H227112   6.487   0.471  18.678
  973TIP3   OH227113   6.854   0.407  18.637
  973TIP3    H127114   6.763   0.382  18.655
  973TIP3    H227115   6.904   0.350  18.699
  974TIP3   OH227116   7.009   0.290  18.852
  974TIP3    H127117   6.996   0.192  18.866
  974TIP3    H227118   6.976   0.321  18.940
  975TIP3   OH227119   5.954   0.413  18.759
  975TIP3    H127120   5.957   0.335  18.703
  975TIP3    H227121   5.945   0.373  18.849
  976TIP3   OH227122   6.423   0.070  18.606
  976TIP3    H127123   6.410  -0.027  18.610
  976TIP3    H227124   6.450   0.084  18.513
  977TIP3   OH227125   6.482   0.125  18.875
  977TIP3    H127126   6.481   0.099  18.781
  977TIP3    H227127   6.439   0.212  18.871
  978TIP3   OH227128   5.773   1.635  17.794
  978TIP3    H127129   5.704   1.582  17.836
  978TIP3    H227130   5.825   1.665  17.871
  979TIP3   OH227131   7.532   1.714  18.126
  979TIP3    H127132   7.542   1.683  18.217
  979TIP3    H227133   7.516   1.810  18.143
  980TIP3   OH227134   7.455   1.670  18.390
  980TIP3    H127135   7.401   1.602  18.343
  980TIP3    H227136   7.496   1.610  18.456
  981TIP3   OH227137   7.310   1.252  18.887
  981TIP3    H127138   7.224   1.266  18.931
  981TIP3    H227139   7.344   1.343  18.885
  982TIP3   OH227140   7.434   1.110  17.392
  982TIP3    H127141   7.526   1.140  17.402
  982TIP3    H227142   7.431   1.035  17.454
  983TIP3   OH227143   7.458   0.914  17.593
  983TIP3    H127144   7.372   0.869  17.607
  983TIP3    H227145   7.496   0.911  17.682
  984TIP3   OH227146   7.471   1.165  18.071
  984TIP3    H127147   7.565   1.174  18.050
  984TIP3    H227148   7.449   1.260  18.053
  985TIP3   OH227149   7.297   1.459  18.314
  985TIP3    H127150   7.221   1.499  18.360
  985TIP3    H227151   7.263   1.447  18.223
  986TIP3   OH227152   7.390   0.594  17.089
  986TIP3    H127153   7.402   0.680  17.041
  986TIP3    H227154   7.382   0.533  17.016
  987TIP3   OH227155   7.233   0.770  17.644
  987TIP3    H127156   7.228   0.686  17.593
  987TIP3    H227157   7.223   0.744  17.738
  988TIP3   OH227158   5.743   0.986  18.048
  988TIP3    H127159   5.747   0.960  17.954
  988TIP3    H227160   5.832   0.950  18.073
  989TIP3   OH227161   7.333   0.953  18.610
  989TIP3    H127162   7.401   0.887  18.587
  989TIP3    H227163   7.383   1.037  18.604
  990TIP3   OH227164   7.479   0.733  18.633
  990TIP3    H127165   7.382   0.737  18.651
  990TIP3    H227166   7.499   0.643  18.668
  991TIP3   OH227167   7.248   0.547  17.479
  991TIP3    H127168   7.266   0.453  17.503
  991TIP3    H227169   7.316   0.565  17.413
  992TIP3   OH227170   7.244   0.580  18.037
  992TIP3    H127171   7.337   0.580  18.005
  992TIP3    H227172   7.260   0.561  18.131
  993TIP3   OH227173   7.317   0.628  18.306
  993TIP3    H127174   7.229   0.648  18.342
  993TIP3    H227175   7.345   0.717  18.274
  994TIP3   OH227176   5.732   0.488  18.642
  994TIP3    H127177   5.815   0.478  18.694
  994TIP3    H227178   5.680   0.410  18.671
  995TIP3   OH227179   7.576   0.089  18.861
  995TIP3    H127180   7.659   0.084  18.812
  995TIP3    H227181   7.519   0.138  18.798
  996TIP3   OH227182   7.302   0.277  17.521
  996TIP3    H127183   7.326   0.212  17.590
  996TIP3    H227184   7.218   0.239  17.487
  997TIP3   OH227185   5.834   0.384  17.998
  997TIP3    H127186   5.848   0.288  18.010
  997TIP3    H227187   5.926   0.415  17.988
  998TIP3   OH227188   5.667   0.660  18.061
  998TIP3    H127189   5.733   0.635  17.992
  998TIP3    H227190   5.722   0.714  18.118
  999TIP3   OH227191   7.442   0.259  18.700
  999TIP3    H127192   7.363   0.305  18.738
  999TIP3    H227193   7.406   0.232  18.613
 1000TIP3   OH227194   7.460   0.251  17.144
 1000TIP3    H127195   7.524   0.213  17.083
 1000TIP3    H227196   7.464   0.344  17.122
 1001TIP3   OH227197   5.724   0.203  17.467
 1001TIP3    H127198   5.628   0.209  17.457
 1001TIP3    H227199   5.751   0.269  17.399
 1002TIP3   OH227200   7.206   1.731  17.669
 1002TIP3    H127201   7.242   1.646  17.638
 1002TIP3    H227202   7.263   1.747  17.747
 1003TIP3   OH227203   5.712   0.154  18.275
 1003TIP3    H127204   5.648   0.168  18.347
 1003TIP3    H227205   5.680   0.220  18.210
 1004TIP3   OH227206   5.931   1.434  18.686
 1004TIP3    H127207   5.843   1.456  18.650
 1004TIP3    H227208   5.911   1.382  18.764
 1005TIP3   OH227209   6.222   1.589  18.361
 1005TIP3    H127210   6.224   1.677  18.318
 1005TIP3    H227211   6.316   1.564  18.353
 1006TIP3   OH227212   6.627   1.691  18.603
 1006TIP3    H127213   6.639   1.665  18.696
 1006TIP3    H227214   6.715   1.728  18.583
 1007TIP3   OH227215   6.857   1.842  18.563
 1007TIP3    H127216   6.936   1.813  18.517
 1007TIP3    H227217   6.892   1.878  18.647
 1008TIP3   OH227218   7.363   0.128  18.487
 1008TIP3    H127219   7.283   0.142  18.433
 1008TIP3    H227220   7.363   0.031  18.499
 1009TIP3   OH227221   5.953   1.880  18.321
 1009TIP3    H127222   5.872   1.930  18.296
 1009TIP3    H227223   5.945   1.880  18.418
 1010TIP3   OH227224   6.194   1.834  18.225
 1010TIP3    H127225   6.102   1.846  18.259
 1010TIP3    H227226   6.196   1.903  18.156
 1011TIP3   OH227227   6.672   1.796  18.150
 1011TIP3    H127228   6.601   1.829  18.094
 1011TIP3    H227229   6.685   1.872  18.211
 1012TIP3   OH227230   6.861   1.667  18.297
 1012TIP3    H127231   6.793   1.708  18.240
 1012TIP3    H227232   6.939   1.717  18.269
 1013TIP3   OH227233   7.128   1.806  18.260
 1013TIP3    H127234   7.137   1.901  18.246
 1013TIP3    H227235   7.172   1.770  18.179
 1014TIP3   OH227236   5.905   1.713  18.015
 1014TIP3    H127237   5.891   1.654  18.093
 1014TIP3    H227238   5.998   1.686  17.992
 1015TIP3   OH227239   6.131   1.621  17.909
 1015TIP3    H127240   6.118   1.526  17.929
 1015TIP3    H227241   6.223   1.632  17.942
 1016TIP3   OH227242   6.366   1.608  18.031
 1016TIP3    H127243   6.399   1.517  18.017
 1016TIP3    H227244   6.376   1.617  18.127
 1017TIP3   OH227245   7.198   0.130  17.903
 1017TIP3    H127246   7.265   0.127  17.832
 1017TIP3    H227247   7.119   0.163  17.857
 1018TIP3   OH227248   7.403   0.108  17.699
 1018TIP3    H127249   7.463   0.034  17.678
 1018TIP3    H227250   7.468   0.180  17.713
 1019TIP3   OH227251   5.924   0.130  17.660
 1019TIP3    H127252   5.861   0.148  17.586
 1019TIP3    H227253   5.929   0.032  17.659
 1020TIP3   OH227254   5.728   0.038  17.213
 1020TIP3    H127255   5.822   0.032  17.190
 1020TIP3    H227256   5.731   0.070  17.305
 1021TIP3   OH227257   6.436   0.122  17.638
 1021TIP3    H127258   6.513   0.170  17.606
 1021TIP3    H227259   6.451   0.122  17.736
 1022TIP3   OH227260   6.952   0.143  17.764
 1022TIP3    H127261   6.937   0.133  17.668
 1022TIP3    H227262   6.941   0.051  17.794
 1023TIP3   OH227263   7.089   0.180  17.396
 1023TIP3    H127264   7.000   0.212  17.374
 1023TIP3    H227265   7.073   0.082  17.396
 1024TIP3   OH227266   5.849   1.709  17.385
 1024TIP3    H127267   5.763   1.699  17.338
 1024TIP3    H227268   5.896   1.766  17.322
 1025TIP3   OH227269   6.007   0.181  17.177
 1025TIP3    H127270   6.006   0.088  17.142
 1025TIP3    H227271   6.102   0.199  17.185
 1026TIP3   OH227272   7.366   1.705  17.416
 1026TIP3    H127273   7.358   1.606  17.406
 1026TIP3    H227274   7.380   1.724  17.321
 1027TIP3   OH227275   5.888   0.093  18.668
 1027TIP3    H127276   5.904   0.002  18.636
 1027TIP3    H227277   5.976   0.114  18.706
 1028TIP3   OH227278   6.135   0.103  18.772
 1028TIP3    H127279   6.222   0.137  18.746
 1028TIP3    H227280   6.148   0.009  18.741
 1029TIP3   OH227281   6.974   0.031  18.842
 1029TIP3    H127282   6.935  -0.057  18.830
 1029TIP3    H227283   7.047   0.023  18.780
 1030TIP3   OH227284   7.287   1.545  18.647
 1030TIP3    H127285   7.227   1.566  18.572
 1030TIP3    H227286   7.299   1.632  18.685
 1031TIP3   OH227287   7.564   0.663  17.562
 1031TIP3    H127288   7.526   0.750  17.538
 1031TIP3    H227289   7.552   0.613  17.478
 1032TIP3   OH227290   7.585   1.115  18.325
 1032TIP3    H127291   7.521   1.108  18.252
 1032TIP3    H227292   7.586   1.023  18.361
 1033TIP3   OH227293   7.548   1.410  18.019
 1033TIP3    H127294   7.647   1.409  18.013
 1033TIP3    H227295   7.536   1.495  18.064
 1034TIP3   OH227296   7.563   0.326  17.743
 1034TIP3    H127297   7.636   0.372  17.787
 1034TIP3    H227298   7.603   0.310  17.655
 1035TIP3   OH227299   7.583   0.873  18.435
 1035TIP3    H127300   7.566   0.810  18.509
 1035TIP3    H227301   7.513   0.845  18.371
 1036TIP3   OH227302   7.628   1.065  18.754
 1036TIP3    H127303   7.578   0.991  18.790
 1036TIP3    H227304   7.564   1.109  18.693
 1037TIP3   OH227305   7.532   1.825  17.599
 1037TIP3    H127306   7.489   1.768  17.532
 1037TIP3    H227307   7.553   1.757  17.666
 1038TIP3   OH227308   7.531   1.627  17.788
 1038TIP3    H127309   7.525   1.530  17.796
 1038TIP3    H227310   7.614   1.644  17.839
 1039TIP3   OH227311   7.631   0.912  18.065
 1039TIP3    H127312   7.600   0.947  17.980
 1039TIP3    H227313   7.706   0.975  18.079
 1040TIP3   OH227314   7.535   0.499  18.737
 1040TIP3    H127315   7.629   0.518  18.754
 1040TIP3    H227316   7.530   0.401  18.731
 1041TIP3   OH227317   7.512   0.618  17.997
 1041TIP3    H127318   7.600   0.592  17.967
 1041TIP3    H227319   7.536   0.668  18.076
 1042TIP3   OH227320   7.596   0.232  17.475
 1042TIP3    H127321   7.502   0.216  17.459
 1042TIP3    H227322   7.619   0.277  17.394
 1043TIP3   OH227323   7.521   0.148  18.285
 1043TIP3    H127324   7.462   0.163  18.362
 1043TIP3    H227325   7.490   0.218  18.223
 1044TIP3   OH227326   1.192   2.870  17.650
 1044TIP3    H127327   1.182   2.967  17.655
 1044TIP3    H227328   1.129   2.850  17.577
 1045TIP3   OH227329   1.091   2.774  18.008
 1045TIP3    H127330   1.109   2.747  18.101
 1045TIP3    H227331   1.032   2.699  17.983
 1046TIP3   OH227332   0.338   2.757  18.177
 1046TIP3    H127333   0.307   2.677  18.225
 1046TIP3    H227334   0.409   2.787  18.236
 1047TIP3   OH227335   1.434   3.033  17.843
 1047TIP3    H127336   1.343   3.000  17.853
 1047TIP3    H227337   1.419   3.122  17.882
 1048TIP3   OH227338   0.371   3.224  17.981
 1048TIP3    H127339   0.347   3.130  17.965
 1048TIP3    H227340   0.467   3.210  17.980
 1049TIP3   OH227341   0.138   2.619  17.525
 1049TIP3    H127342   0.107   2.657  17.609
 1049TIP3    H227343   0.064   2.559  17.503
 1050TIP3   OH227344   0.123   2.786  17.804
 1050TIP3    H127345   0.180   2.707  17.825
 1050TIP3    H227346   0.185   2.843  17.757
 1051TIP3   OH227347   1.190   3.627  17.822
 1051TIP3    H127348   1.247   3.560  17.778
 1051TIP3    H227349   1.147   3.571  17.887
 1052TIP3   OH227350   0.917   3.051  18.068
 1052TIP3    H127351   0.966   3.021  17.989
 1052TIP3    H227352   0.995   3.066  18.127
 1053TIP3   OH227353   1.779   2.178  18.101
 1053TIP3    H127354   1.778   2.240  18.178
 1053TIP3    H227355   1.862   2.207  18.057
 1054TIP3   OH227356   1.292   2.484  18.098
 1054TIP3    H127357   1.296   2.388  18.112
 1054TIP3    H227358   1.247   2.485  18.012
 1055TIP3   OH227359   0.561   2.272  17.772
 1055TIP3    H127360   0.589   2.363  17.745
 1055TIP3    H227361   0.545   2.236  17.684
 1056TIP3   OH227362   1.316   2.300  17.665
 1056TIP3    H127363   1.370   2.267  17.742
 1056TIP3    H227364   1.376   2.368  17.631
 1057TIP3   OH227365   0.257   2.546  17.853
 1057TIP3    H127366   0.313   2.487  17.909
 1057TIP3    H227367   0.268   2.499  17.767
 1058TIP3   OH227368   0.702   2.710  17.830
 1058TIP3    H127369   0.783   2.664  17.857
 1058TIP3    H227370   0.672   2.647  17.760
 1059TIP3   OH227371   1.787   2.324  18.332
 1059TIP3    H127372   1.754   2.410  18.295
 1059TIP3    H227373   1.822   2.356  18.416
 1060TIP3   OH227374   0.476   2.168  18.189
 1060TIP3    H127375   0.438   2.231  18.124
 1060TIP3    H227376   0.423   2.192  18.267
 1061TIP3   OH227377   1.187   3.141  17.530
 1061TIP3    H127378   1.157   3.147  17.437
 1061TIP3    H227379   1.142   3.218  17.569
 1062TIP3   OH227380   0.698   2.944  18.215
 1062TIP3    H127381   0.635   3.014  18.244
 1062TIP3    H227382   0.759   2.996  18.158
 1063TIP3   OH227383   1.506   2.263  17.848
 1063TIP3    H127384   1.515   2.181  17.898
 1063TIP3    H227385   1.588   2.310  17.872
 1064TIP3   OH227386   0.407   2.377  17.995
 1064TIP3    H127387   0.463   2.437  18.052
 1064TIP3    H227388   0.472   2.339  17.934
 1065TIP3   OH227389   0.554   3.171  18.283
 1065TIP3    H127390   0.563   3.248  18.225
 1065TIP3    H227391   0.461   3.180  18.313
 1066TIP3   OH227392   0.088   3.107  17.405
 1066TIP3    H127393   0.143   3.079  17.332
 1066TIP3    H227394   0.151   3.152  17.463
 1067TIP3   OH227395   1.538   3.279  18.098
 1067TIP3    H127396   1.448   3.254  18.068
 1067TIP3    H227397   1.547   3.358  18.042
 1068TIP3   OH227398   1.494   2.128  18.172
 1068TIP3    H127399   1.420   2.149  18.111
 1068TIP3    H227400   1.571   2.157  18.119
 1069TIP3   OH227401   0.773   1.902  17.952
 1069TIP3    H127402   0.751   1.808  17.966
 1069TIP3    H227403   0.716   1.946  18.017
 1070TIP3   OH227404   1.338   3.454  17.679
 1070TIP3    H127405   1.376   3.365  17.667
 1070TIP3    H227406   1.418   3.512  17.676
 1071TIP3   OH227407   1.473   3.229  17.588
 1071TIP3    H127408   1.387   3.186  17.573
 1071TIP3    H227409   1.503   3.177  17.665
 1072TIP3   OH227410   1.613   3.115  18.438
 1072TIP3    H127411   1.623   3.040  18.374
 1072TIP3    H227412   1.616   3.190  18.376
 1073TIP3   OH227413   1.056   2.809  17.419
 1073TIP3    H127414   1.000   2.862  17.359
 1073TIP3    H227415   1.130   2.786  17.359
 1074TIP3   OH227416   1.062   2.595  17.135
 1074TIP3    H127417   1.140   2.556  17.174
 1074TIP3    H227418   1.019   2.520  17.091
 1075TIP3   OH227419   1.816   2.761  18.218
 1075TIP3    H127420   1.749   2.830  18.237
 1075TIP3    H227421   1.862   2.802  18.143
 1076TIP3   OH227422   1.449   2.846  17.520
 1076TIP3    H127423   1.374   2.862  17.581
 1076TIP3    H227424   1.506   2.791  17.579
 1077TIP3   OH227425   1.418   2.649  18.411
 1077TIP3    H127426   1.386   2.733  18.444
 1077TIP3    H227427   1.363   2.642  18.332
 1078TIP3   OH227428   0.553   2.893  17.703
 1078TIP3    H127429   0.530   2.840  17.623
 1078TIP3    H227430   0.607   2.828  17.754
 1079TIP3   OH227431   0.710   3.188  17.975
 1079TIP3    H127432   0.741   3.194  17.883
 1079TIP3    H227433   0.786   3.140  18.016
 1080TIP3   OH227434   0.619   2.738  18.075
 1080TIP3    H127435   0.658   2.748  17.985
 1080TIP3    H227436   0.647   2.818  18.124
 1081TIP3   OH227437   1.106   3.326  18.250
 1081TIP3    H127438   1.140   3.416  18.251
 1081TIP3    H227439   1.151   3.290  18.170
 1082TIP3   OH227440   0.707   3.198  18.507
 1082TIP3    H127441   0.634   3.246  18.553
 1082TIP3    H227442   0.664   3.184  18.421
 1083TIP3   OH227443   1.297   2.767  17.299
 1083TIP3    H127444   1.353   2.790  17.378
 1083TIP3    H227445   1.337   2.812  17.225
 1084TIP3   OH227446   0.446   2.821  18.423
 1084TIP3    H127447   0.438   2.894  18.489
 1084TIP3    H227448   0.356   2.783  18.427
 1085TIP3   OH227449   1.017   3.415  17.630
 1085TIP3    H127450   1.087   3.430  17.694
 1085TIP3    H227451   1.027   3.487  17.568
 1086TIP3   OH227452   0.519   3.371  18.612
 1086TIP3    H127453   0.508   3.405  18.521
 1086TIP3    H227454   0.426   3.368  18.642
 1087TIP3   OH227455   1.699   1.892  17.301
 1087TIP3    H127456   1.602   1.896  17.310
 1087TIP3    H227457   1.715   1.961  17.235
 1088TIP3   OH227458   0.450   2.759  17.489
 1088TIP3    H127459   0.399   2.831  17.451
 1088TIP3    H227460   0.400   2.679  17.466
 1089TIP3   OH227461   0.163   3.005  18.357
 1089TIP3    H127462   0.065   3.005  18.345
 1089TIP3    H227463   0.188   2.915  18.330
 1090TIP3   OH227464   0.132   3.349  17.987
 1090TIP3    H127465   0.213   3.294  17.991
 1090TIP3    H227466   0.139   3.395  18.073
 1091TIP3   OH227467   1.870   3.370  18.589
 1091TIP3    H127468   1.845   3.283  18.556
 1091TIP3    H227469   1.783   3.393  18.631
 1092TIP3   OH227470   0.955   3.318  18.514
 1092TIP3    H127471   0.950   3.415  18.510
 1092TIP3    H227472   0.861   3.288  18.507
 1093TIP3   OH227473   1.023   3.708  17.420
 1093TIP3    H127474   1.033   3.714  17.322
 1093TIP3    H227475   1.033   3.799  17.451
 1094TIP3   OH227476   0.410   3.574  17.649
 1094TIP3    H127477   0.443   3.554  17.739
 1094TIP3    H227478   0.314   3.568  17.666
 1095TIP3   OH227479   1.287   3.606  17.458
 1095TIP3    H127480   1.191   3.623  17.449
 1095TIP3    H227481   1.289   3.545  17.535
 1096TIP3   OH227482   1.570   2.505  18.627
 1096TIP3    H127483   1.513   2.546  18.558
 1096TIP3    H227484   1.561   2.411  18.604
 1097TIP3   OH227485   0.312   3.203  18.416
 1097TIP3    H127486   0.332   3.157  18.500
 1097TIP3    H227487   0.248   3.137  18.381
 1098TIP3   OH227488   1.062   1.963  18.338
 1098TIP3    H127489   1.093   1.921  18.421
 1098TIP3    H227490   0.964   1.965  18.348
 1099TIP3   OH227491   1.341   2.380  18.492
 1099TIP3    H127492   1.283   2.330  18.553
 1099TIP3    H227493   1.302   2.469  18.496
 1100TIP3   OH227494   0.979   2.269  17.176
 1100TIP3    H127495   0.976   2.185  17.224
 1100TIP3    H227496   0.997   2.236  17.086
 1101TIP3   OH227497   0.590   2.487  18.154
 1101TIP3    H127498   0.514   2.504  18.214
 1101TIP3    H227499   0.606   2.580  18.125
 1102TIP3   OH227500   0.601   2.511  17.677
 1102TIP3    H127501   0.504   2.529  17.663
 1102TIP3    H227502   0.630   2.500  17.584
 1103TIP3   OH227503   1.097   2.530  17.491
 1103TIP3    H127504   1.077   2.622  17.466
 1103TIP3    H227505   1.170   2.507  17.428
 1104TIP3   OH227506   1.021   2.599  18.661
 1104TIP3    H127507   0.975   2.517  18.690
 1104TIP3    H227508   1.092   2.603  18.726
 1105TIP3   OH227509   1.218   2.523  17.822
 1105TIP3    H127510   1.224   2.604  17.769
 1105TIP3    H227511   1.219   2.454  17.753
 1106TIP3   OH227512   0.357   2.512  18.295
 1106TIP3    H127513   0.422   2.541  18.361
 1106TIP3    H227514   0.311   2.439  18.339
 1107TIP3   OH227515   0.689   2.150  17.045
 1107TIP3    H127516   0.632   2.113  17.113
 1107TIP3    H227517   0.670   2.244  17.049
 1108TIP3   OH227518   0.135   2.301  17.716
 1108TIP3    H127519   0.092   2.275  17.798
 1108TIP3    H227520   0.067   2.284  17.650
 1109TIP3   OH227521   1.139   2.655  18.243
 1109TIP3    H127522   1.200   2.593  18.200
 1109TIP3    H227523   1.092   2.596  18.307
 1110TIP3   OH227524   0.845   2.281  17.759
 1110TIP3    H127525   0.751   2.277  17.785
 1110TIP3    H227526   0.882   2.205  17.806
 1111TIP3   OH227527   0.347   2.466  17.607
 1111TIP3    H127528   0.275   2.499  17.548
 1111TIP3    H227529   0.340   2.371  17.590
 1112TIP3   OH227530   0.680   2.473  17.426
 1112TIP3    H127531   0.765   2.426  17.423
 1112TIP3    H227532   0.646   2.464  17.336
 1113TIP3   OH227533   1.273   2.204  18.047
 1113TIP3    H127534   1.204   2.182  18.113
 1113TIP3    H227535   1.261   2.137  17.979
 1114TIP3   OH227536   1.579   3.791  18.725
 1114TIP3    H127537   1.613   3.829  18.643
 1114TIP3    H227538   1.660   3.796  18.780
 1115TIP3   OH227539   0.418   3.019  18.610
 1115TIP3    H127540   0.483   3.025  18.683
 1115TIP3    H227541   0.336   3.005  18.660
 1116TIP3   OH227542   0.964   2.544  17.949
 1116TIP3    H127543   1.031   2.527  17.882
 1116TIP3    H227544   0.945   2.454  17.980
 1117TIP3   OH227545   0.842   2.364  18.202
 1117TIP3    H127546   0.769   2.424  18.179
 1117TIP3    H227547   0.910   2.425  18.235
 1118TIP3   OH227548   0.844   2.993  17.325
 1118TIP3    H127549   0.774   2.932  17.302
 1118TIP3    H227550   0.816   3.021  17.414
 1119TIP3   OH227551   1.623   2.955  18.233
 1119TIP3    H127552   1.675   3.001  18.162
 1119TIP3    H227553   1.536   2.945  18.189
 1120TIP3   OH227554   1.005   3.048  18.487
 1120TIP3    H127555   0.959   3.032  18.571
 1120TIP3    H227556   1.007   3.146  18.486
 1121TIP3   OH227557   1.310   2.483  17.326
 1121TIP3    H127558   1.386   2.472  17.386
 1121TIP3    H227559   1.338   2.557  17.272
 1122TIP3   OH227560   0.402   2.970  17.912
 1122TIP3    H127561   0.444   2.958  17.824
 1122TIP3    H227562   0.443   2.898  17.963
 1123TIP3   OH227563   1.090   3.130  17.280
 1123TIP3    H127564   1.053   3.221  17.272
 1123TIP3    H227565   1.008   3.077  17.272
 1124TIP3   OH227566   0.177   2.731  18.419
 1124TIP3    H127567   0.173   2.716  18.515
 1124TIP3    H227568   0.080   2.739  18.402
 1125TIP3   OH227569   0.795   2.757  18.649
 1125TIP3    H127570   0.749   2.705  18.580
 1125TIP3    H227571   0.881   2.710  18.652
 1126TIP3   OH227572   1.286   3.272  18.487
 1126TIP3    H127573   1.222   3.280  18.413
 1126TIP3    H227574   1.240   3.323  18.557
 1127TIP3   OH227575   1.806   2.479  17.313
 1127TIP3    H127576   1.743   2.463  17.240
 1127TIP3    H227577   1.821   2.575  17.301
 1128TIP3   OH227578   1.850   3.083  18.577
 1128TIP3    H127579   1.755   3.095  18.555
 1128TIP3    H227580   1.888   3.069  18.487
 1129TIP3   OH227581   1.644   3.358  17.345
 1129TIP3    H127582   1.614   3.315  17.427
 1129TIP3    H227583   1.724   3.405  17.373
 1130TIP3   OH227584   1.401   2.824  18.092
 1130TIP3    H127585   1.309   2.832  18.064
 1130TIP3    H227586   1.443   2.787  18.012
 1131TIP3   OH227587   0.651   3.283  17.693
 1131TIP3    H127588   0.682   3.374  17.677
 1131TIP3    H227589   0.563   3.285  17.654
 1132TIP3   OH227590   0.753   3.044  17.594
 1132TIP3    H127591   0.717   3.132  17.617
 1132TIP3    H227592   0.702   2.983  17.651
 1133TIP3   OH227593   0.842   3.452  18.279
 1133TIP3    H127594   0.895   3.530  18.256
 1133TIP3    H227595   0.915   3.386  18.291
 1134TIP3   OH227596   0.659   3.534  17.554
 1134TIP3    H127597   0.564   3.548  17.577
 1134TIP3    H227598   0.699   3.603  17.611
 1135TIP3   OH227599   1.135   3.050  18.224
 1135TIP3    H127600   1.110   3.045  18.319
 1135TIP3    H227601   1.207   2.988  18.216
 1136TIP3   OH227602   1.465   3.504  18.449
 1136TIP3    H127603   1.377   3.463  18.435
 1136TIP3    H227604   1.468   3.570  18.376
 1137TIP3   OH227605   1.839   3.582  17.180
 1137TIP3    H127606   1.889   3.637  17.119
 1137TIP3    H227607   1.779   3.652  17.215
 1138TIP3   OH227608   0.271   2.271  18.397
 1138TIP3    H127609   0.238   2.307  18.481
 1138TIP3    H227610   0.262   2.176  18.413
 1139TIP3   OH227611   0.252   3.460  18.221
 1139TIP3    H127612   0.306   3.384  18.244
 1139TIP3    H227613   0.228   3.492  18.309
 1140TIP3   OH227614   0.842   3.222  17.028
 1140TIP3    H127615   0.860   3.280  16.953
 1140TIP3    H227616   0.747   3.209  17.020
 1141TIP3   OH227617   0.677   3.253  17.235
 1141TIP3    H127618   0.763   3.224  17.195
 1141TIP3    H227619   0.702   3.343  17.263
 1142TIP3   OH227620   1.138   2.228  18.316
 1142TIP3    H127621   1.231   2.235  18.338
 1142TIP3    H227622   1.115   2.137  18.343
 1143TIP3   OH227623   1.269   2.164  17.436
 1143TIP3    H127624   1.248   2.223  17.361
 1143TIP3    H227625   1.281   2.224  17.513
 1144TIP3   OH227626   0.996   3.385  17.276
 1144TIP3    H127627   0.906   3.419  17.290
 1144TIP3    H227628   1.029   3.451  17.212
 1145TIP3   OH227629   0.915   2.326  17.484
 1145TIP3    H127630   0.972   2.406  17.484
 1145TIP3    H227631   0.874   2.327  17.573
 1146TIP3   OH227632   1.037   2.472  18.409
 1146TIP3    H127633   1.049   2.505  18.500
 1146TIP3    H227634   1.059   2.376  18.417
 1147TIP3   OH227635   1.049   2.088  17.607
 1147TIP3    H127636   1.015   2.179  17.608
 1147TIP3    H227637   1.104   2.095  17.527
 1148TIP3   OH227638   0.750   3.530  17.295
 1148TIP3    H127639   0.818   3.598  17.303
 1148TIP3    H227640   0.710   3.530  17.385
 1149TIP3   OH227641   1.582   2.250  18.512
 1149TIP3    H127642   1.489   2.275  18.494
 1149TIP3    H227643   1.626   2.266  18.426
 1150TIP3   OH227644   1.481   2.616  17.879
 1150TIP3    H127645   1.402   2.561  17.892
 1150TIP3    H227646   1.546   2.574  17.940
 1151TIP3   OH227647   0.390   3.228  17.122
 1151TIP3    H127648   0.456   3.230  17.193
 1151TIP3    H227649   0.441   3.168  17.064
 1152TIP3   OH227650   1.583   3.576  18.063
 1152TIP3    H127651   1.583   3.642  17.991
 1152TIP3    H227652   1.680   3.566  18.073
 1153TIP3   OH227653   0.224   3.368  17.535
 1153TIP3    H127654   0.133   3.397  17.533
 1153TIP3    H227655   0.261   3.420  17.462
 1154TIP3   OH227656   0.157   3.638  18.676
 1154TIP3    H127657   0.215   3.645  18.754
 1154TIP3    H227658   0.129   3.547  18.689
 1155TIP3   OH227659   0.624   3.546  18.830
 1155TIP3    H127660   0.701   3.495  18.860
 1155TIP3    H227661   0.605   3.503  18.746
 1156TIP3   OH227662   1.234   3.388  18.732
 1156TIP3    H127663   1.199   3.297  18.750
 1156TIP3    H227664   1.323   3.382  18.770
 1157TIP3   OH227665   0.197   3.045  18.798
 1157TIP3    H127666   0.216   2.950  18.811
 1157TIP3    H227667   0.103   3.035  18.775
 1158TIP3   OH227668   0.559   3.034  17.025
 1158TIP3    H127669   0.626   2.980  17.071
 1158TIP3    H227670   0.583   3.010  16.934
 1159TIP3   OH227671   0.783   3.026  18.699
 1159TIP3    H127672   0.767   3.075  18.614
 1159TIP3    H227673   0.794   2.932  18.672
 1160TIP3   OH227674   1.349   2.997  18.483
 1160TIP3    H127675   1.435   3.043  18.488
 1160TIP3    H227676   1.291   3.074  18.470
 1161TIP3   OH227677   0.216   2.718  18.763
 1161TIP3    H127678   0.287   2.651  18.753
 1161TIP3    H227679   0.219   2.739  18.859
 1162TIP3   OH227680   0.610   2.613  18.428
 1162TIP3    H127681   0.558   2.696  18.438
 1162TIP3    H227682   0.689   2.648  18.380
 1163TIP3   OH227683   1.151   2.905  18.785
 1163TIP3    H127684   1.205   2.857  18.720
 1163TIP3    H227685   1.119   2.831  18.839
 1164TIP3   OH227686   0.653   2.374  18.542
 1164TIP3    H127687   0.667   2.313  18.467
 1164TIP3    H227688   0.656   2.461  18.497
 1165TIP3   OH227689   0.703   2.181  18.334
 1165TIP3    H127690   0.765   2.236  18.281
 1165TIP3    H227691   0.624   2.187  18.278
 1166TIP3   OH227692   0.830   2.742  18.334
 1166TIP3    H127693   0.919   2.751  18.300
 1166TIP3    H227694   0.786   2.822  18.296
 1167TIP3   OH227695   1.277   2.500  18.824
 1167TIP3    H127696   1.307   2.408  18.815
 1167TIP3    H227697   1.358   2.548  18.846
 1168TIP3   OH227698   1.435   2.825  18.677
 1168TIP3    H127699   1.395   2.878  18.606
 1168TIP3    H227700   1.528   2.825  18.648
 1169TIP3   OH227701   0.453   2.497  18.738
 1169TIP3    H127702   0.396   2.419  18.756
 1169TIP3    H227703   0.515   2.458  18.674
 1170TIP3   OH227704   0.789   1.933  18.341
 1170TIP3    H127705   0.758   2.026  18.348
 1170TIP3    H227706   0.709   1.889  18.310
 1171TIP3   OH227707   0.890   2.375  18.732
 1171TIP3    H127708   0.851   2.339  18.813
 1171TIP3    H227709   0.821   2.355  18.666
 1172TIP3   OH227710   1.162   2.281  18.655
 1172TIP3    H127711   1.072   2.294  18.686
 1172TIP3    H227712   1.197   2.224  18.727
 1173TIP3   OH227713   1.315   2.145  18.830
 1173TIP3    H127714   1.318   2.048  18.825
 1173TIP3    H227715   1.310   2.161  18.925
 1174TIP3   OH227716   0.302   2.275  18.763
 1174TIP3    H127717   0.338   2.198  18.715
 1174TIP3    H227718   0.271   2.233  18.847
 1175TIP3   OH227719   0.782   1.909  18.626
 1175TIP3    H127720   0.860   1.852  18.635
 1175TIP3    H227721   0.779   1.915  18.529
 1176TIP3   OH227722   0.791   2.026  18.877
 1176TIP3    H127723   0.775   1.987  18.788
 1176TIP3    H227724   0.747   2.114  18.872
 1177TIP3   OH227725   0.116   3.153  17.058
 1177TIP3    H127726   0.140   3.241  17.090
 1177TIP3    H227727   0.204   3.116  17.048
 1178TIP3   OH227728   0.079   3.696  17.528
 1178TIP3    H127729  -0.005   3.718  17.575
 1178TIP3    H227730   0.140   3.713  17.601
 1179TIP3   OH227731   0.176   3.563  17.784
 1179TIP3    H127732   0.170   3.466  17.780
 1179TIP3    H227733   0.207   3.580  17.875
 1180TIP3   OH227734   1.870   3.613  18.062
 1180TIP3    H127735   1.887   3.592  18.154
 1180TIP3    H227736   1.908   3.702  18.057
 1181TIP3   OH227737   1.825   3.557  18.386
 1181TIP3    H127738   1.780   3.480  18.345
 1181TIP3    H227739   1.853   3.517  18.472
 1182TIP3   OH227740   1.661   3.133  18.861
 1182TIP3    H127741   1.570   3.143  18.895
 1182TIP3    H227742   1.700   3.221  18.883
 1183TIP3   OH227743   1.784   2.988  17.350
 1183TIP3    H127744   1.874   3.026  17.364
 1183TIP3    H227745   1.773   2.938  17.434
 1184TIP3   OH227746   1.798   2.804  17.573
 1184TIP3    H127747   1.724   2.747  17.606
 1184TIP3    H227748   1.851   2.812  17.655
 1185TIP3   OH227749   1.796   3.055  18.062
 1185TIP3    H127750   1.865   2.991  18.033
 1185TIP3    H227751   1.831   3.140  18.029
 1186TIP3   OH227752   1.665   3.356  18.311
 1186TIP3    H127753   1.591   3.395  18.361
 1186TIP3    H227754   1.615   3.329  18.229
 1187TIP3   OH227755   1.810   2.733  17.226
 1187TIP3    H127756   1.796   2.771  17.139
 1187TIP3    H227757   1.835   2.810  17.281
 1188TIP3   OH227758   1.603   2.645  17.646
 1188TIP3    H127759   1.569   2.559  17.619
 1188TIP3    H227760   1.579   2.645  17.741
 1189TIP3   OH227761   0.167   2.923  18.059
 1189TIP3    H127762   0.194   2.894  17.970
 1189TIP3    H227763   0.248   2.898  18.107
 1190TIP3   OH227764   1.712   2.839  18.606
 1190TIP3    H127765   1.758   2.753  18.621
 1190TIP3    H227766   1.784   2.906  18.603
 1191TIP3   OH227767   1.824   2.594  18.643
 1191TIP3    H127768   1.732   2.563  18.624
 1191TIP3    H227769   1.873   2.510  18.658
 1192TIP3   OH227770   1.540   2.433  17.489
 1192TIP3    H127771   1.552   2.335  17.488
 1192TIP3    H227772   1.632   2.458  17.467
 1193TIP3   OH227773   1.651   2.471  18.028
 1193TIP3    H127774   1.748   2.483  18.035
 1193TIP3    H227775   1.627   2.479  18.122
 1194TIP3   OH227776   1.646   2.543  18.291
 1194TIP3    H127777   1.562   2.568  18.334
 1194TIP3    H227778   1.687   2.629  18.268
 1195TIP3   OH227779   0.111   2.357  18.603
 1195TIP3    H127780   0.186   2.367  18.666
 1195TIP3    H227781   0.108   2.261  18.591
 1196TIP3   OH227782   1.886   1.983  18.817
 1196TIP3    H127783   1.931   1.909  18.773
 1196TIP3    H227784   1.872   2.046  18.741
 1197TIP3   OH227785   1.636   2.158  17.509
 1197TIP3    H127786   1.667   2.103  17.584
 1197TIP3    H227787   1.590   2.093  17.454
 1198TIP3   OH227788   0.077   2.501  18.051
 1198TIP3    H127789   0.140   2.509  17.977
 1198TIP3    H227790   0.099   2.580  18.103
 1199TIP3   OH227791   1.811   2.155  18.630
 1199TIP3    H127792   1.723   2.197  18.640
 1199TIP3    H227793   1.787   2.096  18.556
 1200TIP3   OH227794   1.829   2.110  17.123
 1200TIP3    H127795   1.900   2.046  17.118
 1200TIP3    H227796   1.877   2.194  17.136
 1201TIP3   OH227797   1.536   3.634  17.675
 1201TIP3    H127798   1.609   3.646  17.612
 1201TIP3    H227799   1.558   3.695  17.748
 1202TIP3   OH227800   0.068   1.982  18.313
 1202TIP3    H127801  -0.004   1.980  18.379
 1202TIP3    H227802   0.031   2.039  18.245
 1203TIP3   OH227803   0.249   3.318  18.696
 1203TIP3    H127804   0.170   3.301  18.642
 1203TIP3    H227805   0.261   3.233  18.743
 1204TIP3   OH227806   0.560   3.474  18.356
 1204TIP3    H127807   0.554   3.563  18.317
 1204TIP3    H227808   0.656   3.457  18.351
 1205TIP3   OH227809   0.984   3.587  18.595
 1205TIP3    H127810   0.992   3.539  18.679
 1205TIP3    H227811   1.074   3.622  18.582
 1206TIP3   OH227812   1.205   3.738  18.541
 1206TIP3    H127813   1.275   3.681  18.508
 1206TIP3    H227814   1.236   3.761  18.631
 1207TIP3   OH227815   1.713   1.939  18.473
 1207TIP3    H127816   1.644   1.981  18.419
 1207TIP3    H227817   1.722   1.852  18.428
 1208TIP3   OH227818   0.314   3.765  18.341
 1208TIP3    H127819   0.228   3.797  18.306
 1208TIP3    H227820   0.294   3.750  18.435
 1209TIP3   OH227821   0.547   3.717  18.227
 1209TIP3    H127822   0.453   3.725  18.257
 1209TIP3    H227823   0.550   3.784  18.158
 1210TIP3   OH227824   0.995   3.671  18.173
 1210TIP3    H127825   0.931   3.697  18.104
 1210TIP3    H227826   1.007   3.759  18.212
 1211TIP3   OH227827   1.226   3.571  18.292
 1211TIP3    H127828   1.161   3.604  18.227
 1211TIP3    H227829   1.293   3.639  18.280
 1212TIP3   OH227830   1.485   3.724  18.266
 1212TIP3    H127831   1.503   3.815  18.235
 1212TIP3    H227832   1.498   3.674  18.182
 1213TIP3   OH227833   0.295   3.631  18.022
 1213TIP3    H127834   0.264   3.571  18.094
 1213TIP3    H227835   0.378   3.585  17.993
 1214TIP3   OH227836   0.495   3.497  17.895
 1214TIP3    H127837   0.459   3.408  17.911
 1214TIP3    H227838   0.585   3.490  17.935
 1215TIP3   OH227839   0.721   3.466  18.035
 1215TIP3    H127840   0.766   3.380  18.037
 1215TIP3    H227841   0.747   3.500  18.122
 1216TIP3   OH227842   0.998   2.029  17.888
 1216TIP3    H127843   0.933   1.956  17.880
 1216TIP3    H227844   1.035   2.040  17.800
 1217TIP3   OH227845   1.587   1.907  17.890
 1217TIP3    H127846   1.652   1.960  17.837
 1217TIP3    H227847   1.502   1.933  17.849
 1218TIP3   OH227848   1.750   2.031  17.721
 1218TIP3    H127849   1.813   1.968  17.678
 1218TIP3    H227850   1.809   2.109  17.736
 1219TIP3   OH227851   0.766   1.929  17.653
 1219TIP3    H127852   0.818   2.002  17.616
 1219TIP3    H227853   0.785   1.931  17.748
 1220TIP3   OH227854   1.337   1.951  17.780
 1220TIP3    H127855   1.281   1.974  17.704
 1220TIP3    H227856   1.288   1.873  17.815
 1221TIP3   OH227857   1.443   1.930  17.346
 1221TIP3    H127858   1.385   2.001  17.375
 1221TIP3    H227859   1.404   1.853  17.394
 1222TIP3   OH227860   0.124   3.541  17.307
 1222TIP3    H127861   0.033   3.560  17.280
 1222TIP3    H227862   0.125   3.597  17.388
 1223TIP3   OH227863   0.856   2.081  17.345
 1223TIP3    H127864   0.757   2.076  17.346
 1223TIP3    H227865   0.866   2.171  17.383
 1224TIP3   OH227866   1.078   3.618  17.177
 1224TIP3    H127867   1.151   3.663  17.132
 1224TIP3    H227868   1.032   3.586  17.096
 1225TIP3   OH227869   1.704   3.599  17.478
 1225TIP3    H127870   1.643   3.539  17.434
 1225TIP3    H227871   1.706   3.674  17.414
 1226TIP3   OH227872   0.247   2.011  18.634
 1226TIP3    H127873   0.201   1.924  18.631
 1226TIP3    H227874   0.335   1.984  18.668
 1227TIP3   OH227875   0.483   1.952  18.806
 1227TIP3    H127876   0.572   1.923  18.779
 1227TIP3    H227877   0.453   1.870  18.850
 1228TIP3   OH227878   1.321   1.871  18.812
 1228TIP3    H127879   1.326   1.811  18.890
 1228TIP3    H227880   1.413   1.864  18.778
 1229TIP3   OH227881   1.640   3.483  18.653
 1229TIP3    H127882   1.568   3.477  18.585
 1229TIP3    H227883   1.630   3.575  18.683
 1230TIP3   OH227884   3.104   2.876  17.641
 1230TIP3    H127885   3.082   2.970  17.643
 1230TIP3    H227886   3.029   2.845  17.586
 1231TIP3   OH227887   2.988   2.766  17.999
 1231TIP3    H127888   2.995   2.724  18.087
 1231TIP3    H227889   2.926   2.701  17.958
 1232TIP3   OH227890   2.188   2.767  18.172
 1232TIP3    H127891   2.183   2.682  18.220
 1232TIP3    H227892   2.283   2.785  18.175
 1233TIP3   OH227893   2.299   3.211  17.983
 1233TIP3    H127894   2.271   3.120  17.962
 1233TIP3    H227895   2.395   3.204  17.967
 1234TIP3   OH227896   1.969   2.546  17.536
 1234TIP3    H127897   1.933   2.632  17.563
 1234TIP3    H227898   1.892   2.509  17.491
 1235TIP3   OH227899   2.007   2.771  17.795
 1235TIP3    H127900   2.063   2.694  17.818
 1235TIP3    H227901   2.070   2.837  17.761
 1236TIP3   OH227902   3.042   3.611  17.836
 1236TIP3    H127903   3.051   3.558  17.754
 1236TIP3    H227904   3.020   3.545  17.903
 1237TIP3   OH227905   2.797   3.025  18.085
 1237TIP3    H127906   2.846   2.975  18.019
 1237TIP3    H227907   2.873   3.055  18.139
 1238TIP3   OH227908   3.646   2.199  18.102
 1238TIP3    H127909   3.660   2.250  18.185
 1238TIP3    H227910   3.725   2.224  18.051
 1239TIP3   OH227911   3.164   2.493  18.129
 1239TIP3    H127912   3.175   2.396  18.123
 1239TIP3    H227913   3.133   2.516  18.039
 1240TIP3   OH227914   2.451   2.363  17.871
 1240TIP3    H127915   2.441   2.414  17.788
 1240TIP3    H227916   2.488   2.280  17.834
 1241TIP3   OH227917   3.228   2.335  17.698
 1241TIP3    H127918   3.293   2.278  17.743
 1241TIP3    H227919   3.260   2.335  17.607
 1242TIP3   OH227920   2.102   2.515  17.861
 1242TIP3    H127921   2.160   2.475  17.929
 1242TIP3    H227922   2.143   2.481  17.779
 1243TIP3   OH227923   2.574   2.702  17.839
 1243TIP3    H127924   2.658   2.669  17.876
 1243TIP3    H227925   2.551   2.629  17.778
 1244TIP3   OH227926   3.672   2.319  18.338
 1244TIP3    H127927   3.631   2.404  18.309
 1244TIP3    H227928   3.712   2.346  18.422
 1245TIP3   OH227929   2.326   2.178  18.223
 1245TIP3    H127930   2.291   2.229  18.148
 1245TIP3    H227931   2.264   2.201  18.295
 1246TIP3   OH227932   2.558   2.946  18.196
 1246TIP3    H127933   2.505   3.018  18.234
 1246TIP3    H227934   2.627   2.995  18.146
 1247TIP3   OH227935   3.442   2.257  17.859
 1247TIP3    H127936   3.417   2.179  17.908
 1247TIP3    H227937   3.474   2.318  17.928
 1248TIP3   OH227938   2.260   2.395  18.042
 1248TIP3    H127939   2.320   2.444  18.103
 1248TIP3    H227940   2.326   2.374  17.971
 1249TIP3   OH227941   2.438   3.172  18.290
 1249TIP3    H127942   2.418   3.238  18.222
 1249TIP3    H227943   2.350   3.160  18.332
 1250TIP3   OH227944   2.022   3.116  17.398
 1250TIP3    H127945   2.041   3.179  17.327
 1250TIP3    H227946   2.032   3.176  17.476
 1251TIP3   OH227947   3.369   2.141  18.194
 1251TIP3    H127948   3.294   2.169  18.136
 1251TIP3    H227949   3.445   2.155  18.134
 1252TIP3   OH227950   2.703   1.936  17.988
 1252TIP3    H127951   2.669   1.865  17.933
 1252TIP3    H227952   2.621   1.991  17.996
 1253TIP3   OH227953   3.489   3.116  18.447
 1253TIP3    H127954   3.502   3.042  18.382
 1253TIP3    H227955   3.492   3.191  18.384
 1254TIP3   OH227956   2.956   2.786  17.408
 1254TIP3    H127957   2.881   2.845  17.381
 1254TIP3    H227958   3.025   2.818  17.347
 1255TIP3   OH227959   2.969   2.613  17.072
 1255TIP3    H127960   3.015   2.653  17.149
 1255TIP3    H227961   2.943   2.526  17.107
 1256TIP3   OH227962   3.697   2.748  18.231
 1256TIP3    H127963   3.638   2.825  18.244
 1256TIP3    H227964   3.752   2.780  18.158
 1257TIP3   OH227965   3.333   2.815  17.509
 1257TIP3    H127966   3.250   2.835  17.557
 1257TIP3    H227967   3.383   2.761  17.574
 1258TIP3   OH227968   3.293   2.644  18.414
 1258TIP3    H127969   3.272   2.734  18.443
 1258TIP3    H227970   3.242   2.641  18.331
 1259TIP3   OH227971   2.484   2.888  17.671
 1259TIP3    H127972   2.445   2.835  17.597
 1259TIP3    H227973   2.526   2.819  17.727
 1260TIP3   OH227974   2.600   3.208  17.968
 1260TIP3    H127975   2.612   3.185  17.874
 1260TIP3    H227976   2.670   3.156  18.012
 1261TIP3   OH227977   2.458   2.736  18.069
 1261TIP3    H127978   2.493   2.734  17.977
 1261TIP3    H227979   2.511   2.807  18.111
 1262TIP3   OH227980   3.160   3.339  18.137
 1262TIP3    H127981   3.125   3.398  18.207
 1262TIP3    H227982   3.129   3.251  18.164
 1263TIP3   OH227983   2.592   3.203  18.507
 1263TIP3    H127984   2.518   3.248  18.552
 1263TIP3    H227985   2.549   3.189  18.420
 1264TIP3   OH227986   3.190   2.751  17.259
 1264TIP3    H127987   3.231   2.707  17.336
 1264TIP3    H227988   3.254   2.822  17.240
 1265TIP3   OH227989   2.311   2.831  18.445
 1265TIP3    H127990   2.285   2.921  18.466
 1265TIP3    H227991   2.227   2.789  18.424
 1266TIP3   OH227992   2.401   3.360  18.604
 1266TIP3    H127993   2.426   3.395  18.515
 1266TIP3    H227994   2.305   3.368  18.597
 1267TIP3   OH227995   2.339   2.778  17.455
 1267TIP3    H127996   2.311   2.863  17.412
 1267TIP3    H227997   2.283   2.714  17.412
 1268TIP3   OH227998   3.768   3.341  17.167
 1268TIP3    H127999   3.706   3.416  17.164
 1268TIP3    H228000   3.786   3.328  17.073
 1269TIP3   OH228001   2.000   3.020  18.365
 1269TIP3    H128002   1.963   3.008  18.277
 1269TIP3    H228003   2.022   2.926  18.385
 1270TIP3   OH228004   1.972   3.297  17.994
 1270TIP3    H128005   2.069   3.292  18.000
 1270TIP3    H228006   1.954   3.366  18.058
 1271TIP3   OH228007   3.750   3.348  18.622
 1271TIP3    H128008   3.716   3.315  18.537
 1271TIP3    H228009   3.668   3.393  18.655
 1272TIP3   OH228010   2.850   3.319  18.496
 1272TIP3    H128011   2.850   3.404  18.545
 1272TIP3    H228012   2.756   3.289  18.500
 1273TIP3   OH228013   2.888   3.718  17.439
 1273TIP3    H128014   2.896   3.715  17.342
 1273TIP3    H228015   2.913   3.809  17.462
 1274TIP3   OH228016   2.272   3.574  17.657
 1274TIP3    H128017   2.296   3.543  17.747
 1274TIP3    H228018   2.181   3.542  17.648
 1275TIP3   OH228019   3.458   2.525  18.627
 1275TIP3    H128020   3.399   2.570  18.563
 1275TIP3    H228021   3.445   2.432  18.599
 1276TIP3   OH228022   2.215   3.141  18.445
 1276TIP3    H128023   2.202   3.100  18.533
 1276TIP3    H228024   2.133   3.109  18.400
 1277TIP3   OH228025   2.461   2.030  18.046
 1277TIP3    H128026   2.378   2.043  17.996
 1277TIP3    H228027   2.430   2.049  18.136
 1278TIP3   OH228028   2.949   1.966  18.341
 1278TIP3    H128029   2.984   1.928  18.424
 1278TIP3    H228030   2.852   1.968  18.356
 1279TIP3   OH228031   3.195   2.380  18.488
 1279TIP3    H128032   3.138   2.354  18.565
 1279TIP3    H228033   3.185   2.476  18.484
 1280TIP3   OH228034   2.485   2.486  18.167
 1280TIP3    H128035   2.427   2.516  18.238
 1280TIP3    H228036   2.489   2.568  18.113
 1281TIP3   OH228037   2.465   2.542  17.654
 1281TIP3    H128038   2.372   2.521  17.631
 1281TIP3    H228039   2.500   2.558  17.563
 1282TIP3   OH228040   3.025   2.577  17.567
 1282TIP3    H128041   2.991   2.649  17.509
 1282TIP3    H228042   3.091   2.538  17.506
 1283TIP3   OH228043   2.897   2.601  18.676
 1283TIP3    H128044   2.860   2.516  18.709
 1283TIP3    H228045   2.978   2.607  18.730
 1284TIP3   OH228046   3.112   2.524  17.843
 1284TIP3    H128047   3.087   2.563  17.757
 1284TIP3    H228048   3.141   2.437  17.808
 1285TIP3   OH228049   2.222   2.508  18.298
 1285TIP3    H128050   2.264   2.527  18.383
 1285TIP3    H228051   2.189   2.418  18.315
 1286TIP3   OH228052   1.924   2.234  17.743
 1286TIP3    H128053   1.993   2.238  17.811
 1286TIP3    H228054   1.975   2.223  17.662
 1287TIP3   OH228055   2.005   2.306  17.251
 1287TIP3    H128056   2.077   2.344  17.200
 1287TIP3    H228057   1.947   2.383  17.270
 1288TIP3   OH228058   3.012   2.676  18.252
 1288TIP3    H128059   3.079   2.612  18.218
 1288TIP3    H228060   2.958   2.618  18.310
 1289TIP3   OH228061   2.772   2.290  17.751
 1289TIP3    H128062   2.689   2.239  17.735
 1289TIP3    H228063   2.808   2.245  17.828
 1290TIP3   OH228064   2.211   2.436  17.612
 1290TIP3    H128065   2.124   2.452  17.570
 1290TIP3    H228066   2.249   2.363  17.559
 1291TIP3   OH228067   2.572   2.516  17.403
 1291TIP3    H128068   2.653   2.473  17.439
 1291TIP3    H228069   2.552   2.457  17.329
 1292TIP3   OH228070   3.164   2.213  18.053
 1292TIP3    H128071   3.101   2.208  18.129
 1292TIP3    H228072   3.129   2.145  17.991
 1293TIP3   OH228073   3.455   3.781  18.710
 1293TIP3    H128074   3.485   3.817  18.624
 1293TIP3    H228075   3.537   3.785  18.761
 1294TIP3   OH228076   2.221   3.026  18.692
 1294TIP3    H128077   2.290   2.977  18.740
 1294TIP3    H228078   2.142   2.985  18.732
 1295TIP3   OH228079   2.819   2.562  17.939
 1295TIP3    H128080   2.871   2.524  17.867
 1295TIP3    H228081   2.801   2.482  17.991
 1296TIP3   OH228082   2.273   2.138  17.521
 1296TIP3    H128083   2.238   2.084  17.594
 1296TIP3    H228084   2.365   2.147  17.557
 1297TIP3   OH228085   2.739   2.375  18.160
 1297TIP3    H128086   2.653   2.421  18.157
 1297TIP3    H228087   2.784   2.422  18.232
 1298TIP3   OH228088   2.768   2.971  17.354
 1298TIP3    H128089   2.681   2.930  17.332
 1298TIP3    H228090   2.749   3.025  17.433
 1299TIP3   OH228091   3.518   2.957  18.234
 1299TIP3    H128092   3.561   2.997  18.155
 1299TIP3    H228093   3.436   2.925  18.193
 1300TIP3   OH228094   2.890   3.051  18.471
 1300TIP3    H128095   2.855   3.015  18.554
 1300TIP3    H228096   2.881   3.147  18.487
 1301TIP3   OH228097   3.217   2.486  17.359
 1301TIP3    H128098   3.304   2.446  17.380
 1301TIP3    H228099   3.222   2.496  17.263
 1302TIP3   OH228100   2.296   2.941  17.903
 1302TIP3    H128101   2.356   2.938  17.826
 1302TIP3    H228102   2.330   2.869  17.959
 1303TIP3   OH228103   1.999   2.761  18.435
 1303TIP3    H128104   1.971   2.723  18.520
 1303TIP3    H228105   1.936   2.722  18.371
 1304TIP3   OH228106   2.666   2.750  18.651
 1304TIP3    H128107   2.625   2.691  18.587
 1304TIP3    H228108   2.757   2.712  18.657
 1305TIP3   OH228109   3.169   3.266  18.494
 1305TIP3    H128110   3.087   3.277  18.443
 1305TIP3    H228111   3.143   3.315  18.575
 1306TIP3   OH228112   3.685   2.472  17.320
 1306TIP3    H128113   3.685   2.388  17.268
 1306TIP3    H228114   3.766   2.513  17.289
 1307TIP3   OH228115   3.729   3.064  18.569
 1307TIP3    H128116   3.640   3.069  18.528
 1307TIP3    H228117   3.783   3.054  18.487
 1308TIP3   OH228118   3.290   2.809  18.083
 1308TIP3    H128119   3.195   2.816  18.062
 1308TIP3    H228120   3.322   2.754  18.008
 1309TIP3   OH228121   2.514   3.297  17.699
 1309TIP3    H128122   2.563   3.376  17.672
 1309TIP3    H228123   2.425   3.313  17.663
 1310TIP3   OH228124   2.686   3.072  17.623
 1310TIP3    H128125   2.621   3.145  17.628
 1310TIP3    H228126   2.633   2.994  17.647
 1311TIP3   OH228127   2.717   3.467  18.297
 1311TIP3    H128128   2.778   3.534  18.263
 1311TIP3    H228129   2.773   3.423  18.365
 1312TIP3   OH228130   2.516   3.563  17.555
 1312TIP3    H128131   2.424   3.560  17.589
 1312TIP3    H228132   2.545   3.650  17.592
 1313TIP3   OH228133   3.022   3.070  18.216
 1313TIP3    H128134   2.988   3.049  18.307
 1313TIP3    H228135   3.070   2.988  18.194
 1314TIP3   OH228136   3.355   3.493  18.456
 1314TIP3    H128137   3.263   3.458  18.459
 1314TIP3    H228138   3.346   3.570  18.395
 1315TIP3   OH228139   3.718   3.647  17.181
 1315TIP3    H128140   3.802   3.694  17.161
 1315TIP3    H228141   3.657   3.710  17.143
 1316TIP3   OH228142   2.160   2.257  18.416
 1316TIP3    H128143   2.093   2.301  18.472
 1316TIP3    H228144   2.151   2.165  18.448
 1317TIP3   OH228145   3.367   2.981  17.299
 1317TIP3    H128146   3.358   2.927  17.381
 1317TIP3    H228147   3.415   3.058  17.332
 1318TIP3   OH228148   2.113   3.423  18.226
 1318TIP3    H128149   2.183   3.360  18.249
 1318TIP3    H228150   2.098   3.470  18.309
 1319TIP3   OH228151   2.573   3.246  17.253
 1319TIP3    H128152   2.652   3.193  17.270
 1319TIP3    H228153   2.598   3.340  17.270
 1320TIP3   OH228154   2.243   2.985  17.311
 1320TIP3    H128155   2.164   3.033  17.341
 1320TIP3    H228156   2.287   3.055  17.258
 1321TIP3   OH228157   3.033   2.247  18.293
 1321TIP3    H128158   3.093   2.283  18.361
 1321TIP3    H228159   3.004   2.163  18.332
 1322TIP3   OH228160   3.060   2.183  17.397
 1322TIP3    H128161   3.050   2.193  17.300
 1322TIP3    H228162   3.150   2.150  17.399
 1323TIP3   OH228163   2.798   2.395  17.507
 1323TIP3    H128164   2.883   2.439  17.525
 1323TIP3    H228165   2.775   2.354  17.594
 1324TIP3   OH228166   2.901   2.492  18.411
 1324TIP3    H128167   2.906   2.522  18.505
 1324TIP3    H228168   2.937   2.402  18.411
 1325TIP3   OH228169   2.910   2.080  17.642
 1325TIP3    H128170   2.847   2.154  17.637
 1325TIP3    H228171   2.968   2.095  17.565
 1326TIP3   OH228172   2.593   3.511  17.307
 1326TIP3    H128173   2.684   3.542  17.315
 1326TIP3    H228174   2.565   3.516  17.401
 1327TIP3   OH228175   3.454   2.274  18.509
 1327TIP3    H128176   3.361   2.284  18.481
 1327TIP3    H228177   3.504   2.275  18.425
 1328TIP3   OH228178   3.366   2.631  17.881
 1328TIP3    H128179   3.284   2.577  17.879
 1328TIP3    H228180   3.426   2.577  17.940
 1329TIP3   OH228181   2.313   3.215  17.178
 1329TIP3    H128182   2.409   3.223  17.202
 1329TIP3    H228183   2.311   3.242  17.085
 1330TIP3   OH228184   2.142   2.486  17.009
 1330TIP3    H128185   2.214   2.548  17.026
 1330TIP3    H228186   2.065   2.543  17.017
 1331TIP3   OH228187   3.448   3.565  18.052
 1331TIP3    H128188   3.447   3.633  17.981
 1331TIP3    H228189   3.544   3.558  18.067
 1332TIP3   OH228190   2.188   1.972  17.972
 1332TIP3    H128191   2.197   1.966  17.873
 1332TIP3    H228192   2.170   1.878  17.992
 1333TIP3   OH228193   2.060   3.337  17.553
 1333TIP3    H128194   1.996   3.409  17.562
 1333TIP3    H228195   2.120   3.378  17.488
 1334TIP3   OH228196   2.016   3.649  18.703
 1334TIP3    H128197   2.073   3.625  18.780
 1334TIP3    H228198   1.980   3.562  18.679
 1335TIP3   OH228199   2.479   3.503  18.833
 1335TIP3    H128200   2.568   3.476  18.864
 1335TIP3    H228201   2.489   3.492  18.737
 1336TIP3   OH228202   3.114   3.394  18.733
 1336TIP3    H128203   3.079   3.304  18.756
 1336TIP3    H228204   3.199   3.393  18.781
 1337TIP3   OH228205   1.972   3.007  18.807
 1337TIP3    H128206   1.934   2.917  18.807
 1337TIP3    H228207   1.941   3.041  18.720
 1338TIP3   OH228208   2.659   3.011  18.683
 1338TIP3    H128209   2.644   3.066  18.603
 1338TIP3    H228210   2.655   2.917  18.650
 1339TIP3   OH228211   3.243   2.990  18.486
 1339TIP3    H128212   3.333   3.026  18.487
 1339TIP3    H228213   3.195   3.075  18.497
 1340TIP3   OH228214   2.128   2.736  18.744
 1340TIP3    H128215   2.164   2.648  18.729
 1340TIP3    H228216   2.171   2.767  18.826
 1341TIP3   OH228217   2.551   2.850  17.256
 1341TIP3    H128218   2.491   2.792  17.306
 1341TIP3    H228219   2.602   2.787  17.200
 1342TIP3   OH228220   2.477   2.622  18.424
 1342TIP3    H128221   2.418   2.697  18.444
 1342TIP3    H228222   2.549   2.669  18.376
 1343TIP3   OH228223   2.704   2.686  17.079
 1343TIP3    H128224   2.649   2.644  17.013
 1343TIP3    H228225   2.791   2.642  17.067
 1344TIP3   OH228226   3.032   2.915  18.792
 1344TIP3    H128227   3.100   2.864  18.745
 1344TIP3    H228228   3.000   2.849  18.856
 1345TIP3   OH228229   2.565   2.385  18.530
 1345TIP3    H128230   2.568   2.321  18.456
 1345TIP3    H228231   2.548   2.470  18.484
 1346TIP3   OH228232   2.582   2.197  18.311
 1346TIP3    H128233   2.634   2.233  18.236
 1346TIP3    H228234   2.492   2.202  18.273
 1347TIP3   OH228235   2.710   2.760  18.329
 1347TIP3    H128236   2.801   2.782  18.305
 1347TIP3    H228237   2.662   2.837  18.293
 1348TIP3   OH228238   3.159   2.495  18.820
 1348TIP3    H128239   3.195   2.405  18.815
 1348TIP3    H228240   3.235   2.548  18.848
 1349TIP3   OH228241   3.312   2.831  18.684
 1349TIP3    H128242   3.270   2.881  18.611
 1349TIP3    H228243   3.401   2.816  18.646
 1350TIP3   OH228244   2.404   2.455  18.749
 1350TIP3    H128245   2.321   2.411  18.718
 1350TIP3    H228246   2.467   2.425  18.680
 1351TIP3   OH228247   2.670   1.944  18.344
 1351TIP3    H128248   2.638   2.036  18.336
 1351TIP3    H228249   2.596   1.896  18.305
 1352TIP3   OH228250   2.764   2.369  18.751
 1352TIP3    H128251   2.701   2.342  18.821
 1352TIP3    H228252   2.707   2.358  18.672
 1353TIP3   OH228253   3.021   2.294  18.663
 1353TIP3    H128254   2.934   2.311  18.705
 1353TIP3    H228255   3.067   2.239  18.730
 1354TIP3   OH228256   3.196   2.157  18.819
 1354TIP3    H128257   3.205   2.059  18.816
 1354TIP3    H228258   3.186   2.175  18.915
 1355TIP3   OH228259   2.185   2.283  18.744
 1355TIP3    H128260   2.172   2.203  18.689
 1355TIP3    H228261   2.163   2.249  18.834
 1356TIP3   OH228262   2.663   1.900  18.633
 1356TIP3    H128263   2.734   1.833  18.646
 1356TIP3    H228264   2.655   1.894  18.535
 1357TIP3   OH228265   2.675   2.036  18.871
 1357TIP3    H128266   2.659   1.994  18.784
 1357TIP3    H228267   2.636   2.126  18.861
 1358TIP3   OH228268   1.911   3.724  17.610
 1358TIP3    H128269   1.838   3.670  17.573
 1358TIP3    H228270   1.941   3.666  17.683
 1359TIP3   OH228271   1.970   3.549  17.803
 1359TIP3    H128272   1.933   3.462  17.823
 1359TIP3    H228273   1.971   3.584  17.895
 1360TIP3   OH228274   3.725   3.595  18.079
 1360TIP3    H128275   3.747   3.607  18.173
 1360TIP3    H228276   3.756   3.680  18.043
 1361TIP3   OH228277   3.653   3.591  18.355
 1361TIP3    H128278   3.627   3.511  18.306
 1361TIP3    H228279   3.701   3.555  18.430
 1362TIP3   OH228280   3.545   3.155  18.903
 1362TIP3    H128281   3.454   3.147  18.942
 1362TIP3    H228282   3.570   3.244  18.939
 1363TIP3   OH228283   3.669   2.991  17.403
 1363TIP3    H128284   3.761   3.020  17.421
 1363TIP3    H228285   3.661   2.908  17.453
 1364TIP3   OH228286   3.695   2.778  17.575
 1364TIP3    H128287   3.622   2.721  17.612
 1364TIP3    H228288   3.742   2.806  17.656
 1365TIP3   OH228289   3.655   3.060  18.033
 1365TIP3    H128290   3.727   2.994  18.022
 1365TIP3    H228291   3.706   3.143  18.031
 1366TIP3   OH228292   3.529   3.356  18.301
 1366TIP3    H128293   3.473   3.412  18.359
 1366TIP3    H228294   3.468   3.349  18.226
 1367TIP3   OH228295   3.485   2.634  17.647
 1367TIP3    H128296   3.467   2.543  17.616
 1367TIP3    H228297   3.443   2.636  17.736
 1368TIP3   OH228298   1.987   2.875  18.038
 1368TIP3    H128299   1.984   2.836  17.948
 1368TIP3    H228300   2.076   2.847  18.070
 1369TIP3   OH228301   3.584   2.848  18.604
 1369TIP3    H128302   3.632   2.763  18.623
 1369TIP3    H228303   3.660   2.906  18.582
 1370TIP3   OH228304   3.710   2.625  18.665
 1370TIP3    H128305   3.621   2.589  18.644
 1370TIP3    H228306   3.763   2.543  18.670
 1371TIP3   OH228307   3.464   2.421  17.461
 1371TIP3    H128308   3.477   2.332  17.425
 1371TIP3    H228309   3.534   2.466  17.409
 1372TIP3   OH228310   3.530   2.473  18.034
 1372TIP3    H128311   3.628   2.481  18.031
 1372TIP3    H228312   3.517   2.476  18.131
 1373TIP3   OH228313   3.536   2.540  18.302
 1373TIP3    H128314   3.448   2.568  18.335
 1373TIP3    H228315   3.577   2.625  18.274
 1374TIP3   OH228316   1.965   2.377  18.638
 1374TIP3    H128317   2.050   2.359  18.683
 1374TIP3    H228318   1.914   2.294  18.652
 1375TIP3   OH228319   3.764   1.962  18.832
 1375TIP3    H128320   3.799   1.886  18.784
 1375TIP3    H228321   3.753   2.028  18.760
 1376TIP3   OH228322   2.065   2.210  18.004
 1376TIP3    H128323   2.106   2.121  17.989
 1376TIP3    H228324   2.140   2.271  17.997
 1377TIP3   OH228325   1.912   2.509  18.066
 1377TIP3    H128326   1.969   2.480  17.992
 1377TIP3    H228327   1.958   2.589  18.095
 1378TIP3   OH228328   3.697   2.164  18.651
 1378TIP3    H128329   3.613   2.212  18.668
 1378TIP3    H228330   3.670   2.112  18.574
 1379TIP3   OH228331   1.911   2.130  17.434
 1379TIP3    H128332   1.816   2.140  17.450
 1379TIP3    H228333   1.925   2.192  17.359
 1380TIP3   OH228334   1.923   1.989  18.292
 1380TIP3    H128335   1.854   1.953  18.351
 1380TIP3    H228336   1.876   2.059  18.244
 1381TIP3   OH228337   2.122   3.326  18.723
 1381TIP3    H128338   2.055   3.330  18.651
 1381TIP3    H228339   2.084   3.392  18.783
 1382TIP3   OH228340   2.455   3.468  18.357
 1382TIP3    H128341   2.453   3.561  18.325
 1382TIP3    H228342   2.549   3.448  18.337
 1383TIP3   OH228343   2.850   3.580  18.607
 1383TIP3    H128344   2.864   3.553  18.700
 1383TIP3    H228345   2.939   3.617  18.586
 1384TIP3   OH228346   3.077   3.732  18.559
 1384TIP3    H128347   3.153   3.694  18.513
 1384TIP3    H228348   3.116   3.759  18.645
 1385TIP3   OH228349   3.599   1.926  18.464
 1385TIP3    H128350   3.526   1.966  18.414
 1385TIP3    H228351   3.608   1.839  18.419
 1386TIP3   OH228352   2.186   3.764  18.320
 1386TIP3    H128353   2.114   3.823  18.289
 1386TIP3    H228354   2.186   3.784  18.415
 1387TIP3   OH228355   2.438   3.722  18.228
 1387TIP3    H128356   2.342   3.733  18.250
 1387TIP3    H228357   2.449   3.789  18.158
 1388TIP3   OH228358   2.902   3.682  18.150
 1388TIP3    H128359   2.832   3.724  18.100
 1388TIP3    H228360   2.928   3.754  18.210
 1389TIP3   OH228361   3.102   3.555  18.288
 1389TIP3    H128362   3.036   3.596  18.228
 1389TIP3    H228363   3.180   3.609  18.268
 1390TIP3   OH228364   3.365   3.682  18.280
 1390TIP3    H128365   3.395   3.774  18.266
 1390TIP3    H228366   3.395   3.637  18.197
 1391TIP3   OH228367   2.157   3.610  18.026
 1391TIP3    H128368   2.130   3.544  18.092
 1391TIP3    H228369   2.239   3.570  17.990
 1392TIP3   OH228370   2.366   3.498  17.898
 1392TIP3    H128371   2.352   3.406  17.926
 1392TIP3    H228372   2.453   3.516  17.938
 1393TIP3   OH228373   2.601   3.494  18.029
 1393TIP3    H128374   2.622   3.401  18.006
 1393TIP3    H228375   2.621   3.495  18.124
 1394TIP3   OH228376   2.985   2.086  17.907
 1394TIP3    H128377   2.916   2.029  17.944
 1394TIP3    H228378   2.953   2.095  17.815
 1395TIP3   OH228379   3.432   1.876  17.873
 1395TIP3    H128380   3.501   1.935  17.837
 1395TIP3    H228381   3.383   1.857  17.791
 1396TIP3   OH228382   3.620   2.022  17.712
 1396TIP3    H128383   3.687   1.966  17.669
 1396TIP3    H228384   3.648   2.110  17.681
 1397TIP3   OH228385   2.169   1.945  17.701
 1397TIP3    H128386   2.093   1.930  17.643
 1397TIP3    H228387   2.223   1.865  17.679
 1398TIP3   OH228388   2.080   1.937  17.234
 1398TIP3    H128389   2.131   2.006  17.184
 1398TIP3    H228390   2.041   1.990  17.306
 1399TIP3   OH228391   2.657   1.820  17.649
 1399TIP3    H128392   2.750   1.846  17.641
 1399TIP3    H228393   2.615   1.907  17.667
 1400TIP3   OH228394   2.045   3.543  17.366
 1400TIP3    H128395   1.962   3.523  17.318
 1400TIP3    H228396   2.068   3.626  17.319
 1401TIP3   OH228397   2.220   2.126  17.115
 1401TIP3    H128398   2.299   2.082  17.083
 1401TIP3    H228399   2.260   2.190  17.175
 1402TIP3   OH228400   2.712   2.161  17.368
 1402TIP3    H128401   2.796   2.141  17.412
 1402TIP3    H228402   2.739   2.237  17.314
 1403TIP3   OH228403   2.948   3.681  17.162
 1403TIP3    H128404   3.008   3.734  17.108
 1403TIP3    H228405   3.006   3.617  17.207
 1404TIP3   OH228406   3.579   3.577  17.456
 1404TIP3    H128407   3.612   3.550  17.369
 1404TIP3    H228408   3.535   3.661  17.436
 1405TIP3   OH228409   2.139   2.011  18.624
 1405TIP3    H128410   2.092   1.926  18.625
 1405TIP3    H228411   2.210   1.995  18.691
 1406TIP3   OH228412   2.342   1.944  18.802
 1406TIP3    H128413   2.435   1.929  18.777
 1406TIP3    H228414   2.319   1.853  18.831
 1407TIP3   OH228415   3.206   1.876  18.803
 1407TIP3    H128416   3.215   1.814  18.879
 1407TIP3    H228417   3.297   1.873  18.767
 1408TIP3   OH228418   3.538   3.496  18.642
 1408TIP3    H128419   3.479   3.493  18.563
 1408TIP3    H228420   3.512   3.584  18.677
 1409TIP3   OH228421   4.977   2.889  17.650
 1409TIP3    H128422   4.967   2.986  17.647
 1409TIP3    H228423   4.901   2.861  17.596
 1410TIP3   OH228424   4.866   2.755  18.021
 1410TIP3    H128425   4.885   2.724  18.113
 1410TIP3    H228426   4.798   2.692  17.991
 1411TIP3   OH228427   4.078   2.757  18.151
 1411TIP3    H128428   4.069   2.686  18.217
 1411TIP3    H228429   4.147   2.809  18.196
 1412TIP3   OH228430   5.196   3.068  17.816
 1412TIP3    H128431   5.175   3.009  17.890
 1412TIP3    H228432   5.220   3.152  17.858
 1413TIP3   OH228433   4.191   3.235  17.961
 1413TIP3    H128434   4.154   3.145  17.950
 1413TIP3    H228435   4.286   3.212  17.961
 1414TIP3   OH228436   3.857   2.546  17.538
 1414TIP3    H128437   3.818   2.634  17.552
 1414TIP3    H228438   3.780   2.495  17.504
 1415TIP3   OH228439   3.873   2.785  17.793
 1415TIP3    H128440   3.913   2.695  17.800
 1415TIP3    H228441   3.953   2.842  17.792
 1416TIP3   OH228442   4.924   3.603  17.854
 1416TIP3    H128443   5.003   3.573  17.802
 1416TIP3    H228444   4.908   3.522  17.904
 1417TIP3   OH228445   4.668   3.046  18.114
 1417TIP3    H128446   4.704   3.011  18.032
 1417TIP3    H228447   4.754   3.065  18.159
 1418TIP3   OH228448   5.560   2.205  18.101
 1418TIP3    H128449   5.567   2.255  18.185
 1418TIP3    H228450   5.644   2.228  18.057
 1419TIP3   OH228451   5.054   2.485  18.113
 1419TIP3    H128452   5.070   2.390  18.122
 1419TIP3    H228453   5.016   2.491  18.023
 1420TIP3   OH228454   4.345   2.294  17.785
 1420TIP3    H128455   4.369   2.383  17.751
 1420TIP3    H228456   4.306   2.259  17.704
 1421TIP3   OH228457   5.048   2.285  17.685
 1421TIP3    H128458   5.132   2.238  17.695
 1421TIP3    H228459   5.055   2.320  17.594
 1422TIP3   OH228460   3.979   2.541  17.873
 1422TIP3    H128461   4.040   2.491  17.931
 1422TIP3    H228462   4.015   2.514  17.786
 1423TIP3   OH228463   4.486   2.708  17.830
 1423TIP3    H128464   4.559   2.660  17.874
 1423TIP3    H228465   4.458   2.639  17.767
 1424TIP3   OH228466   5.544   2.315  18.349
 1424TIP3    H128467   5.509   2.398  18.307
 1424TIP3    H228468   5.579   2.352  18.431
 1425TIP3   OH228469   4.229   2.179  18.209
 1425TIP3    H128470   4.196   2.236  18.137
 1425TIP3    H228471   4.165   2.205  18.278
 1426TIP3   OH228472   4.907   3.162  17.542
 1426TIP3    H128473   4.902   3.158  17.444
 1426TIP3    H228474   4.873   3.253  17.556
 1427TIP3   OH228475   4.439   2.948  18.195
 1427TIP3    H128476   4.383   3.020  18.231
 1427TIP3    H228477   4.516   2.999  18.158
 1428TIP3   OH228478   4.164   2.367  17.992
 1428TIP3    H128479   4.226   2.428  18.039
 1428TIP3    H228480   4.219   2.337  17.917
 1429TIP3   OH228481   4.308   3.160  18.309
 1429TIP3    H128482   4.304   3.247  18.265
 1429TIP3    H228483   4.217   3.156  18.346
 1430TIP3   OH228484   3.918   3.107  17.369
 1430TIP3    H128485   3.851   3.155  17.317
 1430TIP3    H228486   3.947   3.177  17.433
 1431TIP3   OH228487   5.269   3.330  17.944
 1431TIP3    H128488   5.288   3.263  18.013
 1431TIP3    H228489   5.211   3.387  17.996
 1432TIP3   OH228490   5.277   2.087  18.183
 1432TIP3    H128491   5.198   2.111  18.130
 1432TIP3    H228492   5.341   2.154  18.154
 1433TIP3   OH228493   4.572   1.939  17.943
 1433TIP3    H128494   4.543   1.847  17.942
 1433TIP3    H228495   4.508   1.979  18.004
 1434TIP3   OH228496   5.096   3.462  17.711
 1434TIP3    H128497   5.153   3.383  17.699
 1434TIP3    H228498   5.109   3.500  17.620
 1435TIP3   OH228499   5.224   3.240  17.596
 1435TIP3    H128500   5.217   3.186  17.516
 1435TIP3    H228501   5.216   3.176  17.669
 1436TIP3   OH228502   5.377   3.104  18.459
 1436TIP3    H128503   5.416   3.029  18.411
 1436TIP3    H228504   5.314   3.139  18.391
 1437TIP3   OH228505   4.845   2.784  17.422
 1437TIP3    H128506   4.791   2.859  17.392
 1437TIP3    H228507   4.897   2.758  17.343
 1438TIP3   OH228508   5.594   2.741  18.278
 1438TIP3    H128509   5.522   2.807  18.262
 1438TIP3    H228510   5.643   2.752  18.194
 1439TIP3   OH228511   5.196   2.782  17.520
 1439TIP3    H128512   5.125   2.824  17.573
 1439TIP3    H228513   5.260   2.759  17.590
 1440TIP3   OH228514   5.194   2.652  18.404
 1440TIP3    H128515   5.172   2.728  18.458
 1440TIP3    H228516   5.139   2.671  18.326
 1441TIP3   OH228517   4.334   2.887  17.701
 1441TIP3    H128518   4.300   2.852  17.616
 1441TIP3    H228519   4.398   2.818  17.729
 1442TIP3   OH228520   4.478   3.214  17.954
 1442TIP3    H128521   4.495   3.204  17.859
 1442TIP3    H228522   4.558   3.177  17.994
 1443TIP3   OH228523   4.353   2.743  18.062
 1443TIP3    H128524   4.382   2.759  17.970
 1443TIP3    H228525   4.396   2.818  18.110
 1444TIP3   OH228526   4.976   3.339  18.111
 1444TIP3    H128527   4.984   3.384  18.196
 1444TIP3    H228528   5.041   3.265  18.124
 1445TIP3   OH228529   4.485   3.193  18.500
 1445TIP3    H128530   4.411   3.236  18.547
 1445TIP3    H228531   4.439   3.167  18.417
 1446TIP3   OH228532   5.072   2.725  17.287
 1446TIP3    H128533   5.109   2.737  17.378
 1446TIP3    H228534   5.073   2.815  17.252
 1447TIP3   OH228535   4.127   2.862  18.402
 1447TIP3    H128536   4.173   2.908  18.473
 1447TIP3    H228537   4.082   2.792  18.454
 1448TIP3   OH228538   4.823   3.419  17.538
 1448TIP3    H128539   4.889   3.443  17.605
 1448TIP3    H228540   4.766   3.498  17.534
 1449TIP3   OH228541   4.304   3.365  18.604
 1449TIP3    H128542   4.293   3.415  18.521
 1449TIP3    H228543   4.211   3.351  18.628
 1450TIP3   OH228544   4.227   2.778  17.463
 1450TIP3    H128545   4.189   2.857  17.419
 1450TIP3    H228546   4.194   2.708  17.406
 1451TIP3   OH228547   5.567   3.323  17.113
 1451TIP3    H128548   5.577   3.418  17.124
 1451TIP3    H228549   5.655   3.286  17.131
 1452TIP3   OH228550   3.859   3.030  18.337
 1452TIP3    H128551   3.807   3.006  18.259
 1452TIP3    H228552   3.920   2.954  18.336
 1453TIP3   OH228553   3.816   3.299  18.028
 1453TIP3    H128554   3.912   3.290  18.034
 1453TIP3    H228555   3.803   3.390  18.058
 1454TIP3   OH228556   5.635   3.363  18.586
 1454TIP3    H128557   5.626   3.270  18.566
 1454TIP3    H228558   5.544   3.381  18.622
 1455TIP3   OH228559   4.721   3.322  18.492
 1455TIP3    H128560   4.724   3.389  18.562
 1455TIP3    H228561   4.631   3.284  18.499
 1456TIP3   OH228562   4.748   3.689  17.434
 1456TIP3    H128563   4.775   3.662  17.344
 1456TIP3    H228564   4.779   3.781  17.436
 1457TIP3   OH228565   4.146   3.585  17.652
 1457TIP3    H128566   4.156   3.541  17.740
 1457TIP3    H228567   4.068   3.541  17.613
 1458TIP3   OH228568   5.349   2.500  18.613
 1458TIP3    H128569   5.277   2.542  18.560
 1458TIP3    H228570   5.338   2.408  18.584
 1459TIP3   OH228571   4.066   3.176  18.431
 1459TIP3    H128572   4.080   3.128  18.515
 1459TIP3    H228573   3.988   3.127  18.396
 1460TIP3   OH228574   4.846   1.965  18.343
 1460TIP3    H128575   4.888   1.925  18.423
 1460TIP3    H228576   4.751   1.963  18.366
 1461TIP3   OH228577   5.089   2.393  18.479
 1461TIP3    H128578   5.042   2.351  18.555
 1461TIP3    H228579   5.043   2.478  18.473
 1462TIP3   OH228580   4.351   2.485  18.147
 1462TIP3    H128581   4.304   2.512  18.228
 1462TIP3    H228582   4.357   2.573  18.105
 1463TIP3   OH228583   4.359   2.523  17.658
 1463TIP3    H128584   4.265   2.519  17.631
 1463TIP3    H228585   4.400   2.527  17.568
 1464TIP3   OH228586   4.949   2.563  17.555
 1464TIP3    H128587   4.903   2.643  17.523
 1464TIP3    H228588   4.987   2.526  17.472
 1465TIP3   OH228589   4.827   2.582  18.660
 1465TIP3    H128590   4.766   2.523  18.708
 1465TIP3    H228591   4.878   2.617  18.734
 1466TIP3   OH228592   4.993   2.497  17.841
 1466TIP3    H128593   4.995   2.569  17.775
 1466TIP3    H228594   5.005   2.419  17.781
 1467TIP3   OH228595   4.076   2.515  18.295
 1467TIP3    H128596   4.156   2.555  18.334
 1467TIP3    H228597   4.076   2.426  18.336
 1468TIP3   OH228598   4.912   2.652  18.268
 1468TIP3    H128599   4.970   2.585  18.228
 1468TIP3    H228600   4.854   2.598  18.326
 1469TIP3   OH228601   4.642   2.254  17.742
 1469TIP3    H128602   4.545   2.237  17.740
 1469TIP3    H228603   4.654   2.289  17.831
 1470TIP3   OH228604   4.079   2.435  17.635
 1470TIP3    H128605   3.989   2.455  17.596
 1470TIP3    H228606   4.110   2.373  17.567
 1471TIP3   OH228607   4.439   2.489  17.401
 1471TIP3    H128608   4.523   2.442  17.424
 1471TIP3    H228609   4.457   2.507  17.308
 1472TIP3   OH228610   5.065   2.189  18.055
 1472TIP3    H128611   4.999   2.193  18.129
 1472TIP3    H228612   5.013   2.140  17.988
 1473TIP3   OH228613   4.302   2.564  17.132
 1473TIP3    H128614   4.267   2.485  17.172
 1473TIP3    H228615   4.396   2.535  17.120
 1474TIP3   OH228616   5.357   3.777  18.727
 1474TIP3    H128617   5.375   3.822  18.643
 1474TIP3    H228618   5.446   3.784  18.768
 1475TIP3   OH228619   4.112   3.021  18.662
 1475TIP3    H128620   4.201   3.029  18.701
 1475TIP3    H228621   4.063   2.984  18.738
 1476TIP3   OH228622   4.712   2.543  17.939
 1476TIP3    H128623   4.800   2.531  17.899
 1476TIP3    H228624   4.704   2.465  17.995
 1477TIP3   OH228625   4.602   2.372  18.187
 1477TIP3    H128626   4.523   2.427  18.166
 1477TIP3    H228627   4.655   2.430  18.242
 1478TIP3   OH228628   4.653   2.974  17.374
 1478TIP3    H128629   4.589   2.912  17.332
 1478TIP3    H228630   4.603   3.003  17.454
 1479TIP3   OH228631   5.405   2.920  18.231
 1479TIP3    H128632   5.443   2.991  18.173
 1479TIP3    H228633   5.311   2.940  18.212
 1480TIP3   OH228634   4.784   3.038  18.458
 1480TIP3    H128635   4.762   2.969  18.521
 1480TIP3    H228636   4.759   3.121  18.501
 1481TIP3   OH228637   5.077   2.450  17.342
 1481TIP3    H128638   5.156   2.499  17.366
 1481TIP3    H228639   5.052   2.495  17.259
 1482TIP3   OH228640   4.154   2.962  17.908
 1482TIP3    H128641   4.223   2.948  17.840
 1482TIP3    H228642   4.168   2.890  17.971
 1483TIP3   OH228643   4.860   3.119  17.284
 1483TIP3    H128644   4.822   3.205  17.255
 1483TIP3    H228645   4.778   3.071  17.308
 1484TIP3   OH228646   3.859   2.771  18.464
 1484TIP3    H128647   3.839   2.710  18.538
 1484TIP3    H228648   3.810   2.730  18.389
 1485TIP3   OH228649   4.533   2.598  18.563
 1485TIP3    H128650   4.503   2.690  18.555
 1485TIP3    H228651   4.601   2.619  18.630
 1486TIP3   OH228652   5.059   3.261  18.499
 1486TIP3    H128653   5.008   3.295  18.423
 1486TIP3    H228654   5.026   3.318  18.572
 1487TIP3   OH228655   5.616   3.066  18.609
 1487TIP3    H128656   5.524   3.089  18.581
 1487TIP3    H228657   5.662   3.059  18.521
 1488TIP3   OH228658   5.127   2.827  18.017
 1488TIP3    H128659   5.031   2.821  17.998
 1488TIP3    H228660   5.163   2.750  17.971
 1489TIP3   OH228661   4.409   3.288  17.678
 1489TIP3    H128662   4.461   3.365  17.650
 1489TIP3    H228663   4.320   3.313  17.648
 1490TIP3   OH228664   4.539   3.055  17.612
 1490TIP3    H128665   4.490   3.138  17.627
 1490TIP3    H228666   4.478   2.989  17.649
 1491TIP3   OH228667   4.602   3.482  18.276
 1491TIP3    H128668   4.667   3.545  18.239
 1491TIP3    H228669   4.657   3.437  18.343
 1492TIP3   OH228670   4.405   3.551  17.558
 1492TIP3    H128671   4.315   3.572  17.589
 1492TIP3    H228672   4.448   3.635  17.584
 1493TIP3   OH228673   4.912   3.062  18.222
 1493TIP3    H128674   4.875   3.044  18.312
 1493TIP3    H228675   5.008   3.059  18.237
 1494TIP3   OH228676   5.180   3.224  17.200
 1494TIP3    H128677   5.174   3.144  17.255
 1494TIP3    H228678   5.137   3.197  17.117
 1495TIP3   OH228679   5.239   3.497  18.471
 1495TIP3    H128680   5.152   3.456  18.465
 1495TIP3    H228681   5.239   3.562  18.398
 1496TIP3   OH228682   5.637   3.617  17.152
 1496TIP3    H128683   5.707   3.658  17.098
 1496TIP3    H228684   5.575   3.690  17.165
 1497TIP3   OH228685   4.060   2.263  18.410
 1497TIP3    H128686   3.993   2.302  18.469
 1497TIP3    H228687   4.082   2.182  18.460
 1498TIP3   OH228688   5.268   2.991  17.338
 1498TIP3    H128689   5.270   2.921  17.405
 1498TIP3    H228690   5.361   3.023  17.336
 1499TIP3   OH228691   4.002   3.436  18.243
 1499TIP3    H128692   4.062   3.361  18.251
 1499TIP3    H228693   4.015   3.477  18.330
 1500TIP3   OH228694   4.131   2.962  17.283
 1500TIP3    H128695   4.054   3.010  17.323
 1500TIP3    H228696   4.176   3.035  17.238
 1501TIP3   OH228697   4.927   2.226  18.287
 1501TIP3    H128698   4.992   2.255  18.353
 1501TIP3    H228699   4.888   2.147  18.330
 1502TIP3   OH228700   4.736   3.357  17.268
 1502TIP3    H128701   4.687   3.414  17.328
 1502TIP3    H228702   4.822   3.399  17.263
 1503TIP3   OH228703   4.675   2.394  17.503
 1503TIP3    H128704   4.768   2.413  17.482
 1503TIP3    H228705   4.679   2.341  17.584
 1504TIP3   OH228706   4.792   2.474  18.420
 1504TIP3    H128707   4.797   2.517  18.510
 1504TIP3    H228708   4.819   2.383  18.437
 1505TIP3   OH228709   4.786   2.056  17.608
 1505TIP3    H128710   4.747   2.145  17.625
 1505TIP3    H228711   4.857   2.074  17.544
 1506TIP3   OH228712   4.465   3.525  17.291
 1506TIP3    H128713   4.505   3.609  17.259
 1506TIP3    H228714   4.434   3.547  17.382
 1507TIP3   OH228715   5.336   2.249  18.504
 1507TIP3    H128716   5.250   2.284  18.471
 1507TIP3    H228717   5.395   2.258  18.426
 1508TIP3   OH228718   5.239   2.609  17.890
 1508TIP3    H128719   5.160   2.552  17.900
 1508TIP3    H228720   5.307   2.560  17.941
 1509TIP3   OH228721   5.333   3.597  18.074
 1509TIP3    H128722   5.336   3.555  17.987
 1509TIP3    H228723   5.426   3.586  18.101
 1510TIP3   OH228724   3.971   3.309  17.537
 1510TIP3    H128725   3.893   3.356  17.569
 1510TIP3    H228726   3.998   3.372  17.468
 1511TIP3   OH228727   3.890   3.631  18.697
 1511TIP3    H128728   3.964   3.630  18.761
 1511TIP3    H228729   3.867   3.537  18.698
 1512TIP3   OH228730   4.379   3.525  18.831
 1512TIP3    H128731   4.466   3.495  18.863
 1512TIP3    H228732   4.374   3.481  18.745
 1513TIP3   OH228733   5.006   3.390  18.723
 1513TIP3    H128734   4.962   3.309  18.758
 1513TIP3    H228735   5.084   3.390  18.781
 1514TIP3   OH228736   3.872   2.995  18.797
 1514TIP3    H128737   3.875   2.898  18.814
 1514TIP3    H228738   3.874   2.994  18.699
 1515TIP3   OH228739   4.583   3.089  18.721
 1515TIP3    H128740   4.562   3.105  18.626
 1515TIP3    H228741   4.605   2.993  18.722
 1516TIP3   OH228742   5.116   2.997  18.511
 1516TIP3    H128743   5.187   3.062  18.493
 1516TIP3    H228744   5.047   3.062  18.531
 1517TIP3   OH228745   4.005   2.735  18.754
 1517TIP3    H128746   4.005   2.639  18.754
 1517TIP3    H228747   4.062   2.758  18.831
 1518TIP3   OH228748   4.463   2.828  17.250
 1518TIP3    H128749   4.386   2.793  17.297
 1518TIP3    H228750   4.466   2.774  17.170
 1519TIP3   OH228751   4.313   2.632  18.384
 1519TIP3    H128752   4.327   2.620  18.480
 1519TIP3    H228753   4.398   2.675  18.357
 1520TIP3   OH228754   4.914   2.925  18.798
 1520TIP3    H128755   4.972   2.847  18.794
 1520TIP3    H228756   4.827   2.884  18.777
 1521TIP3   OH228757   4.418   2.363  18.520
 1521TIP3    H128758   4.455   2.297  18.458
 1521TIP3    H228759   4.476   2.443  18.511
 1522TIP3   OH228760   4.486   2.177  18.330
 1522TIP3    H128761   4.527   2.240  18.267
 1522TIP3    H228762   4.391   2.187  18.310
 1523TIP3   OH228763   4.596   2.764  18.326
 1523TIP3    H128764   4.685   2.798  18.341
 1523TIP3    H228765   4.552   2.838  18.282
 1524TIP3   OH228766   5.102   2.467  18.822
 1524TIP3    H128767   5.175   2.405  18.817
 1524TIP3    H228768   5.145   2.549  18.849
 1525TIP3   OH228769   5.213   2.817  18.679
 1525TIP3    H128770   5.164   2.869  18.612
 1525TIP3    H228771   5.303   2.824  18.643
 1526TIP3   OH228772   4.281   2.450  18.733
 1526TIP3    H128773   4.200   2.407  18.699
 1526TIP3    H228774   4.344   2.422  18.661
 1527TIP3   OH228775   4.572   1.928  18.343
 1527TIP3    H128776   4.545   2.023  18.343
 1527TIP3    H228777   4.492   1.885  18.311
 1528TIP3   OH228778   4.668   2.369  18.740
 1528TIP3    H128779   4.609   2.349  18.815
 1528TIP3    H228780   4.607   2.363  18.665
 1529TIP3   OH228781   4.955   2.255  18.658
 1529TIP3    H128782   4.883   2.295  18.712
 1529TIP3    H228783   5.015   2.221  18.727
 1530TIP3   OH228784   5.137   2.149  18.835
 1530TIP3    H128785   5.118   2.053  18.828
 1530TIP3    H228786   5.106   2.168  18.926
 1531TIP3   OH228787   4.060   2.275  18.743
 1531TIP3    H128788   4.051   2.184  18.708
 1531TIP3    H228789   4.055   2.256  18.840
 1532TIP3   OH228790   4.550   1.898  18.625
 1532TIP3    H128791   4.615   1.827  18.641
 1532TIP3    H228792   4.552   1.896  18.528
 1533TIP3   OH228793   4.580   2.015  18.870
 1533TIP3    H128794   4.562   1.973  18.782
 1533TIP3    H228795   4.524   2.096  18.861
 1534TIP3   OH228796   4.553   3.764  17.161
 1534TIP3    H128797   4.647   3.739  17.148
 1534TIP3    H228798   4.539   3.811  17.078
 1535TIP3   OH228799   3.754   3.696  17.647
 1535TIP3    H128800   3.684   3.660  17.589
 1535TIP3    H228801   3.777   3.623  17.707
 1536TIP3   OH228802   3.882   3.518  17.808
 1536TIP3    H128803   3.833   3.451  17.858
 1536TIP3    H228804   3.940   3.554  17.878
 1537TIP3   OH228805   5.645   3.646  18.055
 1537TIP3    H128806   5.658   3.607  18.143
 1537TIP3    H228807   5.736   3.675  18.035
 1538TIP3   OH228808   5.583   3.586  18.386
 1538TIP3    H128809   5.553   3.503  18.344
 1538TIP3    H228810   5.614   3.551  18.472
 1539TIP3   OH228811   5.426   3.146  18.852
 1539TIP3    H128812   5.337   3.143  18.893
 1539TIP3    H228813   5.467   3.220  18.902
 1540TIP3   OH228814   5.550   2.965  17.354
 1540TIP3    H128815   5.628   3.021  17.374
 1540TIP3    H228816   5.551   2.907  17.433
 1541TIP3   OH228817   5.587   2.795  17.574
 1541TIP3    H128818   5.506   2.760  17.618
 1541TIP3    H228819   5.653   2.794  17.647
 1542TIP3   OH228820   5.517   3.088  18.062
 1542TIP3    H128821   5.579   3.019  18.030
 1542TIP3    H228822   5.579   3.161  18.071
 1543TIP3   OH228823   5.436   3.365  18.285
 1543TIP3    H128824   5.358   3.388  18.337
 1543TIP3    H228825   5.407   3.279  18.248
 1544TIP3   OH228826   5.377   2.662  17.670
 1544TIP3    H128827   5.330   2.585  17.632
 1544TIP3    H228828   5.343   2.657  17.762
 1545TIP3   OH228829   3.857   2.861  18.058
 1545TIP3    H128830   3.853   2.820  17.969
 1545TIP3    H228831   3.945   2.828  18.089
 1546TIP3   OH228832   5.485   2.827  18.605
 1546TIP3    H128833   5.532   2.742  18.622
 1546TIP3    H228834   5.557   2.894  18.596
 1547TIP3   OH228835   5.586   2.587  18.669
 1547TIP3    H128836   5.494   2.562  18.641
 1547TIP3    H228837   5.635   2.502  18.666
 1548TIP3   OH228838   5.328   2.433  17.520
 1548TIP3    H128839   5.319   2.345  17.481
 1548TIP3    H228840   5.393   2.476  17.463
 1549TIP3   OH228841   5.419   2.448  18.018
 1549TIP3    H128842   5.516   2.461  18.028
 1549TIP3    H228843   5.396   2.456  18.113
 1550TIP3   OH228844   5.410   2.534  18.269
 1550TIP3    H128845   5.320   2.557  18.302
 1550TIP3    H228846   5.455   2.622  18.275
 1551TIP3   OH228847   3.842   2.389  18.636
 1551TIP3    H128848   3.928   2.366  18.677
 1551TIP3    H228849   3.792   2.306  18.651
 1552TIP3   OH228850   5.656   1.971  18.831
 1552TIP3    H128851   5.687   1.895  18.778
 1552TIP3    H228852   5.645   2.039  18.761
 1553TIP3   OH228853   3.803   2.498  18.057
 1553TIP3    H128854   3.859   2.486  17.978
 1553TIP3    H228855   3.852   2.569  18.100
 1554TIP3   OH228856   5.581   2.169  18.666
 1554TIP3    H128857   5.507   2.207  18.720
 1554TIP3    H228858   5.529   2.127  18.595
 1555TIP3   OH228859   3.797   1.993  18.285
 1555TIP3    H128860   3.739   1.967  18.359
 1555TIP3    H228861   3.745   2.061  18.238
 1556TIP3   OH228862   4.036   3.330  18.689
 1556TIP3    H128863   3.945   3.344  18.659
 1556TIP3    H228864   4.030   3.282  18.772
 1557TIP3   OH228865   4.330   3.469  18.344
 1557TIP3    H128866   4.328   3.561  18.310
 1557TIP3    H228867   4.426   3.450  18.344
 1558TIP3   OH228868   4.739   3.617  18.611
 1558TIP3    H128869   4.762   3.581  18.699
 1558TIP3    H228870   4.828   3.642  18.578
 1559TIP3   OH228871   4.982   3.741  18.558
 1559TIP3    H128872   5.054   3.692  18.518
 1559TIP3    H228873   5.017   3.763  18.648
 1560TIP3   OH228874   5.483   1.941  18.462
 1560TIP3    H128875   5.405   1.984  18.426
 1560TIP3    H228876   5.491   1.858  18.408
 1561TIP3   OH228877   4.064   3.767  18.326
 1561TIP3    H128878   3.990   3.824  18.297
 1561TIP3    H228879   4.053   3.771  18.422
 1562TIP3   OH228880   4.299   3.712  18.221
 1562TIP3    H128881   4.205   3.734  18.243
 1562TIP3    H228882   4.318   3.780  18.152
 1563TIP3   OH228883   4.788   3.672  18.167
 1563TIP3    H128884   4.770   3.719  18.085
 1563TIP3    H228885   4.810   3.747  18.227
 1564TIP3   OH228886   4.992   3.549  18.316
 1564TIP3    H128887   4.927   3.574  18.247
 1564TIP3    H228888   5.058   3.619  18.306
 1565TIP3   OH228889   5.226   3.707  18.291
 1565TIP3    H128890   5.233   3.802  18.269
 1565TIP3    H228891   5.255   3.667  18.205
 1566TIP3   OH228892   4.032   3.607  18.023
 1566TIP3    H128893   4.014   3.552  18.102
 1566TIP3    H228894   4.119   3.569  17.995
 1567TIP3   OH228895   4.239   3.497  17.893
 1567TIP3    H128896   4.224   3.404  17.922
 1567TIP3    H228897   4.330   3.510  17.928
 1568TIP3   OH228898   4.479   3.499  18.010
 1568TIP3    H128899   4.496   3.403  18.000
 1568TIP3    H228900   4.501   3.512  18.104
 1569TIP3   OH228901   4.866   2.075  17.904
 1569TIP3    H128902   4.773   2.070  17.929
 1569TIP3    H228903   4.860   2.064  17.808
 1570TIP3   OH228904   4.500   1.990  17.651
 1570TIP3    H128905   4.574   2.008  17.591
 1570TIP3    H228906   4.545   1.970  17.734
 1571TIP3   OH228907   3.907   3.511  17.368
 1571TIP3    H128908   3.846   3.498  17.293
 1571TIP3    H228909   3.930   3.603  17.350
 1572TIP3   OH228910   4.550   2.156  17.399
 1572TIP3    H128911   4.631   2.107  17.410
 1572TIP3    H228912   4.577   2.230  17.342
 1573TIP3   OH228913   4.821   3.631  17.178
 1573TIP3    H128914   4.903   3.673  17.149
 1573TIP3    H228915   4.812   3.559  17.113
 1574TIP3   OH228916   4.036   2.003  18.622
 1574TIP3    H128917   3.986   1.920  18.630
 1574TIP3    H228918   4.106   1.991  18.691
 1575TIP3   OH228919   4.228   1.947  18.805
 1575TIP3    H128920   4.324   1.933  18.790
 1575TIP3    H228921   4.203   1.856  18.832
 1576TIP3   OH228922   5.074   1.877  18.802
 1576TIP3    H128923   5.070   1.816  18.879
 1576TIP3    H228924   5.170   1.869  18.781
 1577TIP3   OH228925   5.416   3.503  18.661
 1577TIP3    H128926   5.350   3.482  18.590
 1577TIP3    H228927   5.383   3.590  18.691
 1578TIP3   OH228928   5.987   2.768  18.110
 1578TIP3    H128929   6.002   2.700  18.177
 1578TIP3    H228930   5.976   2.848  18.165
 1579TIP3   OH228931   7.130   3.093  17.869
 1579TIP3    H128932   7.113   3.028  17.938
 1579TIP3    H228933   7.128   3.178  17.919
 1580TIP3   OH228934   6.078   3.282  17.983
 1580TIP3    H128935   6.033   3.196  17.991
 1580TIP3    H228936   6.166   3.253  17.954
 1581TIP3   OH228937   5.720   2.507  17.530
 1581TIP3    H128938   5.750   2.597  17.549
 1581TIP3    H228939   5.651   2.499  17.597
 1582TIP3   OH228940   5.791   2.769  17.762
 1582TIP3    H128941   5.839   2.696  17.807
 1582TIP3    H228942   5.851   2.845  17.771
 1583TIP3   OH228943   6.832   3.610  17.828
 1583TIP3    H128944   6.892   3.562  17.769
 1583TIP3    H228945   6.819   3.538  17.890
 1584TIP3   OH228946   6.586   3.058  18.063
 1584TIP3    H128947   6.612   3.028  17.975
 1584TIP3    H228948   6.671   3.063  18.113
 1585TIP3   OH228949   7.443   2.222  18.080
 1585TIP3    H128950   7.438   2.272  18.164
 1585TIP3    H228951   7.503   2.278  18.029
 1586TIP3   OH228952   6.903   2.484  18.103
 1586TIP3    H128953   6.931   2.391  18.111
 1586TIP3    H228954   6.845   2.478  18.027
 1587TIP3   OH228955   6.218   2.254  17.778
 1587TIP3    H128956   6.239   2.335  17.727
 1587TIP3    H228957   6.169   2.202  17.711
 1588TIP3   OH228958   7.032   2.306  17.646
 1588TIP3    H128959   7.069   2.289  17.736
 1588TIP3    H228960   7.105   2.355  17.604
 1589TIP3   OH228961   5.858   2.510  17.869
 1589TIP3    H128962   5.924   2.474  17.932
 1589TIP3    H228963   5.904   2.490  17.784
 1590TIP3   OH228964   6.385   2.676  17.770
 1590TIP3    H128965   6.385   2.660  17.866
 1590TIP3    H228966   6.335   2.599  17.735
 1591TIP3   OH228967   7.457   2.304  18.362
 1591TIP3    H128968   7.400   2.380  18.335
 1591TIP3    H228969   7.523   2.352  18.415
 1592TIP3   OH228970   6.114   2.189  18.208
 1592TIP3    H128971   6.070   2.235  18.134
 1592TIP3    H228972   6.049   2.202  18.280
 1593TIP3   OH228973   6.353   2.948  18.195
 1593TIP3    H128974   6.286   3.014  18.224
 1593TIP3    H228975   6.415   3.009  18.151
 1594TIP3   OH228976   7.145   2.287  17.883
 1594TIP3    H128977   7.108   2.209  17.927
 1594TIP3    H228978   7.184   2.338  17.957
 1595TIP3   OH228979   6.058   2.369  17.992
 1595TIP3    H128980   6.125   2.423  18.041
 1595TIP3    H228981   6.113   2.330  17.922
 1596TIP3   OH228982   6.203   3.159  18.284
 1596TIP3    H128983   6.176   3.225  18.219
 1596TIP3    H228984   6.119   3.156  18.337
 1597TIP3   OH228985   5.781   3.097  17.392
 1597TIP3    H128986   5.772   3.138  17.302
 1597TIP3    H228987   5.794   3.176  17.449
 1598TIP3   OH228988   7.151   3.304  18.046
 1598TIP3    H128989   7.056   3.308  18.070
 1598TIP3    H228990   7.168   3.398  18.026
 1599TIP3   OH228991   7.189   2.177  18.193
 1599TIP3    H128992   7.106   2.174  18.141
 1599TIP3    H228993   7.258   2.193  18.126
 1600TIP3   OH228994   6.461   1.922  17.940
 1600TIP3    H128995   6.429   1.832  17.959
 1600TIP3    H228996   6.382   1.973  17.971
 1601TIP3   OH228997   7.013   3.405  17.751
 1601TIP3    H128998   6.994   3.353  17.672
 1601TIP3    H228999   7.073   3.475  17.717
 1602TIP3   OH229000   7.131   3.212  17.563
 1602TIP3    H129001   7.050   3.164  17.539
 1602TIP3    H229002   7.141   3.190  17.657
 1603TIP3   OH229003   7.251   3.104  18.447
 1603TIP3    H129004   7.247   3.043  18.370
 1603TIP3    H229005   7.258   3.190  18.400
 1604TIP3   OH229006   7.419   2.737  18.222
 1604TIP3    H129007   7.360   2.815  18.214
 1604TIP3    H229008   7.492   2.762  18.158
 1605TIP3   OH229009   7.093   2.765  17.474
 1605TIP3    H129010   7.050   2.843  17.511
 1605TIP3    H229011   7.153   2.737  17.546
 1606TIP3   OH229012   7.078   2.652  18.415
 1606TIP3    H129013   7.055   2.732  18.465
 1606TIP3    H229014   7.003   2.655  18.351
 1607TIP3   OH229015   6.192   2.841  17.673
 1607TIP3    H129016   6.177   2.807  17.582
 1607TIP3    H229017   6.274   2.793  17.698
 1608TIP3   OH229018   6.387   3.209  17.960
 1608TIP3    H129019   6.383   3.174  17.870
 1608TIP3    H229020   6.455   3.151  18.002
 1609TIP3   OH229021   6.302   2.736  18.042
 1609TIP3    H129022   6.252   2.786  17.975
 1609TIP3    H229023   6.312   2.805  18.112
 1610TIP3   OH229024   6.908   3.315  18.146
 1610TIP3    H129025   6.880   3.371  18.221
 1610TIP3    H229026   6.869   3.228  18.171
 1611TIP3   OH229027   6.371   3.207  18.503
 1611TIP3    H129028   6.299   3.250  18.556
 1611TIP3    H229029   6.326   3.194  18.416
 1612TIP3   OH229030   6.072   2.794  18.449
 1612TIP3    H129031   6.079   2.878  18.498
 1612TIP3    H229032   5.978   2.778  18.462
 1613TIP3   OH229033   6.769   3.479  17.583
 1613TIP3    H129034   6.746   3.394  17.623
 1613TIP3    H229035   6.682   3.514  17.560
 1614TIP3   OH229036   6.191   3.370  18.610
 1614TIP3    H129037   6.190   3.427  18.528
 1614TIP3    H229038   6.097   3.347  18.619
 1615TIP3   OH229039   7.279   1.939  17.270
 1615TIP3    H129040   7.208   1.917  17.208
 1615TIP3    H229041   7.342   1.980  17.209
 1616TIP3   OH229042   6.111   2.767  17.428
 1616TIP3    H129043   6.092   2.861  17.401
 1616TIP3    H229044   6.028   2.728  17.400
 1617TIP3   OH229045   5.751   3.020  18.395
 1617TIP3    H129046   5.759   3.033  18.297
 1617TIP3    H229047   5.767   2.924  18.405
 1618TIP3   OH229048   5.752   3.322  17.950
 1618TIP3    H129049   5.801   3.237  17.960
 1618TIP3    H229050   5.732   3.335  18.043
 1619TIP3   OH229051   7.535   3.373  18.582
 1619TIP3    H129052   7.528   3.279  18.562
 1619TIP3    H229053   7.450   3.384  18.630
 1620TIP3   OH229054   6.617   3.320  18.506
 1620TIP3    H129055   6.618   3.397  18.565
 1620TIP3    H229056   6.522   3.291  18.506
 1621TIP3   OH229057   6.646   3.719  17.425
 1621TIP3    H129058   6.648   3.753  17.336
 1621TIP3    H229059   6.678   3.793  17.478
 1622TIP3   OH229060   6.030   3.572  17.642
 1622TIP3    H129061   6.065   3.549  17.731
 1622TIP3    H229062   5.957   3.508  17.629
 1623TIP3   OH229063   6.928   3.616  17.386
 1623TIP3    H129064   6.843   3.608  17.435
 1623TIP3    H229065   6.983   3.558  17.439
 1624TIP3   OH229066   7.205   2.538  18.642
 1624TIP3    H129067   7.159   2.569  18.560
 1624TIP3    H229068   7.224   2.446  18.617
 1625TIP3   OH229069   5.982   3.163  18.433
 1625TIP3    H129070   5.988   3.131  18.526
 1625TIP3    H229071   5.897   3.126  18.405
 1626TIP3   OH229072   6.243   2.034  18.028
 1626TIP3    H129073   6.159   2.040  17.979
 1626TIP3    H229074   6.222   2.088  18.106
 1627TIP3   OH229075   6.723   1.968  18.353
 1627TIP3    H129076   6.755   1.916  18.429
 1627TIP3    H229077   6.624   1.965  18.361
 1628TIP3   OH229078   6.998   2.360  18.460
 1628TIP3    H129079   6.951   2.313  18.532
 1628TIP3    H229080   6.949   2.443  18.456
 1629TIP3   OH229081   6.244   2.493  18.155
 1629TIP3    H129082   6.167   2.500  18.215
 1629TIP3    H229083   6.262   2.587  18.135
 1630TIP3   OH229084   6.241   2.490  17.644
 1630TIP3    H129085   6.143   2.489  17.640
 1630TIP3    H229086   6.261   2.476  17.548
 1631TIP3   OH229087   6.662   2.596  18.673
 1631TIP3    H129088   6.625   2.510  18.702
 1631TIP3    H229089   6.735   2.606  18.736
 1632TIP3   OH229090   6.008   2.505  18.282
 1632TIP3    H129091   6.041   2.548  18.363
 1632TIP3    H229092   5.970   2.422  18.317
 1633TIP3   OH229093   5.804   2.338  17.243
 1633TIP3    H129094   5.874   2.348  17.176
 1633TIP3    H229095   5.780   2.431  17.255
 1634TIP3   OH229096   6.856   2.690  18.267
 1634TIP3    H129097   6.877   2.616  18.205
 1634TIP3    H229098   6.784   2.647  18.318
 1635TIP3   OH229099   6.501   2.252  17.750
 1635TIP3    H129100   6.407   2.249  17.773
 1635TIP3    H229101   6.543   2.223  17.833
 1636TIP3   OH229102   5.976   2.435  17.619
 1636TIP3    H129103   5.892   2.436  17.568
 1636TIP3    H229104   6.011   2.345  17.596
 1637TIP3   OH229105   6.309   2.442  17.391
 1637TIP3    H129106   6.405   2.437  17.409
 1637TIP3    H229107   6.306   2.519  17.333
 1638TIP3   OH229108   6.952   2.187  18.065
 1638TIP3    H129109   6.878   2.184  18.131
 1638TIP3    H229110   6.912   2.148  17.986
 1639TIP3   OH229111   7.245   3.728  18.727
 1639TIP3    H129112   7.286   3.767  18.648
 1639TIP3    H229113   7.318   3.740  18.792
 1640TIP3   OH229114   6.024   2.990  18.664
 1640TIP3    H129115   6.091   3.014  18.731
 1640TIP3    H229116   5.949   2.963  18.720
 1641TIP3   OH229117   6.065   2.181  17.572
 1641TIP3    H129118   6.026   2.101  17.614
 1641TIP3    H229119   6.106   2.140  17.495
 1642TIP3   OH229120   6.475   2.362  18.181
 1642TIP3    H129121   6.399   2.423  18.177
 1642TIP3    H229122   6.543   2.415  18.227
 1643TIP3   OH229123   7.255   2.970  18.226
 1643TIP3    H129124   7.308   2.998  18.149
 1643TIP3    H229125   7.177   2.931  18.182
 1644TIP3   OH229126   6.683   3.055  18.477
 1644TIP3    H129127   6.643   3.017  18.556
 1644TIP3    H229128   6.669   3.151  18.492
 1645TIP3   OH229129   7.035   2.469  17.314
 1645TIP3    H129130   7.108   2.457  17.377
 1645TIP3    H229131   7.021   2.564  17.324
 1646TIP3   OH229132   6.065   2.958  17.898
 1646TIP3    H129133   6.093   2.923  17.811
 1646TIP3    H229134   6.051   2.879  17.954
 1647TIP3   OH229135   5.782   2.764  18.461
 1647TIP3    H129136   5.744   2.714  18.534
 1647TIP3    H229137   5.717   2.743  18.389
 1648TIP3   OH229138   6.450   2.752  18.649
 1648TIP3    H129139   6.405   2.696  18.584
 1648TIP3    H229140   6.537   2.706  18.656
 1649TIP3   OH229141   6.944   3.267  18.495
 1649TIP3    H129142   6.861   3.290  18.451
 1649TIP3    H229143   6.930   3.307  18.583
 1650TIP3   OH229144   7.460   2.522  17.286
 1650TIP3    H129145   7.461   2.444  17.229
 1650TIP3    H229146   7.499   2.590  17.230
 1651TIP3   OH229147   7.477   3.068  18.574
 1651TIP3    H129148   7.390   3.096  18.537
 1651TIP3    H229149   7.530   3.054  18.492
 1652TIP3   OH229150   7.318   3.335  17.362
 1652TIP3    H129151   7.258   3.308  17.435
 1652TIP3    H229152   7.266   3.321  17.283
 1653TIP3   OH229153   7.066   2.848  18.064
 1653TIP3    H129154   6.972   2.835  18.080
 1653TIP3    H229155   7.087   2.780  17.998
 1654TIP3   OH229156   6.268   3.276  17.708
 1654TIP3    H129157   6.349   3.319  17.676
 1654TIP3    H229158   6.199   3.320  17.658
 1655TIP3   OH229159   5.868   2.797  17.129
 1655TIP3    H129160   5.949   2.807  17.181
 1655TIP3    H229161   5.822   2.880  17.148
 1656TIP3   OH229162   6.483   3.465  18.300
 1656TIP3    H129163   6.538   3.531  18.255
 1656TIP3    H229164   6.544   3.428  18.367
 1657TIP3   OH229165   6.282   3.613  17.548
 1657TIP3    H129166   6.193   3.612  17.590
 1657TIP3    H229167   6.323   3.690  17.591
 1658TIP3   OH229168   6.799   3.059  18.236
 1658TIP3    H129169   6.748   3.047  18.320
 1658TIP3    H229170   6.869   2.994  18.253
 1659TIP3   OH229171   7.098   3.521  18.475
 1659TIP3    H129172   7.008   3.482  18.468
 1659TIP3    H229173   7.104   3.575  18.393
 1660TIP3   OH229174   7.521   3.673  17.172
 1660TIP3    H129175   7.561   3.724  17.100
 1660TIP3    H229176   7.452   3.623  17.125
 1661TIP3   OH229177   5.927   2.261  18.411
 1661TIP3    H129178   5.873   2.301  18.482
 1661TIP3    H229179   5.923   2.168  18.440
 1662TIP3   OH229180   5.899   3.444  18.240
 1662TIP3    H129181   5.943   3.359  18.228
 1662TIP3    H229182   5.935   3.470  18.326
 1663TIP3   OH229183   6.346   3.222  17.235
 1663TIP3    H129184   6.423   3.180  17.278
 1663TIP3    H229185   6.351   3.313  17.273
 1664TIP3   OH229186   6.015   2.975  17.301
 1664TIP3    H129187   5.944   3.015  17.356
 1664TIP3    H229188   6.046   3.054  17.251
 1665TIP3   OH229189   6.786   2.234  18.319
 1665TIP3    H129190   6.872   2.244  18.363
 1665TIP3    H229191   6.758   2.146  18.351
 1666TIP3   OH229192   6.857   2.222  17.462
 1666TIP3    H129193   6.909   2.285  17.409
 1666TIP3    H229194   6.919   2.221  17.539
 1667TIP3   OH229195   6.586   2.408  17.482
 1667TIP3    H129196   6.656   2.357  17.440
 1667TIP3    H229197   6.549   2.347  17.547
 1668TIP3   OH229198   6.700   2.495  18.415
 1668TIP3    H129199   6.683   2.516  18.509
 1668TIP3    H229200   6.726   2.401  18.413
 1669TIP3   OH229201   6.665   2.069  17.591
 1669TIP3    H129202   6.625   2.122  17.663
 1669TIP3    H229203   6.726   2.133  17.549
 1670TIP3   OH229204   6.363   3.463  17.338
 1670TIP3    H129205   6.399   3.533  17.281
 1670TIP3    H229206   6.320   3.517  17.408
 1671TIP3   OH229207   6.251   2.150  17.256
 1671TIP3    H129208   6.202   2.231  17.271
 1671TIP3    H229209   6.337   2.176  17.290
 1672TIP3   OH229210   7.243   2.253  18.522
 1672TIP3    H129211   7.161   2.281  18.476
 1672TIP3    H229212   7.311   2.279  18.458
 1673TIP3   OH229213   7.078   2.595  17.869
 1673TIP3    H129214   7.039   2.507  17.871
 1673TIP3    H229215   7.143   2.581  17.943
 1674TIP3   OH229216   6.074   3.204  17.170
 1674TIP3    H129217   6.154   3.242  17.212
 1674TIP3    H229218   6.115   3.165  17.090
 1675TIP3   OH229219   7.253   3.555  18.053
 1675TIP3    H129220   7.234   3.624  17.986
 1675TIP3    H229221   7.350   3.566  18.064
 1676TIP3   OH229222   5.981   1.977  17.971
 1676TIP3    H129223   5.981   1.961  17.875
 1676TIP3    H229224   5.951   1.891  18.007
 1677TIP3   OH229225   5.843   3.369  17.560
 1677TIP3    H129226   5.760   3.410  17.590
 1677TIP3    H229227   5.851   3.412  17.472
 1678TIP3   OH229228   5.773   3.636  18.693
 1678TIP3    H129229   5.843   3.618  18.759
 1678TIP3    H229230   5.738   3.546  18.678
 1679TIP3   OH229231   6.254   3.526  18.826
 1679TIP3    H129232   6.338   3.488  18.857
 1679TIP3    H229233   6.243   3.481  18.740
 1680TIP3   OH229234   6.893   3.394  18.735
 1680TIP3    H129235   6.861   3.305  18.765
 1680TIP3    H229236   6.979   3.398  18.781
 1681TIP3   OH229237   5.773   2.990  18.816
 1681TIP3    H129238   5.747   2.897  18.802
 1681TIP3    H229239   5.718   3.032  18.746
 1682TIP3   OH229240   6.207   3.071  16.975
 1682TIP3    H129241   6.247   3.044  17.060
 1682TIP3    H229242   6.249   3.008  16.915
 1683TIP3   OH229243   6.434   3.016  18.688
 1683TIP3    H129244   6.419   3.064  18.603
 1683TIP3    H229245   6.438   2.920  18.663
 1684TIP3   OH229246   7.019   2.984  18.482
 1684TIP3    H129247   7.108   3.025  18.491
 1684TIP3    H229248   6.966   3.066  18.488
 1685TIP3   OH229249   5.888   2.715  18.775
 1685TIP3    H129250   5.941   2.636  18.765
 1685TIP3    H229251   5.930   2.764  18.850
 1686TIP3   OH229252   6.304   2.862  17.201
 1686TIP3    H129253   6.271   2.826  17.284
 1686TIP3    H229254   6.353   2.786  17.164
 1687TIP3   OH229255   6.270   2.625  18.433
 1687TIP3    H129256   6.197   2.690  18.438
 1687TIP3    H229257   6.341   2.676  18.389
 1688TIP3   OH229258   6.447   2.642  17.095
 1688TIP3    H129259   6.454   2.581  17.021
 1688TIP3    H229260   6.530   2.694  17.090
 1689TIP3   OH229261   6.765   2.904  18.822
 1689TIP3    H129262   6.840   2.876  18.767
 1689TIP3    H229263   6.743   2.819  18.867
 1690TIP3   OH229264   6.331   2.388  18.529
 1690TIP3    H129265   6.341   2.325  18.454
 1690TIP3    H229266   6.324   2.475  18.483
 1691TIP3   OH229267   6.348   2.182  18.330
 1691TIP3    H129268   6.398   2.237  18.265
 1691TIP3    H229269   6.258   2.186  18.290
 1692TIP3   OH229270   6.485   2.761  18.337
 1692TIP3    H129271   6.577   2.781  18.319
 1692TIP3    H229272   6.438   2.835  18.291
 1693TIP3   OH229273   6.999   2.487  18.818
 1693TIP3    H129274   7.047   2.403  18.814
 1693TIP3    H229275   7.056   2.537  18.756
 1694TIP3   OH229276   7.051   2.817  18.689
 1694TIP3    H129277   7.032   2.873  18.611
 1694TIP3    H229278   7.143   2.790  18.673
 1695TIP3   OH229279   6.175   2.456  18.750
 1695TIP3    H129280   6.090   2.415  18.726
 1695TIP3    H229281   6.228   2.434  18.671
 1696TIP3   OH229282   6.457   1.942  18.333
 1696TIP3    H129283   6.425   2.035  18.342
 1696TIP3    H229284   6.374   1.898  18.315
 1697TIP3   OH229285   6.543   2.363  18.750
 1697TIP3    H129286   6.483   2.333  18.821
 1697TIP3    H229287   6.487   2.352  18.671
 1698TIP3   OH229288   6.826   2.281  18.661
 1698TIP3    H129289   6.744   2.306  18.707
 1698TIP3    H229290   6.872   2.232  18.733
 1699TIP3   OH229291   6.996   2.160  18.830
 1699TIP3    H129292   6.984   2.062  18.831
 1699TIP3    H229293   6.966   2.185  18.921
 1700TIP3   OH229294   5.952   2.279  18.760
 1700TIP3    H129295   5.933   2.198  18.710
 1700TIP3    H229296   5.935   2.248  18.853
 1701TIP3   OH229297   6.415   1.905  18.627
 1701TIP3    H129298   6.486   1.841  18.644
 1701TIP3    H229299   6.422   1.911  18.529
 1702TIP3   OH229300   6.445   2.031  18.883
 1702TIP3    H129301   6.432   2.000  18.791
 1702TIP3    H229302   6.397   2.116  18.884
 1703TIP3   OH229303   6.401   3.707  17.162
 1703TIP3    H129304   6.483   3.696  17.111
 1703TIP3    H229305   6.380   3.800  17.141
 1704TIP3   OH229306   5.803   3.186  17.129
 1704TIP3    H129307   5.901   3.197  17.134
 1704TIP3    H229308   5.788   3.194  17.033
 1705TIP3   OH229309   5.734   3.540  17.794
 1705TIP3    H129310   5.753   3.447  17.820
 1705TIP3    H229311   5.692   3.570  17.877
 1706TIP3   OH229312   7.540   3.584  18.124
 1706TIP3    H129313   7.535   3.563  18.220
 1706TIP3    H229314   7.527   3.681  18.129
 1707TIP3   OH229315   7.461   3.550  18.385
 1707TIP3    H129316   7.412   3.476  18.342
 1707TIP3    H229317   7.498   3.501  18.461
 1708TIP3   OH229318   7.310   3.145  18.881
 1708TIP3    H129319   7.224   3.159  18.925
 1708TIP3    H229320   7.351   3.234  18.891
 1709TIP3   OH229321   7.468   2.989  17.376
 1709TIP3    H129322   7.484   3.068  17.430
 1709TIP3    H229323   7.454   2.925  17.447
 1710TIP3   OH229324   7.467   2.762  17.580
 1710TIP3    H129325   7.382   2.723  17.612
 1710TIP3    H229326   7.508   2.791  17.662
 1711TIP3   OH229327   7.480   3.031  18.074
 1711TIP3    H129328   7.575   3.032  18.054
 1711TIP3    H229329   7.458   3.124  18.049
 1712TIP3   OH229330   7.306   3.342  18.306
 1712TIP3    H129331   7.229   3.387  18.343
 1712TIP3    H229332   7.282   3.331  18.213
 1713TIP3   OH229333   7.522   2.797  17.191
 1713TIP3    H129334   7.427   2.795  17.205
 1713TIP3    H229335   7.548   2.839  17.274
 1714TIP3   OH229336   7.241   2.634  17.659
 1714TIP3    H129337   7.214   2.551  17.613
 1714TIP3    H229338   7.201   2.621  17.747
 1715TIP3   OH229339   5.724   2.789  18.046
 1715TIP3    H129340   5.727   2.808  17.950
 1715TIP3    H229341   5.813   2.826  18.069
 1716TIP3   OH229342   7.332   2.831  18.619
 1716TIP3    H129343   7.404   2.771  18.592
 1716TIP3    H229344   7.378   2.918  18.608
 1717TIP3   OH229345   7.482   2.615  18.628
 1717TIP3    H129346   7.386   2.617  18.649
 1717TIP3    H229347   7.503   2.521  18.651
 1718TIP3   OH229348   7.244   2.419  17.494
 1718TIP3    H129349   7.273   2.328  17.471
 1718TIP3    H229350   7.325   2.468  17.475
 1719TIP3   OH229351   7.235   2.485  18.045
 1719TIP3    H129352   7.332   2.475  18.031
 1719TIP3    H229353   7.232   2.479  18.143
 1720TIP3   OH229354   7.290   2.518  18.319
 1720TIP3    H129355   7.201   2.552  18.346
 1720TIP3    H229356   7.331   2.601  18.286
 1721TIP3   OH229357   5.742   2.375  18.645
 1721TIP3    H129358   5.825   2.365  18.697
 1721TIP3    H229359   5.700   2.287  18.660
 1722TIP3   OH229360   7.504   1.900  18.833
 1722TIP3    H129361   7.545   1.840  18.769
 1722TIP3    H229362   7.496   1.979  18.775
 1723TIP3   OH229363   7.308   2.173  17.435
 1723TIP3    H129364   7.335   2.119  17.512
 1723TIP3    H229365   7.223   2.134  17.411
 1724TIP3   OH229366   5.825   2.205  17.969
 1724TIP3    H129367   5.881   2.125  17.983
 1724TIP3    H229368   5.891   2.273  17.950
 1725TIP3   OH229369   5.675   2.524  18.068
 1725TIP3    H129370   5.733   2.490  17.997
 1725TIP3    H229371   5.700   2.620  18.063
 1726TIP3   OH229372   7.452   2.122  18.695
 1726TIP3    H129373   7.376   2.179  18.724
 1726TIP3    H229374   7.424   2.106  18.603
 1727TIP3   OH229375   5.738   2.123  17.427
 1727TIP3    H129376   5.643   2.111  17.421
 1727TIP3    H229377   5.752   2.209  17.385
 1728TIP3   OH229378   7.180   3.606  17.658
 1728TIP3    H129379   7.241   3.593  17.584
 1728TIP3    H229380   7.239   3.638  17.727
 1729TIP3   OH229381   5.706   1.991  18.291
 1729TIP3    H129382   5.646   1.963  18.361
 1729TIP3    H229383   5.656   2.062  18.247
 1730TIP3   OH229384   5.925   3.307  18.681
 1730TIP3    H129385   5.841   3.337  18.643
 1730TIP3    H229386   5.904   3.292  18.773
 1731TIP3   OH229387   6.223   3.484  18.374
 1731TIP3    H129388   6.221   3.569  18.325
 1731TIP3    H229389   6.317   3.459  18.362
 1732TIP3   OH229390   6.624   3.585  18.618
 1732TIP3    H129391   6.638   3.554  18.710
 1732TIP3    H229392   6.715   3.615  18.595
 1733TIP3   OH229393   6.858   3.723  18.573
 1733TIP3    H129394   6.939   3.685  18.535
 1733TIP3    H229395   6.890   3.758  18.658
 1734TIP3   OH229396   7.354   1.941  18.476
 1734TIP3    H129397   7.277   1.986  18.438
 1734TIP3    H229398   7.355   1.855  18.431
 1735TIP3   OH229399   5.955   3.758  18.318
 1735TIP3    H129400   5.868   3.799  18.293
 1735TIP3    H229401   5.945   3.754  18.414
 1736TIP3   OH229402   6.203   3.714  18.238
 1736TIP3    H129403   6.107   3.727  18.261
 1736TIP3    H229404   6.208   3.774  18.162
 1737TIP3   OH229405   6.672   3.666  18.156
 1737TIP3    H129406   6.618   3.699  18.083
 1737TIP3    H229407   6.684   3.746  18.211
 1738TIP3   OH229408   6.859   3.539  18.309
 1738TIP3    H129409   6.790   3.564  18.242
 1738TIP3    H229410   6.929   3.601  18.284
 1739TIP3   OH229411   7.128   3.677  18.261
 1739TIP3    H129412   7.125   3.768  18.228
 1739TIP3    H229413   7.167   3.630  18.184
 1740TIP3   OH229414   5.915   3.630  18.043
 1740TIP3    H129415   5.891   3.564  18.112
 1740TIP3    H229416   5.996   3.590  18.003
 1741TIP3   OH229417   6.132   3.554  17.900
 1741TIP3    H129418   6.094   3.465  17.917
 1741TIP3    H229419   6.224   3.537  17.930
 1742TIP3   OH229420   6.375   3.481  17.995
 1742TIP3    H129421   6.401   3.386  17.986
 1742TIP3    H229422   6.375   3.489  18.092
 1743TIP3   OH229423   6.679   2.066  17.887
 1743TIP3    H129424   6.599   2.019  17.921
 1743TIP3    H229425   6.722   1.994  17.839
 1744TIP3   OH229426   7.229   1.899  17.891
 1744TIP3    H129427   7.263   1.970  17.834
 1744TIP3    H229428   7.134   1.909  17.872
 1745TIP3   OH229429   7.369   2.028  17.661
 1745TIP3    H129430   7.439   1.959  17.646
 1745TIP3    H229431   7.418   2.081  17.728
 1746TIP3   OH229432   5.990   1.947  17.676
 1746TIP3    H129433   5.906   1.936  17.629
 1746TIP3    H229434   6.034   1.860  17.659
 1747TIP3   OH229435   5.890   1.987  17.245
 1747TIP3    H129436   5.894   2.083  17.262
 1747TIP3    H229437   5.819   1.966  17.308
 1748TIP3   OH229438   6.389   1.919  17.669
 1748TIP3    H129439   6.468   1.955  17.628
 1748TIP3    H229440   6.408   1.938  17.763
 1749TIP3   OH229441   6.982   1.977  17.797
 1749TIP3    H129442   6.973   1.948  17.705
 1749TIP3    H229443   6.910   1.923  17.838
 1750TIP3   OH229444   7.023   1.985  17.400
 1750TIP3    H129445   6.940   2.029  17.378
 1750TIP3    H229446   7.007   1.893  17.372
 1751TIP3   OH229447   5.813   3.537  17.353
 1751TIP3    H129448   5.734   3.528  17.295
 1751TIP3    H229449   5.841   3.626  17.326
 1752TIP3   OH229450   7.358   3.596  17.462
 1752TIP3    H129451   7.372   3.510  17.418
 1752TIP3    H229452   7.341   3.656  17.387
 1753TIP3   OH229453   5.917   2.020  18.632
 1753TIP3    H129454   5.870   1.935  18.634
 1753TIP3    H229455   5.996   2.005  18.689
 1754TIP3   OH229456   6.117   1.941  18.812
 1754TIP3    H129457   6.211   1.924  18.790
 1754TIP3    H229458   6.091   1.851  18.840
 1755TIP3   OH229459   5.961   3.659  17.051
 1755TIP3    H129460   5.928   3.718  17.122
 1755TIP3    H229461   6.034   3.613  17.093
 1756TIP3   OH229462   6.985   1.883  18.821
 1756TIP3    H129463   6.989   1.830  18.905
 1756TIP3    H229464   7.071   1.855  18.782
 1757TIP3   OH229465   7.286   3.429  18.642
 1757TIP3    H129466   7.218   3.441  18.572
 1757TIP3    H229467   7.288   3.520  18.677
 1758TIP3   OH229468   7.573   2.503  17.542
 1758TIP3    H129469   7.547   2.595  17.563
 1758TIP3    H229470   7.531   2.494  17.454
 1759TIP3   OH229471   7.580   2.998  18.335
 1759TIP3    H129472   7.524   2.990  18.255
 1759TIP3    H229473   7.592   2.905  18.363
 1760TIP3   OH229474   7.550   3.290  18.017
 1760TIP3    H129475   7.645   3.287  17.989
 1760TIP3    H229476   7.547   3.381  18.052
 1761TIP3   OH229477   7.539   2.226  17.762
 1761TIP3    H129478   7.537   2.323  17.773
 1761TIP3    H229479   7.552   2.217  17.665
 1762TIP3   OH229480   7.588   2.750  18.428
 1762TIP3    H129481   7.573   2.683  18.497
 1762TIP3    H229482   7.514   2.730  18.366
 1763TIP3   OH229483   7.634   2.943  18.747
 1763TIP3    H129484   7.593   2.857  18.765
 1763TIP3    H229485   7.570   2.989  18.689
 1764TIP3   OH229486   7.510   3.726  17.637
 1764TIP3    H129487   7.453   3.682  17.569
 1764TIP3    H229488   7.525   3.648  17.696
 1765TIP3   OH229489   7.563   3.512  17.792
 1765TIP3    H129490   7.540   3.419  17.807
 1765TIP3    H229491   7.636   3.523  17.853
 1766TIP3   OH229492   7.626   2.784  18.067
 1766TIP3    H129493   7.614   2.807  17.973
 1766TIP3    H229494   7.706   2.839  18.086
 1767TIP3   OH229495   7.541   2.371  18.688
 1767TIP3    H129496   7.638   2.376  18.685
 1767TIP3    H229497   7.523   2.279  18.716
 1768TIP3   OH229498   7.500   2.491  18.023
 1768TIP3    H129499   7.598   2.482  18.035
 1768TIP3    H229500   7.491   2.584  18.046
 1769TIP3   OH229501   7.587   2.170  17.492
 1769TIP3    H129502   7.496   2.166  17.457
 1769TIP3    H229503   7.639   2.166  17.411
 1770TIP3   OH229504   7.486   1.975  18.238
 1770TIP3    H129505   7.473   1.975  18.334
 1770TIP3    H229506   7.452   2.064  18.214
 1771TIP3   OH229507   1.219   4.765  17.655
 1771TIP3    H129508   1.206   4.860  17.636
 1771TIP3    H229509   1.151   4.730  17.595
 1772TIP3   OH229510   1.111   4.658  18.008
 1772TIP3    H129511   1.118   4.618  18.099
 1772TIP3    H229512   1.044   4.599  17.969
 1773TIP3   OH229513   0.337   4.656  18.179
 1773TIP3    H129514   0.317   4.565  18.206
 1773TIP3    H229515   0.392   4.684  18.256
 1774TIP3   OH229516   1.446   4.960  17.868
 1774TIP3    H129517   1.403   4.894  17.924
 1774TIP3    H229518   1.456   5.035  17.931
 1775TIP3   OH229519   0.352   5.101  18.013
 1775TIP3    H129520   0.324   5.011  17.989
 1775TIP3    H229521   0.448   5.094  18.005
 1776TIP3   OH229522   0.148   4.454  17.549
 1776TIP3    H129523   0.082   4.515  17.517
 1776TIP3    H229524   0.097   4.371  17.552
 1777TIP3   OH229525   0.147   4.649  17.817
 1777TIP3    H129526   0.179   4.566  17.778
 1777TIP3    H229527   0.150   4.711  17.743
 1778TIP3   OH229528   1.173   5.482  17.834
 1778TIP3    H129529   1.257   5.436  17.809
 1778TIP3    H229530   1.133   5.409  17.883
 1779TIP3   OH229531   0.919   4.906  18.083
 1779TIP3    H129532   0.961   4.860  18.010
 1779TIP3    H229533   1.000   4.938  18.129
 1780TIP3   OH229534   1.784   4.076  18.072
 1780TIP3    H129535   1.786   4.133  18.152
 1780TIP3    H229536   1.871   4.100  18.034
 1781TIP3   OH229537   1.285   4.370  18.103
 1781TIP3    H129538   1.304   4.275  18.118
 1781TIP3    H229539   1.247   4.367  18.013
 1782TIP3   OH229540   1.311   4.193  17.654
 1782TIP3    H129541   1.365   4.156  17.726
 1782TIP3    H229542   1.375   4.255  17.614
 1783TIP3   OH229543   1.797   4.208  18.324
 1783TIP3    H129544   1.764   4.296  18.294
 1783TIP3    H229545   1.823   4.231  18.415
 1784TIP3   OH229546   0.464   4.073  18.210
 1784TIP3    H129547   0.424   4.125  18.137
 1784TIP3    H229548   0.410   4.104  18.286
 1785TIP3   OH229549   1.154   5.027  17.574
 1785TIP3    H129550   1.128   5.038  17.479
 1785TIP3    H229551   1.145   5.120  17.605
 1786TIP3   OH229552   0.707   4.845  18.242
 1786TIP3    H129553   0.648   4.920  18.263
 1786TIP3    H229554   0.774   4.888  18.184
 1787TIP3   OH229555   1.509   4.156  17.845
 1787TIP3    H129556   1.497   4.070  17.887
 1787TIP3    H229557   1.596   4.183  17.878
 1788TIP3   OH229558   0.396   4.251  18.001
 1788TIP3    H129559   0.450   4.318  18.050
 1788TIP3    H229560   0.453   4.231  17.925
 1789TIP3   OH229561   0.553   5.070  18.303
 1789TIP3    H129562   0.534   5.159  18.266
 1789TIP3    H229563   0.463   5.046  18.332
 1790TIP3   OH229564   0.123   5.007  17.402
 1790TIP3    H129565   0.099   5.028  17.309
 1790TIP3    H229566   0.167   5.088  17.435
 1791TIP3   OH229567   1.507   5.167  18.057
 1791TIP3    H129568   1.412   5.181  18.076
 1791TIP3    H229569   1.524   5.255  18.017
 1792TIP3   OH229570   1.490   4.012  18.173
 1792TIP3    H129571   1.408   4.042  18.128
 1792TIP3    H229572   1.556   4.040  18.106
 1793TIP3   OH229573   0.818   3.791  17.999
 1793TIP3    H129574   0.792   3.742  17.920
 1793TIP3    H229575   0.742   3.853  18.005
 1794TIP3   OH229576   1.371   5.336  17.744
 1794TIP3    H129577   1.359   5.275  17.669
 1794TIP3    H229578   1.436   5.399  17.706
 1795TIP3   OH229579   1.469   5.139  17.572
 1795TIP3    H129580   1.442   5.075  17.504
 1795TIP3    H229581   1.446   5.088  17.652
 1796TIP3   OH229582   1.606   4.999  18.445
 1796TIP3    H129583   1.625   4.927  18.381
 1796TIP3    H229584   1.613   5.077  18.386
 1797TIP3   OH229585   1.090   4.705  17.404
 1797TIP3    H129586   1.038   4.785  17.384
 1797TIP3    H229587   1.113   4.675  17.313
 1798TIP3   OH229588   1.818   4.641  18.224
 1798TIP3    H129589   1.750   4.711  18.231
 1798TIP3    H229590   1.876   4.682  18.157
 1799TIP3   OH229591   1.428   4.663  17.496
 1799TIP3    H129592   1.361   4.703  17.555
 1799TIP3    H229593   1.495   4.635  17.562
 1800TIP3   OH229594   1.430   4.531  18.412
 1800TIP3    H129595   1.404   4.614  18.453
 1800TIP3    H229596   1.363   4.528  18.340
 1801TIP3   OH229597   0.698   5.079  17.948
 1801TIP3    H129598   0.729   5.083  17.857
 1801TIP3    H229599   0.779   5.057  17.999
 1802TIP3   OH229600   0.640   4.659  18.061
 1802TIP3    H129601   0.735   4.659  18.042
 1802TIP3    H229602   0.636   4.721  18.136
 1803TIP3   OH229603   1.253   5.221  18.131
 1803TIP3    H129604   1.228   5.297  18.185
 1803TIP3    H229605   1.206   5.149  18.177
 1804TIP3   OH229606   0.700   5.093  18.524
 1804TIP3    H129607   0.630   5.137  18.577
 1804TIP3    H229608   0.650   5.081  18.439
 1805TIP3   OH229609   0.444   4.710  18.412
 1805TIP3    H129610   0.443   4.794  18.463
 1805TIP3    H229611   0.350   4.684  18.426
 1806TIP3   OH229612   1.104   5.276  17.640
 1806TIP3    H129613   1.127   5.369  17.661
 1806TIP3    H229614   1.017   5.287  17.600
 1807TIP3   OH229615   0.519   5.272  18.609
 1807TIP3    H129616   0.508   5.286  18.513
 1807TIP3    H229617   0.427   5.256  18.638
 1808TIP3   OH229618   1.677   3.774  17.281
 1808TIP3    H129619   1.582   3.786  17.301
 1808TIP3    H229620   1.708   3.866  17.291
 1809TIP3   OH229621   0.167   4.893  18.360
 1809TIP3    H129622   0.076   4.902  18.326
 1809TIP3    H229623   0.186   4.799  18.341
 1810TIP3   OH229624   0.119   5.225  17.982
 1810TIP3    H129625   0.194   5.162  17.991
 1810TIP3    H229626   0.137   5.282  18.059
 1811TIP3   OH229627   1.872   5.224  18.617
 1811TIP3    H129628   1.861   5.127  18.608
 1811TIP3    H229629   1.785   5.243  18.659
 1812TIP3   OH229630   0.941   5.201  18.515
 1812TIP3    H129631   0.948   5.277  18.576
 1812TIP3    H229632   0.849   5.168  18.528
 1813TIP3   OH229633   1.028   5.587  17.384
 1813TIP3    H129634   0.962   5.618  17.320
 1813TIP3    H229635   1.021   5.654  17.455
 1814TIP3   OH229636   1.287   5.489  17.461
 1814TIP3    H129637   1.206   5.543  17.462
 1814TIP3    H229638   1.256   5.409  17.415
 1815TIP3   OH229639   1.569   4.387  18.631
 1815TIP3    H129640   1.511   4.424  18.561
 1815TIP3    H229641   1.565   4.292  18.611
 1816TIP3   OH229642   0.301   5.105  18.423
 1816TIP3    H129643   0.310   5.075  18.514
 1816TIP3    H229644   0.243   5.032  18.389
 1817TIP3   OH229645   0.585   3.928  18.011
 1817TIP3    H129646   0.496   3.915  17.973
 1817TIP3    H229647   0.561   3.972  18.094
 1818TIP3   OH229648   1.038   3.872  18.352
 1818TIP3    H129649   1.078   3.823  18.427
 1818TIP3    H229650   0.942   3.853  18.362
 1819TIP3   OH229651   1.320   4.273  18.484
 1819TIP3    H129652   1.262   4.230  18.553
 1819TIP3    H229653   1.274   4.357  18.469
 1820TIP3   OH229654   0.583   4.406  18.133
 1820TIP3    H129655   0.512   4.409  18.201
 1820TIP3    H229656   0.605   4.500  18.122
 1821TIP3   OH229657   1.127   4.454  17.465
 1821TIP3    H129658   1.125   4.553  17.457
 1821TIP3    H229659   1.213   4.435  17.422
 1822TIP3   OH229660   1.034   4.485  18.656
 1822TIP3    H129661   0.990   4.405  18.692
 1822TIP3    H229662   1.106   4.492  18.723
 1823TIP3   OH229663   1.214   4.414  17.828
 1823TIP3    H129664   1.233   4.491  17.770
 1823TIP3    H229665   1.219   4.339  17.765
 1824TIP3   OH229666   0.371   4.382  18.294
 1824TIP3    H129667   0.404   4.422  18.375
 1824TIP3    H229668   0.320   4.305  18.327
 1825TIP3   OH229669   0.094   4.183  17.744
 1825TIP3    H129670   0.125   4.118  17.809
 1825TIP3    H229671   0.115   4.137  17.659
 1826TIP3   OH229672   0.097   4.238  17.266
 1826TIP3    H129673   0.159   4.248  17.191
 1826TIP3    H229674   0.154   4.270  17.337
 1827TIP3   OH229675   1.148   4.545  18.248
 1827TIP3    H129676   1.203   4.476  18.204
 1827TIP3    H229677   1.089   4.489  18.303
 1828TIP3   OH229678   1.274   4.090  18.052
 1828TIP3    H129679   1.216   4.075  18.130
 1828TIP3    H229680   1.231   4.033  17.984
 1829TIP3   OH229681   1.566   5.640  18.735
 1829TIP3    H129682   1.582   5.691  18.654
 1829TIP3    H229683   1.644   5.666  18.787
 1830TIP3   OH229684   0.425   4.904  18.597
 1830TIP3    H129685   0.495   4.909  18.664
 1830TIP3    H229686   0.345   4.895  18.651
 1831TIP3   OH229687   0.938   4.460  17.930
 1831TIP3    H129688   1.018   4.430  17.884
 1831TIP3    H229689   0.905   4.376  17.966
 1832TIP3   OH229690   0.818   4.258  18.174
 1832TIP3    H129691   0.749   4.326  18.181
 1832TIP3    H229692   0.892   4.299  18.223
 1833TIP3   OH229693   0.885   4.886  17.350
 1833TIP3    H129694   0.817   4.823  17.317
 1833TIP3    H229695   0.843   4.910  17.434
 1834TIP3   OH229696   1.633   4.841  18.236
 1834TIP3    H129697   1.684   4.901  18.176
 1834TIP3    H229698   1.549   4.838  18.187
 1835TIP3   OH229699   1.266   4.188  17.147
 1835TIP3    H129700   1.179   4.160  17.177
 1835TIP3    H229701   1.277   4.275  17.190
 1836TIP3   OH229702   0.982   4.926  18.477
 1836TIP3    H129703   0.939   4.903  18.561
 1836TIP3    H229704   0.975   5.024  18.479
 1837TIP3   OH229705   1.346   4.395  17.322
 1837TIP3    H129706   1.421   4.387  17.383
 1837TIP3    H229707   1.361   4.481  17.279
 1838TIP3   OH229708   0.426   4.847  17.917
 1838TIP3    H129709   0.506   4.891  17.887
 1838TIP3    H229710   0.458   4.776  17.974
 1839TIP3   OH229711   1.093   5.061  17.304
 1839TIP3    H129712   1.040   5.139  17.280
 1839TIP3    H229713   1.025   4.990  17.302
 1840TIP3   OH229714   0.182   4.618  18.426
 1840TIP3    H129715   0.176   4.585  18.517
 1840TIP3    H229716   0.087   4.617  18.402
 1841TIP3   OH229717   0.786   4.636  18.644
 1841TIP3    H129718   0.732   4.577  18.588
 1841TIP3    H229719   0.872   4.588  18.646
 1842TIP3   OH229720   1.294   5.164  18.486
 1842TIP3    H129721   1.218   5.188  18.432
 1842TIP3    H229722   1.269   5.203  18.572
 1843TIP3   OH229723   1.787   4.380  17.373
 1843TIP3    H129724   1.810   4.334  17.290
 1843TIP3    H229725   1.801   4.472  17.340
 1844TIP3   OH229726   1.848   4.958  18.569
 1844TIP3    H129727   1.758   4.973  18.533
 1844TIP3    H229728   1.901   4.954  18.486
 1845TIP3   OH229729   1.651   5.209  17.358
 1845TIP3    H129730   1.607   5.203  17.447
 1845TIP3    H229731   1.597   5.148  17.306
 1846TIP3   OH229732   1.379   4.753  18.057
 1846TIP3    H129733   1.290   4.723  18.032
 1846TIP3    H229734   1.434   4.693  18.003
 1847TIP3   OH229735   0.635   5.198  17.666
 1847TIP3    H129736   0.653   5.291  17.690
 1847TIP3    H229737   0.548   5.203  17.625
 1848TIP3   OH229738   0.232   4.644  17.152
 1848TIP3    H129739   0.284   4.724  17.170
 1848TIP3    H229740   0.161   4.685  17.100
 1849TIP3   OH229741   0.744   4.935  17.614
 1849TIP3    H129742   0.709   5.027  17.613
 1849TIP3    H229743   0.767   4.921  17.706
 1850TIP3   OH229744   0.832   5.344  18.283
 1850TIP3    H129745   0.892   5.410  18.245
 1850TIP3    H229746   0.883   5.308  18.358
 1851TIP3   OH229747   1.137   4.953  18.220
 1851TIP3    H129748   1.093   4.912  18.297
 1851TIP3    H229749   1.211   4.892  18.204
 1852TIP3   OH229750   1.393   5.135  17.216
 1852TIP3    H129751   1.379   5.080  17.295
 1852TIP3    H229752   1.358   5.072  17.150
 1853TIP3   OH229753   1.479   5.420  18.447
 1853TIP3    H129754   1.392   5.380  18.427
 1853TIP3    H229755   1.490   5.480  18.371
 1854TIP3   OH229756   0.278   4.156  18.401
 1854TIP3    H129757   0.245   4.189  18.487
 1854TIP3    H229758   0.245   4.065  18.398
 1855TIP3   OH229759   1.497   4.907  17.379
 1855TIP3    H129760   1.472   4.814  17.394
 1855TIP3    H229761   1.594   4.897  17.373
 1856TIP3   OH229762   0.245   5.337  18.214
 1856TIP3    H129763   0.301   5.260  18.233
 1856TIP3    H229764   0.220   5.362  18.303
 1857TIP3   OH229765   0.697   5.104  17.225
 1857TIP3    H129766   0.774   5.045  17.229
 1857TIP3    H229767   0.734   5.189  17.256
 1858TIP3   OH229768   0.343   4.860  17.290
 1858TIP3    H129769   0.260   4.899  17.324
 1858TIP3    H229770   0.386   4.933  17.242
 1859TIP3   OH229771   1.148   4.113  18.303
 1859TIP3    H129772   1.226   4.127  18.359
 1859TIP3    H229773   1.110   4.030  18.339
 1860TIP3   OH229774   1.255   4.046  17.440
 1860TIP3    H129775   1.273   4.094  17.358
 1860TIP3    H229776   1.269   4.115  17.510
 1861TIP3   OH229777   0.981   5.306  17.269
 1861TIP3    H129778   0.896   5.352  17.286
 1861TIP3    H229779   1.044   5.379  17.258
 1862TIP3   OH229780   0.974   4.236  17.521
 1862TIP3    H129781   1.017   4.317  17.485
 1862TIP3    H229782   0.880   4.247  17.500
 1863TIP3   OH229783   1.034   4.366  18.403
 1863TIP3    H129784   1.039   4.412  18.490
 1863TIP3    H229785   1.063   4.275  18.421
 1864TIP3   OH229786   1.037   3.962  17.605
 1864TIP3    H129787   0.974   4.035  17.589
 1864TIP3    H229788   1.115   4.000  17.560
 1865TIP3   OH229789   0.732   5.401  17.295
 1865TIP3    H129790   0.684   5.448  17.224
 1865TIP3    H229791   0.675   5.424  17.369
 1866TIP3   OH229792   1.581   4.140  18.505
 1866TIP3    H129793   1.488   4.161  18.485
 1866TIP3    H229794   1.625   4.154  18.419
 1867TIP3   OH229795   1.475   4.511  17.897
 1867TIP3    H129796   1.401   4.448  17.894
 1867TIP3    H229797   1.542   4.463  17.950
 1868TIP3   OH229798   0.418   5.070  17.125
 1868TIP3    H129799   0.463   5.090  17.209
 1868TIP3    H229800   0.475   5.120  17.065
 1869TIP3   OH229801   1.545   5.437  18.040
 1869TIP3    H129802   1.542   5.501  17.965
 1869TIP3    H229803   1.641   5.440  18.057
 1870TIP3   OH229804   0.336   3.874  17.937
 1870TIP3    H129805   0.335   3.841  17.846
 1870TIP3    H229806   0.315   3.790  17.986
 1871TIP3   OH229807   0.231   5.238  17.548
 1871TIP3    H129808   0.140   5.263  17.521
 1871TIP3    H229809   0.280   5.312  17.508
 1872TIP3   OH229810   0.164   5.512  18.696
 1872TIP3    H129811   0.219   5.486  18.773
 1872TIP3    H229812   0.102   5.439  18.695
 1873TIP3   OH229813   0.624   5.398  18.835
 1873TIP3    H129814   0.712   5.358  18.843
 1873TIP3    H229815   0.603   5.379  18.741
 1874TIP3   OH229816   1.237   5.262  18.729
 1874TIP3    H129817   1.202   5.176  18.763
 1874TIP3    H229818   1.321   5.268  18.779
 1875TIP3   OH229819   0.200   4.927  18.803
 1875TIP3    H129820   0.207   4.830  18.803
 1875TIP3    H229821   0.108   4.925  18.770
 1876TIP3   OH229822   0.795   4.907  18.700
 1876TIP3    H129823   0.767   4.955  18.619
 1876TIP3    H229824   0.794   4.811  18.674
 1877TIP3   OH229825   1.358   4.883  18.492
 1877TIP3    H129826   1.440   4.936  18.492
 1877TIP3    H229827   1.295   4.957  18.491
 1878TIP3   OH229828   0.227   4.602  18.766
 1878TIP3    H129829   0.302   4.540  18.757
 1878TIP3    H229830   0.244   4.645  18.852
 1879TIP3   OH229831   0.707   4.700  17.253
 1879TIP3    H129832   0.633   4.641  17.269
 1879TIP3    H229833   0.745   4.665  17.171
 1880TIP3   OH229834   0.627   4.522  18.437
 1880TIP3    H129835   0.564   4.597  18.426
 1880TIP3    H229836   0.702   4.560  18.385
 1881TIP3   OH229837   1.146   4.787  18.796
 1881TIP3    H129838   1.202   4.737  18.735
 1881TIP3    H229839   1.108   4.716  18.851
 1882TIP3   OH229840   0.612   4.275  18.521
 1882TIP3    H129841   0.641   4.211  18.454
 1882TIP3    H229842   0.622   4.362  18.476
 1883TIP3   OH229843   0.700   4.072  18.323
 1883TIP3    H129844   0.748   4.119  18.252
 1883TIP3    H229845   0.610   4.066  18.284
 1884TIP3   OH229846   0.848   4.635  18.321
 1884TIP3    H129847   0.935   4.677  18.326
 1884TIP3    H229848   0.792   4.714  18.300
 1885TIP3   OH229849   1.268   4.387  18.823
 1885TIP3    H129850   1.306   4.298  18.813
 1885TIP3    H229851   1.343   4.441  18.851
 1886TIP3   OH229852   1.435   4.697  18.673
 1886TIP3    H129853   1.396   4.754  18.604
 1886TIP3    H229854   1.529   4.700  18.647
 1887TIP3   OH229855   0.449   4.392  18.719
 1887TIP3    H129856   0.399   4.311  18.744
 1887TIP3    H229857   0.509   4.356  18.650
 1888TIP3   OH229858   0.775   3.822  18.342
 1888TIP3    H129859   0.756   3.917  18.331
 1888TIP3    H229860   0.693   3.784  18.306
 1889TIP3   OH229861   0.895   4.261  18.741
 1889TIP3    H129862   0.855   4.234  18.825
 1889TIP3    H229863   0.826   4.235  18.678
 1890TIP3   OH229864   1.157   4.160  18.659
 1890TIP3    H129865   1.071   4.174  18.704
 1890TIP3    H229866   1.201   4.102  18.726
 1891TIP3   OH229867   1.327   4.032  18.827
 1891TIP3    H129868   1.318   3.934  18.823
 1891TIP3    H229869   1.314   4.051  18.922
 1892TIP3   OH229870   0.309   4.166  18.771
 1892TIP3    H129871   0.338   4.089  18.718
 1892TIP3    H229872   0.271   4.121  18.851
 1893TIP3   OH229873   0.782   3.774  18.644
 1893TIP3    H129874   0.858   3.713  18.649
 1893TIP3    H229875   0.771   3.777  18.547
 1894TIP3   OH229876   0.786   3.913  18.884
 1894TIP3    H129877   0.781   3.861  18.800
 1894TIP3    H229878   0.742   3.997  18.859
 1895TIP3   OH229879   0.102   5.062  17.136
 1895TIP3    H129880   0.196   5.083  17.120
 1895TIP3    H229881   0.097   4.978  17.085
 1896TIP3   OH229882   0.078   5.627  17.594
 1896TIP3    H129883  -0.018   5.636  17.604
 1896TIP3    H229884   0.095   5.568  17.670
 1897TIP3   OH229885   0.118   5.453  17.818
 1897TIP3    H129886   0.165   5.371  17.794
 1897TIP3    H229887   0.175   5.489  17.888
 1898TIP3   OH229888   1.819   5.508  18.084
 1898TIP3    H129889   1.886   5.511  18.153
 1898TIP3    H229890   1.861   5.551  18.009
 1899TIP3   OH229891   1.811   5.463  18.407
 1899TIP3    H129892   1.771   5.409  18.336
 1899TIP3    H229893   1.806   5.397  18.479
 1900TIP3   OH229894   1.657   5.023  18.859
 1900TIP3    H129895   1.565   5.024  18.894
 1900TIP3    H229896   1.698   5.093  18.914
 1901TIP3   OH229897   1.772   4.864  17.369
 1901TIP3    H129898   1.850   4.924  17.377
 1901TIP3    H229899   1.774   4.820  17.456
 1902TIP3   OH229900   1.814   4.690  17.582
 1902TIP3    H129901   1.733   4.644  17.614
 1902TIP3    H229902   1.866   4.690  17.663
 1903TIP3   OH229903   1.793   4.967  18.073
 1903TIP3    H129904   1.851   4.891  18.050
 1903TIP3    H229905   1.848   5.044  18.051
 1904TIP3   OH229906   1.654   5.239  18.297
 1904TIP3    H129907   1.574   5.265  18.345
 1904TIP3    H229908   1.615   5.216  18.209
 1905TIP3   OH229909   1.843   4.588  17.229
 1905TIP3    H129910   1.777   4.626  17.168
 1905TIP3    H229911   1.860   4.664  17.287
 1906TIP3   OH229912   1.654   4.404  17.079
 1906TIP3    H129913   1.664   4.480  17.020
 1906TIP3    H229914   1.742   4.397  17.121
 1907TIP3   OH229915   1.610   4.549  17.661
 1907TIP3    H129916   1.589   4.458  17.630
 1907TIP3    H229917   1.583   4.546  17.755
 1908TIP3   OH229918   0.153   4.815  18.043
 1908TIP3    H129919   0.166   4.767  17.960
 1908TIP3    H229920   0.233   4.787  18.091
 1909TIP3   OH229921   1.710   4.723  18.604
 1909TIP3    H129922   1.764   4.644  18.624
 1909TIP3    H229923   1.776   4.797  18.597
 1910TIP3   OH229924   1.818   4.475  18.651
 1910TIP3    H129925   1.724   4.445  18.638
 1910TIP3    H229926   1.868   4.390  18.658
 1911TIP3   OH229927   1.569   4.316  17.507
 1911TIP3    H129928   1.589   4.222  17.521
 1911TIP3    H229929   1.648   4.338  17.452
 1912TIP3   OH229930   1.656   4.355  18.034
 1912TIP3    H129931   1.755   4.361  18.041
 1912TIP3    H229932   1.631   4.359  18.128
 1913TIP3   OH229933   1.655   4.427  18.299
 1913TIP3    H129934   1.571   4.454  18.342
 1913TIP3    H229935   1.695   4.513  18.274
 1914TIP3   OH229936   0.117   4.242  18.597
 1914TIP3    H129937   0.192   4.264  18.656
 1914TIP3    H229938   0.111   4.145  18.605
 1915TIP3   OH229939   1.876   3.860  18.825
 1915TIP3    H129940   1.917   3.787  18.774
 1915TIP3    H229941   1.864   3.928  18.754
 1916TIP3   OH229942   1.635   3.956  17.484
 1916TIP3    H129943   1.658   3.964  17.579
 1916TIP3    H229944   1.549   3.911  17.483
 1917TIP3   OH229945   0.152   4.082  18.009
 1917TIP3    H129946   0.216   4.007  18.000
 1917TIP3    H229947   0.211   4.160  18.009
 1918TIP3   OH229948   0.101   4.413  18.020
 1918TIP3    H129949   0.149   4.397  17.938
 1918TIP3    H229950   0.084   4.508  18.019
 1919TIP3   OH229951   1.804   4.050  18.664
 1919TIP3    H129952   1.727   4.109  18.676
 1919TIP3    H229953   1.776   4.002  18.583
 1920TIP3   OH229954   0.093   4.081  17.503
 1920TIP3    H129955   0.001   4.063  17.472
 1920TIP3    H229956   0.144   4.088  17.421
 1921TIP3   OH229957   1.534   5.527  17.657
 1921TIP3    H129958   1.591   5.509  17.579
 1921TIP3    H229959   1.594   5.567  17.722
 1922TIP3   OH229960   0.061   3.857  18.293
 1922TIP3    H129961  -0.031   3.822  18.296
 1922TIP3    H229962   0.049   3.934  18.235
 1923TIP3   OH229963   0.275   5.196  18.714
 1923TIP3    H129964   0.211   5.227  18.650
 1923TIP3    H229965   0.225   5.132  18.767
 1924TIP3   OH229966   0.566   5.349  18.348
 1924TIP3    H129967   0.563   5.440  18.312
 1924TIP3    H229968   0.662   5.331  18.346
 1925TIP3   OH229969   0.970   5.487  18.599
 1925TIP3    H129970   0.981   5.455  18.691
 1925TIP3    H229971   1.062   5.508  18.577
 1926TIP3   OH229972   1.210   5.616  18.553
 1926TIP3    H129973   1.286   5.567  18.522
 1926TIP3    H229974   1.240   5.646  18.642
 1927TIP3   OH229975   1.734   3.814  18.477
 1927TIP3    H129976   1.664   3.859  18.428
 1927TIP3    H229977   1.739   3.727  18.433
 1928TIP3   OH229978   0.313   5.662  18.345
 1928TIP3    H129979   0.226   5.686  18.308
 1928TIP3    H229980   0.293   5.653  18.440
 1929TIP3   OH229981   0.539   5.612  18.214
 1929TIP3    H129982   0.448   5.608  18.253
 1929TIP3    H229983   0.523   5.691  18.160
 1930TIP3   OH229984   0.993   5.560  18.151
 1930TIP3    H129985   1.006   5.608  18.068
 1930TIP3    H229986   1.013   5.631  18.216
 1931TIP3   OH229987   1.213   5.432  18.298
 1931TIP3    H129988   1.144   5.474  18.243
 1931TIP3    H229989   1.287   5.491  18.274
 1932TIP3   OH229990   1.502   5.592  18.248
 1932TIP3    H129991   1.495   5.679  18.204
 1932TIP3    H229992   1.513   5.536  18.168
 1933TIP3   OH229993   0.311   5.553  18.027
 1933TIP3    H129994   0.283   5.481  18.085
 1933TIP3    H229995   0.375   5.506  17.968
 1934TIP3   OH229996   0.452   5.387  17.878
 1934TIP3    H129997   0.418   5.299  17.897
 1934TIP3    H229998   0.538   5.386  17.923
 1935TIP3   OH229999   0.695   5.373  18.010
 1935TIP3    H130000   0.733   5.285  17.999
 1935TIP3    H230001   0.722   5.393  18.101
 1936TIP3   OH230002   1.104   3.947  17.914
 1936TIP3    H130003   1.018   3.967  17.953
 1936TIP3    H230004   1.076   3.917  17.826
 1937TIP3   OH230005   1.585   3.777  17.892
 1937TIP3    H130006   1.646   3.835  17.839
 1937TIP3    H230007   1.496   3.799  17.855
 1938TIP3   OH230008   1.748   3.901  17.728
 1938TIP3    H130009   1.813   3.840  17.685
 1938TIP3    H230010   1.808   3.978  17.745
 1939TIP3   OH230011   0.240   3.837  17.216
 1939TIP3    H130012   0.172   3.867  17.156
 1939TIP3    H230013   0.189   3.827  17.298
 1940TIP3   OH230014   0.753   3.755  17.682
 1940TIP3    H130015   0.825   3.789  17.627
 1940TIP3    H230016   0.690   3.829  17.679
 1941TIP3   OH230017   1.340   3.834  17.765
 1941TIP3    H130018   1.282   3.867  17.696
 1941TIP3    H230019   1.283   3.761  17.799
 1942TIP3   OH230020   1.402   3.820  17.350
 1942TIP3    H130021   1.338   3.880  17.394
 1942TIP3    H230022   1.370   3.732  17.380
 1943TIP3   OH230023   0.144   5.421  17.375
 1943TIP3    H130024   0.079   5.481  17.335
 1943TIP3    H230025   0.219   5.483  17.387
 1944TIP3   OH230026   1.708   5.453  17.468
 1944TIP3    H130027   1.696   5.377  17.407
 1944TIP3    H230028   1.687   5.528  17.407
 1945TIP3   OH230029   0.247   3.893  18.634
 1945TIP3    H130030   0.199   3.806  18.638
 1945TIP3    H230031   0.334   3.867  18.671
 1946TIP3   OH230032   0.483   3.842  18.816
 1946TIP3    H130033   0.575   3.823  18.791
 1946TIP3    H230034   0.459   3.756  18.856
 1947TIP3   OH230035   1.316   3.764  18.803
 1947TIP3    H130036   1.324   3.704  18.880
 1947TIP3    H230037   1.410   3.764  18.772
 1948TIP3   OH230038   1.656   5.382  18.643
 1948TIP3    H130039   1.597   5.379  18.564
 1948TIP3    H230040   1.621   5.461  18.686
 1949TIP3   OH230041   3.096   4.744  17.634
 1949TIP3    H130042   3.091   4.839  17.652
 1949TIP3    H230043   3.025   4.734  17.567
 1950TIP3   OH230044   2.987   4.655  17.998
 1950TIP3    H130045   2.984   4.610  18.086
 1950TIP3    H230046   2.922   4.607  17.944
 1951TIP3   OH230047   2.186   4.635  18.155
 1951TIP3    H130048   2.193   4.568  18.226
 1951TIP3    H230049   2.269   4.683  18.165
 1952TIP3   OH230050   3.321   4.934  17.863
 1952TIP3    H130051   3.307   4.880  17.942
 1952TIP3    H230052   3.332   5.021  17.906
 1953TIP3   OH230053   2.294   5.113  17.977
 1953TIP3    H130054   2.256   5.026  17.953
 1953TIP3    H230055   2.387   5.094  17.956
 1954TIP3   OH230056   1.963   4.444  17.578
 1954TIP3    H130057   1.939   4.535  17.559
 1954TIP3    H230058   1.892   4.397  17.530
 1955TIP3   OH230059   2.023   4.675  17.804
 1955TIP3    H130060   2.070   4.591  17.829
 1955TIP3    H230061   2.082   4.715  17.739
 1956TIP3   OH230062   3.042   5.478  17.844
 1956TIP3    H130063   3.130   5.472  17.803
 1956TIP3    H230064   3.037   5.399  17.900
 1957TIP3   OH230065   2.781   4.943  18.104
 1957TIP3    H130066   2.800   4.903  18.018
 1957TIP3    H230067   2.871   4.961  18.138
 1958TIP3   OH230068   3.663   4.049  18.107
 1958TIP3    H130069   3.675   4.122  18.171
 1958TIP3    H230070   3.729   4.072  18.039
 1959TIP3   OH230071   3.162   4.378  18.102
 1959TIP3    H130072   3.194   4.286  18.112
 1959TIP3    H230073   3.081   4.362  18.051
 1960TIP3   OH230074   2.447   4.146  17.774
 1960TIP3    H130075   2.457   4.233  17.730
 1960TIP3    H230076   2.398   4.098  17.704
 1961TIP3   OH230077   2.108   4.428  17.879
 1961TIP3    H130078   2.168   4.372  17.932
 1961TIP3    H230079   2.122   4.388  17.791
 1962TIP3   OH230080   2.613   4.566  17.823
 1962TIP3    H130081   2.691   4.509  17.812
 1962TIP3    H230082   2.543   4.503  17.792
 1963TIP3   OH230083   3.674   4.202  18.330
 1963TIP3    H130084   3.642   4.289  18.295
 1963TIP3    H230085   3.697   4.227  18.420
 1964TIP3   OH230086   2.343   4.062  18.214
 1964TIP3    H130087   2.307   4.111  18.137
 1964TIP3    H230088   2.282   4.091  18.286
 1965TIP3   OH230089   3.047   5.027  17.577
 1965TIP3    H130090   3.001   5.008  17.494
 1965TIP3    H230091   3.022   5.120  17.595
 1966TIP3   OH230092   2.552   4.828  18.188
 1966TIP3    H130093   2.494   4.896  18.230
 1966TIP3    H230094   2.622   4.885  18.149
 1967TIP3   OH230095   2.302   4.257  17.995
 1967TIP3    H130096   2.369   4.314  18.042
 1967TIP3    H230097   2.353   4.229  17.914
 1968TIP3   OH230098   2.434   5.059  18.295
 1968TIP3    H130099   2.417   5.136  18.240
 1968TIP3    H230100   2.349   5.052  18.345
 1969TIP3   OH230101   2.012   5.018  17.379
 1969TIP3    H130102   2.069   5.075  17.325
 1969TIP3    H230103   2.040   5.048  17.468
 1970TIP3   OH230104   3.397   5.166  18.066
 1970TIP3    H130105   3.302   5.181  18.087
 1970TIP3    H230106   3.411   5.249  18.016
 1971TIP3   OH230107   3.447   3.936  18.256
 1971TIP3    H130108   3.363   3.975  18.228
 1971TIP3    H230109   3.508   3.964  18.184
 1972TIP3   OH230110   2.708   3.820  17.941
 1972TIP3    H130111   2.675   3.729  17.951
 1972TIP3    H230112   2.628   3.870  17.974
 1973TIP3   OH230113   3.271   5.373  17.718
 1973TIP3    H130114   3.268   5.278  17.694
 1973TIP3    H230115   3.269   5.411  17.629
 1974TIP3   OH230116   3.358   5.119  17.588
 1974TIP3    H130117   3.314   5.084  17.509
 1974TIP3    H230118   3.337   5.052  17.655
 1975TIP3   OH230119   3.492   5.003  18.448
 1975TIP3    H130120   3.515   4.931  18.384
 1975TIP3    H230121   3.503   5.082  18.389
 1976TIP3   OH230122   2.930   4.670  17.422
 1976TIP3    H130123   2.883   4.747  17.381
 1976TIP3    H230124   3.005   4.659  17.361
 1977TIP3   OH230125   3.702   4.641  18.225
 1977TIP3    H130126   3.646   4.719  18.240
 1977TIP3    H230127   3.756   4.675  18.151
 1978TIP3   OH230128   3.336   4.710  17.519
 1978TIP3    H130129   3.242   4.710  17.552
 1978TIP3    H230130   3.383   4.721  17.602
 1979TIP3   OH230131   3.305   4.511  18.422
 1979TIP3    H130132   3.326   4.599  18.456
 1979TIP3    H230133   3.232   4.534  18.360
 1980TIP3   OH230134   2.457   4.743  17.676
 1980TIP3    H130135   2.431   4.703  17.589
 1980TIP3    H230136   2.525   4.681  17.709
 1981TIP3   OH230137   2.596   5.098  17.957
 1981TIP3    H130138   2.613   5.083  17.862
 1981TIP3    H230139   2.676   5.061  17.999
 1982TIP3   OH230140   2.473   4.627  18.049
 1982TIP3    H130141   2.518   4.625  17.961
 1982TIP3    H230142   2.521   4.699  18.096
 1983TIP3   OH230143   3.148   5.214  18.142
 1983TIP3    H130144   3.107   5.287  18.192
 1983TIP3    H230145   3.105   5.137  18.184
 1984TIP3   OH230146   2.604   5.097  18.497
 1984TIP3    H130147   2.529   5.139  18.547
 1984TIP3    H230148   2.558   5.080  18.412
 1985TIP3   OH230149   3.170   4.649  17.275
 1985TIP3    H130150   3.251   4.677  17.320
 1985TIP3    H230151   3.174   4.701  17.193
 1986TIP3   OH230152   2.290   4.690  18.440
 1986TIP3    H130153   2.293   4.783  18.464
 1986TIP3    H230154   2.223   4.660  18.503
 1987TIP3   OH230155   2.991   5.294  17.645
 1987TIP3    H130156   3.001   5.372  17.703
 1987TIP3    H230157   2.925   5.325  17.581
 1988TIP3   OH230158   2.417   5.250  18.611
 1988TIP3    H130159   2.407   5.291  18.523
 1988TIP3    H230160   2.322   5.238  18.633
 1989TIP3   OH230161   2.318   4.649  17.465
 1989TIP3    H130162   2.297   4.737  17.425
 1989TIP3    H230163   2.281   4.590  17.398
 1990TIP3   OH230164   3.650   5.245  17.096
 1990TIP3    H130165   3.629   5.269  17.189
 1990TIP3    H230166   3.725   5.185  17.103
 1991TIP3   OH230167   1.983   4.928  18.345
 1991TIP3    H130168   1.944   4.922  18.256
 1991TIP3    H230169   2.023   4.839  18.354
 1992TIP3   OH230170   1.977   5.186  18.028
 1992TIP3    H130171   2.072   5.180  18.017
 1992TIP3    H230172   1.971   5.262  18.088
 1993TIP3   OH230173   3.761   5.257  18.626
 1993TIP3    H130174   3.748   5.164  18.605
 1993TIP3    H230175   3.669   5.282  18.651
 1994TIP3   OH230176   2.851   5.195  18.492
 1994TIP3    H130177   2.862   5.268  18.556
 1994TIP3    H230178   2.756   5.168  18.501
 1995TIP3   OH230179   2.255   5.466  17.659
 1995TIP3    H130180   2.294   5.438  17.744
 1995TIP3    H230181   2.175   5.409  17.656
 1996TIP3   OH230182   3.451   4.388  18.635
 1996TIP3    H130183   3.403   4.427  18.559
 1996TIP3    H230184   3.462   4.295  18.603
 1997TIP3   OH230185   2.205   5.047  18.435
 1997TIP3    H130186   2.203   5.016  18.528
 1997TIP3    H230187   2.116   5.019  18.403
 1998TIP3   OH230188   2.476   3.918  18.036
 1998TIP3    H130189   2.386   3.907  17.998
 1998TIP3    H230190   2.449   3.963  18.119
 1999TIP3   OH230191   2.959   3.865  18.355
 1999TIP3    H130192   2.990   3.820  18.437
 1999TIP3    H230193   2.860   3.859  18.363
 2000TIP3   OH230194   3.229   4.257  18.471
 2000TIP3    H130195   3.176   4.243  18.554
 2000TIP3    H230196   3.253   4.352  18.472
 2001TIP3   OH230197   2.912   4.102  17.127
 2001TIP3    H130198   2.854   4.059  17.191
 2001TIP3    H230199   2.850   4.142  17.063
 2002TIP3   OH230200   2.480   4.381  18.155
 2002TIP3    H130201   2.402   4.386  18.214
 2002TIP3    H230202   2.479   4.475  18.122
 2003TIP3   OH230203   2.461   4.389  17.670
 2003TIP3    H130204   2.365   4.389  17.648
 2003TIP3    H230205   2.500   4.363  17.583
 2004TIP3   OH230206   2.907   4.489  18.666
 2004TIP3    H130207   2.869   4.404  18.695
 2004TIP3    H230208   2.984   4.493  18.725
 2005TIP3   OH230209   2.245   4.389  18.285
 2005TIP3    H130210   2.262   4.427  18.372
 2005TIP3    H230211   2.202   4.305  18.311
 2006TIP3   OH230212   1.901   4.118  17.739
 2006TIP3    H130213   1.966   4.124  17.812
 2006TIP3    H230214   1.949   4.158  17.665
 2007TIP3   OH230215   3.036   4.567  18.247
 2007TIP3    H130216   3.093   4.501  18.200
 2007TIP3    H230217   2.985   4.510  18.309
 2008TIP3   OH230218   2.725   4.167  17.773
 2008TIP3    H130219   2.630   4.150  17.791
 2008TIP3    H230220   2.773   4.097  17.821
 2009TIP3   OH230221   2.191   4.303  17.636
 2009TIP3    H130222   2.131   4.355  17.578
 2009TIP3    H230223   2.229   4.237  17.574
 2010TIP3   OH230224   2.526   4.333  17.414
 2010TIP3    H130225   2.621   4.333  17.434
 2010TIP3    H230226   2.518   4.400  17.343
 2011TIP3   OH230227   3.164   4.093  18.078
 2011TIP3    H130228   3.101   4.099  18.152
 2011TIP3    H230229   3.127   4.023  18.022
 2012TIP3   OH230230   2.444   4.463  17.153
 2012TIP3    H130231   2.369   4.408  17.129
 2012TIP3    H230232   2.513   4.443  17.089
 2013TIP3   OH230233   3.452   5.673  18.703
 2013TIP3    H130234   3.480   5.714  18.620
 2013TIP3    H230235   3.535   5.678  18.754
 2014TIP3   OH230236   2.211   4.914  18.675
 2014TIP3    H130237   2.296   4.916  18.721
 2014TIP3    H230238   2.151   4.872  18.740
 2015TIP3   OH230239   2.889   4.365  17.952
 2015TIP3    H130240   2.843   4.287  17.916
 2015TIP3    H230241   2.830   4.382  18.027
 2016TIP3   OH230242   2.303   4.046  17.560
 2016TIP3    H130243   2.245   3.982  17.608
 2016TIP3    H230244   2.355   3.984  17.507
 2017TIP3   OH230245   2.714   4.251  18.176
 2017TIP3    H130246   2.634   4.309  18.176
 2017TIP3    H230247   2.775   4.299  18.232
 2018TIP3   OH230248   2.794   4.889  17.334
 2018TIP3    H130249   2.718   4.866  17.281
 2018TIP3    H230250   2.753   4.938  17.408
 2019TIP3   OH230251   3.511   4.841  18.246
 2019TIP3    H130252   3.562   4.887  18.176
 2019TIP3    H230253   3.423   4.840  18.205
 2020TIP3   OH230254   2.888   4.932  18.462
 2020TIP3    H130255   2.869   4.898  18.549
 2020TIP3    H230256   2.879   5.029  18.476
 2021TIP3   OH230257   2.282   4.845  17.893
 2021TIP3    H130258   2.320   4.820  17.806
 2021TIP3    H230259   2.318   4.777  17.953
 2022TIP3   OH230260   2.000   4.669  18.439
 2022TIP3    H130261   1.976   4.624  18.523
 2022TIP3    H230262   1.939   4.629  18.374
 2023TIP3   OH230263   2.674   4.637  18.644
 2023TIP3    H130264   2.625   4.573  18.589
 2023TIP3    H230265   2.763   4.594  18.648
 2024TIP3   OH230266   3.176   5.149  18.505
 2024TIP3    H130267   3.094   5.152  18.455
 2024TIP3    H230268   3.152   5.202  18.584
 2025TIP3   OH230269   3.734   4.962  18.576
 2025TIP3    H130270   3.643   4.981  18.542
 2025TIP3    H230271   3.786   4.960  18.492
 2026TIP3   OH230272   3.539   5.252  17.358
 2026TIP3    H130273   3.523   5.208  17.444
 2026TIP3    H230274   3.465   5.218  17.307
 2027TIP3   OH230275   3.263   4.747  18.062
 2027TIP3    H130276   3.170   4.728  18.041
 2027TIP3    H230277   3.306   4.669  18.024
 2028TIP3   OH230278   2.507   5.191  17.658
 2028TIP3    H130279   2.543   5.279  17.636
 2028TIP3    H230280   2.426   5.193  17.605
 2029TIP3   OH230281   2.131   4.675  17.155
 2029TIP3    H130282   2.111   4.750  17.094
 2029TIP3    H230283   2.046   4.630  17.148
 2030TIP3   OH230284   2.676   4.973  17.596
 2030TIP3    H130285   2.612   5.047  17.604
 2030TIP3    H230286   2.638   4.902  17.648
 2031TIP3   OH230287   2.707   5.351  18.295
 2031TIP3    H130288   2.775   5.413  18.263
 2031TIP3    H230289   2.757   5.304  18.365
 2032TIP3   OH230290   2.557   5.458  17.576
 2032TIP3    H130291   2.462   5.454  17.595
 2032TIP3    H230292   2.579   5.546  17.611
 2033TIP3   OH230293   3.022   4.959  18.225
 2033TIP3    H130294   2.977   4.933  18.309
 2033TIP3    H230295   3.082   4.884  18.214
 2034TIP3   OH230296   3.357   5.407  18.447
 2034TIP3    H130297   3.268   5.371  18.432
 2034TIP3    H230298   3.363   5.477  18.378
 2035TIP3   OH230299   2.175   4.140  18.413
 2035TIP3    H130300   2.110   4.187  18.468
 2035TIP3    H230301   2.167   4.050  18.450
 2036TIP3   OH230302   3.392   4.927  17.369
 2036TIP3    H130303   3.363   4.845  17.411
 2036TIP3    H230304   3.489   4.915  17.363
 2037TIP3   OH230305   2.111   5.320  18.232
 2037TIP3    H130306   2.173   5.246  18.239
 2037TIP3    H230307   2.120   5.358  18.320
 2038TIP3   OH230308   2.565   5.156  17.244
 2038TIP3    H130309   2.663   5.156  17.241
 2038TIP3    H230310   2.548   5.250  17.214
 2039TIP3   OH230311   2.273   4.879  17.307
 2039TIP3    H130312   2.179   4.874  17.285
 2039TIP3    H230313   2.298   4.960  17.258
 2040TIP3   OH230314   3.020   4.145  18.302
 2040TIP3    H130315   3.093   4.172  18.361
 2040TIP3    H230316   3.000   4.055  18.336
 2041TIP3   OH230317   2.833   5.325  17.314
 2041TIP3    H130318   2.758   5.381  17.290
 2041TIP3    H230319   2.885   5.324  17.233
 2042TIP3   OH230320   2.767   4.262  17.500
 2042TIP3    H130321   2.858   4.289  17.488
 2042TIP3    H230322   2.765   4.216  17.587
 2043TIP3   OH230323   2.900   4.386  18.401
 2043TIP3    H130324   2.915   4.411  18.495
 2043TIP3    H230325   2.938   4.296  18.394
 2044TIP3   OH230326   2.887   3.974  17.553
 2044TIP3    H130327   2.844   3.990  17.639
 2044TIP3    H230328   2.980   3.990  17.575
 2045TIP3   OH230329   2.459   4.081  17.270
 2045TIP3    H130330   2.448   4.163  17.320
 2045TIP3    H230331   2.554   4.063  17.288
 2046TIP3   OH230332   3.470   4.144  18.502
 2046TIP3    H130333   3.377   4.164  18.477
 2046TIP3    H230334   3.516   4.143  18.416
 2047TIP3   OH230335   2.287   5.126  17.167
 2047TIP3    H130336   2.370   5.158  17.210
 2047TIP3    H230337   2.321   5.101  17.080
 2048TIP3   OH230338   3.442   5.451  18.053
 2048TIP3    H130339   3.444   5.515  17.978
 2048TIP3    H230340   3.538   5.442  18.069
 2049TIP3   OH230341   2.209   3.867  17.976
 2049TIP3    H130342   2.209   3.857  17.879
 2049TIP3    H230343   2.187   3.774  18.003
 2050TIP3   OH230344   2.082   5.267  17.528
 2050TIP3    H130345   1.993   5.303  17.535
 2050TIP3    H230346   2.113   5.308  17.445
 2051TIP3   OH230347   2.008   5.523  18.695
 2051TIP3    H130348   2.078   5.509  18.764
 2051TIP3    H230349   1.987   5.428  18.679
 2052TIP3   OH230350   2.496   5.403  18.836
 2052TIP3    H130351   2.583   5.369  18.862
 2052TIP3    H230352   2.486   5.365  18.746
 2053TIP3   OH230353   3.130   5.273  18.736
 2053TIP3    H130354   3.093   5.186  18.765
 2053TIP3    H230355   3.215   5.274  18.786
 2054TIP3   OH230356   3.368   5.352  17.043
 2054TIP3    H130357   3.307   5.276  17.047
 2054TIP3    H230358   3.451   5.314  17.075
 2055TIP3   OH230359   1.973   4.903  18.816
 2055TIP3    H130360   1.934   4.814  18.809
 2055TIP3    H230361   1.956   4.936  18.725
 2056TIP3   OH230362   2.656   4.903  18.686
 2056TIP3    H130363   2.646   4.949  18.600
 2056TIP3    H230364   2.651   4.807  18.662
 2057TIP3   OH230365   3.241   4.875  18.487
 2057TIP3    H130366   3.332   4.912  18.496
 2057TIP3    H230367   3.194   4.960  18.490
 2058TIP3   OH230368   2.125   4.622  18.754
 2058TIP3    H130369   2.181   4.544  18.749
 2058TIP3    H230370   2.148   4.658  18.842
 2059TIP3   OH230371   2.476   4.510  18.431
 2059TIP3    H130372   2.414   4.587  18.433
 2059TIP3    H230373   2.551   4.549  18.382
 2060TIP3   OH230374   3.029   4.798  18.798
 2060TIP3    H130375   3.084   4.743  18.741
 2060TIP3    H230376   3.001   4.734  18.867
 2061TIP3   OH230377   3.599   4.788  17.000
 2061TIP3    H130378   3.545   4.740  16.935
 2061TIP3    H230379   3.532   4.810  17.066
 2062TIP3   OH230380   2.546   4.265  18.525
 2062TIP3    H130381   2.557   4.195  18.457
 2062TIP3    H230382   2.518   4.344  18.473
 2063TIP3   OH230383   2.583   4.068  18.330
 2063TIP3    H130384   2.628   4.119  18.258
 2063TIP3    H230385   2.491   4.062  18.297
 2064TIP3   OH230386   2.693   4.646  18.321
 2064TIP3    H130387   2.784   4.678  18.324
 2064TIP3    H230388   2.647   4.719  18.275
 2065TIP3   OH230389   3.157   4.389  18.834
 2065TIP3    H130390   3.187   4.298  18.813
 2065TIP3    H230391   3.238   4.437  18.856
 2066TIP3   OH230392   3.323   4.709  18.680
 2066TIP3    H130393   3.280   4.760  18.608
 2066TIP3    H230394   3.417   4.710  18.654
 2067TIP3   OH230395   2.398   4.348  18.739
 2067TIP3    H130396   2.314   4.302  18.719
 2067TIP3    H230397   2.455   4.311  18.668
 2068TIP3   OH230398   2.688   3.827  18.331
 2068TIP3    H130399   2.653   3.919  18.341
 2068TIP3    H230400   2.609   3.785  18.295
 2069TIP3   OH230401   2.769   4.257  18.744
 2069TIP3    H130402   2.711   4.234  18.820
 2069TIP3    H230403   2.707   4.243  18.671
 2070TIP3   OH230404   3.049   4.180  18.656
 2070TIP3    H130405   2.956   4.190  18.682
 2070TIP3    H230406   3.081   4.120  18.728
 2071TIP3   OH230407   3.194   4.033  18.820
 2071TIP3    H130408   3.200   3.936  18.818
 2071TIP3    H230409   3.188   4.051  18.916
 2072TIP3   OH230410   2.185   4.165  18.753
 2072TIP3    H130411   2.184   4.087  18.696
 2072TIP3    H230412   2.162   4.128  18.842
 2073TIP3   OH230413   2.650   3.791  18.617
 2073TIP3    H130414   2.722   3.731  18.644
 2073TIP3    H230415   2.661   3.787  18.520
 2074TIP3   OH230416   2.663   3.913  18.889
 2074TIP3    H130417   2.655   3.888  18.795
 2074TIP3    H230418   2.635   4.007  18.889
 2075TIP3   OH230419   1.887   5.608  17.612
 2075TIP3    H130420   1.817   5.549  17.576
 2075TIP3    H230421   1.924   5.552  17.684
 2076TIP3   OH230422   1.981   5.440  17.801
 2076TIP3    H130423   1.922   5.365  17.817
 2076TIP3    H230424   2.046   5.438  17.874
 2077TIP3   OH230425   3.723   5.512  18.085
 2077TIP3    H130426   3.743   5.506  18.180
 2077TIP3    H230427   3.792   5.575  18.058
 2078TIP3   OH230428   3.670   5.456  18.370
 2078TIP3    H130429   3.636   5.376  18.323
 2078TIP3    H230430   3.692   5.417  18.456
 2079TIP3   OH230431   3.553   5.029  18.859
 2079TIP3    H130432   3.458   5.033  18.881
 2079TIP3    H230433   3.585   5.109  18.905
 2080TIP3   OH230434   3.683   4.861  17.381
 2080TIP3    H130435   3.776   4.892  17.387
 2080TIP3    H230436   3.674   4.807  17.462
 2081TIP3   OH230437   3.691   4.683  17.589
 2081TIP3    H130438   3.627   4.642  17.649
 2081TIP3    H230439   3.766   4.701  17.650
 2082TIP3   OH230440   3.672   4.943  18.065
 2082TIP3    H130441   3.749   4.887  18.042
 2082TIP3    H230442   3.698   5.032  18.034
 2083TIP3   OH230443   3.535   5.233  18.296
 2083TIP3    H130444   3.463   5.278  18.344
 2083TIP3    H230445   3.491   5.210  18.210
 2084TIP3   OH230446   3.748   4.662  17.194
 2084TIP3    H130447   3.703   4.696  17.115
 2084TIP3    H230448   3.733   4.735  17.257
 2085TIP3   OH230449   1.981   4.762  18.056
 2085TIP3    H130450   1.983   4.737  17.961
 2085TIP3    H230451   2.068   4.727  18.085
 2086TIP3   OH230452   3.593   4.725  18.607
 2086TIP3    H130453   3.641   4.639  18.621
 2086TIP3    H230454   3.664   4.791  18.593
 2087TIP3   OH230455   3.696   4.477  18.645
 2087TIP3    H130456   3.602   4.450  18.634
 2087TIP3    H230457   3.744   4.392  18.659
 2088TIP3   OH230458   3.538   4.371  18.029
 2088TIP3    H130459   3.635   4.382  18.031
 2088TIP3    H230460   3.518   4.352  18.122
 2089TIP3   OH230461   3.544   4.426  18.304
 2089TIP3    H130462   3.455   4.459  18.324
 2089TIP3    H230463   3.589   4.509  18.273
 2090TIP3   OH230464   1.966   4.257  18.638
 2090TIP3    H130465   2.050   4.253  18.688
 2090TIP3    H230466   1.921   4.177  18.670
 2091TIP3   OH230467   3.763   3.857  18.834
 2091TIP3    H130468   3.797   3.778  18.789
 2091TIP3    H230469   3.752   3.920  18.758
 2092TIP3   OH230470   2.059   4.102  18.005
 2092TIP3    H130471   2.097   4.012  18.004
 2092TIP3    H230472   2.137   4.158  17.992
 2093TIP3   OH230473   1.920   4.399  18.067
 2093TIP3    H130474   1.981   4.379  17.993
 2093TIP3    H230475   1.963   4.481  18.099
 2094TIP3   OH230476   3.693   4.050  18.654
 2094TIP3    H130477   3.612   4.100  18.677
 2094TIP3    H230478   3.660   4.001  18.576
 2095TIP3   OH230479   1.950   4.037  17.455
 2095TIP3    H130480   1.861   4.005  17.475
 2095TIP3    H230481   1.942   4.078  17.368
 2096TIP3   OH230482   1.934   3.888  18.291
 2096TIP3    H130483   1.878   3.850  18.361
 2096TIP3    H230484   1.871   3.939  18.237
 2097TIP3   OH230485   2.149   5.215  18.682
 2097TIP3    H130486   2.061   5.222  18.641
 2097TIP3    H230487   2.134   5.153  18.754
 2098TIP3   OH230488   2.446   5.364  18.364
 2098TIP3    H130489   2.452   5.449  18.317
 2098TIP3    H230490   2.539   5.335  18.357
 2099TIP3   OH230491   2.852   5.463  18.604
 2099TIP3    H130492   2.863   5.436  18.698
 2099TIP3    H230493   2.944   5.493  18.585
 2100TIP3   OH230494   3.086   5.585  18.566
 2100TIP3    H130495   3.160   5.566  18.508
 2100TIP3    H230496   3.128   5.632  18.641
 2101TIP3   OH230497   3.601   3.833  18.462
 2101TIP3    H130498   3.536   3.879  18.405
 2101TIP3    H230499   3.606   3.747  18.415
 2102TIP3   OH230500   2.186   5.655  18.334
 2102TIP3    H130501   2.117   5.719  18.309
 2102TIP3    H230502   2.186   5.659  18.431
 2103TIP3   OH230503   2.418   5.594  18.217
 2103TIP3    H130504   2.327   5.619  18.246
 2103TIP3    H230505   2.438   5.659  18.148
 2104TIP3   OH230506   2.868   5.548  18.178
 2104TIP3    H130507   2.797   5.604  18.144
 2104TIP3    H230508   2.911   5.611  18.241
 2105TIP3   OH230509   3.102   5.439  18.285
 2105TIP3    H130510   3.037   5.482  18.227
 2105TIP3    H230511   3.183   5.486  18.263
 2106TIP3   OH230512   3.366   5.598  18.266
 2106TIP3    H130513   3.365   5.688  18.229
 2106TIP3    H230514   3.391   5.543  18.188
 2107TIP3   OH230515   2.139   5.479  18.013
 2107TIP3    H130516   2.127   5.421  18.091
 2107TIP3    H230517   2.231   5.455  17.985
 2108TIP3   OH230518   2.359   5.387  17.895
 2108TIP3    H130519   2.346   5.294  17.922
 2108TIP3    H230520   2.448   5.401  17.935
 2109TIP3   OH230521   2.587   5.379  18.028
 2109TIP3    H130522   2.613   5.287  18.006
 2109TIP3    H230523   2.617   5.386  18.119
 2110TIP3   OH230524   2.918   3.979  17.849
 2110TIP3    H130525   2.859   3.923  17.903
 2110TIP3    H230526   3.003   3.934  17.859
 2111TIP3   OH230527   3.475   3.768  17.870
 2111TIP3    H130528   3.529   3.834  17.820
 2111TIP3    H230529   3.389   3.777  17.826
 2112TIP3   OH230530   2.193   3.839  17.683
 2112TIP3    H130531   2.102   3.836  17.649
 2112TIP3    H230532   2.226   3.751  17.655
 2113TIP3   OH230533   2.026   3.809  17.239
 2113TIP3    H130534   2.069   3.865  17.171
 2113TIP3    H230535   2.032   3.867  17.317
 2114TIP3   OH230536   2.621   3.790  17.655
 2114TIP3    H130537   2.707   3.769  17.614
 2114TIP3    H230538   2.646   3.802  17.748
 2115TIP3   OH230539   3.179   3.857  17.803
 2115TIP3    H130540   3.204   3.856  17.708
 2115TIP3    H230541   3.129   3.773  17.812
 2116TIP3   OH230542   2.017   5.422  17.304
 2116TIP3    H130543   2.011   5.474  17.223
 2116TIP3    H230544   2.038   5.493  17.366
 2117TIP3   OH230545   2.720   4.050  17.327
 2117TIP3    H130546   2.756   3.996  17.400
 2117TIP3    H230547   2.745   4.139  17.358
 2118TIP3   OH230548   3.585   5.482  17.490
 2118TIP3    H130549   3.571   5.409  17.427
 2118TIP3    H230550   3.563   5.558  17.431
 2119TIP3   OH230551   2.153   3.899  18.613
 2119TIP3    H130552   2.101   3.817  18.622
 2119TIP3    H230553   2.216   3.888  18.688
 2120TIP3   OH230554   2.345   3.831  18.811
 2120TIP3    H130555   2.440   3.824  18.791
 2120TIP3    H230556   2.331   3.740  18.842
 2121TIP3   OH230557   3.200   3.760  18.806
 2121TIP3    H130558   3.215   3.703  18.885
 2121TIP3    H230559   3.291   3.764  18.769
 2122TIP3   OH230560   3.529   5.377  18.641
 2122TIP3    H130561   3.472   5.368  18.563
 2122TIP3    H230562   3.491   5.458  18.679
 2123TIP3   OH230563   4.071   4.648  18.148
 2123TIP3    H130564   4.064   4.566  18.202
 2123TIP3    H230565   4.140   4.695  18.198
 2124TIP3   OH230566   5.199   4.969  17.859
 2124TIP3    H130567   5.203   4.902  17.929
 2124TIP3    H230568   5.246   5.040  17.903
 2125TIP3   OH230569   4.196   5.111  17.987
 2125TIP3    H130570   4.145   5.031  17.961
 2125TIP3    H230571   4.284   5.073  17.977
 2126TIP3   OH230572   3.859   4.415  17.526
 2126TIP3    H130573   3.813   4.500  17.531
 2126TIP3    H230574   3.788   4.350  17.529
 2127TIP3   OH230575   3.894   4.685  17.777
 2127TIP3    H130576   3.943   4.604  17.804
 2127TIP3    H230577   3.966   4.745  17.754
 2128TIP3   OH230578   4.941   5.512  17.880
 2128TIP3    H130579   4.993   5.451  17.824
 2128TIP3    H230580   4.980   5.598  17.852
 2129TIP3   OH230581   5.539   4.074  18.040
 2129TIP3    H130582   5.548   4.114  18.127
 2129TIP3    H230583   5.628   4.092  18.004
 2130TIP3   OH230584   5.055   4.382  18.081
 2130TIP3    H130585   5.058   4.283  18.080
 2130TIP3    H230586   4.964   4.395  18.051
 2131TIP3   OH230587   4.328   4.158  17.770
 2131TIP3    H130588   4.329   4.245  17.724
 2131TIP3    H230589   4.277   4.105  17.705
 2132TIP3   OH230590   5.086   4.203  17.673
 2132TIP3    H130591   5.143   4.146  17.724
 2132TIP3    H230592   5.144   4.267  17.630
 2133TIP3   OH230593   4.012   4.449  17.893
 2133TIP3    H130594   4.068   4.393  17.951
 2133TIP3    H230595   4.023   4.404  17.806
 2134TIP3   OH230596   4.485   4.587  17.831
 2134TIP3    H130597   4.571   4.545  17.846
 2134TIP3    H230598   4.440   4.520  17.775
 2135TIP3   OH230599   5.566   4.201  18.312
 2135TIP3    H130600   5.525   4.289  18.290
 2135TIP3    H230601   5.589   4.219  18.404
 2136TIP3   OH230602   4.222   4.070  18.210
 2136TIP3    H130603   4.180   4.119  18.136
 2136TIP3    H230604   4.161   4.092  18.284
 2137TIP3   OH230605   4.443   4.827  18.219
 2137TIP3    H130606   4.363   4.865  18.261
 2137TIP3    H230607   4.499   4.906  18.218
 2138TIP3   OH230608   4.191   4.260  17.999
 2138TIP3    H130609   4.253   4.320  18.046
 2138TIP3    H230610   4.244   4.235  17.921
 2139TIP3   OH230611   4.316   5.056  18.300
 2139TIP3    H130612   4.298   5.135  18.248
 2139TIP3    H230613   4.231   5.049  18.350
 2140TIP3   OH230614   3.927   4.987  17.368
 2140TIP3    H130615   3.876   5.048  17.313
 2140TIP3    H230616   3.954   5.048  17.439
 2141TIP3   OH230617   5.277   5.170  18.064
 2141TIP3    H130618   5.181   5.172  18.078
 2141TIP3    H230619   5.289   5.254  18.017
 2142TIP3   OH230620   5.275   4.015  18.168
 2142TIP3    H130621   5.210   4.084  18.151
 2142TIP3    H230622   5.343   4.033  18.100
 2143TIP3   OH230623   4.586   3.813  17.924
 2143TIP3    H130624   4.565   3.720  17.941
 2143TIP3    H230625   4.504   3.856  17.959
 2144TIP3   OH230626   5.116   5.343  17.782
 2144TIP3    H130627   5.109   5.272  17.717
 2144TIP3    H230628   5.199   5.388  17.754
 2145TIP3   OH230629   5.249   5.106  17.569
 2145TIP3    H130630   5.251   5.037  17.500
 2145TIP3    H230631   5.218   5.054  17.645
 2146TIP3   OH230632   5.370   4.994  18.439
 2146TIP3    H130633   5.389   4.918  18.380
 2146TIP3    H230634   5.392   5.069  18.380
 2147TIP3   OH230635   4.868   4.687  17.392
 2147TIP3    H130636   4.783   4.734  17.378
 2147TIP3    H230637   4.927   4.758  17.363
 2148TIP3   OH230638   4.796   4.479  17.106
 2148TIP3    H130639   4.844   4.553  17.146
 2148TIP3    H230640   4.863   4.411  17.098
 2149TIP3   OH230641   5.588   4.635  18.242
 2149TIP3    H130642   5.513   4.698  18.238
 2149TIP3    H230643   5.645   4.674  18.172
 2150TIP3   OH230644   5.176   4.540  18.426
 2150TIP3    H130645   5.161   4.619  18.481
 2150TIP3    H230646   5.104   4.549  18.360
 2151TIP3   OH230647   4.324   4.753  17.689
 2151TIP3    H130648   4.323   4.729  17.594
 2151TIP3    H230649   4.389   4.691  17.726
 2152TIP3   OH230650   4.370   4.627  18.069
 2152TIP3    H130651   4.405   4.626  17.977
 2152TIP3    H230652   4.419   4.701  18.111
 2153TIP3   OH230653   5.016   5.187  18.135
 2153TIP3    H130654   5.038   5.213  18.227
 2153TIP3    H230655   4.996   5.092  18.151
 2154TIP3   OH230656   4.490   5.087  18.506
 2154TIP3    H130657   4.418   5.130  18.558
 2154TIP3    H230658   4.446   5.077  18.419
 2155TIP3   OH230659   4.181   4.701  18.425
 2155TIP3    H130660   4.202   4.771  18.489
 2155TIP3    H230661   4.104   4.663  18.471
 2156TIP3   OH230662   4.302   5.260  18.607
 2156TIP3    H130663   4.282   5.307  18.523
 2156TIP3    H230664   4.211   5.231  18.632
 2157TIP3   OH230665   4.270   4.663  17.437
 2157TIP3    H130666   4.224   4.743  17.401
 2157TIP3    H230667   4.203   4.595  17.426
 2158TIP3   OH230668   5.566   5.278  17.094
 2158TIP3    H130669   5.488   5.273  17.033
 2158TIP3    H230670   5.620   5.210  17.053
 2159TIP3   OH230671   3.873   4.927  18.354
 2159TIP3    H130672   3.834   4.916  18.267
 2159TIP3    H230673   3.917   4.839  18.364
 2160TIP3   OH230674   3.832   5.189  18.031
 2160TIP3    H130675   3.926   5.173  18.025
 2160TIP3    H230676   3.829   5.271  18.080
 2161TIP3   OH230677   5.641   5.250  18.619
 2161TIP3    H130678   5.635   5.155  18.604
 2161TIP3    H230679   5.549   5.268  18.651
 2162TIP3   OH230680   4.735   5.209  18.493
 2162TIP3    H130681   4.742   5.286  18.553
 2162TIP3    H230682   4.648   5.170  18.516
 2163TIP3   OH230683   4.814   5.592  17.393
 2163TIP3    H130684   4.727   5.558  17.364
 2163TIP3    H230685   4.793   5.661  17.460
 2164TIP3   OH230686   4.136   5.462  17.668
 2164TIP3    H130687   4.177   5.430  17.751
 2164TIP3    H230688   4.042   5.445  17.689
 2165TIP3   OH230689   5.086   5.496  17.158
 2165TIP3    H130690   5.083   5.404  17.132
 2165TIP3    H230691   5.072   5.493  17.254
 2166TIP3   OH230692   5.067   5.510  17.428
 2166TIP3    H130693   4.972   5.532  17.442
 2166TIP3    H230694   5.080   5.428  17.477
 2167TIP3   OH230695   5.331   4.374  18.643
 2167TIP3    H130696   5.296   4.419  18.563
 2167TIP3    H230697   5.337   4.281  18.612
 2168TIP3   OH230698   4.088   5.050  18.436
 2168TIP3    H130699   4.095   5.014  18.527
 2168TIP3    H230700   4.001   5.015  18.407
 2169TIP3   OH230701   4.365   3.920  18.026
 2169TIP3    H130702   4.278   3.900  17.986
 2169TIP3    H230703   4.338   3.975  18.102
 2170TIP3   OH230704   4.841   3.860  18.353
 2170TIP3    H130705   4.883   3.823  18.434
 2170TIP3    H230706   4.745   3.856  18.375
 2171TIP3   OH230707   5.113   4.266  18.465
 2171TIP3    H130708   5.059   4.237  18.543
 2171TIP3    H230709   5.135   4.357  18.489
 2172TIP3   OH230710   4.365   4.380  18.161
 2172TIP3    H130711   4.292   4.387  18.225
 2172TIP3    H230712   4.364   4.472  18.127
 2173TIP3   OH230713   4.358   4.407  17.667
 2173TIP3    H130714   4.266   4.419  17.635
 2173TIP3    H230715   4.400   4.382  17.581
 2174TIP3   OH230716   4.923   4.439  17.502
 2174TIP3    H130717   4.906   4.528  17.462
 2174TIP3    H230718   4.992   4.404  17.443
 2175TIP3   OH230719   4.792   4.485  18.673
 2175TIP3    H130720   4.755   4.398  18.701
 2175TIP3    H230721   4.868   4.492  18.734
 2176TIP3   OH230722   4.116   4.396  18.285
 2176TIP3    H130723   4.149   4.432  18.369
 2176TIP3    H230724   4.083   4.308  18.311
 2177TIP3   OH230725   3.796   4.110  17.752
 2177TIP3    H130726   3.858   4.055  17.801
 2177TIP3    H230727   3.795   4.070  17.664
 2178TIP3   OH230728   3.954   4.225  17.296
 2178TIP3    H130729   4.024   4.247  17.234
 2178TIP3    H230730   3.878   4.270  17.260
 2179TIP3   OH230731   4.970   4.581  18.235
 2179TIP3    H130732   5.003   4.497  18.196
 2179TIP3    H230733   4.902   4.546  18.295
 2180TIP3   OH230734   4.658   4.153  17.753
 2180TIP3    H130735   4.562   4.158  17.768
 2180TIP3    H230736   4.689   4.113  17.836
 2181TIP3   OH230737   4.104   4.326  17.623
 2181TIP3    H130738   4.019   4.338  17.575
 2181TIP3    H230739   4.127   4.235  17.600
 2182TIP3   OH230740   4.444   4.350  17.424
 2182TIP3    H130741   4.535   4.316  17.433
 2182TIP3    H230742   4.441   4.371  17.331
 2183TIP3   OH230743   5.035   4.106  18.055
 2183TIP3    H130744   4.983   4.084  18.137
 2183TIP3    H230745   4.999   4.044  17.990
 2184TIP3   OH230746   5.344   5.664  18.714
 2184TIP3    H130747   5.377   5.714  18.638
 2184TIP3    H230748   5.425   5.660  18.767
 2185TIP3   OH230749   4.128   4.893  18.663
 2185TIP3    H130750   4.197   4.893  18.733
 2185TIP3    H230751   4.050   4.867  18.717
 2186TIP3   OH230752   4.770   4.404  17.938
 2186TIP3    H130753   4.798   4.363  17.855
 2186TIP3    H230754   4.703   4.342  17.971
 2187TIP3   OH230755   4.190   4.035  17.570
 2187TIP3    H130756   4.122   3.971  17.600
 2187TIP3    H230757   4.256   3.974  17.536
 2188TIP3   OH230758   4.593   4.238  18.163
 2188TIP3    H130759   4.516   4.300  18.162
 2188TIP3    H230760   4.659   4.288  18.213
 2189TIP3   OH230761   5.396   4.822  18.241
 2189TIP3    H130762   5.445   4.869  18.169
 2189TIP3    H230763   5.304   4.844  18.215
 2190TIP3   OH230764   5.026   4.127  17.194
 2190TIP3    H130765   5.009   4.076  17.112
 2190TIP3    H230766   5.039   4.218  17.164
 2191TIP3   OH230767   4.774   4.929  18.464
 2191TIP3    H130768   4.768   4.891  18.552
 2191TIP3    H230769   4.760   5.024  18.483
 2192TIP3   OH230770   5.144   4.402  17.357
 2192TIP3    H130771   5.234   4.369  17.360
 2192TIP3    H230772   5.163   4.498  17.346
 2193TIP3   OH230773   4.170   4.853  17.904
 2193TIP3    H130774   4.222   4.828  17.824
 2193TIP3    H230775   4.173   4.772  17.959
 2194TIP3   OH230776   3.884   4.663  18.443
 2194TIP3    H130777   3.863   4.620  18.528
 2194TIP3    H230778   3.820   4.622  18.383
 2195TIP3   OH230779   4.562   4.633  18.645
 2195TIP3    H130780   4.527   4.575  18.576
 2195TIP3    H230781   4.652   4.594  18.657
 2196TIP3   OH230782   5.047   5.194  18.476
 2196TIP3    H130783   4.956   5.175  18.452
 2196TIP3    H230784   5.032   5.235  18.564
 2197TIP3   OH230785   5.597   4.385  17.262
 2197TIP3    H130786   5.508   4.358  17.237
 2197TIP3    H230787   5.578   4.468  17.310
 2198TIP3   OH230788   5.605   4.962  18.568
 2198TIP3    H130789   5.512   4.977  18.539
 2198TIP3    H230790   5.651   4.949  18.482
 2199TIP3   OH230791   5.393   5.303  17.319
 2199TIP3    H130792   5.348   5.241  17.379
 2199TIP3    H230793   5.432   5.240  17.254
 2200TIP3   OH230794   5.139   4.760  18.071
 2200TIP3    H130795   5.086   4.699  18.126
 2200TIP3    H230796   5.204   4.700  18.034
 2201TIP3   OH230797   4.597   5.323  18.291
 2201TIP3    H130798   4.639   5.409  18.279
 2201TIP3    H230799   4.649   5.283  18.365
 2202TIP3   OH230800   4.424   5.479  17.597
 2202TIP3    H130801   4.329   5.480  17.613
 2202TIP3    H230802   4.445   5.575  17.605
 2203TIP3   OH230803   4.920   4.947  18.225
 2203TIP3    H130804   4.868   4.926  18.305
 2203TIP3    H230805   4.955   4.860  18.201
 2204TIP3   OH230806   5.232   5.418  18.452
 2204TIP3    H130807   5.146   5.374  18.433
 2204TIP3    H230808   5.238   5.486  18.381
 2205TIP3   OH230809   4.061   4.138  18.424
 2205TIP3    H130810   3.997   4.185  18.480
 2205TIP3    H230811   4.054   4.048  18.461
 2206TIP3   OH230812   4.000   5.319  18.246
 2206TIP3    H130813   4.062   5.244  18.250
 2206TIP3    H230814   4.017   5.356  18.334
 2207TIP3   OH230815   4.177   4.870  17.297
 2207TIP3    H130816   4.083   4.899  17.294
 2207TIP3    H230817   4.225   4.939  17.248
 2208TIP3   OH230818   4.917   4.116  18.296
 2208TIP3    H130819   4.983   4.157  18.355
 2208TIP3    H230820   4.898   4.029  18.338
 2209TIP3   OH230821   4.969   4.066  17.471
 2209TIP3    H130822   4.996   4.073  17.377
 2209TIP3    H230823   5.018   4.137  17.516
 2210TIP3   OH230824   4.692   4.300  17.509
 2210TIP3    H130825   4.778   4.348  17.512
 2210TIP3    H230826   4.694   4.247  17.591
 2211TIP3   OH230827   4.810   4.379  18.397
 2211TIP3    H130828   4.818   4.406  18.490
 2211TIP3    H230829   4.844   4.287  18.396
 2212TIP3   OH230830   4.746   3.959  17.564
 2212TIP3    H130831   4.723   4.023  17.634
 2212TIP3    H230832   4.837   3.989  17.537
 2213TIP3   OH230833   4.407   5.413  17.332
 2213TIP3    H130834   4.472   5.465  17.281
 2213TIP3    H230835   4.440   5.422  17.424
 2214TIP3   OH230836   4.379   4.123  17.222
 2214TIP3    H130837   4.320   4.139  17.297
 2214TIP3    H230838   4.462   4.092  17.266
 2215TIP3   OH230839   5.351   4.134  18.509
 2215TIP3    H130840   5.258   4.153  18.484
 2215TIP3    H230841   5.396   4.142  18.423
 2216TIP3   OH230842   5.335   5.450  18.053
 2216TIP3    H130843   5.343   5.520  17.984
 2216TIP3    H230844   5.430   5.435  18.072
 2217TIP3   OH230845   4.109   3.863  17.968
 2217TIP3    H130846   4.099   3.846  17.872
 2217TIP3    H230847   4.078   3.778  18.005
 2218TIP3   OH230848   3.941   5.220  17.497
 2218TIP3    H130849   3.888   5.292  17.532
 2218TIP3    H230850   4.031   5.252  17.519
 2219TIP3   OH230851   3.895   5.531  18.686
 2219TIP3    H130852   3.959   5.510  18.756
 2219TIP3    H230853   3.854   5.442  18.672
 2220TIP3   OH230854   4.377   5.411  18.825
 2220TIP3    H130855   4.464   5.375  18.850
 2220TIP3    H230856   4.363   5.370  18.738
 2221TIP3   OH230857   4.748   5.389  17.040
 2221TIP3    H130858   4.693   5.334  17.099
 2221TIP3    H230859   4.818   5.329  17.012
 2222TIP3   OH230860   5.015   5.270  18.733
 2222TIP3    H130861   4.982   5.180  18.759
 2222TIP3    H230862   5.099   5.273  18.784
 2223TIP3   OH230863   3.875   4.893  18.795
 2223TIP3    H130864   3.844   4.801  18.797
 2223TIP3    H230865   3.830   4.925  18.713
 2224TIP3   OH230866   4.561   4.895  18.699
 2224TIP3    H130867   4.551   4.942  18.614
 2224TIP3    H230868   4.544   4.800  18.677
 2225TIP3   OH230869   5.120   4.884  18.491
 2225TIP3    H130870   5.203   4.936  18.489
 2225TIP3    H230871   5.055   4.956  18.483
 2226TIP3   OH230872   4.010   4.599  18.746
 2226TIP3    H130873   4.021   4.505  18.763
 2226TIP3    H230874   4.043   4.641  18.829
 2227TIP3   OH230875   4.460   4.698  17.216
 2227TIP3    H130876   4.400   4.701  17.292
 2227TIP3    H230877   4.489   4.606  17.216
 2228TIP3   OH230878   4.365   4.506  18.422
 2228TIP3    H130879   4.312   4.587  18.429
 2228TIP3    H230880   4.446   4.544  18.382
 2229TIP3   OH230881   4.925   4.791  18.793
 2229TIP3    H130882   4.994   4.735  18.754
 2229TIP3    H230883   4.877   4.726  18.848
 2230TIP3   OH230884   4.432   4.253  18.530
 2230TIP3    H130885   4.445   4.191  18.455
 2230TIP3    H230886   4.407   4.336  18.483
 2231TIP3   OH230887   4.464   4.063  18.320
 2231TIP3    H130888   4.507   4.114  18.248
 2231TIP3    H230889   4.369   4.065  18.294
 2232TIP3   OH230890   4.592   4.648  18.339
 2232TIP3    H130891   4.675   4.693  18.314
 2232TIP3    H230892   4.526   4.710  18.303
 2233TIP3   OH230893   5.072   4.376  18.814
 2233TIP3    H130894   5.081   4.280  18.807
 2233TIP3    H230895   5.161   4.410  18.799
 2234TIP3   OH230896   5.195   4.711  18.686
 2234TIP3    H130897   5.163   4.771  18.616
 2234TIP3    H230898   5.291   4.707  18.666
 2235TIP3   OH230899   4.275   4.333  18.750
 2235TIP3    H130900   4.190   4.296  18.723
 2235TIP3    H230901   4.333   4.307  18.676
 2236TIP3   OH230902   4.568   3.824  18.360
 2236TIP3    H130903   4.530   3.913  18.343
 2236TIP3    H230904   4.502   3.770  18.313
 2237TIP3   OH230905   4.654   4.254  18.752
 2237TIP3    H130906   4.592   4.233  18.825
 2237TIP3    H230907   4.597   4.235  18.676
 2238TIP3   OH230908   4.945   4.175  18.645
 2238TIP3    H130909   4.850   4.171  18.665
 2238TIP3    H230910   4.979   4.123  18.720
 2239TIP3   OH230911   5.105   4.045  18.833
 2239TIP3    H130912   5.102   3.947  18.822
 2239TIP3    H230913   5.086   4.054  18.929
 2240TIP3   OH230914   4.061   4.160  18.755
 2240TIP3    H130915   4.033   4.081  18.706
 2240TIP3    H230916   4.050   4.130  18.849
 2241TIP3   OH230917   4.519   3.791  18.639
 2241TIP3    H130918   4.590   3.723  18.651
 2241TIP3    H230919   4.532   3.806  18.543
 2242TIP3   OH230920   4.563   3.936  18.879
 2242TIP3    H130921   4.547   3.888  18.794
 2242TIP3    H230922   4.520   4.022  18.865
 2243TIP3   OH230923   4.556   5.614  17.203
 2243TIP3    H130924   4.616   5.627  17.127
 2243TIP3    H230925   4.487   5.679  17.181
 2244TIP3   OH230926   3.809   5.599  17.600
 2244TIP3    H130927   3.726   5.570  17.557
 2244TIP3    H230928   3.806   5.546  17.681
 2245TIP3   OH230929   3.879   5.413  17.809
 2245TIP3    H130930   3.805   5.359  17.843
 2245TIP3    H230931   3.924   5.439  17.892
 2246TIP3   OH230932   5.617   5.501  18.074
 2246TIP3    H130933   5.644   5.518  18.166
 2246TIP3    H230934   5.693   5.535  18.025
 2247TIP3   OH230935   5.579   5.448  18.377
 2247TIP3    H130936   5.540   5.373  18.327
 2247TIP3    H230937   5.597   5.404  18.462
 2248TIP3   OH230938   5.437   5.035  18.866
 2248TIP3    H130939   5.344   5.035  18.898
 2248TIP3    H230940   5.477   5.108  18.920
 2249TIP3   OH230941   5.545   4.938  18.057
 2249TIP3    H130942   5.616   4.877  18.029
 2249TIP3    H230943   5.576   5.024  18.020
 2250TIP3   OH230944   5.428   5.233  18.299
 2250TIP3    H130945   5.360   5.272  18.356
 2250TIP3    H230946   5.379   5.215  18.216
 2251TIP3   OH230947   5.387   4.383  17.086
 2251TIP3    H130948   5.463   4.443  17.080
 2251TIP3    H230949   5.423   4.299  17.053
 2252TIP3   OH230950   3.860   4.755  18.045
 2252TIP3    H130951   3.860   4.724  17.952
 2252TIP3    H230952   3.949   4.725  18.074
 2253TIP3   OH230953   5.484   4.714  18.610
 2253TIP3    H130954   5.529   4.630  18.634
 2253TIP3    H230955   5.555   4.781  18.596
 2254TIP3   OH230956   5.577   4.465  18.695
 2254TIP3    H130957   5.494   4.424  18.660
 2254TIP3    H230958   5.639   4.391  18.681
 2255TIP3   OH230959   5.429   4.429  18.330
 2255TIP3    H130960   5.336   4.458  18.324
 2255TIP3    H230961   5.479   4.503  18.290
 2256TIP3   OH230962   3.848   4.260  18.638
 2256TIP3    H130963   3.929   4.241  18.689
 2256TIP3    H230964   3.795   4.178  18.653
 2257TIP3   OH230965   5.620   3.833  18.811
 2257TIP3    H130966   5.667   3.765  18.758
 2257TIP3    H230967   5.627   3.912  18.752
 2258TIP3   OH230968   3.964   4.087  17.990
 2258TIP3    H130969   4.012   4.002  17.984
 2258TIP3    H230970   4.033   4.152  17.970
 2259TIP3   OH230971   3.805   4.406  18.061
 2259TIP3    H130972   3.871   4.379  17.995
 2259TIP3    H230973   3.852   4.482  18.099
 2260TIP3   OH230974   5.578   4.061  18.669
 2260TIP3    H130975   5.487   4.086  18.702
 2260TIP3    H230976   5.554   4.015  18.587
 2261TIP3   OH230977   3.827   4.057  17.479
 2261TIP3    H130978   3.753   4.004  17.444
 2261TIP3    H230979   3.874   4.084  17.398
 2262TIP3   OH230980   5.301   5.492  17.656
 2262TIP3    H130981   5.350   5.448  17.586
 2262TIP3    H230982   5.365   5.557  17.690
 2263TIP3   OH230983   3.827   3.877  18.286
 2263TIP3    H130984   3.763   3.854  18.356
 2263TIP3    H230985   3.783   3.951  18.241
 2264TIP3   OH230986   4.048   5.195  18.692
 2264TIP3    H130987   3.963   5.229  18.660
 2264TIP3    H230988   4.027   5.160  18.779
 2265TIP3   OH230989   4.314   5.363  18.355
 2265TIP3    H130990   4.334   5.454  18.325
 2265TIP3    H230991   4.402   5.323  18.359
 2266TIP3   OH230992   4.754   5.466  18.609
 2266TIP3    H130993   4.757   5.438  18.704
 2266TIP3    H230994   4.846   5.499  18.598
 2267TIP3   OH230995   4.982   5.599  18.547
 2267TIP3    H130996   5.063   5.549  18.534
 2267TIP3    H230997   5.006   5.649  18.629
 2268TIP3   OH230998   5.502   3.826  18.470
 2268TIP3    H130999   5.428   3.858  18.417
 2268TIP3    H231000   5.520   3.738  18.429
 2269TIP3   OH231001   4.083   5.644  18.324
 2269TIP3    H131002   4.002   5.693  18.298
 2269TIP3    H231003   4.073   5.637  18.420
 2270TIP3   OH231004   4.326   5.596  18.218
 2270TIP3    H131005   4.234   5.613  18.251
 2270TIP3    H231006   4.327   5.652  18.138
 2271TIP3   OH231007   4.770   5.558  18.101
 2271TIP3    H131008   4.713   5.612  18.044
 2271TIP3    H231009   4.793   5.621  18.172
 2272TIP3   OH231010   5.006   5.446  18.277
 2272TIP3    H131011   4.951   5.520  18.309
 2272TIP3    H231012   5.093   5.491  18.274
 2273TIP3   OH231013   5.235   5.605  18.255
 2273TIP3    H131014   5.249   5.699  18.233
 2273TIP3    H231015   5.285   5.560  18.183
 2274TIP3   OH231016   4.014   5.487  18.031
 2274TIP3    H131017   3.995   5.436  18.113
 2274TIP3    H231018   4.104   5.455  18.008
 2275TIP3   OH231019   4.234   5.396  17.917
 2275TIP3    H131020   4.224   5.299  17.929
 2275TIP3    H231021   4.331   5.407  17.932
 2276TIP3   OH231022   4.490   5.405  17.982
 2276TIP3    H131023   4.510   5.312  17.964
 2276TIP3    H231024   4.491   5.411  18.079
 2277TIP3   OH231025   4.857   3.934  17.884
 2277TIP3    H131026   4.773   3.917  17.930
 2277TIP3    H231027   4.851   3.868  17.813
 2278TIP3   OH231028   4.050   3.832  17.689
 2278TIP3    H131029   3.959   3.815  17.658
 2278TIP3    H231030   4.094   3.745  17.673
 2279TIP3   OH231031   4.461   3.802  17.651
 2279TIP3    H131032   4.524   3.835  17.587
 2279TIP3    H231033   4.514   3.804  17.732
 2280TIP3   OH231034   4.603   4.086  17.362
 2280TIP3    H131035   4.640   4.018  17.422
 2280TIP3    H231036   4.675   4.150  17.365
 2281TIP3   OH231037   4.032   3.900  18.620
 2281TIP3    H131038   3.988   3.814  18.626
 2281TIP3    H231039   4.104   3.891  18.687
 2282TIP3   OH231040   4.231   3.833  18.805
 2282TIP3    H131041   4.323   3.821  18.779
 2282TIP3    H231042   4.210   3.739  18.823
 2283TIP3   OH231043   5.090   3.769  18.815
 2283TIP3    H131044   5.082   3.694  18.878
 2283TIP3    H231045   5.181   3.753  18.782
 2284TIP3   OH231046   5.404   5.375  18.643
 2284TIP3    H131047   5.338   5.368  18.569
 2284TIP3    H231048   5.385   5.465  18.673
 2285TIP3   OH231049   6.876   4.756  17.629
 2285TIP3    H131050   6.910   4.837  17.671
 2285TIP3    H231051   6.785   4.785  17.613
 2286TIP3   OH231052   6.749   4.652  17.988
 2286TIP3    H131053   6.768   4.600  18.069
 2286TIP3    H231054   6.684   4.596  17.941
 2287TIP3   OH231055   5.959   4.654  18.152
 2287TIP3    H131056   5.958   4.571  18.202
 2287TIP3    H231057   6.021   4.706  18.206
 2288TIP3   OH231058   7.115   4.954  17.882
 2288TIP3    H131059   7.114   4.890  17.956
 2288TIP3    H231060   7.103   5.038  17.930
 2289TIP3   OH231061   6.061   5.108  17.978
 2289TIP3    H131062   6.036   5.014  17.962
 2289TIP3    H231063   6.157   5.094  17.981
 2290TIP3   OH231064   5.777   4.649  17.773
 2290TIP3    H131065   5.835   4.580  17.814
 2290TIP3    H231066   5.838   4.722  17.759
 2291TIP3   OH231067   6.579   4.876  18.078
 2291TIP3    H131068   6.627   4.811  18.023
 2291TIP3    H231069   6.656   4.921  18.120
 2292TIP3   OH231070   7.451   4.090  18.105
 2292TIP3    H131071   7.445   4.153  18.178
 2292TIP3    H231072   7.512   4.136  18.046
 2293TIP3   OH231073   6.920   4.358  18.090
 2293TIP3    H131074   6.961   4.275  18.120
 2293TIP3    H231075   6.902   4.335  17.996
 2294TIP3   OH231076   6.220   4.140  17.775
 2294TIP3    H131077   6.222   4.228  17.730
 2294TIP3    H231078   6.168   4.087  17.710
 2295TIP3   OH231079   6.998   4.178  17.644
 2295TIP3    H131080   7.032   4.141  17.729
 2295TIP3    H231081   7.080   4.222  17.614
 2296TIP3   OH231082   5.918   4.451  17.895
 2296TIP3    H131083   5.976   4.392  17.947
 2296TIP3    H231084   5.918   4.402  17.809
 2297TIP3   OH231085   6.366   4.561  17.830
 2297TIP3    H131086   6.442   4.521  17.877
 2297TIP3    H231087   6.346   4.492  17.764
 2298TIP3   OH231088   7.447   4.185  18.379
 2298TIP3    H131089   7.400   4.260  18.337
 2298TIP3    H231090   7.520   4.234  18.419
 2299TIP3   OH231091   6.114   4.078  18.216
 2299TIP3    H131092   6.074   4.123  18.139
 2299TIP3    H231093   6.050   4.101  18.287
 2300TIP3   OH231094   6.794   5.008  17.553
 2300TIP3    H131095   6.767   5.016  17.459
 2300TIP3    H231096   6.768   5.094  17.586
 2301TIP3   OH231097   6.333   4.827  18.174
 2301TIP3    H131098   6.292   4.907  18.213
 2301TIP3    H231099   6.410   4.868  18.128
 2302TIP3   OH231100   7.143   4.148  17.862
 2302TIP3    H131101   7.103   4.085  17.925
 2302TIP3    H231102   7.238   4.133  17.871
 2303TIP3   OH231103   6.070   4.247  17.991
 2303TIP3    H131104   6.134   4.306  18.039
 2303TIP3    H231105   6.128   4.212  17.920
 2304TIP3   OH231106   6.200   5.033  18.282
 2304TIP3    H131107   6.188   5.124  18.248
 2304TIP3    H231108   6.114   5.023  18.330
 2305TIP3   OH231109   7.154   5.175  18.062
 2305TIP3    H131110   7.060   5.195  18.080
 2305TIP3    H231111   7.180   5.259  18.022
 2306TIP3   OH231112   7.183   4.044  18.180
 2306TIP3    H131113   7.102   4.073  18.131
 2306TIP3    H231114   7.253   4.058  18.114
 2307TIP3   OH231115   6.460   3.806  17.947
 2307TIP3    H131116   6.436   3.713  17.936
 2307TIP3    H231117   6.372   3.844  17.973
 2308TIP3   OH231118   7.255   4.991  18.449
 2308TIP3    H131119   7.265   4.931  18.371
 2308TIP3    H231120   7.259   5.078  18.402
 2309TIP3   OH231121   7.404   4.633  18.235
 2309TIP3    H131122   7.352   4.715  18.223
 2309TIP3    H231123   7.479   4.650  18.173
 2310TIP3   OH231124   7.063   4.624  17.478
 2310TIP3    H131125   7.004   4.688  17.523
 2310TIP3    H231126   7.135   4.618  17.545
 2311TIP3   OH231127   7.061   4.537  18.418
 2311TIP3    H131128   7.028   4.619  18.458
 2311TIP3    H231129   7.002   4.533  18.341
 2312TIP3   OH231130   6.233   4.751  17.697
 2312TIP3    H131131   6.181   4.702  17.631
 2312TIP3    H231132   6.291   4.681  17.733
 2313TIP3   OH231133   6.360   5.085  17.961
 2313TIP3    H131134   6.369   5.056  17.869
 2313TIP3    H231135   6.435   5.039  18.004
 2314TIP3   OH231136   6.246   4.611  18.068
 2314TIP3    H131137   6.285   4.617  17.978
 2314TIP3    H231138   6.286   4.691  18.111
 2315TIP3   OH231139   6.900   5.202  18.128
 2315TIP3    H131140   6.885   5.262  18.204
 2315TIP3    H231141   6.883   5.114  18.167
 2316TIP3   OH231142   6.355   5.077  18.504
 2316TIP3    H131143   6.286   5.124  18.556
 2316TIP3    H231144   6.307   5.058  18.421
 2317TIP3   OH231145   6.058   4.703  18.419
 2317TIP3    H131146   6.085   4.778  18.473
 2317TIP3    H231147   5.986   4.669  18.474
 2318TIP3   OH231148   6.188   5.264  18.584
 2318TIP3    H131149   6.163   5.276  18.491
 2318TIP3    H231150   6.102   5.238  18.625
 2319TIP3   OH231151   7.281   3.833  17.278
 2319TIP3    H131152   7.203   3.801  17.232
 2319TIP3    H231153   7.347   3.831  17.206
 2320TIP3   OH231154   6.081   4.649  17.497
 2320TIP3    H131155   6.114   4.722  17.444
 2320TIP3    H231156   6.046   4.587  17.433
 2321TIP3   OH231157   7.459   5.241  17.177
 2321TIP3    H131158   7.433   5.275  17.265
 2321TIP3    H231159   7.553   5.219  17.184
 2322TIP3   OH231160   5.757   4.929  18.348
 2322TIP3    H131161   5.712   4.926  18.262
 2322TIP3    H231162   5.782   4.836  18.365
 2323TIP3   OH231163   5.699   5.184  18.022
 2323TIP3    H131164   5.790   5.154  18.014
 2323TIP3    H231165   5.710   5.263  18.075
 2324TIP3   OH231166   7.529   5.260  18.615
 2324TIP3    H131167   7.518   5.176  18.569
 2324TIP3    H231168   7.440   5.267  18.657
 2325TIP3   OH231169   6.614   5.200  18.504
 2325TIP3    H131170   6.619   5.280  18.559
 2325TIP3    H231171   6.521   5.169  18.512
 2326TIP3   OH231172   6.039   5.464  17.660
 2326TIP3    H131173   6.064   5.431  17.749
 2326TIP3    H231174   5.952   5.422  17.649
 2327TIP3   OH231175   7.219   4.419  18.636
 2327TIP3    H131176   7.171   4.451  18.558
 2327TIP3    H231177   7.243   4.327  18.612
 2328TIP3   OH231178   5.987   5.036  18.438
 2328TIP3    H131179   5.987   4.997  18.530
 2328TIP3    H231180   5.897   5.013  18.406
 2329TIP3   OH231181   6.245   3.922  18.045
 2329TIP3    H131182   6.157   3.929  18.002
 2329TIP3    H231183   6.224   3.964  18.131
 2330TIP3   OH231184   6.724   3.848  18.350
 2330TIP3    H131185   6.762   3.802  18.428
 2330TIP3    H231186   6.627   3.845  18.367
 2331TIP3   OH231187   7.003   4.235  18.448
 2331TIP3    H131188   6.957   4.191  18.524
 2331TIP3    H231189   7.008   4.326  18.479
 2332TIP3   OH231190   7.140   4.665  17.090
 2332TIP3    H131191   7.095   4.736  17.045
 2332TIP3    H231192   7.138   4.694  17.184
 2333TIP3   OH231193   6.709   4.185  17.127
 2333TIP3    H131194   6.658   4.148  17.201
 2333TIP3    H231195   6.641   4.173  17.058
 2334TIP3   OH231196   6.246   4.369  18.155
 2334TIP3    H131197   6.166   4.377  18.210
 2334TIP3    H231198   6.252   4.464  18.124
 2335TIP3   OH231199   6.206   4.373  17.650
 2335TIP3    H131200   6.111   4.384  17.631
 2335TIP3    H231201   6.245   4.375  17.559
 2336TIP3   OH231202   6.783   4.470  17.506
 2336TIP3    H131203   6.813   4.562  17.515
 2336TIP3    H231204   6.864   4.422  17.482
 2337TIP3   OH231205   6.673   4.473  18.655
 2337TIP3    H131206   6.633   4.391  18.692
 2337TIP3    H231207   6.751   4.483  18.712
 2338TIP3   OH231208   6.884   4.404  17.808
 2338TIP3    H131209   6.861   4.485  17.759
 2338TIP3    H231210   6.903   4.340  17.737
 2339TIP3   OH231211   5.995   4.387  18.271
 2339TIP3    H131212   6.031   4.431  18.350
 2339TIP3    H231213   5.963   4.302  18.307
 2340TIP3   OH231214   6.233   4.223  17.024
 2340TIP3    H131215   6.287   4.148  17.058
 2340TIP3    H231216   6.181   4.179  16.953
 2341TIP3   OH231217   5.679   4.109  17.740
 2341TIP3    H131218   5.750   4.114  17.807
 2341TIP3    H231219   5.724   4.121  17.654
 2342TIP3   OH231220   5.789   4.186  17.261
 2342TIP3    H131221   5.864   4.228  17.218
 2342TIP3    H231222   5.723   4.257  17.251
 2343TIP3   OH231223   6.816   4.552  18.238
 2343TIP3    H131224   6.863   4.480  18.188
 2343TIP3    H231225   6.755   4.499  18.294
 2344TIP3   OH231226   6.496   4.156  17.764
 2344TIP3    H131227   6.399   4.154  17.781
 2344TIP3    H231228   6.532   4.097  17.831
 2345TIP3   OH231229   5.930   4.317  17.652
 2345TIP3    H131230   5.877   4.340  17.576
 2345TIP3    H231231   5.977   4.238  17.619
 2346TIP3   OH231232   6.324   4.363  17.411
 2346TIP3    H131233   6.416   4.338  17.431
 2346TIP3    H231234   6.308   4.319  17.327
 2347TIP3   OH231235   6.951   4.074  18.062
 2347TIP3    H131236   6.883   4.065  18.132
 2347TIP3    H231237   6.896   4.039  17.988
 2348TIP3   OH231238   6.175   4.461  17.142
 2348TIP3    H131239   6.102   4.401  17.118
 2348TIP3    H231240   6.247   4.420  17.090
 2349TIP3   OH231241   7.252   5.602  18.724
 2349TIP3    H131242   7.296   5.639  18.645
 2349TIP3    H231243   7.318   5.623  18.792
 2350TIP3   OH231244   6.013   4.883  18.667
 2350TIP3    H131245   6.084   4.895  18.733
 2350TIP3    H231246   5.935   4.872  18.726
 2351TIP3   OH231247   6.591   4.428  17.924
 2351TIP3    H131248   6.658   4.381  17.871
 2351TIP3    H231249   6.561   4.358  17.985
 2352TIP3   OH231250   6.060   4.046  17.570
 2352TIP3    H131251   6.020   3.965  17.608
 2352TIP3    H231252   6.130   4.008  17.514
 2353TIP3   OH231253   6.471   4.239  18.176
 2353TIP3    H131254   6.389   4.294  18.180
 2353TIP3    H231255   6.537   4.296  18.219
 2354TIP3   OH231256   6.524   4.873  17.360
 2354TIP3    H131257   6.452   4.813  17.329
 2354TIP3    H231258   6.487   4.900  17.446
 2355TIP3   OH231259   7.261   4.865  18.220
 2355TIP3    H131260   7.310   4.904  18.146
 2355TIP3    H231261   7.183   4.826  18.175
 2356TIP3   OH231262   6.984   4.153  17.172
 2356TIP3    H131263   6.892   4.175  17.147
 2356TIP3    H231264   7.015   4.235  17.214
 2357TIP3   OH231265   6.658   4.936  18.462
 2357TIP3    H131266   6.648   4.893  18.548
 2357TIP3    H231267   6.651   5.030  18.486
 2358TIP3   OH231268   7.023   4.385  17.354
 2358TIP3    H131269   7.087   4.333  17.406
 2358TIP3    H231270   7.046   4.476  17.386
 2359TIP3   OH231271   6.071   4.831  17.943
 2359TIP3    H131272   6.127   4.805  17.868
 2359TIP3    H231273   6.058   4.746  17.991
 2360TIP3   OH231274   6.717   5.041  17.299
 2360TIP3    H131275   6.684   5.131  17.321
 2360TIP3    H231276   6.639   4.981  17.309
 2361TIP3   OH231277   5.755   4.675  18.469
 2361TIP3    H131278   5.746   4.610  18.541
 2361TIP3    H231279   5.701   4.635  18.398
 2362TIP3   OH231280   6.445   4.617  18.640
 2362TIP3    H131281   6.402   4.559  18.576
 2362TIP3    H231282   6.535   4.578  18.644
 2363TIP3   OH231283   6.939   5.151  18.483
 2363TIP3    H131284   6.854   5.169  18.441
 2363TIP3    H231285   6.925   5.197  18.568
 2364TIP3   OH231286   7.484   4.952  18.569
 2364TIP3    H131287   7.398   4.983  18.530
 2364TIP3    H231288   7.539   4.940  18.488
 2365TIP3   OH231289   7.067   4.747  18.058
 2365TIP3    H131290   6.975   4.760  18.031
 2365TIP3    H231291   7.090   4.673  17.999
 2366TIP3   OH231292   6.284   5.192  17.650
 2366TIP3    H131293   6.304   5.277  17.605
 2366TIP3    H231294   6.188   5.189  17.640
 2367TIP3   OH231295   6.408   4.943  17.602
 2367TIP3    H131296   6.367   5.027  17.631
 2367TIP3    H231297   6.355   4.875  17.651
 2368TIP3   OH231298   6.479   5.359  18.327
 2368TIP3    H131299   6.547   5.414  18.284
 2368TIP3    H231300   6.537   5.306  18.387
 2369TIP3   OH231301   6.296   5.445  17.560
 2369TIP3    H131302   6.206   5.447  17.598
 2369TIP3    H231303   6.328   5.533  17.588
 2370TIP3   OH231304   6.794   4.937  18.219
 2370TIP3    H131305   6.747   4.930  18.306
 2370TIP3    H231306   6.837   4.851  18.219
 2371TIP3   OH231307   7.104   5.391  18.456
 2371TIP3    H131308   7.022   5.343  18.435
 2371TIP3    H231309   7.113   5.455  18.381
 2372TIP3   OH231310   5.927   4.137  18.407
 2372TIP3    H131311   5.855   4.186  18.453
 2372TIP3    H231312   5.926   4.054  18.459
 2373TIP3   OH231313   7.159   4.850  17.289
 2373TIP3    H131314   7.100   4.873  17.362
 2373TIP3    H231315   7.236   4.907  17.305
 2374TIP3   OH231316   5.889   5.310  18.242
 2374TIP3    H131317   5.952   5.236  18.247
 2374TIP3    H231318   5.912   5.360  18.321
 2375TIP3   OH231319   6.455   5.186  16.978
 2375TIP3    H131320   6.409   5.132  16.911
 2375TIP3    H231321   6.462   5.126  17.052
 2376TIP3   OH231322   6.792   4.125  18.330
 2376TIP3    H131323   6.881   4.137  18.370
 2376TIP3    H231324   6.768   4.036  18.362
 2377TIP3   OH231325   6.860   4.065  17.442
 2377TIP3    H131326   6.903   4.104  17.366
 2377TIP3    H231327   6.919   4.095  17.514
 2378TIP3   OH231328   6.651   5.309  17.322
 2378TIP3    H131329   6.555   5.326  17.329
 2378TIP3    H231330   6.676   5.364  17.247
 2379TIP3   OH231331   6.576   4.295  17.511
 2379TIP3    H131332   6.639   4.368  17.526
 2379TIP3    H231333   6.577   4.247  17.596
 2380TIP3   OH231334   6.678   4.376  18.394
 2380TIP3    H131335   6.676   4.402  18.489
 2380TIP3    H231336   6.726   4.291  18.392
 2381TIP3   OH231337   6.711   3.961  17.637
 2381TIP3    H131338   6.625   3.983  17.595
 2381TIP3    H231339   6.774   3.995  17.569
 2382TIP3   OH231340   6.383   5.354  17.326
 2382TIP3    H131341   6.403   5.437  17.276
 2382TIP3    H231342   6.350   5.393  17.410
 2383TIP3   OH231343   7.234   4.143  18.537
 2383TIP3    H131344   7.153   4.161  18.485
 2383TIP3    H231345   7.305   4.155  18.470
 2384TIP3   OH231346   7.110   4.536  17.895
 2384TIP3    H131347   7.036   4.474  17.881
 2384TIP3    H231348   7.161   4.485  17.963
 2385TIP3   OH231349   5.881   4.393  17.051
 2385TIP3    H131350   5.823   4.473  17.048
 2385TIP3    H231351   5.832   4.329  16.999
 2386TIP3   OH231352   7.246   5.446  18.060
 2386TIP3    H131353   7.229   5.521  17.999
 2386TIP3    H231354   7.344   5.444  18.061
 2387TIP3   OH231355   5.992   3.870  17.968
 2387TIP3    H131356   5.986   3.833  17.876
 2387TIP3    H231357   5.962   3.791  18.018
 2388TIP3   OH231358   5.855   5.256  17.588
 2388TIP3    H131359   5.773   5.303  17.602
 2388TIP3    H231360   5.880   5.284  17.499
 2389TIP3   OH231361   5.777   5.515  18.685
 2389TIP3    H131362   5.839   5.500  18.760
 2389TIP3    H231363   5.734   5.428  18.677
 2390TIP3   OH231364   6.225   5.370  18.837
 2390TIP3    H131365   6.316   5.392  18.856
 2390TIP3    H231366   6.224   5.367  18.739
 2391TIP3   OH231367   6.683   5.336  17.023
 2391TIP3    H131368   6.610   5.279  16.991
 2391TIP3    H231369   6.756   5.274  17.044
 2392TIP3   OH231370   6.884   5.262  18.725
 2392TIP3    H131371   6.855   5.173  18.757
 2392TIP3    H231372   6.965   5.271  18.780
 2393TIP3   OH231373   5.762   4.894  18.776
 2393TIP3    H131374   5.722   4.805  18.782
 2393TIP3    H231375   5.712   4.932  18.701
 2394TIP3   OH231376   6.438   4.883  18.676
 2394TIP3    H131377   6.416   4.941  18.600
 2394TIP3    H231378   6.426   4.792  18.641
 2395TIP3   OH231379   7.022   4.861  18.486
 2395TIP3    H131380   7.111   4.903  18.491
 2395TIP3    H231381   6.969   4.942  18.498
 2396TIP3   OH231382   5.908   4.596  18.760
 2396TIP3    H131383   5.990   4.546  18.769
 2396TIP3    H231384   5.913   4.655  18.838
 2397TIP3   OH231385   6.323   4.726  17.256
 2397TIP3    H131386   6.292   4.645  17.299
 2397TIP3    H231387   6.360   4.686  17.175
 2398TIP3   OH231388   6.241   4.506  18.410
 2398TIP3    H131389   6.183   4.584  18.412
 2398TIP3    H231390   6.320   4.551  18.372
 2399TIP3   OH231391   6.473   4.538  17.030
 2399TIP3    H131392   6.408   4.548  16.959
 2399TIP3    H231393   6.546   4.501  16.977
 2400TIP3   OH231394   6.787   4.777  18.794
 2400TIP3    H131395   6.847   4.737  18.729
 2400TIP3    H231396   6.767   4.700  18.853
 2401TIP3   OH231397   6.329   4.265  18.530
 2401TIP3    H131398   6.335   4.193  18.462
 2401TIP3    H231399   6.292   4.340  18.478
 2402TIP3   OH231400   6.353   4.070  18.339
 2402TIP3    H131401   6.405   4.119  18.270
 2402TIP3    H231402   6.262   4.071  18.301
 2403TIP3   OH231403   6.477   4.657  18.336
 2403TIP3    H131404   6.561   4.686  18.299
 2403TIP3    H231405   6.416   4.717  18.288
 2404TIP3   OH231406   6.984   4.376  18.828
 2404TIP3    H131407   7.039   4.303  18.796
 2404TIP3    H231408   7.048   4.447  18.814
 2405TIP3   OH231409   7.059   4.704  18.703
 2405TIP3    H131410   7.033   4.755  18.623
 2405TIP3    H231411   7.150   4.679  18.676
 2406TIP3   OH231412   6.164   4.344  18.749
 2406TIP3    H131413   6.079   4.299  18.729
 2406TIP3    H231414   6.221   4.310  18.676
 2407TIP3   OH231415   6.451   3.822  18.346
 2407TIP3    H131416   6.425   3.916  18.352
 2407TIP3    H231417   6.369   3.782  18.314
 2408TIP3   OH231418   6.543   4.247  18.747
 2408TIP3    H131419   6.482   4.220  18.818
 2408TIP3    H231420   6.485   4.238  18.670
 2409TIP3   OH231421   6.831   4.157  18.649
 2409TIP3    H131422   6.739   4.173  18.676
 2409TIP3    H231423   6.867   4.116  18.731
 2410TIP3   OH231424   6.997   4.049  18.831
 2410TIP3    H131425   6.983   3.952  18.838
 2410TIP3    H231426   6.971   4.083  18.919
 2411TIP3   OH231427   5.954   4.163  18.747
 2411TIP3    H131428   5.951   4.079  18.697
 2411TIP3    H231429   5.932   4.133  18.839
 2412TIP3   OH231430   6.413   3.792  18.628
 2412TIP3    H131431   6.483   3.726  18.641
 2412TIP3    H231432   6.416   3.797  18.530
 2413TIP3   OH231433   6.453   3.915  18.878
 2413TIP3    H131434   6.436   3.878  18.789
 2413TIP3    H231435   6.405   4.001  18.870
 2414TIP3   OH231436   6.448   5.584  17.217
 2414TIP3    H131437   6.546   5.590  17.203
 2414TIP3    H231438   6.421   5.671  17.184
 2415TIP3   OH231439   5.636   5.592  17.600
 2415TIP3    H131440   5.597   5.511  17.565
 2415TIP3    H231441   5.688   5.554  17.673
 2416TIP3   OH231442   5.744   5.431  17.792
 2416TIP3    H131443   5.674   5.380  17.836
 2416TIP3    H231444   5.811   5.436  17.863
 2417TIP3   OH231445   7.524   5.469  18.117
 2417TIP3    H131446   7.519   5.508  18.206
 2417TIP3    H231447   7.541   5.548  18.064
 2418TIP3   OH231448   7.458   5.439  18.398
 2418TIP3    H131449   7.417   5.374  18.338
 2418TIP3    H231450   7.488   5.380  18.469
 2419TIP3   OH231451   7.303   5.020  18.875
 2419TIP3    H131452   7.213   5.033  18.912
 2419TIP3    H231453   7.337   5.111  18.871
 2420TIP3   OH231454   7.440   4.851  17.373
 2420TIP3    H131455   7.518   4.908  17.388
 2420TIP3    H231456   7.442   4.799  17.455
 2421TIP3   OH231457   7.489   4.675  17.577
 2421TIP3    H131458   7.394   4.652  17.573
 2421TIP3    H231459   7.500   4.675  17.672
 2422TIP3   OH231460   7.492   4.929  18.084
 2422TIP3    H131461   7.579   4.917  18.044
 2422TIP3    H231462   7.487   5.028  18.073
 2423TIP3   OH231463   7.302   5.236  18.311
 2423TIP3    H131464   7.224   5.280  18.348
 2423TIP3    H231465   7.274   5.221  18.218
 2424TIP3   OH231466   7.483   4.610  17.215
 2424TIP3    H131467   7.551   4.647  17.155
 2424TIP3    H231468   7.449   4.690  17.259
 2425TIP3   OH231469   7.259   4.542  17.665
 2425TIP3    H131470   7.263   4.445  17.673
 2425TIP3    H231471   7.212   4.564  17.748
 2426TIP3   OH231472   5.735   4.742  18.033
 2426TIP3    H131473   5.738   4.713  17.940
 2426TIP3    H231474   5.826   4.714  18.062
 2427TIP3   OH231475   7.339   4.720  18.610
 2427TIP3    H131476   7.416   4.663  18.592
 2427TIP3    H231477   7.378   4.808  18.599
 2428TIP3   OH231478   7.486   4.498  18.630
 2428TIP3    H131479   7.388   4.497  18.643
 2428TIP3    H231480   7.506   4.404  18.652
 2429TIP3   OH231481   7.219   4.279  17.517
 2429TIP3    H131482   7.234   4.182  17.508
 2429TIP3    H231483   7.310   4.312  17.523
 2430TIP3   OH231484   7.257   4.371  18.040
 2430TIP3    H131485   7.352   4.355  18.021
 2430TIP3    H231486   7.256   4.353  18.135
 2431TIP3   OH231487   7.289   4.410  18.333
 2431TIP3    H131488   7.200   4.446  18.351
 2431TIP3    H231489   7.333   4.492  18.302
 2432TIP3   OH231490   5.738   4.263  18.630
 2432TIP3    H131491   5.822   4.250  18.677
 2432TIP3    H231492   5.687   4.185  18.662
 2433TIP3   OH231493   7.502   3.777  18.825
 2433TIP3    H131494   7.541   3.726  18.753
 2433TIP3    H231495   7.493   3.864  18.781
 2434TIP3   OH231496   7.258   4.018  17.481
 2434TIP3    H131497   7.277   3.965  17.562
 2434TIP3    H231498   7.252   3.946  17.414
 2435TIP3   OH231499   5.847   4.090  17.979
 2435TIP3    H131500   5.899   4.006  17.970
 2435TIP3    H231501   5.921   4.152  17.993
 2436TIP3   OH231502   5.688   4.406  18.050
 2436TIP3    H131503   5.766   4.379  17.999
 2436TIP3    H231504   5.724   4.482  18.097
 2437TIP3   OH231505   7.442   4.005  18.707
 2437TIP3    H131506   7.364   4.060  18.734
 2437TIP3    H231507   7.420   3.985  18.615
 2438TIP3   OH231508   5.708   4.056  17.474
 2438TIP3    H131509   5.617   4.053  17.443
 2438TIP3    H231510   5.752   4.090  17.394
 2439TIP3   OH231511   5.715   3.864  18.285
 2439TIP3    H131512   5.650   3.856  18.358
 2439TIP3    H231513   5.675   3.923  18.221
 2440TIP3   OH231514   5.934   5.201  18.688
 2440TIP3    H131515   5.851   5.218  18.641
 2440TIP3    H231516   5.903   5.175  18.775
 2441TIP3   OH231517   6.209   5.319  18.306
 2441TIP3    H131518   6.209   5.417  18.302
 2441TIP3    H231519   6.305   5.306  18.320
 2442TIP3   OH231520   6.627   5.476  18.624
 2442TIP3    H131521   6.640   5.451  18.717
 2442TIP3    H231522   6.719   5.504  18.598
 2443TIP3   OH231523   6.854   5.609  18.572
 2443TIP3    H131524   6.933   5.566  18.536
 2443TIP3    H231525   6.886   5.643  18.659
 2444TIP3   OH231526   7.351   3.831  18.484
 2444TIP3    H131527   7.275   3.872  18.440
 2444TIP3    H231528   7.355   3.743  18.444
 2445TIP3   OH231529   5.950   5.640  18.318
 2445TIP3    H131530   5.868   5.685  18.286
 2445TIP3    H231531   5.939   5.657  18.413
 2446TIP3   OH231532   6.191   5.588  18.229
 2446TIP3    H131533   6.097   5.607  18.257
 2446TIP3    H231534   6.203   5.655  18.160
 2447TIP3   OH231535   6.663   5.560  18.149
 2447TIP3    H131536   6.586   5.603  18.110
 2447TIP3    H231537   6.682   5.622  18.223
 2448TIP3   OH231538   6.865   5.420  18.297
 2448TIP3    H131539   6.796   5.455  18.238
 2448TIP3    H231540   6.931   5.490  18.292
 2449TIP3   OH231541   7.134   5.572  18.266
 2449TIP3    H131542   7.133   5.665  18.243
 2449TIP3    H231543   7.178   5.532  18.187
 2450TIP3   OH231544   5.911   5.479  18.018
 2450TIP3    H131545   5.903   5.422  18.098
 2450TIP3    H231546   5.999   5.449  17.984
 2451TIP3   OH231547   6.123   5.382  17.893
 2451TIP3    H131548   6.109   5.287  17.916
 2451TIP3    H231549   6.218   5.395  17.916
 2452TIP3   OH231550   6.366   5.397  17.999
 2452TIP3    H131551   6.380   5.301  18.012
 2452TIP3    H231552   6.364   5.430  18.091
 2453TIP3   OH231553   6.760   3.990  17.910
 2453TIP3    H131554   6.687   3.931  17.931
 2453TIP3    H231555   6.754   3.992  17.812
 2454TIP3   OH231556   7.211   3.767  17.895
 2454TIP3    H131557   7.245   3.833  17.831
 2454TIP3    H231558   7.116   3.773  17.868
 2455TIP3   OH231559   7.336   3.912  17.709
 2455TIP3    H131560   7.409   3.847  17.697
 2455TIP3    H231561   7.389   3.986  17.748
 2456TIP3   OH231562   5.953   3.816  17.707
 2456TIP3    H131563   5.861   3.802  17.679
 2456TIP3    H231564   5.995   3.731  17.680
 2457TIP3   OH231565   5.847   3.840  17.231
 2457TIP3    H131566   5.919   3.900  17.199
 2457TIP3    H231567   5.788   3.906  17.270
 2458TIP3   OH231568   6.369   3.826  17.690
 2458TIP3    H131569   6.419   3.874  17.621
 2458TIP3    H231570   6.415   3.858  17.770
 2459TIP3   OH231571   6.973   3.832  17.799
 2459TIP3    H131572   6.946   3.834  17.707
 2459TIP3    H231573   6.901   3.777  17.836
 2460TIP3   OH231574   5.821   5.452  17.343
 2460TIP3    H131575   5.801   5.407  17.260
 2460TIP3    H231576   5.838   5.545  17.314
 2461TIP3   OH231577   6.484   3.989  17.485
 2461TIP3    H131578   6.471   3.962  17.392
 2461TIP3    H231579   6.476   4.085  17.475
 2462TIP3   OH231580   6.705   5.582  17.143
 2462TIP3    H131581   6.797   5.572  17.170
 2462TIP3    H231582   6.695   5.507  17.080
 2463TIP3   OH231583   5.920   3.905  18.629
 2463TIP3    H131584   5.866   3.825  18.636
 2463TIP3    H231585   5.998   3.882  18.684
 2464TIP3   OH231586   6.113   3.834  18.813
 2464TIP3    H131587   6.206   3.813  18.789
 2464TIP3    H231588   6.084   3.744  18.840
 2465TIP3   OH231589   6.986   3.771  18.828
 2465TIP3    H131590   6.982   3.717  18.910
 2465TIP3    H231591   7.070   3.736  18.790
 2466TIP3   OH231592   7.279   5.318  18.647
 2466TIP3    H131593   7.222   5.335  18.568
 2466TIP3    H231594   7.293   5.409  18.679
 2467TIP3   OH231595   7.538   4.420  17.492
 2467TIP3    H131596   7.529   4.501  17.545
 2467TIP3    H231597   7.533   4.459  17.403
 2468TIP3   OH231598   7.584   4.884  18.334
 2468TIP3    H131599   7.535   4.875  18.249
 2468TIP3    H231600   7.591   4.792  18.367
 2469TIP3   OH231601   7.544   5.180  18.019
 2469TIP3    H131602   7.640   5.186  17.994
 2469TIP3    H231603   7.531   5.269  18.057
 2470TIP3   OH231604   7.513   4.117  17.735
 2470TIP3    H131605   7.609   4.141  17.743
 2470TIP3    H231606   7.500   4.130  17.641
 2471TIP3   OH231607   7.592   4.637  18.437
 2471TIP3    H131608   7.576   4.577  18.514
 2471TIP3    H231609   7.512   4.618  18.385
 2472TIP3   OH231610   7.643   4.825  18.740
 2472TIP3    H131611   7.587   4.754  18.778
 2472TIP3    H231612   7.578   4.875  18.686
 2473TIP3   OH231613   7.488   5.609  17.646
 2473TIP3    H131614   7.407   5.588  17.591
 2473TIP3    H231615   7.499   5.522  17.693
 2474TIP3   OH231616   7.538   5.390  17.791
 2474TIP3    H131617   7.543   5.295  17.809
 2474TIP3    H231618   7.628   5.419  17.819
 2475TIP3   OH231619   7.623   4.657  18.068
 2475TIP3    H131620   7.598   4.691  17.982
 2475TIP3    H231621   7.700   4.715  18.087
 2476TIP3   OH231622   7.544   4.246  18.677
 2476TIP3    H131623   7.641   4.249  18.661
 2476TIP3    H231624   7.530   4.151  18.696
 2477TIP3   OH231625   7.517   4.365  18.044
 2477TIP3    H131626   7.613   4.353  18.026
 2477TIP3    H231627   7.519   4.461  18.063
 2478TIP3   OH231628   7.513   4.044  17.407
 2478TIP3    H131629   7.419   4.046  17.435
 2478TIP3    H231630   7.522   3.955  17.369
 2479TIP3   OH231631   7.476   3.848  18.241
 2479TIP3    H131632   7.463   3.860  18.337
 2479TIP3    H231633   7.446   3.935  18.206
 2480TIP3   OH231634   1.213   6.667  17.637
 2480TIP3    H131635   1.208   6.747  17.581
 2480TIP3    H231636   1.136   6.619  17.605
 2481TIP3   OH231637   1.091   6.532  17.985
 2481TIP3    H131638   1.101   6.492  18.076
 2481TIP3    H231639   1.024   6.473  17.946
 2482TIP3   OH231640   0.327   6.514  18.146
 2482TIP3    H131641   0.315   6.438  18.206
 2482TIP3    H231642   0.402   6.557  18.189
 2483TIP3   OH231643   0.353   6.980  17.962
 2483TIP3    H131644   0.340   6.885  17.940
 2483TIP3    H231645   0.448   6.974  17.978
 2484TIP3   OH231646   0.158   6.356  17.537
 2484TIP3    H131647   0.079   6.407  17.557
 2484TIP3    H231648   0.128   6.268  17.565
 2485TIP3   OH231649   0.113   6.540  17.820
 2485TIP3    H131650   0.171   6.461  17.805
 2485TIP3    H231651   0.160   6.610  17.773
 2486TIP3   OH231652   0.908   6.790  18.087
 2486TIP3    H131653   0.953   6.738  18.018
 2486TIP3    H231654   0.988   6.824  18.134
 2487TIP3   OH231655   1.784   5.940  18.100
 2487TIP3    H131656   1.791   6.010  18.168
 2487TIP3    H231657   1.854   5.968  18.038
 2488TIP3   OH231658   1.289   6.253  18.098
 2488TIP3    H131659   1.293   6.158  18.120
 2488TIP3    H231660   1.284   6.246  18.000
 2489TIP3   OH231661   1.331   6.068  17.657
 2489TIP3    H131662   1.383   6.047  17.737
 2489TIP3    H231663   1.396   6.121  17.608
 2490TIP3   OH231664   0.251   6.313  17.830
 2490TIP3    H131665   0.295   6.260  17.898
 2490TIP3    H231666   0.194   6.242  17.790
 2491TIP3   OH231667   0.673   6.476  17.813
 2491TIP3    H131668   0.752   6.445  17.859
 2491TIP3    H231669   0.669   6.416  17.736
 2492TIP3   OH231670   1.788   6.101  18.336
 2492TIP3    H131671   1.740   6.177  18.292
 2492TIP3    H231672   1.810   6.143  18.420
 2493TIP3   OH231673   0.452   5.936  18.199
 2493TIP3    H131674   0.432   6.005  18.134
 2493TIP3    H231675   0.404   5.972  18.276
 2494TIP3   OH231676   0.701   6.726  18.237
 2494TIP3    H131677   0.644   6.804  18.253
 2494TIP3    H231678   0.771   6.765  18.179
 2495TIP3   OH231679   1.503   6.056  17.863
 2495TIP3    H131680   1.501   5.964  17.893
 2495TIP3    H231681   1.590   6.089  17.894
 2496TIP3   OH231682   0.408   6.147  18.008
 2496TIP3    H131683   0.456   6.213  18.064
 2496TIP3    H231684   0.476   6.129  17.942
 2497TIP3   OH231685   0.562   6.946  18.300
 2497TIP3    H131686   0.549   7.039  18.274
 2497TIP3    H231687   0.474   6.927  18.337
 2498TIP3   OH231688   0.084   6.880  17.355
 2498TIP3    H131689   0.105   6.902  17.261
 2498TIP3    H231690   0.132   6.949  17.403
 2499TIP3   OH231691   1.506   7.074  18.110
 2499TIP3    H131692   1.412   7.089  18.127
 2499TIP3    H231693   1.530   7.148  18.052
 2500TIP3   OH231694   1.502   5.876  18.189
 2500TIP3    H131695   1.433   5.936  18.154
 2500TIP3    H231696   1.576   5.889  18.127
 2501TIP3   OH231697   0.795   5.698  17.934
 2501TIP3    H131698   0.775   5.609  17.901
 2501TIP3    H231699   0.758   5.694  18.023
 2502TIP3   OH231700   1.614   6.878  18.442
 2502TIP3    H131701   1.624   6.802  18.381
 2502TIP3    H231702   1.635   6.951  18.381
 2503TIP3   OH231703   1.082   6.582  17.388
 2503TIP3    H131704   1.023   6.655  17.357
 2503TIP3    H231705   1.157   6.582  17.324
 2504TIP3   OH231706   1.815   6.528  18.232
 2504TIP3    H131707   1.754   6.604  18.236
 2504TIP3    H231708   1.877   6.561  18.163
 2505TIP3   OH231709   1.433   6.577  17.501
 2505TIP3    H131710   1.360   6.622  17.550
 2505TIP3    H231711   1.492   6.547  17.572
 2506TIP3   OH231712   1.423   6.429  18.410
 2506TIP3    H131713   1.388   6.514  18.438
 2506TIP3    H231714   1.367   6.413  18.332
 2507TIP3   OH231715   0.590   6.695  17.679
 2507TIP3    H131716   0.535   6.649  17.611
 2507TIP3    H231717   0.625   6.617  17.727
 2508TIP3   OH231718   0.715   6.971  17.967
 2508TIP3    H131719   0.735   6.973  17.872
 2508TIP3    H231720   0.789   6.920  18.005
 2509TIP3   OH231721   0.624   6.522  18.081
 2509TIP3    H131722   0.648   6.549  17.991
 2509TIP3    H231723   0.651   6.600  18.134
 2510TIP3   OH231724   0.700   6.953  18.536
 2510TIP3    H131725   0.626   7.004  18.576
 2510TIP3    H231726   0.670   6.949  18.441
 2511TIP3   OH231727   1.314   6.524  17.272
 2511TIP3    H131728   1.340   6.498  17.363
 2511TIP3    H231729   1.371   6.601  17.264
 2512TIP3   OH231730   0.432   6.591  18.426
 2512TIP3    H131731   0.421   6.663  18.490
 2512TIP3    H231732   0.343   6.549  18.430
 2513TIP3   OH231733   0.518   7.153  18.614
 2513TIP3    H131734   0.509   7.161  18.517
 2513TIP3    H231735   0.424   7.142  18.639
 2514TIP3   OH231736   1.660   5.684  17.326
 2514TIP3    H131737   1.567   5.705  17.348
 2514TIP3    H231738   1.688   5.758  17.268
 2515TIP3   OH231739   0.455   6.544  17.493
 2515TIP3    H131740   0.403   6.610  17.442
 2515TIP3    H231741   0.418   6.462  17.459
 2516TIP3   OH231742   0.151   6.776  18.371
 2516TIP3    H131743   0.055   6.767  18.353
 2516TIP3    H231744   0.183   6.684  18.361
 2517TIP3   OH231745   0.123   7.102  17.967
 2517TIP3    H131746   0.203   7.043  17.968
 2517TIP3    H231747   0.133   7.144  18.054
 2518TIP3   OH231748   1.856   7.141  18.604
 2518TIP3    H131749   1.845   7.044  18.615
 2518TIP3    H231750   1.765   7.169  18.631
 2519TIP3   OH231751   0.950   7.077  18.456
 2519TIP3    H131752   0.962   7.154  18.514
 2519TIP3    H231753   0.868   7.036  18.489
 2520TIP3   OH231754   0.992   7.559  17.437
 2520TIP3    H131755   1.018   7.501  17.366
 2520TIP3    H231756   1.047   7.638  17.421
 2521TIP3   OH231757   0.389   7.325  17.639
 2521TIP3    H131758   0.406   7.318  17.736
 2521TIP3    H231759   0.302   7.280  17.633
 2522TIP3   OH231760   1.570   6.280  18.620
 2522TIP3    H131761   1.512   6.317  18.550
 2522TIP3    H231762   1.565   6.186  18.598
 2523TIP3   OH231763   0.310   6.973  18.421
 2523TIP3    H131764   0.302   6.950  18.515
 2523TIP3    H231765   0.243   6.909  18.388
 2524TIP3   OH231766   1.055   5.734  18.345
 2524TIP3    H131767   1.092   5.685  18.422
 2524TIP3    H231768   0.959   5.731  18.362
 2525TIP3   OH231769   1.339   6.148  18.488
 2525TIP3    H131770   1.283   6.091  18.549
 2525TIP3    H231771   1.287   6.230  18.491
 2526TIP3   OH231772   0.586   6.272  18.152
 2526TIP3    H131773   0.513   6.283  18.216
 2526TIP3    H231774   0.605   6.366  18.130
 2527TIP3   OH231775   1.104   6.362  17.539
 2527TIP3    H131776   1.100   6.444  17.485
 2527TIP3    H231777   1.187   6.322  17.503
 2528TIP3   OH231778   1.023   6.352  18.673
 2528TIP3    H131779   0.983   6.268  18.706
 2528TIP3    H231780   1.101   6.360  18.729
 2529TIP3   OH231781   1.253   6.293  17.822
 2529TIP3    H131782   1.229   6.375  17.776
 2529TIP3    H231783   1.270   6.233  17.747
 2530TIP3   OH231784   0.357   6.274  18.289
 2530TIP3    H131785   0.393   6.324  18.363
 2530TIP3    H231786   0.315   6.197  18.333
 2531TIP3   OH231787   0.118   6.107  17.756
 2531TIP3    H131788   0.149   6.030  17.809
 2531TIP3    H231789   0.122   6.072  17.664
 2532TIP3   OH231790   0.093   6.180  17.241
 2532TIP3    H131791   0.177   6.208  17.203
 2532TIP3    H231792   0.118   6.150  17.330
 2533TIP3   OH231793   1.140   6.429  18.234
 2533TIP3    H131794   1.205   6.367  18.194
 2533TIP3    H231795   1.093   6.373  18.300
 2534TIP3   OH231796   0.646   6.221  17.442
 2534TIP3    H131797   0.735   6.194  17.415
 2534TIP3    H231798   0.608   6.246  17.355
 2535TIP3   OH231799   1.271   5.971  18.059
 2535TIP3    H131800   1.202   5.943  18.121
 2535TIP3    H231801   1.249   5.918  17.980
 2536TIP3   OH231802   0.600   6.274  17.171
 2536TIP3    H131803   0.515   6.292  17.129
 2536TIP3    H231804   0.661   6.326  17.116
 2537TIP3   OH231805   1.540   7.532  18.702
 2537TIP3    H131806   1.561   7.556  18.611
 2537TIP3    H231807   1.631   7.543  18.742
 2538TIP3   OH231808   0.377   6.768  18.651
 2538TIP3    H131809   0.460   6.782  18.700
 2538TIP3    H231810   0.312   6.797  18.719
 2539TIP3   OH231811   0.957   6.309  17.899
 2539TIP3    H131812   1.046   6.285  17.868
 2539TIP3    H231813   0.953   6.261  17.983
 2540TIP3   OH231814   0.821   6.141  18.185
 2540TIP3    H131815   0.750   6.204  18.203
 2540TIP3    H231816   0.897   6.182  18.230
 2541TIP3   OH231817   0.877   6.761  17.351
 2541TIP3    H131818   0.789   6.727  17.331
 2541TIP3    H231819   0.863   6.813  17.433
 2542TIP3   OH231820   1.625   6.732  18.226
 2542TIP3    H131821   1.667   6.772  18.146
 2542TIP3    H231822   1.536   6.712  18.190
 2543TIP3   OH231823   1.020   6.816  18.465
 2543TIP3    H131824   1.012   6.773  18.551
 2543TIP3    H231825   1.012   6.911  18.486
 2544TIP3   OH231826   1.316   6.286  17.391
 2544TIP3    H131827   1.404   6.245  17.400
 2544TIP3    H231828   1.318   6.321  17.300
 2545TIP3   OH231829   0.434   6.734  17.908
 2545TIP3    H131830   0.489   6.737  17.826
 2545TIP3    H231831   0.449   6.645  17.942
 2546TIP3   OH231832   0.176   6.503  18.422
 2546TIP3    H131833   0.173   6.485  18.518
 2546TIP3    H231834   0.080   6.509  18.400
 2547TIP3   OH231835   0.807   6.514  18.648
 2547TIP3    H131836   0.760   6.453  18.590
 2547TIP3    H231837   0.895   6.469  18.652
 2548TIP3   OH231838   1.282   7.039  18.478
 2548TIP3    H131839   1.216   7.068  18.414
 2548TIP3    H231840   1.252   7.083  18.560
 2549TIP3   OH231841   1.781   6.272  17.367
 2549TIP3    H131842   1.760   6.253  17.274
 2549TIP3    H231843   1.803   6.367  17.363
 2550TIP3   OH231844   1.840   6.860  18.579
 2550TIP3    H131845   1.744   6.871  18.558
 2550TIP3    H231846   1.876   6.857  18.488
 2551TIP3   OH231847   1.701   7.109  17.316
 2551TIP3    H131848   1.639   7.042  17.349
 2551TIP3    H231849   1.658   7.132  17.231
 2552TIP3   OH231850   1.412   6.601  18.088
 2552TIP3    H131851   1.319   6.587  18.064
 2552TIP3    H231852   1.455   6.536  18.029
 2553TIP3   OH231853   0.635   7.062  17.652
 2553TIP3    H131854   0.649   7.146  17.602
 2553TIP3    H231855   0.539   7.053  17.648
 2554TIP3   OH231856   0.180   6.527  17.095
 2554TIP3    H131857   0.264   6.576  17.105
 2554TIP3    H231858   0.151   6.514  17.186
 2555TIP3   OH231859   0.808   6.843  17.614
 2555TIP3    H131860   0.741   6.914  17.621
 2555TIP3    H231861   0.753   6.764  17.623
 2556TIP3   OH231862   0.828   7.240  18.281
 2556TIP3    H131863   0.868   7.329  18.286
 2556TIP3    H231864   0.891   7.185  18.333
 2557TIP3   OH231865   0.633   7.311  17.542
 2557TIP3    H131866   0.542   7.328  17.576
 2557TIP3    H231867   0.682   7.371  17.601
 2558TIP3   OH231868   1.141   6.839  18.219
 2558TIP3    H131869   1.110   6.830  18.313
 2558TIP3    H231870   1.198   6.761  18.209
 2559TIP3   OH231871   1.444   7.298  18.465
 2559TIP3    H131872   1.366   7.246  18.436
 2559TIP3    H231873   1.456   7.366  18.395
 2560TIP3   OH231874   0.272   6.038  18.397
 2560TIP3    H131875   0.233   6.077  18.478
 2560TIP3    H231876   0.245   5.945  18.405
 2561TIP3   OH231877   0.235   7.189  18.245
 2561TIP3    H131878   0.295   7.119  18.277
 2561TIP3    H231879   0.236   7.248  18.320
 2562TIP3   OH231880   0.741   7.059  17.234
 2562TIP3    H131881   0.785   6.975  17.210
 2562TIP3    H231882   0.781   7.075  17.321
 2563TIP3   OH231883   0.313   6.701  17.305
 2563TIP3    H131884   0.238   6.764  17.307
 2563TIP3    H231885   0.376   6.747  17.247
 2564TIP3   OH231886   1.129   5.998  18.329
 2564TIP3    H131887   1.221   6.012  18.358
 2564TIP3    H231888   1.111   5.903  18.348
 2565TIP3   OH231889   1.173   5.963  17.457
 2565TIP3    H131890   1.195   5.989  17.367
 2565TIP3    H231891   1.242   6.003  17.514
 2566TIP3   OH231892   0.963   6.135  17.574
 2566TIP3    H131893   1.011   6.208  17.530
 2566TIP3    H231894   0.917   6.182  17.643
 2567TIP3   OH231895   1.044   6.243  18.409
 2567TIP3    H131896   1.055   6.263  18.504
 2567TIP3    H231897   1.062   6.145  18.405
 2568TIP3   OH231898   1.029   5.811  17.614
 2568TIP3    H131899   0.978   5.882  17.656
 2568TIP3    H231900   1.095   5.869  17.566
 2569TIP3   OH231901   1.584   6.010  18.503
 2569TIP3    H131902   1.491   6.036  18.486
 2569TIP3    H231903   1.630   6.043  18.423
 2570TIP3   OH231904   1.496   6.400  17.901
 2570TIP3    H131905   1.420   6.340  17.892
 2570TIP3    H231906   1.561   6.346  17.949
 2571TIP3   OH231907   0.245   6.275  16.999
 2571TIP3    H131908   0.254   6.370  17.021
 2571TIP3    H231909   0.149   6.269  16.995
 2572TIP3   OH231910   1.574   7.351  18.076
 2572TIP3    H131911   1.581   7.410  17.997
 2572TIP3    H231912   1.664   7.317  18.077
 2573TIP3   OH231913   0.206   7.080  17.510
 2573TIP3    H131914   0.122   7.115  17.540
 2573TIP3    H231915   0.230   7.151  17.446
 2574TIP3   OH231916   0.119   7.410  18.664
 2574TIP3    H131917   0.209   7.430  18.694
 2574TIP3    H231918   0.107   7.324  18.705
 2575TIP3   OH231919   0.652   7.256  18.848
 2575TIP3    H131920   0.734   7.210  18.825
 2575TIP3    H231921   0.601   7.242  18.767
 2576TIP3   OH231922   1.235   7.141  18.731
 2576TIP3    H131923   1.195   7.053  18.750
 2576TIP3    H231924   1.314   7.136  18.787
 2577TIP3   OH231925   0.180   6.818  18.828
 2577TIP3    H131926   0.182   6.724  18.805
 2577TIP3    H231927   0.089   6.834  18.796
 2578TIP3   OH231928   0.795   6.772  18.705
 2578TIP3    H131929   0.769   6.822  18.624
 2578TIP3    H231930   0.791   6.677  18.677
 2579TIP3   OH231931   1.081   6.948  16.983
 2579TIP3    H131932   1.103   6.975  17.074
 2579TIP3    H231933   1.020   6.876  17.002
 2580TIP3   OH231934   1.355   6.751  18.477
 2580TIP3    H131935   1.443   6.794  18.474
 2580TIP3    H231936   1.300   6.832  18.481
 2581TIP3   OH231937   0.223   6.482  18.756
 2581TIP3    H131938   0.292   6.413  18.748
 2581TIP3    H231939   0.235   6.513  18.848
 2582TIP3   OH231940   0.617   6.384  18.426
 2582TIP3    H131941   0.562   6.463  18.446
 2582TIP3    H231942   0.693   6.426  18.380
 2583TIP3   OH231943   0.779   6.429  17.041
 2583TIP3    H131944   0.792   6.523  17.021
 2583TIP3    H231945   0.847   6.410  17.107
 2584TIP3   OH231946   1.151   6.651  18.799
 2584TIP3    H131947   1.229   6.602  18.769
 2584TIP3    H231948   1.111   6.584  18.860
 2585TIP3   OH231949   0.664   6.146  18.545
 2585TIP3    H131950   0.670   6.081  18.473
 2585TIP3    H231951   0.660   6.231  18.496
 2586TIP3   OH231952   0.689   5.949  18.319
 2586TIP3    H131953   0.738   6.006  18.255
 2586TIP3    H231954   0.603   5.935  18.273
 2587TIP3   OH231955   0.834   6.525  18.328
 2587TIP3    H131956   0.913   6.572  18.296
 2587TIP3    H231957   0.769   6.595  18.306
 2588TIP3   OH231958   1.265   6.285  18.837
 2588TIP3    H131959   1.294   6.195  18.818
 2588TIP3    H231960   1.347   6.331  18.859
 2589TIP3   OH231961   1.431   6.601  18.688
 2589TIP3    H131962   1.387   6.652  18.616
 2589TIP3    H231963   1.521   6.594  18.651
 2590TIP3   OH231964   0.430   6.287  18.710
 2590TIP3    H131965   0.385   6.204  18.736
 2590TIP3    H231966   0.504   6.251  18.659
 2591TIP3   OH231967   0.784   5.704  18.345
 2591TIP3    H131968   0.758   5.799  18.340
 2591TIP3    H231969   0.709   5.663  18.300
 2592TIP3   OH231970   0.891   6.123  18.740
 2592TIP3    H131971   0.838   6.100  18.819
 2592TIP3    H231972   0.822   6.121  18.671
 2593TIP3   OH231973   1.164   6.048  18.656
 2593TIP3    H131974   1.068   6.049  18.673
 2593TIP3    H231975   1.195   5.996  18.733
 2594TIP3   OH231976   1.320   5.916  18.835
 2594TIP3    H131977   1.318   5.818  18.830
 2594TIP3    H231978   1.306   5.931  18.931
 2595TIP3   OH231979   0.307   6.039  18.771
 2595TIP3    H131980   0.329   5.956  18.727
 2595TIP3    H231981   0.268   6.003  18.855
 2596TIP3   OH231982   0.774   5.680  18.630
 2596TIP3    H131983   0.854   5.623  18.638
 2596TIP3    H231984   0.767   5.680  18.532
 2597TIP3   OH231985   0.779   5.798  18.875
 2597TIP3    H131986   0.779   5.753  18.787
 2597TIP3    H231987   0.733   5.882  18.858
 2598TIP3   OH231988   0.163   6.945  17.096
 2598TIP3    H131989   0.228   7.010  17.060
 2598TIP3    H231990   0.146   6.886  17.021
 2599TIP3   OH231991   0.041   7.475  17.527
 2599TIP3    H131992  -0.049   7.504  17.553
 2599TIP3    H231993   0.046   7.394  17.580
 2600TIP3   OH231994   0.158   7.292  17.781
 2600TIP3    H131995   0.139   7.199  17.806
 2600TIP3    H231996   0.181   7.329  17.868
 2601TIP3   OH231997   1.870   7.403  18.050
 2601TIP3    H131998   1.891   7.436  18.141
 2601TIP3    H231999   1.891   7.480  17.995
 2602TIP3   OH232000   1.801   7.330  18.407
 2602TIP3    H132001   1.779   7.262  18.340
 2602TIP3    H232002   1.841   7.271  18.474
 2603TIP3   OH232003   1.658   6.938  18.841
 2603TIP3    H132004   1.573   6.930  18.888
 2603TIP3    H232005   1.692   7.022  18.876
 2604TIP3   OH232006   1.791   6.746  17.383
 2604TIP3    H132007   1.877   6.791  17.399
 2604TIP3    H232008   1.792   6.678  17.452
 2605TIP3   OH232009   1.811   6.570  17.590
 2605TIP3    H132010   1.736   6.508  17.606
 2605TIP3    H232011   1.843   6.586  17.680
 2606TIP3   OH232012   1.771   6.829  18.035
 2606TIP3    H132013   1.843   6.763  18.028
 2606TIP3    H232014   1.822   6.911  18.024
 2607TIP3   OH232015   1.664   7.114  18.312
 2607TIP3    H132016   1.598   7.158  18.369
 2607TIP3    H232017   1.610   7.084  18.236
 2608TIP3   OH232018   1.716   6.274  17.077
 2608TIP3    H132019   1.701   6.333  17.002
 2608TIP3    H232020   1.636   6.218  17.075
 2609TIP3   OH232021   1.612   6.410  17.651
 2609TIP3    H132022   1.593   6.317  17.624
 2609TIP3    H232023   1.579   6.414  17.743
 2610TIP3   OH232024   0.160   6.700  18.030
 2610TIP3    H132025   0.153   6.633  17.959
 2610TIP3    H232026   0.244   6.673  18.072
 2611TIP3   OH232027   1.715   6.609  18.605
 2611TIP3    H132028   1.758   6.522  18.620
 2611TIP3    H232029   1.788   6.667  18.577
 2612TIP3   OH232030   1.819   6.357  18.631
 2612TIP3    H132031   1.724   6.330  18.628
 2612TIP3    H232032   1.864   6.272  18.646
 2613TIP3   OH232033   1.557   6.184  17.512
 2613TIP3    H132034   1.573   6.086  17.514
 2613TIP3    H232035   1.635   6.209  17.460
 2614TIP3   OH232036   1.673   6.231  18.035
 2614TIP3    H132037   1.772   6.245  18.041
 2614TIP3    H232038   1.650   6.253  18.127
 2615TIP3   OH232039   1.645   6.317  18.284
 2615TIP3    H132040   1.560   6.356  18.312
 2615TIP3    H232041   1.697   6.399  18.268
 2616TIP3   OH232042   0.119   6.112  18.604
 2616TIP3    H132043   0.190   6.121  18.672
 2616TIP3    H232044   0.110   6.016  18.602
 2617TIP3   OH232045   1.888   5.734  18.852
 2617TIP3    H132046   1.930   5.659  18.808
 2617TIP3    H232047   1.874   5.801  18.781
 2618TIP3   OH232048   1.635   5.931  17.527
 2618TIP3    H132049   1.662   5.874  17.602
 2618TIP3    H232050   1.575   5.873  17.478
 2619TIP3   OH232051   0.201   5.957  17.969
 2619TIP3    H132052   0.222   5.886  18.031
 2619TIP3    H232053   0.204   6.039  18.022
 2620TIP3   OH232054   0.081   6.287  18.035
 2620TIP3    H132055   0.126   6.318  17.954
 2620TIP3    H232056   0.105   6.356  18.097
 2621TIP3   OH232057   1.812   5.900  18.658
 2621TIP3    H132058   1.744   5.940  18.718
 2621TIP3    H232059   1.767   5.924  18.575
 2622TIP3   OH232060   1.807   5.894  17.199
 2622TIP3    H132061   1.798   5.837  17.120
 2622TIP3    H232062   1.887   5.944  17.176
 2623TIP3   OH232063   0.126   5.985  17.519
 2623TIP3    H132064   0.039   5.942  17.525
 2623TIP3    H232065   0.181   5.911  17.488
 2624TIP3   OH232066   1.525   7.387  17.653
 2624TIP3    H132067   1.603   7.364  17.597
 2624TIP3    H232068   1.564   7.436  17.726
 2625TIP3   OH232069   0.063   5.752  18.305
 2625TIP3    H132070  -0.025   5.733  18.342
 2625TIP3    H232071   0.038   5.804  18.227
 2626TIP3   OH232072   0.261   7.100  18.693
 2626TIP3    H132073   0.173   7.105  18.655
 2626TIP3    H232074   0.244   7.089  18.788
 2627TIP3   OH232075   0.571   7.207  18.358
 2627TIP3    H132076   0.558   7.298  18.324
 2627TIP3    H232077   0.668   7.203  18.352
 2628TIP3   OH232078   0.992   7.298  18.618
 2628TIP3    H132079   0.993   7.290  18.716
 2628TIP3    H232080   1.069   7.357  18.602
 2629TIP3   OH232081   1.238   7.489  18.555
 2629TIP3    H132082   1.320   7.438  18.538
 2629TIP3    H232083   1.244   7.493  18.653
 2630TIP3   OH232084   1.684   5.712  18.476
 2630TIP3    H132085   1.629   5.774  18.425
 2630TIP3    H232086   1.650   5.627  18.443
 2631TIP3   OH232087   0.306   7.560  18.339
 2631TIP3    H132088   0.235   7.572  18.273
 2631TIP3    H232089   0.255   7.533  18.416
 2632TIP3   OH232090   0.527   7.448  18.248
 2632TIP3    H132091   0.445   7.481  18.290
 2632TIP3    H232092   0.526   7.502  18.167
 2633TIP3   OH232093   1.020   7.466  18.131
 2633TIP3    H132094   0.931   7.476  18.092
 2633TIP3    H232095   1.023   7.543  18.192
 2634TIP3   OH232096   1.223   7.324  18.238
 2634TIP3    H132097   1.149   7.378  18.202
 2634TIP3    H232098   1.289   7.392  18.258
 2635TIP3   OH232099   1.451   7.509  18.275
 2635TIP3    H132100   1.439   7.606  18.273
 2635TIP3    H232101   1.494   7.489  18.189
 2636TIP3   OH232102   0.261   7.342  18.032
 2636TIP3    H132103   0.260   7.292  18.116
 2636TIP3    H232104   0.338   7.303  17.985
 2637TIP3   OH232105   0.475   7.264  17.885
 2637TIP3    H132106   0.473   7.167  17.888
 2637TIP3    H232107   0.563   7.278  17.928
 2638TIP3   OH232108   0.702   7.247  18.029
 2638TIP3    H132109   0.725   7.152  18.019
 2638TIP3    H232110   0.735   7.266  18.119
 2639TIP3   OH232111   1.072   5.828  17.911
 2639TIP3    H132112   0.977   5.840  17.898
 2639TIP3    H232113   1.095   5.782  17.829
 2640TIP3   OH232114   1.585   5.659  17.888
 2640TIP3    H132115   1.645   5.723  17.843
 2640TIP3    H232116   1.497   5.683  17.850
 2641TIP3   OH232117   1.750   5.801  17.737
 2641TIP3    H132118   1.813   5.742  17.689
 2641TIP3    H232119   1.805   5.883  17.745
 2642TIP3   OH232120   1.330   5.715  17.807
 2642TIP3    H132121   1.308   5.720  17.713
 2642TIP3    H232122   1.279   5.636  17.834
 2643TIP3   OH232123   1.389   5.729  17.371
 2643TIP3    H132124   1.346   5.737  17.282
 2643TIP3    H232125   1.363   5.639  17.400
 2644TIP3   OH232126   0.199   7.289  17.350
 2644TIP3    H132127   0.108   7.290  17.319
 2644TIP3    H232128   0.233   7.369  17.306
 2645TIP3   OH232129   0.885   5.928  17.353
 2645TIP3    H132130   0.941   5.877  17.412
 2645TIP3    H232131   0.931   6.012  17.347
 2646TIP3   OH232132   1.714   7.335  17.473
 2646TIP3    H132133   1.713   7.247  17.428
 2646TIP3    H232134   1.714   7.395  17.395
 2647TIP3   OH232135   0.254   5.765  18.636
 2647TIP3    H132136   0.210   5.677  18.645
 2647TIP3    H232137   0.341   5.746  18.676
 2648TIP3   OH232138   0.484   5.707  18.819
 2648TIP3    H132139   0.578   5.702  18.793
 2648TIP3    H232140   0.469   5.614  18.839
 2649TIP3   OH232141   1.312   5.647  18.812
 2649TIP3    H132142   1.316   5.585  18.888
 2649TIP3    H232143   1.403   5.637  18.779
 2650TIP3   OH232144   1.615   7.236  18.675
 2650TIP3    H132145   1.539   7.242  18.614
 2650TIP3    H232146   1.640   7.329  18.684
 2651TIP3   OH232147   3.103   6.638  17.657
 2651TIP3    H132148   3.089   6.729  17.687
 2651TIP3    H232149   3.027   6.628  17.598
 2652TIP3   OH232150   2.988   6.543  18.009
 2652TIP3    H132151   2.986   6.483  18.087
 2652TIP3    H232152   2.918   6.503  17.954
 2653TIP3   OH232153   2.181   6.528  18.161
 2653TIP3    H132154   2.204   6.451  18.214
 2653TIP3    H232155   2.258   6.586  18.173
 2654TIP3   OH232156   3.315   6.831  17.854
 2654TIP3    H132157   3.300   6.758  17.918
 2654TIP3    H232158   3.315   6.909  17.911
 2655TIP3   OH232159   2.301   6.983  17.988
 2655TIP3    H132160   2.272   6.896  17.951
 2655TIP3    H232161   2.397   6.967  17.982
 2656TIP3   OH232162   1.974   6.321  17.544
 2656TIP3    H132163   1.938   6.411  17.553
 2656TIP3    H232164   1.893   6.272  17.522
 2657TIP3   OH232165   2.033   6.556  17.817
 2657TIP3    H132166   2.074   6.467  17.834
 2657TIP3    H232167   2.087   6.592  17.746
 2658TIP3   OH232168   3.033   7.354  17.833
 2658TIP3    H132169   3.113   7.312  17.792
 2658TIP3    H232170   3.005   7.281  17.890
 2659TIP3   OH232171   2.800   6.819  18.065
 2659TIP3    H132172   2.830   6.753  18.002
 2659TIP3    H232173   2.882   6.830  18.118
 2660TIP3   OH232174   3.657   5.952  18.140
 2660TIP3    H132175   3.673   6.015  18.213
 2660TIP3    H232176   3.727   5.983  18.080
 2661TIP3   OH232177   3.171   6.247  18.108
 2661TIP3    H132178   3.120   6.186  18.165
 2661TIP3    H232179   3.128   6.231  18.021
 2662TIP3   OH232180   2.457   6.029  17.776
 2662TIP3    H132181   2.466   6.115  17.730
 2662TIP3    H232182   2.401   5.979  17.714
 2663TIP3   OH232183   2.110   6.315  17.883
 2663TIP3    H132184   2.169   6.265  17.942
 2663TIP3    H232185   2.133   6.272  17.797
 2664TIP3   OH232186   2.594   6.463  17.831
 2664TIP3    H132187   2.681   6.423  17.846
 2664TIP3    H232188   2.542   6.383  17.806
 2665TIP3   OH232189   3.688   6.112  18.346
 2665TIP3    H132190   3.649   6.194  18.309
 2665TIP3    H232191   3.711   6.142  18.435
 2666TIP3   OH232192   2.353   5.955  18.202
 2666TIP3    H132193   2.308   5.998  18.127
 2666TIP3    H232194   2.290   5.972  18.275
 2667TIP3   OH232195   3.030   6.906  17.566
 2667TIP3    H132196   3.082   6.902  17.485
 2667TIP3    H232197   2.996   6.997  17.566
 2668TIP3   OH232198   2.574   6.719  18.179
 2668TIP3    H132199   2.523   6.793  18.219
 2668TIP3    H232200   2.645   6.767  18.131
 2669TIP3   OH232201   2.292   6.145  17.997
 2669TIP3    H132202   2.357   6.203  18.045
 2669TIP3    H232203   2.347   6.121  17.919
 2670TIP3   OH232204   2.436   6.934  18.296
 2670TIP3    H132205   2.421   7.026  18.270
 2670TIP3    H232206   2.350   6.912  18.339
 2671TIP3   OH232207   2.015   6.890  17.383
 2671TIP3    H132208   1.964   6.959  17.339
 2671TIP3    H232209   2.043   6.938  17.464
 2672TIP3   OH232210   3.399   7.087  18.093
 2672TIP3    H132211   3.303   7.076  18.105
 2672TIP3    H232212   3.399   7.162  18.033
 2673TIP3   OH232213   3.389   5.884  18.184
 2673TIP3    H132214   3.361   5.976  18.199
 2673TIP3    H232215   3.481   5.895  18.152
 2674TIP3   OH232216   2.681   5.702  17.919
 2674TIP3    H132217   2.665   5.611  17.944
 2674TIP3    H232218   2.600   5.746  17.955
 2675TIP3   OH232219   3.227   7.227  17.712
 2675TIP3    H132220   3.255   7.146  17.664
 2675TIP3    H232221   3.297   7.288  17.678
 2676TIP3   OH232222   3.334   7.011  17.569
 2676TIP3    H132223   3.327   6.948  17.494
 2676TIP3    H232224   3.339   6.948  17.642
 2677TIP3   OH232225   3.488   6.878  18.437
 2677TIP3    H132226   3.514   6.806  18.376
 2677TIP3    H232227   3.512   6.955  18.381
 2678TIP3   OH232228   2.955   6.585  17.416
 2678TIP3    H132229   2.892   6.649  17.376
 2678TIP3    H232230   3.027   6.583  17.350
 2679TIP3   OH232231   3.698   6.517  18.221
 2679TIP3    H132232   3.638   6.594  18.230
 2679TIP3    H232233   3.757   6.554  18.151
 2680TIP3   OH232234   3.310   6.574  17.507
 2680TIP3    H132235   3.238   6.600  17.570
 2680TIP3    H232236   3.370   6.524  17.567
 2681TIP3   OH232237   3.307   6.423  18.411
 2681TIP3    H132238   3.291   6.512  18.446
 2681TIP3    H232239   3.246   6.423  18.335
 2682TIP3   OH232240   2.454   6.636  17.683
 2682TIP3    H132241   2.424   6.595  17.598
 2682TIP3    H232242   2.515   6.567  17.719
 2683TIP3   OH232243   2.589   6.975  17.954
 2683TIP3    H132244   2.606   6.985  17.858
 2683TIP3    H232245   2.673   6.939  17.989
 2684TIP3   OH232246   2.470   6.513  18.061
 2684TIP3    H132247   2.510   6.514  17.971
 2684TIP3    H232248   2.520   6.586  18.106
 2685TIP3   OH232249   3.131   7.088  18.128
 2685TIP3    H132250   3.091   7.159  18.183
 2685TIP3    H232251   3.093   7.009  18.172
 2686TIP3   OH232252   2.584   6.963  18.537
 2686TIP3    H132253   2.520   7.028  18.574
 2686TIP3    H232254   2.549   6.951  18.447
 2687TIP3   OH232255   3.188   6.520  17.281
 2687TIP3    H132256   3.221   6.528  17.373
 2687TIP3    H232257   3.245   6.586  17.240
 2688TIP3   OH232258   2.293   6.584  18.436
 2688TIP3    H132259   2.290   6.672  18.475
 2688TIP3    H232260   2.239   6.537  18.502
 2689TIP3   OH232261   2.932   7.170  17.561
 2689TIP3    H132262   2.974   7.166  17.648
 2689TIP3    H232263   2.889   7.256  17.566
 2690TIP3   OH232264   2.403   7.157  18.599
 2690TIP3    H132265   2.391   7.165  18.503
 2690TIP3    H232266   2.318   7.115  18.625
 2691TIP3   OH232267   3.576   5.666  17.288
 2691TIP3    H132268   3.480   5.666  17.315
 2691TIP3    H232269   3.580   5.747  17.233
 2692TIP3   OH232270   2.348   6.535  17.456
 2692TIP3    H132271   2.316   6.614  17.407
 2692TIP3    H232272   2.301   6.464  17.410
 2693TIP3   OH232273   1.988   6.805  18.355
 2693TIP3    H132274   1.942   6.797  18.271
 2693TIP3    H232275   2.025   6.714  18.366
 2694TIP3   OH232276   1.968   7.050  17.985
 2694TIP3    H132277   2.063   7.034  17.990
 2694TIP3    H232278   1.959   7.129  18.042
 2695TIP3   OH232279   3.738   7.144  18.611
 2695TIP3    H132280   3.722   7.048  18.609
 2695TIP3    H232281   3.651   7.173  18.649
 2696TIP3   OH232282   2.842   7.076  18.473
 2696TIP3    H132283   2.857   7.165  18.513
 2696TIP3    H232284   2.753   7.053  18.504
 2697TIP3   OH232285   2.933   7.500  17.454
 2697TIP3    H132286   2.935   7.521  17.359
 2697TIP3    H232287   2.887   7.575  17.492
 2698TIP3   OH232288   2.286   7.302  17.659
 2698TIP3    H132289   2.321   7.297  17.751
 2698TIP3    H232290   2.211   7.242  17.668
 2699TIP3   OH232291   3.155   7.353  17.432
 2699TIP3    H132292   3.073   7.394  17.467
 2699TIP3    H232293   3.167   7.272  17.483
 2700TIP3   OH232294   3.463   6.272  18.626
 2700TIP3    H132295   3.410   6.317  18.557
 2700TIP3    H232296   3.455   6.179  18.598
 2701TIP3   OH232297   2.215   6.914  18.439
 2701TIP3    H132298   2.212   6.878  18.530
 2701TIP3    H232299   2.125   6.895  18.406
 2702TIP3   OH232300   2.468   5.793  18.036
 2702TIP3    H132301   2.383   5.789  17.989
 2702TIP3    H232302   2.441   5.845  18.115
 2703TIP3   OH232303   2.956   5.736  18.366
 2703TIP3    H132304   2.986   5.693  18.448
 2703TIP3    H232305   2.859   5.742  18.377
 2704TIP3   OH232306   3.204   6.150  18.438
 2704TIP3    H132307   3.163   6.117  18.522
 2704TIP3    H232308   3.184   6.244  18.441
 2705TIP3   OH232309   2.477   6.263  18.150
 2705TIP3    H132310   2.401   6.264  18.212
 2705TIP3    H232311   2.480   6.358  18.123
 2706TIP3   OH232312   2.446   6.279  17.686
 2706TIP3    H132313   2.352   6.269  17.658
 2706TIP3    H232314   2.493   6.286  17.600
 2707TIP3   OH232315   3.027   6.325  17.524
 2707TIP3    H132316   3.001   6.413  17.492
 2707TIP3    H232317   3.097   6.301  17.460
 2708TIP3   OH232318   2.910   6.361  18.652
 2708TIP3    H132319   2.859   6.288  18.695
 2708TIP3    H232320   2.989   6.361  18.709
 2709TIP3   OH232321   3.116   6.274  17.821
 2709TIP3    H132322   3.122   6.366  17.791
 2709TIP3    H232323   3.103   6.231  17.734
 2710TIP3   OH232324   2.243   6.267  18.283
 2710TIP3    H132325   2.265   6.312  18.367
 2710TIP3    H232326   2.209   6.181  18.315
 2711TIP3   OH232327   1.922   6.006  17.760
 2711TIP3    H132328   1.997   6.010  17.821
 2711TIP3    H232329   1.965   6.014  17.672
 2712TIP3   OH232330   1.987   6.111  17.259
 2712TIP3    H132331   2.072   6.084  17.298
 2712TIP3    H232332   1.945   6.163  17.329
 2713TIP3   OH232333   3.036   6.425  18.243
 2713TIP3    H132334   3.094   6.358  18.203
 2713TIP3    H232335   2.975   6.372  18.300
 2714TIP3   OH232336   2.758   6.058  17.770
 2714TIP3    H132337   2.671   6.022  17.793
 2714TIP3    H232338   2.818   5.984  17.799
 2715TIP3   OH232339   2.181   6.187  17.666
 2715TIP3    H132340   2.125   6.227  17.595
 2715TIP3    H232341   2.213   6.105  17.622
 2716TIP3   OH232342   2.550   6.228  17.432
 2716TIP3    H132343   2.646   6.214  17.436
 2716TIP3    H232344   2.539   6.258  17.339
 2717TIP3   OH232345   2.505   6.264  17.173
 2717TIP3    H132346   2.409   6.279  17.168
 2717TIP3    H232347   2.538   6.343  17.126
 2718TIP3   OH232348   3.431   7.519  18.707
 2718TIP3    H132349   3.444   7.550  18.615
 2718TIP3    H232350   3.523   7.531  18.746
 2719TIP3   OH232351   2.245   6.757  18.671
 2719TIP3    H132352   2.310   6.780  18.741
 2719TIP3    H232353   2.164   6.739  18.724
 2720TIP3   OH232354   2.828   6.314  17.946
 2720TIP3    H132355   2.892   6.275  17.885
 2720TIP3    H232356   2.761   6.243  17.955
 2721TIP3   OH232357   2.286   5.949  17.566
 2721TIP3    H132358   2.243   5.874  17.613
 2721TIP3    H232359   2.347   5.902  17.508
 2722TIP3   OH232360   2.697   6.125  18.200
 2722TIP3    H132361   2.622   6.185  18.181
 2722TIP3    H232362   2.768   6.187  18.220
 2723TIP3   OH232363   2.768   6.778  17.341
 2723TIP3    H132364   2.702   6.712  17.315
 2723TIP3    H232365   2.729   6.808  17.427
 2724TIP3   OH232366   3.522   6.719  18.225
 2724TIP3    H132367   3.568   6.767  18.151
 2724TIP3    H232368   3.433   6.714  18.185
 2725TIP3   OH232369   2.869   6.803  18.464
 2725TIP3    H132370   2.874   6.772  18.556
 2725TIP3    H232371   2.866   6.899  18.476
 2726TIP3   OH232372   3.257   6.228  17.376
 2726TIP3    H132373   3.307   6.155  17.336
 2726TIP3    H232374   3.281   6.308  17.328
 2727TIP3   OH232375   2.291   6.733  17.893
 2727TIP3    H132376   2.346   6.709  17.815
 2727TIP3    H232377   2.304   6.656  17.951
 2728TIP3   OH232378   2.926   6.973  17.259
 2728TIP3    H132379   2.909   7.009  17.347
 2728TIP3    H232380   2.876   6.888  17.267
 2729TIP3   OH232381   1.984   6.548  18.463
 2729TIP3    H132382   1.964   6.490  18.540
 2729TIP3    H232383   1.932   6.508  18.392
 2730TIP3   OH232384   2.668   6.504  18.645
 2730TIP3    H132385   2.621   6.437  18.593
 2730TIP3    H232386   2.760   6.471  18.641
 2731TIP3   OH232387   3.169   7.025  18.492
 2731TIP3    H132388   3.088   7.044  18.441
 2731TIP3    H232389   3.153   7.078  18.572
 2732TIP3   OH232390   3.710   6.308  17.304
 2732TIP3    H132391   3.647   6.285  17.233
 2732TIP3    H232392   3.723   6.403  17.280
 2733TIP3   OH232393   3.723   6.863  18.575
 2733TIP3    H132394   3.631   6.874  18.543
 2733TIP3    H232395   3.773   6.854  18.491
 2734TIP3   OH232396   3.550   7.120  17.364
 2734TIP3    H132397   3.472   7.062  17.362
 2734TIP3    H232398   3.568   7.131  17.269
 2735TIP3   OH232399   3.278   6.640  18.048
 2735TIP3    H132400   3.187   6.611  18.037
 2735TIP3    H232401   3.327   6.569  18.001
 2736TIP3   OH232402   2.512   7.058  17.673
 2736TIP3    H132403   2.551   7.142  17.640
 2736TIP3    H232404   2.421   7.064  17.638
 2737TIP3   OH232405   2.657   6.834  17.594
 2737TIP3    H132406   2.612   6.916  17.621
 2737TIP3    H232407   2.610   6.766  17.647
 2738TIP3   OH232408   2.709   7.235  18.300
 2738TIP3    H132409   2.762   7.314  18.278
 2738TIP3    H232410   2.775   7.181  18.349
 2739TIP3   OH232411   2.554   7.305  17.561
 2739TIP3    H132412   2.461   7.323  17.585
 2739TIP3    H232413   2.600   7.380  17.603
 2740TIP3   OH232414   3.017   6.841  18.224
 2740TIP3    H132415   2.970   6.812  18.306
 2740TIP3    H232416   3.062   6.759  18.197
 2741TIP3   OH232417   3.303   7.002  17.164
 2741TIP3    H132418   3.313   6.919  17.214
 2741TIP3    H232419   3.227   6.979  17.107
 2742TIP3   OH232420   3.321   7.304  18.478
 2742TIP3    H132421   3.243   7.253  18.448
 2742TIP3    H232422   3.342   7.365  18.403
 2743TIP3   OH232423   2.161   6.024  18.404
 2743TIP3    H132424   2.088   6.079  18.439
 2743TIP3    H232425   2.151   5.945  18.459
 2744TIP3   OH232426   3.369   6.797  17.353
 2744TIP3    H132427   3.370   6.711  17.403
 2744TIP3    H232428   3.465   6.807  17.334
 2745TIP3   OH232429   2.118   7.174  18.263
 2745TIP3    H132430   2.165   7.092  18.246
 2745TIP3    H232431   2.178   7.215  18.328
 2746TIP3   OH232432   2.201   6.722  17.289
 2746TIP3    H132433   2.135   6.781  17.332
 2746TIP3    H232434   2.261   6.786  17.248
 2747TIP3   OH232435   3.051   6.010  18.275
 2747TIP3    H132436   3.129   6.027  18.329
 2747TIP3    H232437   3.008   5.936  18.322
 2748TIP3   OH232438   2.810   6.136  17.506
 2748TIP3    H132439   2.891   6.191  17.509
 2748TIP3    H232440   2.800   6.107  17.599
 2749TIP3   OH232441   2.910   6.254  18.401
 2749TIP3    H132442   2.919   6.280  18.495
 2749TIP3    H232443   2.961   6.171  18.396
 2750TIP3   OH232444   2.473   5.976  17.279
 2750TIP3    H132445   2.493   6.065  17.312
 2750TIP3    H232446   2.564   5.943  17.263
 2751TIP3   OH232447   3.453   6.037  18.492
 2751TIP3    H132448   3.368   6.074  18.458
 2751TIP3    H232449   3.512   6.039  18.416
 2752TIP3   OH232450   3.366   6.407  17.918
 2752TIP3    H132451   3.295   6.349  17.948
 2752TIP3    H232452   3.446   6.357  17.945
 2753TIP3   OH232453   2.267   6.394  17.123
 2753TIP3    H132454   2.239   6.478  17.082
 2753TIP3    H232455   2.184   6.348  17.139
 2754TIP3   OH232456   3.469   7.377  18.089
 2754TIP3    H132457   3.464   7.415  17.999
 2754TIP3    H232458   3.567   7.374  18.095
 2755TIP3   OH232459   2.213   5.740  17.963
 2755TIP3    H132460   2.210   5.725  17.866
 2755TIP3    H232461   2.181   5.653  17.996
 2756TIP3   OH232462   2.077   7.116  17.516
 2756TIP3    H132463   2.009   7.156  17.572
 2756TIP3    H232464   2.075   7.177  17.439
 2757TIP3   OH232465   2.019   7.406  18.689
 2757TIP3    H132466   2.109   7.405  18.723
 2757TIP3    H232467   1.989   7.314  18.702
 2758TIP3   OH232468   2.514   7.236  18.846
 2758TIP3    H132469   2.608   7.251  18.838
 2758TIP3    H232470   2.482   7.218  18.755
 2759TIP3   OH232471   3.123   7.146  18.733
 2759TIP3    H132472   3.091   7.056  18.759
 2759TIP3    H232473   3.198   7.155  18.794
 2760TIP3   OH232474   3.418   7.198  16.998
 2760TIP3    H132475   3.385   7.126  17.055
 2760TIP3    H232476   3.515   7.179  17.003
 2761TIP3   OH232477   1.984   6.767  18.783
 2761TIP3    H132478   1.956   6.674  18.784
 2761TIP3    H232479   1.930   6.801  18.708
 2762TIP3   OH232480   2.675   6.765  18.698
 2762TIP3    H132481   2.649   6.823  18.622
 2762TIP3    H232482   2.654   6.675  18.666
 2763TIP3   OH232483   3.077   6.913  17.044
 2763TIP3    H132484   3.017   6.956  17.109
 2763TIP3    H232485   3.043   6.945  16.960
 2764TIP3   OH232486   3.244   6.749  18.469
 2764TIP3    H132487   3.329   6.798  18.463
 2764TIP3    H232488   3.186   6.827  18.482
 2765TIP3   OH232489   2.119   6.491  18.762
 2765TIP3    H132490   2.174   6.413  18.762
 2765TIP3    H232491   2.152   6.543  18.839
 2766TIP3   OH232492   2.472   6.391  18.417
 2766TIP3    H132493   2.422   6.474  18.426
 2766TIP3    H232494   2.552   6.426  18.373
 2767TIP3   OH232495   3.038   6.662  18.794
 2767TIP3    H132496   3.089   6.614  18.727
 2767TIP3    H232497   3.007   6.592  18.854
 2768TIP3   OH232498   2.559   6.157  18.527
 2768TIP3    H132499   2.562   6.088  18.456
 2768TIP3    H232500   2.548   6.239  18.473
 2769TIP3   OH232501   2.579   5.949  18.347
 2769TIP3    H132502   2.633   6.006  18.285
 2769TIP3    H232503   2.496   5.942  18.296
 2770TIP3   OH232504   2.714   6.513  18.313
 2770TIP3    H132505   2.805   6.542  18.326
 2770TIP3    H232506   2.671   6.596  18.282
 2771TIP3   OH232507   3.169   6.265  18.809
 2771TIP3    H132508   3.201   6.174  18.805
 2771TIP3    H232509   3.242   6.314  18.849
 2772TIP3   OH232510   3.317   6.594  18.680
 2772TIP3    H132511   3.285   6.651  18.607
 2772TIP3    H232512   3.410   6.585  18.655
 2773TIP3   OH232513   2.408   6.229  18.745
 2773TIP3    H132514   2.318   6.192  18.728
 2773TIP3    H232515   2.458   6.197  18.665
 2774TIP3   OH232516   2.677   5.704  18.350
 2774TIP3    H132517   2.642   5.796  18.356
 2774TIP3    H232518   2.605   5.662  18.302
 2775TIP3   OH232519   2.765   6.141  18.754
 2775TIP3    H132520   2.703   6.111  18.824
 2775TIP3    H232521   2.709   6.125  18.676
 2776TIP3   OH232522   3.048   6.065  18.642
 2776TIP3    H132523   2.956   6.062  18.670
 2776TIP3    H232524   3.091   6.016  18.716
 2777TIP3   OH232525   3.191   5.922  18.816
 2777TIP3    H132526   3.198   5.825  18.816
 2777TIP3    H232527   3.185   5.942  18.912
 2778TIP3   OH232528   2.189   6.068  18.761
 2778TIP3    H132529   2.229   5.989  18.724
 2778TIP3    H232530   2.168   6.040  18.853
 2779TIP3   OH232531   2.676   5.684  18.622
 2779TIP3    H132532   2.744   5.615  18.635
 2779TIP3    H232533   2.676   5.682  18.524
 2780TIP3   OH232534   2.648   5.783  18.878
 2780TIP3    H132535   2.659   5.756  18.784
 2780TIP3    H232536   2.621   5.877  18.869
 2781TIP3   OH232537   2.661   7.466  17.160
 2781TIP3    H132538   2.749   7.507  17.148
 2781TIP3    H232539   2.605   7.525  17.108
 2782TIP3   OH232540   1.901   7.493  17.596
 2782TIP3    H132541   1.813   7.465  17.565
 2782TIP3    H232542   1.902   7.447  17.682
 2783TIP3   OH232543   1.985   7.301  17.814
 2783TIP3    H132544   1.920   7.236  17.848
 2783TIP3    H232545   2.035   7.318  17.896
 2784TIP3   OH232546   3.740   7.409  18.056
 2784TIP3    H132547   3.757   7.469  18.132
 2784TIP3    H232548   3.826   7.405  18.012
 2785TIP3   OH232549   3.679   7.328  18.410
 2785TIP3    H132550   3.657   7.263  18.340
 2785TIP3    H232551   3.709   7.265  18.478
 2786TIP3   OH232552   3.543   6.943  18.843
 2786TIP3    H132553   3.459   6.931  18.893
 2786TIP3    H232554   3.576   7.026  18.882
 2787TIP3   OH232555   3.644   6.775  17.366
 2787TIP3    H132556   3.726   6.821  17.392
 2787TIP3    H232557   3.636   6.713  17.441
 2788TIP3   OH232558   3.703   6.573  17.574
 2788TIP3    H132559   3.619   6.529  17.599
 2788TIP3    H232560   3.747   6.584  17.659
 2789TIP3   OH232561   3.678   6.826  18.045
 2789TIP3    H132562   3.746   6.758  18.028
 2789TIP3    H232563   3.725   6.909  18.023
 2790TIP3   OH232564   3.543   7.116  18.307
 2790TIP3    H132565   3.469   7.160  18.349
 2790TIP3    H232566   3.506   7.105  18.215
 2791TIP3   OH232567   3.722   6.574  17.188
 2791TIP3    H132568   3.684   6.613  17.106
 2791TIP3    H232569   3.701   6.648  17.249
 2792TIP3   OH232570   3.569   6.248  17.087
 2792TIP3    H132571   3.581   6.308  17.012
 2792TIP3    H232572   3.564   6.160  17.050
 2793TIP3   OH232573   3.487   6.425  17.651
 2793TIP3    H132574   3.494   6.333  17.622
 2793TIP3    H232575   3.470   6.419  17.747
 2794TIP3   OH232576   1.974   6.649  18.058
 2794TIP3    H132577   1.982   6.614  17.966
 2794TIP3    H232578   2.062   6.622  18.093
 2795TIP3   OH232579   3.598   6.608  18.607
 2795TIP3    H132580   3.652   6.526  18.620
 2795TIP3    H232581   3.664   6.677  18.590
 2796TIP3   OH232582   3.708   6.365  18.645
 2796TIP3    H132583   3.615   6.331  18.642
 2796TIP3    H232584   3.763   6.286  18.666
 2797TIP3   OH232585   3.557   6.233  18.018
 2797TIP3    H132586   3.654   6.245  18.035
 2797TIP3    H232587   3.525   6.230  18.110
 2798TIP3   OH232588   3.519   6.305  18.274
 2798TIP3    H132589   3.444   6.343  18.326
 2798TIP3    H232590   3.575   6.385  18.259
 2799TIP3   OH232591   1.961   6.126  18.639
 2799TIP3    H132592   2.042   6.139  18.692
 2799TIP3    H232593   1.934   6.036  18.664
 2800TIP3   OH232594   3.760   5.756  18.820
 2800TIP3    H132595   3.798   5.680  18.773
 2800TIP3    H232596   3.749   5.821  18.747
 2801TIP3   OH232597   2.077   5.970  18.017
 2801TIP3    H132598   2.127   5.887  17.999
 2801TIP3    H232599   2.145   6.038  18.003
 2802TIP3   OH232600   1.926   6.283  18.064
 2802TIP3    H132601   1.987   6.263  17.990
 2802TIP3    H232602   1.968   6.362  18.099
 2803TIP3   OH232603   3.700   5.953  18.646
 2803TIP3    H132604   3.623   5.981  18.701
 2803TIP3    H232605   3.655   5.899  18.579
 2804TIP3   OH232606   3.745   5.882  17.134
 2804TIP3    H132607   3.813   5.853  17.072
 2804TIP3    H232608   3.784   5.964  17.168
 2805TIP3   OH232609   1.930   5.942  17.475
 2805TIP3    H132610   1.834   5.931  17.485
 2805TIP3    H232611   1.934   5.935  17.378
 2806TIP3   OH232612   3.398   7.414  17.631
 2806TIP3    H132613   3.484   7.384  17.595
 2806TIP3    H232614   3.426   7.457  17.714
 2807TIP3   OH232615   1.943   5.762  18.306
 2807TIP3    H132616   1.867   5.705  18.285
 2807TIP3    H232617   1.941   5.823  18.230
 2808TIP3   OH232618   2.161   7.076  18.682
 2808TIP3    H132619   2.076   7.067  18.636
 2808TIP3    H232620   2.136   7.075  18.775
 2809TIP3   OH232621   2.436   7.203  18.340
 2809TIP3    H132622   2.431   7.301  18.331
 2809TIP3    H232623   2.533   7.196  18.333
 2810TIP3   OH232624   2.882   7.305  18.602
 2810TIP3    H132625   2.872   7.290  18.699
 2810TIP3    H232626   2.962   7.360  18.602
 2811TIP3   OH232627   3.121   7.483  18.568
 2811TIP3    H132628   3.202   7.432  18.551
 2811TIP3    H232629   3.128   7.490  18.665
 2812TIP3   OH232630   3.606   5.708  18.476
 2812TIP3    H132631   3.540   5.746  18.416
 2812TIP3    H232632   3.615   5.616  18.441
 2813TIP3   OH232633   2.185   7.553  18.321
 2813TIP3    H132634   2.100   7.545  18.273
 2813TIP3    H232635   2.155   7.544  18.412
 2814TIP3   OH232636   2.424   7.459  18.274
 2814TIP3    H132637   2.334   7.492  18.301
 2814TIP3    H232638   2.425   7.490  18.181
 2815TIP3   OH232639   2.923   7.446  18.141
 2815TIP3    H132640   2.849   7.456  18.077
 2815TIP3    H232641   2.926   7.534  18.181
 2816TIP3   OH232642   3.089   7.295  18.295
 2816TIP3    H132643   3.024   7.355  18.252
 2816TIP3    H232644   3.173   7.340  18.273
 2817TIP3   OH232645   3.344   7.514  18.277
 2817TIP3    H132646   3.312   7.603  18.256
 2817TIP3    H232647   3.381   7.483  18.190
 2818TIP3   OH232648   2.150   7.323  18.039
 2818TIP3    H132649   2.126   7.283  18.126
 2818TIP3    H232650   2.229   7.273  18.011
 2819TIP3   OH232651   2.365   7.253  17.904
 2819TIP3    H132652   2.360   7.155  17.916
 2819TIP3    H232653   2.454   7.267  17.944
 2820TIP3   OH232654   2.591   7.245  18.032
 2820TIP3    H132655   2.612   7.150  18.023
 2820TIP3    H232656   2.618   7.266  18.123
 2821TIP3   OH232657   2.894   5.841  17.852
 2821TIP3    H132658   2.823   5.795  17.903
 2821TIP3    H232659   2.939   5.765  17.814
 2822TIP3   OH232660   3.462   5.639  17.850
 2822TIP3    H132661   3.545   5.682  17.824
 2822TIP3    H232662   3.438   5.584  17.773
 2823TIP3   OH232663   2.192   5.727  17.676
 2823TIP3    H132664   2.110   5.721  17.624
 2823TIP3    H232665   2.230   5.638  17.661
 2824TIP3   OH232666   2.543   5.706  17.675
 2824TIP3    H132667   2.607   5.724  17.604
 2824TIP3    H232668   2.594   5.728  17.755
 2825TIP3   OH232669   2.020   7.300  17.325
 2825TIP3    H132670   1.925   7.301  17.309
 2825TIP3    H232671   2.034   7.390  17.358
 2826TIP3   OH232672   2.251   5.962  17.119
 2826TIP3    H132673   2.238   5.873  17.084
 2826TIP3    H232674   2.337   5.953  17.163
 2827TIP3   OH232675   2.744   5.954  17.283
 2827TIP3    H132676   2.736   5.868  17.326
 2827TIP3    H232677   2.757   6.017  17.357
 2828TIP3   OH232678   3.608   7.358  17.492
 2828TIP3    H132679   3.589   7.266  17.460
 2828TIP3    H232680   3.587   7.405  17.408
 2829TIP3   OH232681   2.130   5.764  18.612
 2829TIP3    H132682   2.121   5.670  18.639
 2829TIP3    H232683   2.201   5.788  18.675
 2830TIP3   OH232684   2.349   5.714  18.805
 2830TIP3    H132685   2.445   5.706  18.792
 2830TIP3    H232686   2.334   5.626  18.846
 2831TIP3   OH232687   3.200   5.657  18.801
 2831TIP3    H132688   3.198   5.584  18.866
 2831TIP3    H232689   3.293   5.651  18.769
 2832TIP3   OH232690   3.501   7.241  18.672
 2832TIP3    H132691   3.417   7.243  18.621
 2832TIP3    H232692   3.517   7.335  18.683
 2833TIP3   OH232693   4.105   6.540  18.147
 2833TIP3    H132694   4.099   6.456  18.198
 2833TIP3    H232695   4.139   6.599  18.218
 2834TIP3   OH232696   5.207   6.837  17.863
 2834TIP3    H132697   5.186   6.758  17.918
 2834TIP3    H232698   5.210   6.904  17.932
 2835TIP3   OH232699   4.164   7.001  17.963
 2835TIP3    H132700   4.141   6.907  17.949
 2835TIP3    H232701   4.259   6.989  17.977
 2836TIP3   OH232702   3.829   6.303  17.550
 2836TIP3    H132703   3.803   6.397  17.550
 2836TIP3    H232704   3.771   6.269  17.481
 2837TIP3   OH232705   3.932   6.568  17.797
 2837TIP3    H132706   3.967   6.476  17.809
 2837TIP3    H232707   3.971   6.600  17.715
 2838TIP3   OH232708   4.915   7.359  17.841
 2838TIP3    H132709   5.003   7.317  17.824
 2838TIP3    H232710   4.868   7.288  17.886
 2839TIP3   OH232711   4.671   6.788  18.091
 2839TIP3    H132712   4.707   6.810  18.005
 2839TIP3    H232713   4.750   6.808  18.146
 2840TIP3   OH232714   5.546   5.943  18.124
 2840TIP3    H132715   5.554   6.007  18.198
 2840TIP3    H232716   5.629   5.963  18.077
 2841TIP3   OH232717   5.044   6.258  18.095
 2841TIP3    H132718   5.061   6.163  18.115
 2841TIP3    H232719   5.037   6.252  17.997
 2842TIP3   OH232720   4.321   6.047  17.780
 2842TIP3    H132721   4.277   6.113  17.724
 2842TIP3    H232722   4.317   5.969  17.721
 2843TIP3   OH232723   5.109   6.065  17.649
 2843TIP3    H132724   5.157   6.034  17.729
 2843TIP3    H232725   5.177   6.120  17.609
 2844TIP3   OH232726   4.012   6.323  17.881
 2844TIP3    H132727   4.062   6.256  17.932
 2844TIP3    H232728   4.015   6.284  17.792
 2845TIP3   OH232729   5.569   6.099  18.341
 2845TIP3    H132730   5.536   6.182  18.299
 2845TIP3    H232731   5.572   6.128  18.433
 2846TIP3   OH232732   4.218   5.953  18.218
 2846TIP3    H132733   4.187   6.005  18.141
 2846TIP3    H232734   4.152   5.980  18.287
 2847TIP3   OH232735   4.435   6.708  18.206
 2847TIP3    H132736   4.388   6.783  18.250
 2847TIP3    H232737   4.512   6.755  18.167
 2848TIP3   OH232738   5.264   6.012  17.856
 2848TIP3    H132739   5.270   5.937  17.916
 2848TIP3    H232740   5.344   6.061  17.878
 2849TIP3   OH232741   4.182   6.144  18.008
 2849TIP3    H132742   4.248   6.194  18.061
 2849TIP3    H232743   4.237   6.115  17.931
 2850TIP3   OH232744   4.321   6.938  18.303
 2850TIP3    H132745   4.309   7.026  18.266
 2850TIP3    H232746   4.233   6.919  18.342
 2851TIP3   OH232747   3.926   6.856  17.427
 2851TIP3    H132748   3.912   6.917  17.354
 2851TIP3    H232749   3.934   6.918  17.501
 2852TIP3   OH232750   5.272   7.089  18.108
 2852TIP3    H132751   5.175   7.083  18.109
 2852TIP3    H232752   5.284   7.144  18.030
 2853TIP3   OH232753   5.268   5.892  18.196
 2853TIP3    H132754   5.200   5.938  18.142
 2853TIP3    H232755   5.351   5.912  18.149
 2854TIP3   OH232756   4.574   5.703  17.932
 2854TIP3    H132757   4.536   5.616  17.941
 2854TIP3    H232758   4.495   5.756  17.962
 2855TIP3   OH232759   5.137   7.234  17.753
 2855TIP3    H132760   5.123   7.149  17.708
 2855TIP3    H232761   5.211   7.271  17.699
 2856TIP3   OH232762   5.242   7.015  17.574
 2856TIP3    H132763   5.197   6.964  17.505
 2856TIP3    H232764   5.224   6.954  17.648
 2857TIP3   OH232765   5.370   6.878  18.439
 2857TIP3    H132766   5.379   6.803  18.377
 2857TIP3    H232767   5.399   6.952  18.380
 2858TIP3   OH232768   5.590   6.527  18.231
 2858TIP3    H132769   5.526   6.601  18.238
 2858TIP3    H232770   5.647   6.563  18.159
 2859TIP3   OH232771   5.176   6.511  17.523
 2859TIP3    H132772   5.139   6.599  17.531
 2859TIP3    H232773   5.256   6.512  17.580
 2860TIP3   OH232774   5.191   6.416  18.415
 2860TIP3    H132775   5.176   6.496  18.466
 2860TIP3    H232776   5.119   6.423  18.350
 2861TIP3   OH232777   4.467   6.983  17.975
 2861TIP3    H132778   4.466   6.991  17.876
 2861TIP3    H232779   4.553   6.941  17.995
 2862TIP3   OH232780   4.401   6.500  18.052
 2862TIP3    H132781   4.401   6.543  17.966
 2862TIP3    H232782   4.411   6.576  18.113
 2863TIP3   OH232783   5.007   7.085  18.124
 2863TIP3    H132784   4.965   7.159  18.172
 2863TIP3    H232785   4.972   7.008  18.172
 2864TIP3   OH232786   4.479   6.952  18.522
 2864TIP3    H132787   4.415   7.013  18.565
 2864TIP3    H232788   4.437   6.944  18.434
 2865TIP3   OH232789   4.177   6.606  18.415
 2865TIP3    H132790   4.186   6.681  18.477
 2865TIP3    H232791   4.113   6.553  18.467
 2866TIP3   OH232792   4.302   7.146  18.601
 2866TIP3    H132793   4.296   7.154  18.503
 2866TIP3    H232794   4.210   7.118  18.623
 2867TIP3   OH232795   4.183   6.538  17.501
 2867TIP3    H132796   4.178   6.604  17.431
 2867TIP3    H232797   4.175   6.455  17.452
 2868TIP3   OH232798   3.864   6.809  18.353
 2868TIP3    H132799   3.817   6.788  18.271
 2868TIP3    H232800   3.901   6.721  18.375
 2869TIP3   OH232801   3.854   7.059  18.011
 2869TIP3    H132802   3.948   7.039  17.995
 2869TIP3    H232803   3.858   7.143  18.058
 2870TIP3   OH232804   5.623   7.140  18.629
 2870TIP3    H132805   5.601   7.045  18.632
 2870TIP3    H232806   5.535   7.176  18.658
 2871TIP3   OH232807   4.724   7.078  18.465
 2871TIP3    H132808   4.736   7.165  18.509
 2871TIP3    H232809   4.637   7.048  18.499
 2872TIP3   OH232810   4.764   7.437  17.423
 2872TIP3    H132811   4.860   7.428  17.410
 2872TIP3    H232812   4.759   7.456  17.517
 2873TIP3   OH232813   4.169   7.287  17.666
 2873TIP3    H132814   4.199   7.299  17.759
 2873TIP3    H232815   4.096   7.225  17.680
 2874TIP3   OH232816   5.080   7.389  17.184
 2874TIP3    H132817   5.137   7.350  17.117
 2874TIP3    H232818   5.098   7.334  17.262
 2875TIP3   OH232819   5.030   7.337  17.463
 2875TIP3    H132820   4.993   7.325  17.551
 2875TIP3    H232821   5.089   7.261  17.460
 2876TIP3   OH232822   5.341   6.272  18.636
 2876TIP3    H132823   5.286   6.311  18.566
 2876TIP3    H232824   5.340   6.177  18.611
 2877TIP3   OH232825   4.091   6.917  18.436
 2877TIP3    H132826   4.094   6.877  18.526
 2877TIP3    H232827   4.000   6.894  18.409
 2878TIP3   OH232828   4.336   5.797  18.026
 2878TIP3    H132829   4.247   5.780  17.992
 2878TIP3    H232830   4.314   5.851  18.105
 2879TIP3   OH232831   4.824   5.693  18.339
 2879TIP3    H132832   4.853   5.688  18.431
 2879TIP3    H232833   4.728   5.713  18.346
 2880TIP3   OH232834   5.092   6.159  18.491
 2880TIP3    H132835   5.032   6.121  18.561
 2880TIP3    H232836   5.064   6.252  18.488
 2881TIP3   OH232837   4.359   6.265  18.168
 2881TIP3    H132838   4.290   6.287  18.234
 2881TIP3    H232839   4.365   6.350  18.118
 2882TIP3   OH232840   4.907   6.359  17.519
 2882TIP3    H132841   4.927   6.447  17.486
 2882TIP3    H232842   4.966   6.303  17.466
 2883TIP3   OH232843   4.797   6.361  18.666
 2883TIP3    H132844   4.764   6.275  18.697
 2883TIP3    H232845   4.872   6.376  18.727
 2884TIP3   OH232846   5.022   6.284  17.819
 2884TIP3    H132847   5.005   6.364  17.767
 2884TIP3    H232848   5.015   6.214  17.751
 2885TIP3   OH232849   4.108   6.286  18.289
 2885TIP3    H132850   4.155   6.311  18.370
 2885TIP3    H232851   4.080   6.194  18.311
 2886TIP3   OH232852   4.422   6.089  17.010
 2886TIP3    H132853   4.406   6.032  17.087
 2886TIP3    H232854   4.480   6.031  16.956
 2887TIP3   OH232855   3.759   5.997  17.739
 2887TIP3    H132856   3.830   5.982  17.803
 2887TIP3    H232857   3.796   5.969  17.653
 2888TIP3   OH232858   3.874   6.095  17.248
 2888TIP3    H132859   3.955   6.140  17.219
 2888TIP3    H232860   3.817   6.171  17.270
 2889TIP3   OH232861   4.969   6.472  18.246
 2889TIP3    H132862   4.988   6.393  18.191
 2889TIP3    H232863   4.898   6.436  18.303
 2890TIP3   OH232864   4.600   6.039  17.756
 2890TIP3    H132865   4.503   6.052  17.770
 2890TIP3    H232866   4.634   6.071  17.841
 2891TIP3   OH232867   4.094   6.196  17.637
 2891TIP3    H132868   4.016   6.229  17.588
 2891TIP3    H232869   4.094   6.102  17.609
 2892TIP3   OH232870   4.464   6.203  17.375
 2892TIP3    H132871   4.542   6.256  17.395
 2892TIP3    H232872   4.403   6.266  17.335
 2893TIP3   OH232873   5.049   5.989  18.066
 2893TIP3    H132874   4.976   5.979  18.131
 2893TIP3    H232875   5.004   5.969  17.982
 2894TIP3   OH232876   4.322   6.326  17.156
 2894TIP3    H132877   4.288   6.246  17.114
 2894TIP3    H232878   4.403   6.333  17.104
 2895TIP3   OH232879   5.312   7.531  18.702
 2895TIP3    H132880   5.331   7.555  18.610
 2895TIP3    H232881   5.402   7.539  18.741
 2896TIP3   OH232882   4.128   6.753  18.667
 2896TIP3    H132883   4.196   6.785  18.729
 2896TIP3    H232884   4.050   6.738  18.726
 2897TIP3   OH232885   4.731   6.282  17.904
 2897TIP3    H132886   4.826   6.265  17.905
 2897TIP3    H232887   4.703   6.239  17.986
 2898TIP3   OH232888   4.194   5.923  17.567
 2898TIP3    H132889   4.127   5.871  17.616
 2898TIP3    H232890   4.234   5.857  17.511
 2899TIP3   OH232891   4.584   6.129  18.155
 2899TIP3    H132892   4.511   6.194  18.167
 2899TIP3    H232893   4.654   6.166  18.210
 2900TIP3   OH232894   5.401   6.719  18.234
 2900TIP3    H132895   5.455   6.769  18.169
 2900TIP3    H232896   5.320   6.711  18.182
 2901TIP3   OH232897   4.982   6.069  17.149
 2901TIP3    H132898   4.932   6.138  17.105
 2901TIP3    H232899   5.048   6.121  17.198
 2902TIP3   OH232900   4.764   6.806  18.463
 2902TIP3    H132901   4.763   6.780  18.556
 2902TIP3    H232902   4.743   6.901  18.470
 2903TIP3   OH232903   5.111   6.244  17.336
 2903TIP3    H132904   5.176   6.224  17.407
 2903TIP3    H232905   5.164   6.305  17.284
 2904TIP3   OH232906   4.196   6.735  17.919
 2904TIP3    H132907   4.182   6.703  17.829
 2904TIP3    H232908   4.179   6.656  17.974
 2905TIP3   OH232909   3.873   6.550  18.461
 2905TIP3    H132910   3.863   6.488  18.537
 2905TIP3    H232911   3.819   6.507  18.392
 2906TIP3   OH232912   4.566   6.500  18.633
 2906TIP3    H132913   4.519   6.437  18.578
 2906TIP3    H232914   4.657   6.461  18.637
 2907TIP3   OH232915   5.050   7.027  18.485
 2907TIP3    H132916   4.969   7.052  18.441
 2907TIP3    H232917   5.040   7.076  18.569
 2908TIP3   OH232918   5.575   6.272  17.346
 2908TIP3    H132919   5.577   6.216  17.267
 2908TIP3    H232920   5.585   6.363  17.308
 2909TIP3   OH232921   5.608   6.855  18.579
 2909TIP3    H132922   5.515   6.867  18.549
 2909TIP3    H232923   5.654   6.856  18.493
 2910TIP3   OH232924   5.451   7.097  17.319
 2910TIP3    H132925   5.391   7.035  17.365
 2910TIP3    H232926   5.444   7.068  17.227
 2911TIP3   OH232927   5.162   6.633  18.049
 2911TIP3    H132928   5.101   6.578  18.102
 2911TIP3    H232929   5.214   6.566  18.001
 2912TIP3   OH232930   4.421   7.040  17.717
 2912TIP3    H132931   4.500   7.054  17.661
 2912TIP3    H232932   4.348   7.073  17.662
 2913TIP3   OH232933   4.051   6.560  17.060
 2913TIP3    H132934   4.073   6.625  17.128
 2913TIP3    H232935   3.957   6.544  17.078
 2914TIP3   OH232936   4.601   7.243  18.296
 2914TIP3    H132937   4.654   7.324  18.279
 2914TIP3    H232938   4.669   7.186  18.340
 2915TIP3   OH232939   4.410   7.319  17.534
 2915TIP3    H132940   4.326   7.311  17.585
 2915TIP3    H232941   4.464   7.371  17.597
 2916TIP3   OH232942   4.901   6.844  18.230
 2916TIP3    H132943   4.858   6.822  18.317
 2916TIP3    H232944   4.972   6.778  18.230
 2917TIP3   OH232945   5.209   7.298  18.474
 2917TIP3    H132946   5.131   7.247  18.442
 2917TIP3    H232947   5.225   7.363  18.402
 2918TIP3   OH232948   5.678   7.382  17.149
 2918TIP3    H132949   5.722   7.464  17.125
 2918TIP3    H232950   5.594   7.419  17.185
 2919TIP3   OH232951   4.049   6.040  18.409
 2919TIP3    H132952   3.968   6.081  18.443
 2919TIP3    H232953   4.050   5.958  18.463
 2920TIP3   OH232954   5.285   6.796  17.364
 2920TIP3    H132955   5.269   6.706  17.390
 2920TIP3    H232956   5.384   6.798  17.353
 2921TIP3   OH232957   4.010   7.177  18.268
 2921TIP3    H132958   4.042   7.087  18.265
 2921TIP3    H232959   4.075   7.217  18.328
 2922TIP3   OH232960   4.535   7.102  16.980
 2922TIP3    H132961   4.620   7.063  16.960
 2922TIP3    H232962   4.522   7.079  17.073
 2923TIP3   OH232963   4.440   7.003  17.223
 2923TIP3    H132964   4.518   6.976  17.274
 2923TIP3    H232965   4.434   7.098  17.249
 2924TIP3   OH232966   4.142   6.736  17.278
 2924TIP3    H132967   4.060   6.766  17.322
 2924TIP3    H232968   4.188   6.818  17.256
 2925TIP3   OH232969   4.897   6.004  18.330
 2925TIP3    H132970   4.980   6.034  18.371
 2925TIP3    H232971   4.881   5.917  18.370
 2926TIP3   OH232972   5.010   5.948  17.438
 2926TIP3    H132973   5.001   6.032  17.391
 2926TIP3    H232974   5.046   5.983  17.524
 2927TIP3   OH232975   4.742   6.116  17.524
 2927TIP3    H132976   4.775   6.207  17.536
 2927TIP3    H232977   4.682   6.104  17.600
 2928TIP3   OH232978   4.814   6.258  18.404
 2928TIP3    H132979   4.816   6.277  18.500
 2928TIP3    H232980   4.838   6.163  18.397
 2929TIP3   OH232981   4.792   5.807  17.556
 2929TIP3    H132982   4.757   5.874  17.617
 2929TIP3    H232983   4.875   5.852  17.530
 2930TIP3   OH232984   4.448   7.270  17.280
 2930TIP3    H132985   4.377   7.332  17.262
 2930TIP3    H232986   4.445   7.278  17.379
 2931TIP3   OH232987   4.366   5.961  17.247
 2931TIP3    H132988   4.353   6.035  17.308
 2931TIP3    H232989   4.456   5.933  17.273
 2932TIP3   OH232990   5.343   6.033  18.506
 2932TIP3    H132991   5.250   6.059  18.486
 2932TIP3    H232992   5.388   6.039  18.420
 2933TIP3   OH232993   5.255   6.402  17.893
 2933TIP3    H132994   5.181   6.339  17.885
 2933TIP3    H232995   5.324   6.348  17.938
 2934TIP3   OH232996   5.355   7.377  18.093
 2934TIP3    H132997   5.356   7.421  18.005
 2934TIP3    H232998   5.450   7.352  18.097
 2935TIP3   OH232999   4.073   5.743  17.976
 2935TIP3    H133000   4.068   5.734  17.878
 2935TIP3    H233001   4.051   5.651  18.004
 2936TIP3   OH233002   3.950   7.119  17.555
 2936TIP3    H133003   3.872   7.167  17.583
 2936TIP3    H233004   3.969   7.168  17.472
 2937TIP3   OH233005   3.905   7.408  18.693
 2937TIP3    H133006   3.995   7.401  18.730
 2937TIP3    H233007   3.874   7.316  18.699
 2938TIP3   OH233008   4.393   7.242  18.848
 2938TIP3    H133009   4.488   7.260  18.853
 2938TIP3    H233010   4.379   7.221  18.753
 2939TIP3   OH233011   5.010   7.145  18.734
 2939TIP3    H133012   4.973   7.058  18.761
 2939TIP3    H233013   5.089   7.148  18.789
 2940TIP3   OH233014   3.873   6.769  18.782
 2940TIP3    H133015   3.836   6.680  18.790
 2940TIP3    H233016   3.820   6.804  18.707
 2941TIP3   OH233017   4.555   6.761  18.691
 2941TIP3    H133018   4.530   6.821  18.616
 2941TIP3    H233019   4.536   6.671  18.655
 2942TIP3   OH233020   5.120   6.755  18.479
 2942TIP3    H133021   5.201   6.811  18.473
 2942TIP3    H233022   5.055   6.828  18.488
 2943TIP3   OH233023   4.014   6.472  18.729
 2943TIP3    H133024   3.997   6.383  18.760
 2943TIP3    H233025   4.048   6.521  18.807
 2944TIP3   OH233026   4.350   6.397  18.410
 2944TIP3    H133027   4.311   6.488  18.408
 2944TIP3    H233028   4.439   6.419  18.375
 2945TIP3   OH233029   4.924   6.667  18.806
 2945TIP3    H133030   5.006   6.619  18.786
 2945TIP3    H233031   4.882   6.606  18.869
 2946TIP3   OH233032   4.452   6.146  18.528
 2946TIP3    H133033   4.447   6.073  18.462
 2946TIP3    H233034   4.420   6.221  18.475
 2947TIP3   OH233035   4.462   5.951  18.326
 2947TIP3    H133036   4.509   5.995  18.252
 2947TIP3    H233037   4.369   5.953  18.295
 2948TIP3   OH233038   4.588   6.527  18.324
 2948TIP3    H133039   4.668   6.579  18.314
 2948TIP3    H233040   4.527   6.585  18.274
 2949TIP3   OH233041   5.061   6.271  18.830
 2949TIP3    H133042   5.088   6.179  18.816
 2949TIP3    H233043   5.145   6.318  18.836
 2950TIP3   OH233044   5.203   6.592  18.681
 2950TIP3    H133045   5.165   6.647  18.609
 2950TIP3    H233046   5.298   6.592  18.658
 2951TIP3   OH233047   4.284   6.231  18.761
 2951TIP3    H133048   4.200   6.186  18.738
 2951TIP3    H233049   4.338   6.212  18.682
 2952TIP3   OH233050   4.554   5.703  18.332
 2952TIP3    H133051   4.525   5.797  18.341
 2952TIP3    H233052   4.470   5.664  18.304
 2953TIP3   OH233053   4.666   6.118  18.732
 2953TIP3    H133054   4.604   6.099  18.805
 2953TIP3    H233055   4.604   6.120  18.657
 2954TIP3   OH233056   4.920   6.053  18.655
 2954TIP3    H133057   4.831   6.066  18.694
 2954TIP3    H233058   4.963   5.998  18.724
 2955TIP3   OH233059   5.088   5.920  18.828
 2955TIP3    H133060   5.092   5.822  18.822
 2955TIP3    H233061   5.077   5.936  18.924
 2956TIP3   OH233062   4.073   6.035  18.761
 2956TIP3    H133063   4.048   5.955  18.711
 2956TIP3    H233064   4.052   6.007  18.854
 2957TIP3   OH233065   4.556   5.670  18.634
 2957TIP3    H133066   4.635   5.614  18.641
 2957TIP3    H233067   4.543   5.658  18.538
 2958TIP3   OH233068   4.578   5.804  18.872
 2958TIP3    H133069   4.557   5.767  18.783
 2958TIP3    H233070   4.524   5.886  18.875
 2959TIP3   OH233071   3.788   7.516  17.619
 2959TIP3    H133072   3.713   7.467  17.577
 2959TIP3    H233073   3.797   7.461  17.699
 2960TIP3   OH233074   3.882   7.303  17.816
 2960TIP3    H133075   3.813   7.242  17.849
 2960TIP3    H233076   3.947   7.305  17.889
 2961TIP3   OH233077   5.629   7.383  18.063
 2961TIP3    H133078   5.651   7.446  18.135
 2961TIP3    H233079   5.687   7.411  17.990
 2962TIP3   OH233080   5.562   7.329  18.402
 2962TIP3    H133081   5.534   7.259  18.339
 2962TIP3    H233082   5.614   7.273  18.462
 2963TIP3   OH233083   5.433   6.916  18.848
 2963TIP3    H133084   5.344   6.914  18.890
 2963TIP3    H233085   5.466   7.003  18.878
 2964TIP3   OH233086   5.548   6.760  17.371
 2964TIP3    H133087   5.629   6.816  17.382
 2964TIP3    H233088   5.555   6.707  17.452
 2965TIP3   OH233089   5.589   6.567  17.564
 2965TIP3    H133090   5.513   6.516  17.599
 2965TIP3    H233091   5.635   6.593  17.645
 2966TIP3   OH233092   5.555   6.830  18.052
 2966TIP3    H133093   5.624   6.762  18.038
 2966TIP3    H233094   5.596   6.910  18.013
 2967TIP3   OH233095   5.433   7.109  18.311
 2967TIP3    H133096   5.371   7.160  18.366
 2967TIP3    H233097   5.382   7.101  18.227
 2968TIP3   OH233098   5.593   6.516  17.254
 2968TIP3    H133099   5.550   6.582  17.199
 2968TIP3    H233100   5.632   6.577  17.320
 2969TIP3   OH233101   5.393   6.424  17.659
 2969TIP3    H133102   5.360   6.335  17.638
 2969TIP3    H233103   5.363   6.433  17.752
 2970TIP3   OH233104   3.875   6.631  18.050
 2970TIP3    H133105   3.889   6.611  17.954
 2970TIP3    H233106   3.964   6.608  18.084
 2971TIP3   OH233107   5.483   6.608  18.605
 2971TIP3    H133108   5.534   6.523  18.618
 2971TIP3    H233109   5.551   6.677  18.590
 2972TIP3   OH233110   5.588   6.362  18.622
 2972TIP3    H133111   5.496   6.328  18.629
 2972TIP3    H233112   5.642   6.284  18.647
 2973TIP3   OH233113   5.338   6.177  17.500
 2973TIP3    H133114   5.362   6.082  17.510
 2973TIP3    H233115   5.421   6.207  17.459
 2974TIP3   OH233116   5.438   6.230  18.033
 2974TIP3    H133117   5.535   6.243  18.047
 2974TIP3    H233118   5.406   6.243  18.124
 2975TIP3   OH233119   5.417   6.311  18.293
 2975TIP3    H133120   5.332   6.345  18.329
 2975TIP3    H233121   5.469   6.395  18.283
 2976TIP3   OH233122   3.863   6.156  18.664
 2976TIP3    H133123   3.946   6.115  18.698
 2976TIP3    H233124   3.804   6.078  18.660
 2977TIP3   OH233125   5.661   5.750  18.823
 2977TIP3    H133126   5.703   5.673  18.781
 2977TIP3    H233127   5.636   5.806  18.747
 2978TIP3   OH233128   5.405   5.913  17.499
 2978TIP3    H133129   5.440   5.876  17.584
 2978TIP3    H233130   5.353   5.837  17.463
 2979TIP3   OH233131   3.948   5.985  17.979
 2979TIP3    H133132   3.990   5.897  17.985
 2979TIP3    H233133   4.025   6.044  17.981
 2980TIP3   OH233134   3.820   6.286  18.062
 2980TIP3    H133135   3.882   6.271  17.987
 2980TIP3    H233136   3.860   6.367  18.094
 2981TIP3   OH233137   5.566   5.936  18.638
 2981TIP3    H133138   5.475   5.972  18.635
 2981TIP3    H233139   5.562   5.873  18.565
 2982TIP3   OH233140   5.558   5.899  17.144
 2982TIP3    H133141   5.545   5.929  17.052
 2982TIP3    H233142   5.611   5.970  17.182
 2983TIP3   OH233143   3.827   5.933  17.469
 2983TIP3    H133144   3.734   5.950  17.456
 2983TIP3    H233145   3.860   5.942  17.378
 2984TIP3   OH233146   5.308   7.388  17.621
 2984TIP3    H133147   5.390   7.361  17.575
 2984TIP3    H233148   5.343   7.437  17.698
 2985TIP3   OH233149   3.817   5.763  18.291
 2985TIP3    H133150   3.756   5.731  18.360
 2985TIP3    H233151   3.761   5.824  18.238
 2986TIP3   OH233152   4.047   7.078  18.682
 2986TIP3    H133153   3.960   7.078  18.639
 2986TIP3    H233154   4.025   7.092  18.774
 2987TIP3   OH233155   4.334   7.209  18.347
 2987TIP3    H133156   4.319   7.307  18.342
 2987TIP3    H233157   4.430   7.208  18.332
 2988TIP3   OH233158   4.765   7.304  18.604
 2988TIP3    H133159   4.758   7.288  18.701
 2988TIP3    H233160   4.846   7.359  18.599
 2989TIP3   OH233161   4.999   7.490  18.561
 2989TIP3    H133162   5.073   7.427  18.549
 2989TIP3    H233163   5.008   7.505  18.659
 2990TIP3   OH233164   5.507   5.716  18.468
 2990TIP3    H133165   5.434   5.757  18.420
 2990TIP3    H233166   5.515   5.628  18.425
 2991TIP3   OH233167   4.052   7.560  18.323
 2991TIP3    H133168   3.964   7.567  18.279
 2991TIP3    H233169   4.028   7.530  18.412
 2992TIP3   OH233170   4.292   7.465  18.278
 2992TIP3    H133171   4.208   7.513  18.302
 2992TIP3    H233172   4.302   7.491  18.185
 2993TIP3   OH233173   4.793   7.454  18.154
 2993TIP3    H133174   4.722   7.472  18.090
 2993TIP3    H233175   4.798   7.540  18.201
 2994TIP3   OH233176   4.976   7.307  18.292
 2994TIP3    H133177   4.905   7.360  18.248
 2994TIP3    H233178   5.051   7.368  18.278
 2995TIP3   OH233179   5.217   7.510  18.276
 2995TIP3    H133180   5.199   7.602  18.252
 2995TIP3    H233181   5.264   7.477  18.195
 2996TIP3   OH233182   4.029   7.313  18.043
 2996TIP3    H133183   4.018   7.260  18.127
 2996TIP3    H233184   4.114   7.279  18.008
 2997TIP3   OH233185   4.251   7.266  17.909
 2997TIP3    H133186   4.232   7.172  17.929
 2997TIP3    H233187   4.344   7.270  17.943
 2998TIP3   OH233188   4.482   7.254  18.037
 2998TIP3    H133189   4.508   7.163  18.014
 2998TIP3    H233190   4.508   7.261  18.131
 2999TIP3   OH233191   4.826   5.884  17.886
 2999TIP3    H133192   4.733   5.854  17.890
 2999TIP3    H233193   4.868   5.805  17.851
 3000TIP3   OH233194   5.356   5.656  17.879
 3000TIP3    H133195   5.425   5.715  17.839
 3000TIP3    H233196   5.276   5.702  17.850
 3001TIP3   OH233197   5.517   5.800  17.726
 3001TIP3    H133198   5.571   5.743  17.667
 3001TIP3    H233199   5.580   5.873  17.746
 3002TIP3   OH233200   4.051   5.725  17.694
 3002TIP3    H133201   3.969   5.712  17.643
 3002TIP3    H233202   4.098   5.641  17.673
 3003TIP3   OH233203   4.503   5.724  17.657
 3003TIP3    H133204   4.583   5.709  17.605
 3003TIP3    H233205   4.536   5.717  17.748
 3004TIP3   OH233206   5.093   5.701  17.788
 3004TIP3    H133207   5.095   5.778  17.731
 3004TIP3    H233208   5.138   5.630  17.737
 3005TIP3   OH233209   5.240   5.715  17.409
 3005TIP3    H133210   5.158   5.766  17.413
 3005TIP3    H233211   5.203   5.625  17.414
 3006TIP3   OH233212   3.930   7.292  17.352
 3006TIP3    H133213   3.838   7.291  17.319
 3006TIP3    H233214   3.958   7.379  17.317
 3007TIP3   OH233215   4.098   5.872  17.111
 3007TIP3    H133216   4.174   5.836  17.063
 3007TIP3    H233217   4.142   5.938  17.164
 3008TIP3   OH233218   4.638   5.916  17.318
 3008TIP3    H133219   4.670   5.887  17.404
 3008TIP3    H233220   4.633   6.012  17.334
 3009TIP3   OH233221   5.500   7.342  17.442
 3009TIP3    H133222   5.483   7.261  17.388
 3009TIP3    H233223   5.477   7.412  17.377
 3010TIP3   OH233224   4.034   5.791  18.620
 3010TIP3    H133225   3.983   5.709  18.628
 3010TIP3    H233226   4.109   5.774  18.683
 3011TIP3   OH233227   4.233   5.707  18.800
 3011TIP3    H133228   4.328   5.689  18.784
 3011TIP3    H233229   4.205   5.619  18.833
 3012TIP3   OH233230   5.080   5.645  18.793
 3012TIP3    H133231   5.064   5.584  18.867
 3012TIP3    H233232   5.177   5.631  18.777
 3013TIP3   OH233233   5.384   7.239  18.677
 3013TIP3    H133234   5.308   7.245  18.614
 3013TIP3    H233235   5.409   7.333  18.682
 3014TIP3   OH233236   6.864   6.625  17.646
 3014TIP3    H133237   6.866   6.723  17.654
 3014TIP3    H233238   6.779   6.618  17.602
 3015TIP3   OH233239   6.745   6.514  17.982
 3015TIP3    H133240   6.756   6.483  18.075
 3015TIP3    H233241   6.658   6.482  17.952
 3016TIP3   OH233242   5.961   6.517  18.157
 3016TIP3    H133243   5.975   6.447  18.223
 3016TIP3    H233244   6.033   6.579  18.176
 3017TIP3   OH233245   7.131   6.874  17.878
 3017TIP3    H133246   7.111   6.797  17.933
 3017TIP3    H233247   7.108   6.949  17.935
 3018TIP3   OH233248   6.071   6.981  18.000
 3018TIP3    H133249   6.037   6.894  17.970
 3018TIP3    H233250   6.166   6.964  17.985
 3019TIP3   OH233251   5.746   6.321  17.538
 3019TIP3    H133252   5.710   6.402  17.577
 3019TIP3    H233253   5.687   6.310  17.462
 3020TIP3   OH233254   5.810   6.557  17.811
 3020TIP3    H133255   5.850   6.467  17.821
 3020TIP3    H233256   5.860   6.598  17.739
 3021TIP3   OH233257   6.795   7.370  17.846
 3021TIP3    H133258   6.877   7.320  17.824
 3021TIP3    H233259   6.762   7.317  17.920
 3022TIP3   OH233260   6.571   6.800  18.084
 3022TIP3    H133261   6.602   6.783  17.994
 3022TIP3    H233262   6.655   6.821  18.129
 3023TIP3   OH233263   7.458   5.977  18.086
 3023TIP3    H133264   7.455   6.051  18.149
 3023TIP3    H233265   7.513   6.016  18.016
 3024TIP3   OH233266   6.922   6.235  18.103
 3024TIP3    H133267   6.959   6.144  18.115
 3024TIP3    H233268   6.921   6.238  18.006
 3025TIP3   OH233269   6.222   6.033  17.764
 3025TIP3    H133270   6.229   6.126  17.733
 3025TIP3    H233271   6.164   5.997  17.694
 3026TIP3   OH233272   6.971   6.044  17.663
 3026TIP3    H133273   7.024   6.022  17.743
 3026TIP3    H233274   7.034   6.100  17.615
 3027TIP3   OH233275   5.864   6.293  17.873
 3027TIP3    H133276   5.927   6.250  17.934
 3027TIP3    H233277   5.901   6.263  17.787
 3028TIP3   OH233278   6.359   6.470  17.833
 3028TIP3    H133279   6.442   6.425  17.857
 3028TIP3    H233280   6.324   6.400  17.773
 3029TIP3   OH233281   7.458   6.070  18.376
 3029TIP3    H133282   7.403   6.143  18.341
 3029TIP3    H233283   7.514   6.119  18.438
 3030TIP3   OH233284   6.130   5.941  18.193
 3030TIP3    H133285   6.087   5.995  18.124
 3030TIP3    H233286   6.072   5.960  18.269
 3031TIP3   OH233287   6.812   6.876  17.566
 3031TIP3    H133288   6.795   6.866  17.470
 3031TIP3    H233289   6.785   6.970  17.580
 3032TIP3   OH233290   6.338   6.721  18.188
 3032TIP3    H133291   6.293   6.796  18.231
 3032TIP3    H233292   6.412   6.764  18.139
 3033TIP3   OH233293   7.153   6.033  17.871
 3033TIP3    H133294   7.152   5.940  17.890
 3033TIP3    H233295   7.245   6.058  17.895
 3034TIP3   OH233296   6.074   6.133  17.999
 3034TIP3    H133297   6.138   6.196  18.040
 3034TIP3    H233298   6.123   6.102  17.919
 3035TIP3   OH233299   6.209   6.933  18.300
 3035TIP3    H133300   6.195   7.025  18.271
 3035TIP3    H233301   6.121   6.915  18.342
 3036TIP3   OH233302   5.792   6.869  17.382
 3036TIP3    H133303   5.816   6.921  17.304
 3036TIP3    H233304   5.797   6.936  17.453
 3037TIP3   OH233305   7.143   7.104  18.093
 3037TIP3    H133306   7.046   7.093  18.091
 3037TIP3    H233307   7.149   7.187  18.043
 3038TIP3   OH233308   7.190   5.938  18.206
 3038TIP3    H133309   7.100   5.956  18.170
 3038TIP3    H233310   7.244   5.938  18.125
 3039TIP3   OH233311   6.466   5.685  17.936
 3039TIP3    H133312   6.446   5.590  17.936
 3039TIP3    H233313   6.376   5.719  17.961
 3040TIP3   OH233314   6.993   7.217  17.752
 3040TIP3    H133315   7.014   7.138  17.701
 3040TIP3    H233316   7.052   7.281  17.706
 3041TIP3   OH233317   7.115   7.001  17.578
 3041TIP3    H133318   7.085   6.928  17.522
 3041TIP3    H233319   7.143   6.953  17.658
 3042TIP3   OH233320   7.243   6.873  18.444
 3042TIP3    H133321   7.240   6.803  18.373
 3042TIP3    H233322   7.276   6.946  18.389
 3043TIP3   OH233323   6.710   6.567  17.386
 3043TIP3    H133324   6.660   6.650  17.373
 3043TIP3    H233325   6.794   6.583  17.339
 3044TIP3   OH233326   7.395   6.502  18.214
 3044TIP3    H133327   7.341   6.584  18.221
 3044TIP3    H233328   7.474   6.537  18.166
 3045TIP3   OH233329   7.088   6.588  17.496
 3045TIP3    H133330   7.010   6.605  17.553
 3045TIP3    H233331   7.141   6.531  17.556
 3046TIP3   OH233332   7.067   6.422  18.419
 3046TIP3    H133333   7.026   6.497  18.465
 3046TIP3    H233334   7.012   6.420  18.339
 3047TIP3   OH233335   6.222   6.649  17.680
 3047TIP3    H133336   6.195   6.600  17.599
 3047TIP3    H233337   6.280   6.585  17.725
 3048TIP3   OH233338   6.356   6.983  17.941
 3048TIP3    H133339   6.377   7.010  17.849
 3048TIP3    H233340   6.438   6.947  17.978
 3049TIP3   OH233341   6.236   6.519  18.070
 3049TIP3    H133342   6.269   6.518  17.977
 3049TIP3    H233343   6.291   6.590  18.110
 3050TIP3   OH233344   6.871   7.090  18.104
 3050TIP3    H133345   6.856   7.163  18.168
 3050TIP3    H233346   6.850   7.010  18.158
 3051TIP3   OH233347   6.356   6.970  18.528
 3051TIP3    H133348   6.293   7.034  18.567
 3051TIP3    H233349   6.316   6.955  18.439
 3052TIP3   OH233350   6.954   6.513  17.284
 3052TIP3    H133351   7.016   6.532  17.359
 3052TIP3    H233352   7.003   6.553  17.209
 3053TIP3   OH233353   6.069   6.577  18.440
 3053TIP3    H133354   6.064   6.667  18.476
 3053TIP3    H233355   5.994   6.537  18.487
 3054TIP3   OH233356   6.751   7.148  17.640
 3054TIP3    H133357   6.797   7.182  17.718
 3054TIP3    H233358   6.688   7.219  17.621
 3055TIP3   OH233359   6.168   7.155  18.605
 3055TIP3    H133360   6.160   7.169  18.508
 3055TIP3    H233361   6.086   7.105  18.626
 3056TIP3   OH233362   6.115   6.534  17.453
 3056TIP3    H133363   6.072   6.616  17.425
 3056TIP3    H233364   6.060   6.467  17.409
 3057TIP3   OH233365   5.759   6.805  18.357
 3057TIP3    H133366   5.721   6.796  18.268
 3057TIP3    H233367   5.789   6.713  18.373
 3058TIP3   OH233368   5.752   7.056  17.997
 3058TIP3    H133369   5.847   7.037  18.001
 3058TIP3    H233370   5.744   7.132  18.057
 3059TIP3   OH233371   7.524   7.146  18.613
 3059TIP3    H133372   7.508   7.059  18.573
 3059TIP3    H233373   7.442   7.160  18.665
 3060TIP3   OH233374   6.619   7.063  18.471
 3060TIP3    H133375   6.636   7.150  18.512
 3060TIP3    H233376   6.526   7.044  18.496
 3061TIP3   OH233377   6.696   7.456  17.461
 3061TIP3    H133378   6.653   7.438  17.375
 3061TIP3    H233379   6.659   7.542  17.481
 3062TIP3   OH233380   6.043   7.305  17.652
 3062TIP3    H133381   6.068   7.295  17.746
 3062TIP3    H233382   5.980   7.231  17.641
 3063TIP3   OH233383   7.041   7.387  17.175
 3063TIP3    H133384   6.996   7.331  17.110
 3063TIP3    H233385   6.997   7.354  17.256
 3064TIP3   OH233386   6.926   7.332  17.420
 3064TIP3    H133387   6.844   7.378  17.449
 3064TIP3    H233388   6.929   7.256  17.481
 3065TIP3   OH233389   7.230   6.293  18.636
 3065TIP3    H133390   7.164   6.318  18.569
 3065TIP3    H233391   7.246   6.198  18.616
 3066TIP3   OH233392   5.986   6.915  18.445
 3066TIP3    H133393   5.983   6.880  18.537
 3066TIP3    H233394   5.896   6.894  18.410
 3067TIP3   OH233395   6.226   5.766  18.021
 3067TIP3    H133396   6.135   5.772  17.985
 3067TIP3    H233397   6.214   5.827  18.097
 3068TIP3   OH233398   6.719   5.728  18.353
 3068TIP3    H133399   6.747   5.692  18.440
 3068TIP3    H233400   6.621   5.735  18.363
 3069TIP3   OH233401   6.991   6.142  18.467
 3069TIP3    H133402   6.942   6.103  18.543
 3069TIP3    H233403   6.994   6.236  18.490
 3070TIP3   OH233404   7.075   6.617  17.054
 3070TIP3    H133405   7.078   6.571  16.969
 3070TIP3    H233406   7.154   6.672  17.043
 3071TIP3   OH233407   6.250   6.279  18.165
 3071TIP3    H133408   6.169   6.269  18.220
 3071TIP3    H233409   6.239   6.375  18.141
 3072TIP3   OH233410   6.243   6.279  17.659
 3072TIP3    H133411   6.147   6.276  17.640
 3072TIP3    H233412   6.279   6.261  17.569
 3073TIP3   OH233413   6.819   6.323  17.480
 3073TIP3    H133414   6.777   6.404  17.443
 3073TIP3    H233415   6.904   6.363  17.506
 3074TIP3   OH233416   6.674   6.363  18.675
 3074TIP3    H133417   6.639   6.277  18.706
 3074TIP3    H233418   6.748   6.374  18.737
 3075TIP3   OH233419   6.894   6.296  17.823
 3075TIP3    H133420   6.878   6.382  17.780
 3075TIP3    H233421   6.895   6.235  17.747
 3076TIP3   OH233422   6.014   6.271  18.283
 3076TIP3    H133423   6.036   6.309  18.369
 3076TIP3    H233424   5.974   6.186  18.309
 3077TIP3   OH233425   5.697   6.002  17.750
 3077TIP3    H133426   5.756   6.014  17.827
 3077TIP3    H233427   5.746   6.045  17.678
 3078TIP3   OH233428   5.766   6.083  17.261
 3078TIP3    H133429   5.834   6.106  17.194
 3078TIP3    H233430   5.750   6.175  17.290
 3079TIP3   OH233431   6.820   6.447  18.238
 3079TIP3    H133432   6.866   6.371  18.194
 3079TIP3    H233433   6.763   6.399  18.300
 3080TIP3   OH233434   6.523   5.985  17.742
 3080TIP3    H133435   6.426   5.985  17.732
 3080TIP3    H233436   6.533   6.031  17.827
 3081TIP3   OH233437   5.966   6.199  17.646
 3081TIP3    H133438   5.897   6.232  17.584
 3081TIP3    H233439   5.992   6.112  17.608
 3082TIP3   OH233440   6.302   6.220  17.403
 3082TIP3    H133441   6.399   6.218  17.412
 3082TIP3    H233442   6.286   6.279  17.328
 3083TIP3   OH233443   6.945   5.957  18.091
 3083TIP3    H133444   6.867   5.957  18.150
 3083TIP3    H233445   6.907   5.927  18.005
 3084TIP3   OH233446   6.214   6.336  17.117
 3084TIP3    H133447   6.169   6.307  17.035
 3084TIP3    H233448   6.303   6.352  17.079
 3085TIP3   OH233449   7.222   7.514  18.723
 3085TIP3    H133450   7.251   7.542  18.634
 3085TIP3    H233451   7.305   7.518  18.774
 3086TIP3   OH233452   6.021   6.748  18.667
 3086TIP3    H133453   6.084   6.787  18.730
 3086TIP3    H233454   5.940   6.736  18.722
 3087TIP3   OH233455   6.597   6.298  17.897
 3087TIP3    H133456   6.692   6.292  17.876
 3087TIP3    H233457   6.597   6.276  17.991
 3088TIP3   OH233458   6.049   5.952  17.570
 3088TIP3    H133459   6.003   5.875  17.610
 3088TIP3    H233460   6.090   5.913  17.491
 3089TIP3   OH233461   6.469   6.131  18.183
 3089TIP3    H133462   6.391   6.193  18.180
 3089TIP3    H233463   6.534   6.184  18.231
 3090TIP3   OH233464   6.530   6.770  17.342
 3090TIP3    H133465   6.460   6.704  17.324
 3090TIP3    H233466   6.504   6.799  17.433
 3091TIP3   OH233467   7.248   6.729  18.228
 3091TIP3    H133468   7.300   6.763  18.153
 3091TIP3    H233469   7.165   6.702  18.182
 3092TIP3   OH233470   6.680   6.802  18.483
 3092TIP3    H133471   6.654   6.775  18.572
 3092TIP3    H233472   6.667   6.899  18.487
 3093TIP3   OH233473   6.057   6.735  17.899
 3093TIP3    H133474   6.113   6.721  17.819
 3093TIP3    H233475   6.084   6.663  17.958
 3094TIP3   OH233476   6.771   6.887  17.298
 3094TIP3    H133477   6.748   6.975  17.264
 3094TIP3    H233478   6.681   6.844  17.297
 3095TIP3   OH233479   5.770   6.537  18.453
 3095TIP3    H133480   5.745   6.484  18.532
 3095TIP3    H233481   5.709   6.504  18.384
 3096TIP3   OH233482   6.439   6.504  18.650
 3096TIP3    H133483   6.400   6.444  18.584
 3096TIP3    H233484   6.533   6.475  18.649
 3097TIP3   OH233485   6.947   7.035  18.488
 3097TIP3    H133486   6.856   7.041  18.456
 3097TIP3    H233487   6.935   7.074  18.577
 3098TIP3   OH233488   7.411   6.299  17.343
 3098TIP3    H133489   7.407   6.266  17.250
 3098TIP3    H233490   7.448   6.387  17.328
 3099TIP3   OH233491   7.467   6.851  18.572
 3099TIP3    H133492   7.372   6.873  18.551
 3099TIP3    H233493   7.504   6.848  18.481
 3100TIP3   OH233494   7.282   7.102  17.320
 3100TIP3    H133495   7.246   7.094  17.411
 3100TIP3    H233496   7.205   7.067  17.270
 3101TIP3   OH233497   7.060   6.636  18.054
 3101TIP3    H133498   6.965   6.626  18.037
 3101TIP3    H233499   7.096   6.567  17.995
 3102TIP3   OH233500   6.285   7.051  17.673
 3102TIP3    H133501   6.307   7.137  17.629
 3102TIP3    H233502   6.191   7.046  17.649
 3103TIP3   OH233503   5.870   6.568  17.181
 3103TIP3    H133504   5.921   6.538  17.102
 3103TIP3    H233505   5.782   6.545  17.151
 3104TIP3   OH233506   6.432   6.833  17.599
 3104TIP3    H133507   6.388   6.919  17.613
 3104TIP3    H233508   6.373   6.773  17.647
 3105TIP3   OH233509   6.480   7.240  18.305
 3105TIP3    H133510   6.531   7.319  18.282
 3105TIP3    H233511   6.551   7.180  18.335
 3106TIP3   OH233512   6.302   7.289  17.563
 3106TIP3    H133513   6.217   7.326  17.592
 3106TIP3    H233514   6.358   7.369  17.570
 3107TIP3   OH233515   6.795   6.838  18.226
 3107TIP3    H133516   6.751   6.823  18.314
 3107TIP3    H233517   6.857   6.764  18.228
 3108TIP3   OH233518   7.066   6.969  17.170
 3108TIP3    H133519   7.084   6.904  17.242
 3108TIP3    H233520   6.971   6.956  17.170
 3109TIP3   OH233521   7.085   7.302  18.474
 3109TIP3    H133522   7.011   7.244  18.444
 3109TIP3    H233523   7.102   7.364  18.401
 3110TIP3   OH233524   7.509   7.337  17.137
 3110TIP3    H133525   7.560   7.416  17.118
 3110TIP3    H233526   7.426   7.377  17.168
 3111TIP3   OH233527   5.934   6.021  18.403
 3111TIP3    H133528   5.853   6.068  18.428
 3111TIP3    H233529   5.922   5.936  18.450
 3112TIP3   OH233530   7.141   6.813  17.361
 3112TIP3    H133531   7.112   6.725  17.392
 3112TIP3    H233532   7.236   6.807  17.383
 3113TIP3   OH233533   5.895   7.181  18.265
 3113TIP3    H133534   5.946   7.099  18.255
 3113TIP3    H233535   5.951   7.228  18.329
 3114TIP3   OH233536   6.791   5.999  18.337
 3114TIP3    H133537   6.877   6.018  18.380
 3114TIP3    H233538   6.770   5.908  18.363
 3115TIP3   OH233539   6.840   5.967  17.449
 3115TIP3    H133540   6.912   5.922  17.403
 3115TIP3    H233541   6.885   5.982  17.535
 3116TIP3   OH233542   6.563   6.131  17.486
 3116TIP3    H133543   6.649   6.174  17.501
 3116TIP3    H233544   6.547   6.088  17.571
 3117TIP3   OH233545   6.684   6.261  18.397
 3117TIP3    H133546   6.676   6.284  18.492
 3117TIP3    H233547   6.732   6.176  18.398
 3118TIP3   OH233548   6.655   5.811  17.603
 3118TIP3    H133549   6.600   5.876  17.653
 3118TIP3    H233550   6.724   5.868  17.564
 3119TIP3   OH233551   6.235   5.938  17.301
 3119TIP3    H133552   6.224   6.034  17.310
 3119TIP3    H233553   6.331   5.928  17.307
 3120TIP3   OH233554   7.228   6.032  18.528
 3120TIP3    H133555   7.143   6.049  18.482
 3120TIP3    H233556   7.292   6.043  18.455
 3121TIP3   OH233557   7.118   6.436  17.872
 3121TIP3    H133558   7.038   6.381  17.872
 3121TIP3    H233559   7.169   6.385  17.938
 3122TIP3   OH233560   5.853   6.283  17.059
 3122TIP3    H133561   5.938   6.330  17.047
 3122TIP3    H233562   5.839   6.258  16.965
 3123TIP3   OH233563   7.260   7.371  18.085
 3123TIP3    H133564   7.237   7.414  17.999
 3123TIP3    H233565   7.355   7.353  18.071
 3124TIP3   OH233566   5.967   5.745  17.962
 3124TIP3    H133567   5.971   5.733  17.864
 3124TIP3    H233568   5.948   5.653  17.991
 3125TIP3   OH233569   5.835   7.112  17.569
 3125TIP3    H133570   5.772   7.175  17.607
 3125TIP3    H233571   5.850   7.155  17.482
 3126TIP3   OH233572   5.789   7.410  18.691
 3126TIP3    H133573   5.878   7.404  18.730
 3126TIP3    H233574   5.761   7.316  18.691
 3127TIP3   OH233575   6.268   7.264  18.841
 3127TIP3    H133576   6.365   7.265  18.846
 3127TIP3    H233577   6.250   7.230  18.751
 3128TIP3   OH233578   6.894   7.146  18.733
 3128TIP3    H133579   6.858   7.059  18.759
 3128TIP3    H233580   6.974   7.150  18.789
 3129TIP3   OH233581   5.764   6.771  18.779
 3129TIP3    H133582   5.724   6.683  18.786
 3129TIP3    H233583   5.710   6.809  18.707
 3130TIP3   OH233584   6.446   6.770  18.706
 3130TIP3    H133585   6.420   6.821  18.627
 3130TIP3    H233586   6.423   6.677  18.682
 3131TIP3   OH233587   7.019   6.741  18.477
 3131TIP3    H133588   7.108   6.782  18.486
 3131TIP3    H233589   6.966   6.823  18.489
 3132TIP3   OH233590   5.900   6.480  18.769
 3132TIP3    H133591   5.988   6.440  18.761
 3132TIP3    H233592   5.917   6.539  18.846
 3133TIP3   OH233593   6.332   6.582  17.247
 3133TIP3    H133594   6.268   6.555  17.314
 3133TIP3    H233595   6.308   6.519  17.176
 3134TIP3   OH233596   6.259   6.385  18.443
 3134TIP3    H133597   6.202   6.464  18.453
 3134TIP3    H233598   6.327   6.420  18.383
 3135TIP3   OH233599   6.434   6.426  17.008
 3135TIP3    H133600   6.429   6.427  16.911
 3135TIP3    H233601   6.509   6.483  17.027
 3136TIP3   OH233602   6.789   6.666  18.799
 3136TIP3    H133603   6.854   6.630  18.735
 3136TIP3    H233604   6.773   6.587  18.854
 3137TIP3   OH233605   6.300   6.120  18.530
 3137TIP3    H133606   6.333   6.059  18.460
 3137TIP3    H233607   6.291   6.205  18.485
 3138TIP3   OH233608   6.361   5.947  18.326
 3138TIP3    H133609   6.407   5.996  18.252
 3138TIP3    H233610   6.270   5.944  18.291
 3139TIP3   OH233611   6.474   6.537  18.328
 3139TIP3    H133612   6.559   6.582  18.321
 3139TIP3    H233613   6.416   6.601  18.282
 3140TIP3   OH233614   6.969   6.258  18.826
 3140TIP3    H133615   7.026   6.181  18.819
 3140TIP3    H233616   7.028   6.324  18.863
 3141TIP3   OH233617   7.056   6.589  18.694
 3141TIP3    H133618   7.040   6.642  18.613
 3141TIP3    H233619   7.150   6.565  18.681
 3142TIP3   OH233620   6.161   6.232  18.749
 3142TIP3    H133621   6.075   6.184  18.746
 3142TIP3    H233622   6.204   6.200  18.667
 3143TIP3   OH233623   6.448   5.701  18.332
 3143TIP3    H133624   6.418   5.795  18.336
 3143TIP3    H233625   6.364   5.658  18.305
 3144TIP3   OH233626   6.548   6.120  18.750
 3144TIP3    H133627   6.494   6.101  18.830
 3144TIP3    H233628   6.488   6.095  18.680
 3145TIP3   OH233629   6.818   6.043  18.663
 3145TIP3    H133630   6.724   6.043  18.691
 3145TIP3    H233631   6.862   6.004  18.741
 3146TIP3   OH233632   7.003   5.928  18.828
 3146TIP3    H133633   6.997   5.830  18.822
 3146TIP3    H233634   6.984   5.946  18.922
 3147TIP3   OH233635   5.954   6.039  18.758
 3147TIP3    H133636   5.944   5.961  18.700
 3147TIP3    H233637   5.941   6.001  18.848
 3148TIP3   OH233638   6.407   5.665  18.598
 3148TIP3    H133639   6.488   5.618  18.625
 3148TIP3    H233640   6.419   5.667  18.501
 3149TIP3   OH233641   6.476   5.837  18.858
 3149TIP3    H133642   6.423   5.771  18.810
 3149TIP3    H233643   6.406   5.900  18.885
 3150TIP3   OH233644   5.664   7.484  17.603
 3150TIP3    H133645   5.598   7.444  17.543
 3150TIP3    H233646   5.654   7.425  17.679
 3151TIP3   OH233647   5.749   7.289  17.803
 3151TIP3    H133648   5.687   7.229  17.849
 3151TIP3    H233649   5.824   7.291  17.867
 3152TIP3   OH233650   7.542   7.352  18.084
 3152TIP3    H133651   7.565   7.376  18.175
 3152TIP3    H233652   7.530   7.442  18.049
 3153TIP3   OH233653   7.460   7.327  18.386
 3153TIP3    H133654   7.408   7.260  18.336
 3153TIP3    H233655   7.520   7.268  18.434
 3154TIP3   OH233656   7.280   6.936  18.849
 3154TIP3    H133657   7.207   6.949  18.914
 3154TIP3    H233658   7.334   7.015  18.864
 3155TIP3   OH233659   7.400   6.745  17.412
 3155TIP3    H133660   7.486   6.786  17.430
 3155TIP3    H233661   7.404   6.666  17.471
 3156TIP3   OH233662   7.471   6.553  17.583
 3156TIP3    H133663   7.378   6.526  17.596
 3156TIP3    H233664   7.502   6.559  17.675
 3157TIP3   OH233665   7.471   6.809  18.079
 3157TIP3    H133666   7.559   6.792  18.040
 3157TIP3    H233667   7.466   6.903  18.050
 3158TIP3   OH233668   7.312   7.118  18.306
 3158TIP3    H133669   7.235   7.151  18.356
 3158TIP3    H233670   7.274   7.112  18.216
 3159TIP3   OH233671   7.352   6.252  17.075
 3159TIP3    H133672   7.301   6.322  17.032
 3159TIP3    H233673   7.298   6.172  17.057
 3160TIP3   OH233674   7.240   6.417  17.635
 3160TIP3    H133675   7.226   6.324  17.605
 3160TIP3    H233676   7.210   6.413  17.729
 3161TIP3   OH233677   5.753   6.638  18.054
 3161TIP3    H133678   5.762   6.614  17.958
 3161TIP3    H233679   5.841   6.602  18.084
 3162TIP3   OH233680   7.340   6.608  18.617
 3162TIP3    H133681   7.404   6.537  18.594
 3162TIP3    H233682   7.390   6.689  18.594
 3163TIP3   OH233683   7.486   6.391  18.632
 3163TIP3    H133684   7.389   6.379  18.648
 3163TIP3    H233685   7.513   6.297  18.651
 3164TIP3   OH233686   7.189   6.033  17.033
 3164TIP3    H133687   7.247   5.960  17.062
 3164TIP3    H233688   7.181   6.007  16.940
 3165TIP3   OH233689   7.235   6.176  17.504
 3165TIP3    H133690   7.237   6.079  17.489
 3165TIP3    H233691   7.298   6.209  17.435
 3166TIP3   OH233692   7.231   6.264  18.041
 3166TIP3    H133693   7.327   6.250  18.027
 3166TIP3    H233694   7.225   6.249  18.137
 3167TIP3   OH233695   7.285   6.287  18.326
 3167TIP3    H133696   7.198   6.327  18.349
 3167TIP3    H233697   7.325   6.363  18.279
 3168TIP3   OH233698   5.727   6.144  18.657
 3168TIP3    H133699   5.809   6.130  18.707
 3168TIP3    H233700   5.679   6.059  18.670
 3169TIP3   OH233701   7.497   5.683  18.832
 3169TIP3    H133702   7.551   5.627  18.775
 3169TIP3    H233703   7.487   5.763  18.775
 3170TIP3   OH233704   7.240   5.906  17.486
 3170TIP3    H133705   7.261   5.860  17.570
 3170TIP3    H233706   7.270   5.840  17.420
 3171TIP3   OH233707   5.839   5.980  18.009
 3171TIP3    H133708   5.876   5.889  18.005
 3171TIP3    H233709   5.920   6.035  18.010
 3172TIP3   OH233710   5.692   6.287  18.075
 3172TIP3    H133711   5.739   6.269  17.992
 3172TIP3    H233712   5.739   6.368  18.102
 3173TIP3   OH233713   7.444   5.899  18.693
 3173TIP3    H133714   7.366   5.956  18.719
 3173TIP3    H233715   7.418   5.872  18.604
 3174TIP3   OH233716   5.678   5.892  17.436
 3174TIP3    H133717   5.587   5.923  17.455
 3174TIP3    H233718   5.709   5.957  17.371
 3175TIP3   OH233719   7.152   7.385  17.627
 3175TIP3    H133720   7.219   7.387  17.555
 3175TIP3    H233721   7.198   7.430  17.700
 3176TIP3   OH233722   5.707   5.758  18.289
 3176TIP3    H133723   5.650   5.734  18.364
 3176TIP3    H233724   5.657   5.828  18.243
 3177TIP3   OH233725   5.925   7.060  18.689
 3177TIP3    H133726   5.839   7.056  18.645
 3177TIP3    H233727   5.902   7.081  18.780
 3178TIP3   OH233728   6.215   7.205  18.349
 3178TIP3    H133729   6.210   7.301  18.327
 3178TIP3    H233730   6.313   7.201  18.360
 3179TIP3   OH233731   6.667   7.303  18.597
 3179TIP3    H133732   6.650   7.287  18.692
 3179TIP3    H233733   6.744   7.363  18.601
 3180TIP3   OH233734   6.887   7.488  18.556
 3180TIP3    H133735   6.961   7.433  18.525
 3180TIP3    H233736   6.910   7.492  18.652
 3181TIP3   OH233737   7.353   5.713  18.487
 3181TIP3    H133738   7.274   5.750  18.443
 3181TIP3    H233739   7.362   5.626  18.443
 3182TIP3   OH233740   5.935   7.530  18.318
 3182TIP3    H133741   5.845   7.530  18.279
 3182TIP3    H233742   5.912   7.523  18.412
 3183TIP3   OH233743   6.187   7.456  18.271
 3183TIP3    H133744   6.099   7.496  18.294
 3183TIP3    H233745   6.202   7.497  18.184
 3184TIP3   OH233746   6.673   7.448  18.150
 3184TIP3    H133747   6.605   7.472  18.082
 3184TIP3    H233748   6.679   7.532  18.200
 3185TIP3   OH233749   6.870   7.305  18.276
 3185TIP3    H133750   6.798   7.361  18.242
 3185TIP3    H233751   6.946   7.363  18.258
 3186TIP3   OH233752   7.126   7.530  18.262
 3186TIP3    H133753   7.116   7.615  18.214
 3186TIP3    H233754   7.176   7.475  18.196
 3187TIP3   OH233755   5.913   7.316  18.018
 3187TIP3    H133756   5.898   7.266  18.101
 3187TIP3    H233757   6.001   7.281  17.989
 3188TIP3   OH233758   6.138   7.255  17.894
 3188TIP3    H133759   6.133   7.158  17.907
 3188TIP3    H233760   6.228   7.271  17.931
 3189TIP3   OH233761   6.363   7.251  18.031
 3189TIP3    H133762   6.388   7.157  18.020
 3189TIP3    H233763   6.373   7.265  18.127
 3190TIP3   OH233764   6.805   5.851  17.870
 3190TIP3    H133765   6.735   5.830  17.933
 3190TIP3    H233766   6.754   5.863  17.788
 3191TIP3   OH233767   7.200   5.665  17.906
 3191TIP3    H133768   7.261   5.716  17.847
 3191TIP3    H233769   7.137   5.634  17.841
 3192TIP3   OH233770   7.347   5.820  17.732
 3192TIP3    H133771   7.409   5.753  17.695
 3192TIP3    H233772   7.413   5.887  17.761
 3193TIP3   OH233773   5.958   5.720  17.684
 3193TIP3    H133774   5.872   5.719  17.640
 3193TIP3    H233775   5.991   5.629  17.664
 3194TIP3   OH233776   5.815   5.711  17.238
 3194TIP3    H133777   5.773   5.775  17.177
 3194TIP3    H233778   5.767   5.734  17.319
 3195TIP3   OH233779   6.356   5.689  17.663
 3195TIP3    H133780   6.424   5.731  17.607
 3195TIP3    H233781   6.389   5.703  17.753
 3196TIP3   OH233782   5.842   7.294  17.366
 3196TIP3    H133783   5.760   7.284  17.315
 3196TIP3    H233784   5.885   7.366  17.317
 3197TIP3   OH233785   6.523   5.890  17.338
 3197TIP3    H133786   6.576   5.841  17.403
 3197TIP3    H233787   6.533   5.982  17.369
 3198TIP3   OH233788   7.361   7.359  17.464
 3198TIP3    H133789   7.349   7.268  17.429
 3198TIP3    H233790   7.358   7.409  17.380
 3199TIP3   OH233791   5.899   5.791  18.584
 3199TIP3    H133792   5.855   5.706  18.603
 3199TIP3    H233793   5.972   5.780  18.651
 3200TIP3   OH233794   6.088   5.710  18.745
 3200TIP3    H133795   6.174   5.698  18.703
 3200TIP3    H233796   6.113   5.681  18.836
 3201TIP3   OH233797   6.984   5.653  18.810
 3201TIP3    H133798   6.977   5.613  18.899
 3201TIP3    H233799   7.068   5.612  18.779
 3202TIP3   OH233800   7.277   7.235  18.671
 3202TIP3    H133801   7.209   7.257  18.604
 3202TIP3    H233802   7.301   7.323  18.703
 3203TIP3   OH233803   7.582   6.293  17.556
 3203TIP3    H133804   7.549   6.385  17.560
 3203TIP3    H233805   7.535   6.264  17.476
 3204TIP3   OH233806   7.568   6.767  18.339
 3204TIP3    H133807   7.523   6.757  18.252
 3204TIP3    H233808   7.577   6.674  18.371
 3205TIP3   OH233809   7.553   7.042  18.009
 3205TIP3    H133810   7.645   7.043  17.975
 3205TIP3    H233811   7.553   7.123  18.063
 3206TIP3   OH233812   7.550   6.003  17.743
 3206TIP3    H133813   7.620   6.072  17.735
 3206TIP3    H233814   7.531   5.986  17.648
 3207TIP3   OH233815   7.584   6.517  18.419
 3207TIP3    H133816   7.577   6.462  18.500
 3207TIP3    H233817   7.505   6.489  18.370
 3208TIP3   OH233818   7.620   6.734  18.752
 3208TIP3    H133819   7.606   6.639  18.742
 3208TIP3    H233820   7.552   6.773  18.691
 3209TIP3   OH233821   7.490   7.512  17.659
 3209TIP3    H133822   7.426   7.477  17.593
 3209TIP3    H233823   7.501   7.432  17.715
 3210TIP3   OH233824   7.552   7.289  17.795
 3210TIP3    H133825   7.509   7.211  17.834
 3210TIP3    H233826   7.635   7.290  17.847
 3211TIP3   OH233827   7.620   6.563  18.085
 3211TIP3    H133828   7.612   6.574  17.989
 3211TIP3    H233829   7.701   6.616  18.099
 3212TIP3   OH233830   7.541   6.140  18.658
 3212TIP3    H133831   7.638   6.134  18.646
 3212TIP3    H233832   7.519   6.046  18.671
 3213TIP3   OH233833   7.499   6.250  18.039
 3213TIP3    H133834   7.597   6.244  18.033
 3213TIP3    H233835   7.489   6.342  18.066
 3214TIP3   OH233836   7.530   5.913  17.488
 3214TIP3    H133837   7.444   5.955  17.471
 3214TIP3    H233838   7.547   5.870  17.402
 3215TIP3   OH233839   7.479   5.732  18.247
 3215TIP3    H133840   7.458   5.755  18.340
 3215TIP3    H233841   7.451   5.812  18.197
 3216TIP3   OH233842   0.799   7.518  18.003
 3216TIP3    H133843   0.795   7.465  17.920
 3216TIP3    H233844   0.704   7.546  18.014
 3217TIP3   OH233845   1.714   7.484  17.258
 3217TIP3    H133846   1.619   7.494  17.243
 3217TIP3    H233847   1.741   7.577  17.247
 3218TIP3   OH233848   0.573  -0.038  18.040
 3218TIP3    H133849   0.479  -0.051  18.011
 3218TIP3    H233850   0.586   0.059  18.037
 3219TIP3   OH233851   1.072   7.582  18.364
 3219TIP3    H133852   1.149   7.555  18.419
 3219TIP3    H233853   1.004   7.521  18.398
 3220TIP3   OH233854   0.319   7.588  17.968
 3220TIP3    H133855   0.304   7.579  17.870
 3220TIP3    H233856   0.282   7.501  17.997
 3221TIP3   OH233857   0.789   7.500  18.338
 3221TIP3    H133858   0.779   7.596  18.323
 3221TIP3    H233859   0.725   7.463  18.275
 3222TIP3   OH233860   0.747   7.481  18.605
 3222TIP3    H133861   0.809   7.423  18.650
 3222TIP3    H233862   0.770   7.468  18.510
 3223TIP3   OH233863   1.795   7.530  18.769
 3223TIP3    H133864   1.879   7.499  18.727
 3223TIP3    H233865   1.834   7.595  18.831
 3224TIP3   OH233866   0.049   7.599  18.277
 3224TIP3    H133867  -0.015   7.645  18.332
 3224TIP3    H233868   0.069   7.668  18.212
 3225TIP3   OH233869   1.662   7.559  18.443
 3225TIP3    H133870   1.599   7.535  18.372
 3225TIP3    H233871   1.718   7.478  18.446
 3226TIP3   OH233872   1.581   7.525  17.879
 3226TIP3    H133873   1.594   7.620  17.899
 3226TIP3    H233874   1.490   7.531  17.846
 3227TIP3   OH233875   0.269   7.548  17.706
 3227TIP3    H133876   0.188   7.528  17.654
 3227TIP3    H233877   0.330   7.483  17.665
 3228TIP3   OH233878   0.204   7.528  17.228
 3228TIP3    H133879   0.228   7.624  17.225
 3228TIP3    H233880   0.136   7.535  17.296
 3229TIP3   OH233881   0.730   7.511  17.708
 3229TIP3    H133882   0.788   7.562  17.651
 3229TIP3    H233883   0.656   7.573  17.720
 3230TIP3   OH233884   1.288   7.528  17.810
 3230TIP3    H133885   1.224   7.528  17.737
 3230TIP3    H233886   1.250   7.463  17.869
 3231TIP3   OH233887   1.392   7.544  17.363
 3231TIP3    H133888   1.352   7.556  17.276
 3231TIP3    H233889   1.358   7.458  17.392
 3232TIP3   OH233890   0.437   7.514  18.727
 3232TIP3    H133891   0.519   7.484  18.685
 3232TIP3    H233892   0.424   7.446  18.797
 3233TIP3   OH233893   1.320   7.439  18.807
 3233TIP3    H133894   1.339   7.414  18.900
 3233TIP3    H233895   1.412   7.453  18.775
 3234TIP3   OH233896   2.709   7.515  18.004
 3234TIP3    H133897   2.699   7.449  17.933
 3234TIP3    H233898   2.614   7.533  18.024
 3235TIP3   OH233899   3.538   7.484  17.268
 3235TIP3    H133900   3.447   7.493  17.301
 3235TIP3    H233901   3.563   7.577  17.255
 3236TIP3   OH233902   2.460   7.615  18.050
 3236TIP3    H133903   2.365   7.602  18.025
 3236TIP3    H233904   2.469   7.713  18.041
 3237TIP3   OH233905   2.949   7.592  18.377
 3237TIP3    H133906   3.020   7.549  18.431
 3237TIP3    H233907   2.873   7.536  18.401
 3238TIP3   OH233908   2.196   7.573  17.956
 3238TIP3    H133909   2.188   7.566  17.859
 3238TIP3    H233910   2.170   7.481  17.983
 3239TIP3   OH233911   2.684   7.500  18.354
 3239TIP3    H133912   2.685   7.598  18.342
 3239TIP3    H233913   2.600   7.478  18.308
 3240TIP3   OH233914   2.620   7.472  18.612
 3240TIP3    H133915   2.699   7.440  18.659
 3240TIP3    H233916   2.650   7.464  18.519
 3241TIP3   OH233917   3.681   7.529  18.783
 3241TIP3    H133918   3.766   7.490  18.755
 3241TIP3    H233919   3.710   7.616  18.817
 3242TIP3   OH233920   1.915   7.570  18.275
 3242TIP3    H133921   1.839   7.576  18.335
 3242TIP3    H233922   1.932   7.664  18.252
 3243TIP3   OH233923   3.546   7.565  18.459
 3243TIP3    H133924   3.491   7.543  18.381
 3243TIP3    H233925   3.587   7.478  18.477
 3244TIP3   OH233926   3.473   7.519  17.870
 3244TIP3    H133927   3.513   7.607  17.882
 3244TIP3    H233928   3.379   7.546  17.872
 3245TIP3   OH233929   2.152   7.539  17.689
 3245TIP3    H133930   2.064   7.525  17.648
 3245TIP3    H233931   2.201   7.462  17.651
 3246TIP3   OH233932   2.648   7.515  17.708
 3246TIP3    H133933   2.697   7.592  17.677
 3246TIP3    H233934   2.559   7.552  17.712
 3247TIP3   OH233935   3.210   7.562  17.778
 3247TIP3    H133936   3.155   7.575  17.700
 3247TIP3    H233937   3.162   7.486  17.820
 3248TIP3   OH233938   3.294   7.573  17.348
 3248TIP3    H133939   3.233   7.535  17.282
 3248TIP3    H233940   3.277   7.510  17.421
 3249TIP3   OH233941   2.349   7.511  18.704
 3249TIP3    H133942   2.433   7.461  18.694
 3249TIP3    H233943   2.312   7.470  18.785
 3250TIP3   OH233944   3.207   7.445  18.815
 3250TIP3    H133945   3.222   7.423  18.909
 3250TIP3    H233946   3.300   7.453  18.784
 3251TIP3   OH233947   4.584   7.535  18.013
 3251TIP3    H133948   4.574   7.466  17.945
 3251TIP3    H233949   4.491   7.543  18.042
 3252TIP3   OH233950   5.447   7.519  17.255
 3252TIP3    H133951   5.354   7.544  17.272
 3252TIP3    H233952   5.487   7.608  17.268
 3253TIP3   OH233953   4.336   7.622  18.047
 3253TIP3    H133954   4.240   7.618  18.023
 3253TIP3    H233955   4.351   7.719  18.049
 3254TIP3   OH233956   4.834   7.598  18.382
 3254TIP3    H133957   4.907   7.561  18.438
 3254TIP3    H233958   4.763   7.535  18.407
 3255TIP3   OH233959   4.076   7.575  17.973
 3255TIP3    H133960   4.076   7.559  17.876
 3255TIP3    H233961   4.058   7.484  18.005
 3256TIP3   OH233962   4.568   7.511  18.353
 3256TIP3    H133963   4.562   7.606  18.329
 3256TIP3    H233964   4.480   7.479  18.325
 3257TIP3   OH233965   4.505   7.479  18.605
 3257TIP3    H133966   4.569   7.421  18.649
 3257TIP3    H233967   4.541   7.482  18.514
 3258TIP3   OH233968   5.559   7.527  18.774
 3258TIP3    H133969   5.643   7.500  18.729
 3258TIP3    H233970   5.596   7.593  18.835
 3259TIP3   OH233971   3.785   7.582  18.262
 3259TIP3    H133972   3.723   7.588  18.337
 3259TIP3    H233973   3.805   7.677  18.243
 3260TIP3   OH233974   5.435   7.564  18.448
 3260TIP3    H133975   5.370   7.550  18.376
 3260TIP3    H233976   5.483   7.478  18.444
 3261TIP3   OH233977   5.367   7.508  17.862
 3261TIP3    H133978   5.384   7.604  17.866
 3261TIP3    H233979   5.270   7.514  17.850
 3262TIP3   OH233980   4.050   7.522  17.701
 3262TIP3    H133981   3.963   7.520  17.654
 3262TIP3    H233982   4.088   7.436  17.671
 3263TIP3   OH233983   3.925   7.546  17.263
 3263TIP3    H133984   3.967   7.625  17.228
 3263TIP3    H233985   3.863   7.573  17.331
 3264TIP3   OH233986   4.508   7.501  17.712
 3264TIP3    H133987   4.550   7.569  17.654
 3264TIP3    H233988   4.440   7.557  17.750
 3265TIP3   OH233989   5.092   7.553  17.774
 3265TIP3    H133990   5.046   7.574  17.691
 3265TIP3    H233991   5.032   7.484  17.812
 3266TIP3   OH233992   5.183   7.575  17.345
 3266TIP3    H133993   5.134   7.528  17.273
 3266TIP3    H233994   5.164   7.519  17.421
 3267TIP3   OH233995   4.230   7.513  18.701
 3267TIP3    H133996   4.309   7.459  18.682
 3267TIP3    H233997   4.190   7.465  18.776
 3268TIP3   OH233998   5.084   7.465  18.810
 3268TIP3    H133999   5.101   7.435  18.902
 3268TIP3    H234000   5.176   7.462  18.775
 3269TIP3   OH234001   6.465   7.522  18.011
 3269TIP3    H134002   6.456   7.444  17.953
 3269TIP3    H234003   6.371   7.542  18.034
 3270TIP3   OH234004   7.321   7.492  17.241
 3270TIP3    H134005   7.225   7.482  17.247
 3270TIP3    H234006   7.331   7.590  17.248
 3271TIP3   OH234007   6.215   7.618  18.057
 3271TIP3    H134008   6.130   7.602  18.010
 3271TIP3    H234009   6.222   7.716  18.048
 3272TIP3   OH234010   6.726   7.587  18.376
 3272TIP3    H134011   6.794   7.554  18.440
 3272TIP3    H234012   6.657   7.521  18.391
 3273TIP3   OH234013   5.972   7.568  17.938
 3273TIP3    H134014   5.949   7.560  17.843
 3273TIP3    H234015   5.944   7.481  17.973
 3274TIP3   OH234016   6.468   7.515  18.352
 3274TIP3    H134017   6.459   7.612  18.334
 3274TIP3    H234018   6.378   7.484  18.331
 3275TIP3   OH234019   6.411   7.485  18.610
 3275TIP3    H134020   6.477   7.438  18.662
 3275TIP3    H234021   6.448   7.479  18.519
 3276TIP3   OH234022   7.510   7.505  18.800
 3276TIP3    H134023   7.593   7.492  18.751
 3276TIP3    H234024   7.533   7.578  18.860
 3277TIP3   OH234025   5.669   7.570  18.264
 3277TIP3    H134026   5.607   7.574  18.339
 3277TIP3    H234027   5.684   7.666  18.246
 3278TIP3   OH234028   7.317   7.551  18.454
 3278TIP3    H134029   7.258   7.553  18.376
 3278TIP3    H234030   7.357   7.461  18.444
 3279TIP3   OH234031   7.221   7.514  17.865
 3279TIP3    H134032   7.272   7.598  17.864
 3279TIP3    H234033   7.133   7.546  17.836
 3280TIP3   OH234034   5.923   7.542  17.667
 3280TIP3    H134035   5.833   7.521  17.633
 3280TIP3    H234036   5.970   7.460  17.641
 3281TIP3   OH234037   6.379   7.519  17.676
 3281TIP3    H134038   6.413   7.603  17.640
 3281TIP3    H234039   6.323   7.552  17.746
 3282TIP3   OH234040   6.975   7.561  17.744
 3282TIP3    H134041   6.989   7.526  17.654
 3282TIP3    H234042   6.912   7.496  17.782
 3283TIP3   OH234043   7.071   7.583  17.378
 3283TIP3    H134044   7.075   7.564  17.283
 3283TIP3    H234045   7.036   7.498  17.410
 3284TIP3   OH234046   6.116   7.519  18.698
 3284TIP3    H134047   6.189   7.458  18.677
 3284TIP3    H234048   6.077   7.474  18.776
 3285TIP3   OH234049   6.982   7.448  18.801
 3285TIP3    H134050   6.992   7.432  18.898
 3285TIP3    H234051   7.076   7.446  18.776
 3286TIP3   OH234052   7.446   7.582  18.200
 3286TIP3    H134053   7.449   7.591  18.296
 3286TIP3    H234054   7.472   7.671  18.173
 3287TIP3   OH234055   1.231   0.997  19.532
 3287TIP3    H134056   1.217   1.093  19.537
 3287TIP3    H234057   1.140   0.962  19.533
 3288TIP3   OH234058   1.036   0.964  19.944
 3288TIP3    H134059   1.061   0.886  19.999
 3288TIP3    H234060   1.047   0.926  19.855
 3289TIP3   OH234061   1.399   1.187  19.704
 3289TIP3    H134062   1.365   1.113  19.759
 3289TIP3    H234063   1.435   1.250  19.770
 3290TIP3   OH234064   0.390   1.316  19.840
 3290TIP3    H134065   0.379   1.222  19.814
 3290TIP3    H234066   0.485   1.315  19.862
 3291TIP3   OH234067   0.125   0.649  19.366
 3291TIP3    H134068   0.109   0.731  19.415
 3291TIP3    H234069   0.043   0.604  19.392
 3292TIP3   OH234070   0.107   0.899  19.664
 3292TIP3    H134071   0.163   0.823  19.692
 3292TIP3    H234072   0.170   0.945  19.605
 3293TIP3   OH234073   1.166   1.752  19.775
 3293TIP3    H134074   1.231   1.706  19.717
 3293TIP3    H234075   1.126   1.674  19.815
 3294TIP3   OH234076   0.941   1.227  19.964
 3294TIP3    H134077   0.954   1.141  19.918
 3294TIP3    H234078   1.009   1.216  20.033
 3295TIP3   OH234079   1.182   0.551  19.943
 3295TIP3    H134080   1.272   0.589  19.953
 3295TIP3    H234081   1.148   0.603  19.868
 3296TIP3   OH234082   0.587   0.399  19.677
 3296TIP3    H134083   0.610   0.476  19.620
 3296TIP3    H234084   0.534   0.345  19.613
 3297TIP3   OH234085   1.350   0.386  19.486
 3297TIP3    H134086   1.412   0.356  19.555
 3297TIP3    H234087   1.347   0.481  19.510
 3298TIP3   OH234088   0.239   0.666  19.714
 3298TIP3    H134089   0.287   0.603  19.769
 3298TIP3    H234090   0.238   0.616  19.630
 3299TIP3   OH234091   0.678   0.792  19.710
 3299TIP3    H134092   0.762   0.748  19.732
 3299TIP3    H234093   0.649   0.735  19.635
 3300TIP3   OH234094   1.149   1.252  19.423
 3300TIP3    H134095   1.128   1.225  19.332
 3300TIP3    H234096   1.124   1.347  19.422
 3301TIP3   OH234097   1.507   0.327  19.696
 3301TIP3    H134098   1.512   0.322  19.794
 3301TIP3    H234099   1.559   0.409  19.690
 3302TIP3   OH234100   0.404   0.483  19.871
 3302TIP3    H134101   0.440   0.572  19.882
 3302TIP3    H234102   0.457   0.447  19.797
 3303TIP3   OH234103   0.119   1.209  19.257
 3303TIP3    H134104   0.112   1.266  19.177
 3303TIP3    H234105   0.145   1.275  19.325
 3304TIP3   OH234106   1.515   1.353  19.876
 3304TIP3    H134107   1.452   1.306  19.934
 3304TIP3    H234108   1.558   1.411  19.941
 3305TIP3   OH234109   0.834   0.079  19.788
 3305TIP3    H134110   0.853  -0.015  19.807
 3305TIP3    H234111   0.756   0.093  19.846
 3306TIP3   OH234112   1.308   1.590  19.615
 3306TIP3    H134113   1.342   1.504  19.584
 3306TIP3    H234114   1.391   1.643  19.607
 3307TIP3   OH234115   1.455   1.383  19.496
 3307TIP3    H134116   1.422   1.325  19.425
 3307TIP3    H234117   1.457   1.321  19.571
 3308TIP3   OH234118   1.056   0.907  19.304
 3308TIP3    H134119   1.005   0.990  19.291
 3308TIP3    H234120   1.144   0.933  19.272
 3309TIP3   OH234121   1.071   0.825  18.976
 3309TIP3    H134122   1.130   0.865  19.044
 3309TIP3    H234123   1.087   0.731  18.992
 3310TIP3   OH234124   1.443   0.892  19.379
 3310TIP3    H134125   1.375   0.929  19.440
 3310TIP3    H234126   1.503   0.848  19.442
 3311TIP3   OH234127   0.571   0.998  19.565
 3311TIP3    H134128   0.524   0.953  19.492
 3311TIP3    H234129   0.617   0.927  19.613
 3312TIP3   OH234130   0.732   1.373  19.837
 3312TIP3    H134131   0.722   1.335  19.749
 3312TIP3    H234132   0.804   1.320  19.877
 3313TIP3   OH234133   0.545   0.871  19.927
 3313TIP3    H134134   0.584   0.841  19.843
 3313TIP3    H234135   0.623   0.875  19.984
 3314TIP3   OH234136   1.288   0.880  19.149
 3314TIP3    H134137   1.343   0.882  19.231
 3314TIP3    H234138   1.350   0.916  19.081
 3315TIP3   OH234139   1.079   1.511  19.452
 3315TIP3    H134140   1.135   1.545  19.524
 3315TIP3    H234141   1.028   1.589  19.425
 3316TIP3   OH234142   1.681   0.077  19.154
 3316TIP3    H134143   1.593   0.110  19.180
 3316TIP3    H234144   1.719   0.160  19.119
 3317TIP3   OH234145   0.423   0.888  19.341
 3317TIP3    H134146   0.414   0.973  19.291
 3317TIP3    H234147   0.415   0.824  19.270
 3318TIP3   OH234148   1.782   1.443  18.994
 3318TIP3    H134149   1.811   1.535  19.007
 3318TIP3    H234150   1.868   1.397  19.006
 3319TIP3   OH234151   0.135   1.452  19.875
 3319TIP3    H134152   0.208   1.387  19.879
 3319TIP3    H234153   0.157   1.507  19.951
 3320TIP3   OH234154   1.039   1.784  19.336
 3320TIP3    H134155   1.036   1.793  19.238
 3320TIP3    H234156   1.014   1.876  19.363
 3321TIP3   OH234157   0.403   1.678  19.515
 3321TIP3    H134158   0.425   1.644  19.605
 3321TIP3    H234159   0.309   1.655  19.510
 3322TIP3   OH234160   1.330   1.727  19.032
 3322TIP3    H134161   1.380   1.650  18.996
 3322TIP3    H234162   1.333   1.710  19.129
 3323TIP3   OH234163   1.299   1.723  19.302
 3323TIP3    H134164   1.204   1.741  19.321
 3323TIP3    H234165   1.315   1.650  19.362
 3324TIP3   OH234166   0.611   0.166  19.927
 3324TIP3    H134167   0.526   0.207  19.903
 3324TIP3    H234168   0.664   0.247  19.943
 3325TIP3   OH234169   1.458   0.993  18.967
 3325TIP3    H134170   1.440   1.007  18.872
 3325TIP3    H234171   1.555   1.003  18.968
 3326TIP3   OH234172   1.003   0.344  18.999
 3326TIP3    H134173   0.955   0.301  19.073
 3326TIP3    H234174   0.971   0.292  18.925
 3327TIP3   OH234175   0.584   0.620  19.536
 3327TIP3    H134176   0.490   0.596  19.521
 3327TIP3    H234177   0.627   0.594  19.451
 3328TIP3   OH234178   1.164   0.668  19.366
 3328TIP3    H134179   1.127   0.753  19.337
 3328TIP3    H234180   1.227   0.645  19.295
 3329TIP3   OH234181   1.339   0.591  19.653
 3329TIP3    H134182   1.267   0.657  19.637
 3329TIP3    H234183   1.287   0.518  19.691
 3330TIP3   OH234184   0.664   0.369  18.874
 3330TIP3    H134185   0.634   0.337  18.962
 3330TIP3    H234186   0.583   0.411  18.842
 3331TIP3   OH234187   0.073   0.430  19.633
 3331TIP3    H134188   0.115   0.401  19.717
 3331TIP3    H234189   0.113   0.367  19.571
 3332TIP3   OH234190   0.135   0.423  19.153
 3332TIP3    H134191   0.178   0.472  19.078
 3332TIP3    H234192   0.088   0.496  19.196
 3333TIP3   OH234193   0.876   0.389  19.624
 3333TIP3    H134194   0.795   0.377  19.676
 3333TIP3    H234195   0.940   0.362  19.694
 3334TIP3   OH234196   0.328   0.517  19.506
 3334TIP3    H134197   0.265   0.544  19.437
 3334TIP3    H234198   0.350   0.427  19.475
 3335TIP3   OH234199   0.696   0.552  19.302
 3335TIP3    H134200   0.793   0.559  19.311
 3335TIP3    H234201   0.672   0.614  19.233
 3336TIP3   OH234202   1.262   0.260  19.938
 3336TIP3    H134203   1.252   0.351  19.973
 3336TIP3    H234204   1.172   0.249  19.903
 3337TIP3   OH234205   0.565   0.714  19.016
 3337TIP3    H134206   0.524   0.640  18.969
 3337TIP3    H234207   0.651   0.725  18.972
 3338TIP3   OH234208   0.901   0.603  19.873
 3338TIP3    H134209   0.957   0.647  19.805
 3338TIP3    H234210   0.966   0.542  19.912
 3339TIP3   OH234211   0.458   0.298  19.435
 3339TIP3    H134212   0.414   0.217  19.468
 3339TIP3    H234213   0.536   0.265  19.389
 3340TIP3   OH234214   0.903   1.125  19.266
 3340TIP3    H134215   0.828   1.080  19.221
 3340TIP3    H234216   0.856   1.160  19.345
 3341TIP3   OH234217   1.246   0.398  19.093
 3341TIP3    H134218   1.153   0.409  19.060
 3341TIP3    H234219   1.276   0.489  19.115
 3342TIP3   OH234220   1.356   0.611  19.190
 3342TIP3    H134221   1.420   0.594  19.261
 3342TIP3    H234222   1.393   0.691  19.149
 3343TIP3   OH234223   0.401   1.059  19.768
 3343TIP3    H134224   0.455   1.056  19.686
 3343TIP3    H234225   0.463   1.022  19.834
 3344TIP3   OH234226   1.084   1.258  19.136
 3344TIP3    H134227   1.039   1.346  19.147
 3344TIP3    H234228   1.017   1.198  19.176
 3345TIP3   OH234229   1.803   0.631  19.184
 3345TIP3    H134230   1.760   0.595  19.103
 3345TIP3    H234231   1.825   0.723  19.158
 3346TIP3   OH234232   1.620   1.484  19.211
 3346TIP3    H134233   1.598   1.422  19.282
 3346TIP3    H234234   1.677   1.433  19.150
 3347TIP3   OH234235   1.350   0.970  19.883
 3347TIP3    H134236   1.262   0.945  19.850
 3347TIP3    H234237   1.409   0.915  19.826
 3348TIP3   OH234238   0.619   1.413  19.546
 3348TIP3    H134239   0.646   1.493  19.496
 3348TIP3    H234240   0.530   1.402  19.512
 3349TIP3   OH234241   0.247   0.907  19.056
 3349TIP3    H134242   0.301   0.980  19.093
 3349TIP3    H234243   0.159   0.927  19.088
 3350TIP3   OH234244   0.758   1.196  19.471
 3350TIP3    H134245   0.701   1.269  19.504
 3350TIP3    H234246   0.729   1.121  19.525
 3351TIP3   OH234247   0.658   1.651  19.426
 3351TIP3    H134248   0.563   1.669  19.447
 3351TIP3    H234249   0.695   1.736  19.458
 3352TIP3   OH234250   1.423   1.292  19.015
 3352TIP3    H134251   1.439   1.250  19.103
 3352TIP3    H234252   1.329   1.272  19.005
 3353TIP3   OH234253   1.848   1.720  19.057
 3353TIP3    H134254   1.913   1.785  19.026
 3353TIP3    H234255   1.776   1.782  19.087
 3354TIP3   OH234256   1.501   1.148  19.243
 3354TIP3    H134257   1.480   1.057  19.273
 3354TIP3    H234258   1.598   1.141  19.234
 3355TIP3   OH234259   0.815   1.427  18.868
 3355TIP3    H134260   0.809   1.374  18.788
 3355TIP3    H234261   0.761   1.373  18.930
 3356TIP3   OH234262   0.688   1.340  19.111
 3356TIP3    H134263   0.755   1.309  19.174
 3356TIP3    H234264   0.692   1.436  19.134
 3357TIP3   OH234265   0.370   1.106  19.178
 3357TIP3    H134266   0.282   1.134  19.212
 3357TIP3    H234267   0.391   1.175  19.113
 3358TIP3   OH234268   1.191   0.264  19.319
 3358TIP3    H134269   1.190   0.332  19.249
 3358TIP3    H234270   1.251   0.306  19.385
 3359TIP3   OH234271   0.982   1.513  19.152
 3359TIP3    H134272   0.895   1.555  19.168
 3359TIP3    H234273   1.041   1.590  19.157
 3360TIP3   OH234274   0.962   0.497  19.379
 3360TIP3    H134275   1.043   0.552  19.396
 3360TIP3    H234276   0.936   0.476  19.471
 3361TIP3   OH234277   1.006   0.194  19.486
 3361TIP3    H134278   0.992   0.282  19.524
 3361TIP3    H234279   1.084   0.209  19.427
 3362TIP3   OH234280   0.724   1.593  19.171
 3362TIP3    H134281   0.741   1.669  19.110
 3362TIP3    H234282   0.691   1.643  19.248
 3363TIP3   OH234283   0.567   0.338  19.118
 3363TIP3    H134284   0.548   0.417  19.172
 3363TIP3    H234285   0.650   0.311  19.161
 3364TIP3   OH234286   1.487   0.791  19.747
 3364TIP3    H134287   1.413   0.730  19.729
 3364TIP3    H234288   1.526   0.742  19.821
 3365TIP3   OH234289   0.424   1.339  19.020
 3365TIP3    H134290   0.513   1.351  19.062
 3365TIP3    H234291   0.447   1.280  18.946
 3366TIP3   OH234292   0.226   0.630  18.979
 3366TIP3    H134293   0.269   0.716  18.996
 3366TIP3    H234294   0.169   0.650  18.903
 3367TIP3   OH234295   1.588   1.710  19.946
 3367TIP3    H134296   1.601   1.787  19.888
 3367TIP3    H234297   1.674   1.700  19.989
 3368TIP3   OH234298   0.348   0.150  19.833
 3368TIP3    H134299   0.318   0.155  19.740
 3368TIP3    H234300   0.341   0.053  19.843
 3369TIP3   OH234301   0.195   1.440  19.397
 3369TIP3    H134302   0.118   1.492  19.424
 3369TIP3    H234303   0.244   1.510  19.350
 3370TIP3   OH234304   1.024   1.623  18.856
 3370TIP3    H134305   0.974   1.543  18.882
 3370TIP3    H234306   1.102   1.582  18.813
 3371TIP3   OH234307   1.478   1.546  18.876
 3371TIP3    H134308   1.491   1.477  18.945
 3371TIP3    H234309   1.562   1.545  18.827
 3372TIP3   OH234310   0.565   1.128  18.865
 3372TIP3    H134311   0.600   1.112  18.954
 3372TIP3    H234312   0.649   1.126  18.812
 3373TIP3   OH234313   1.127   1.285  18.857
 3373TIP3    H134314   1.093   1.272  18.947
 3373TIP3    H234315   1.122   1.192  18.826
 3374TIP3   OH234316   0.695   0.971  19.134
 3374TIP3    H134317   0.627   0.909  19.165
 3374TIP3    H234318   0.744   0.915  19.072
 3375TIP3   OH234319   0.815   0.792  18.904
 3375TIP3    H134320   0.814   0.847  18.823
 3375TIP3    H234321   0.911   0.799  18.928
 3376TIP3   OH234322   1.724   0.998  18.857
 3376TIP3    H134323   1.705   0.972  18.765
 3376TIP3    H234324   1.716   1.097  18.853
 3377TIP3   OH234325   0.780   1.821  19.058
 3377TIP3    H134326   0.877   1.829  19.063
 3377TIP3    H234327   0.763   1.884  18.986
 3378TIP3   OH234328   0.155   1.339  19.025
 3378TIP3    H134329   0.252   1.352  19.027
 3378TIP3    H234330   0.145   1.291  18.940
 3379TIP3   OH234331   0.087   1.832  19.480
 3379TIP3    H134332  -0.009   1.848  19.485
 3379TIP3    H234333   0.101   1.769  19.553
 3380TIP3   OH234334   0.130   1.646  19.687
 3380TIP3    H134335   0.140   1.563  19.740
 3380TIP3    H234336   0.179   1.706  19.748
 3381TIP3   OH234337   1.776   1.107  19.244
 3381TIP3    H134338   1.859   1.155  19.263
 3381TIP3    H234339   1.770   1.048  19.324
 3382TIP3   OH234340   1.785   0.949  19.459
 3382TIP3    H134341   1.728   0.877  19.493
 3382TIP3    H234342   1.863   0.938  19.518
 3383TIP3   OH234343   1.885   1.204  19.928
 3383TIP3    H134344   1.914   1.141  19.860
 3383TIP3    H234345   1.818   1.256  19.882
 3384TIP3   OH234346   1.860   0.891  19.087
 3384TIP3    H134347   1.801   0.896  19.010
 3384TIP3    H234348   1.823   0.962  19.143
 3385TIP3   OH234349   1.650   0.638  18.929
 3385TIP3    H134350   1.681   0.684  18.851
 3385TIP3    H234351   1.633   0.545  18.899
 3386TIP3   OH234352   1.623   0.729  19.517
 3386TIP3    H134353   1.589   0.659  19.457
 3386TIP3    H234354   1.576   0.712  19.602
 3387TIP3   OH234355   0.161   1.083  19.911
 3387TIP3    H134356   0.175   1.064  19.817
 3387TIP3    H234357   0.220   1.014  19.948
 3388TIP3   OH234358   1.622   0.380  18.888
 3388TIP3    H134359   1.684   0.314  18.924
 3388TIP3    H234360   1.534   0.337  18.891
 3389TIP3   OH234361   1.577   0.542  19.348
 3389TIP3    H134362   1.589   0.445  19.356
 3389TIP3    H234363   1.666   0.566  19.315
 3390TIP3   OH234364   1.648   0.556  19.832
 3390TIP3    H134365   1.739   0.584  19.857
 3390TIP3    H234366   1.596   0.562  19.915
 3391TIP3   OH234367   1.653   0.271  19.376
 3391TIP3    H134368   1.645   0.237  19.467
 3391TIP3    H234369   1.569   0.241  19.334
 3392TIP3   OH234370   0.158   0.343  19.878
 3392TIP3    H134371   0.221   0.270  19.895
 3392TIP3    H234372   0.216   0.419  19.899
 3393TIP3   OH234373   0.108   0.617  19.965
 3393TIP3    H134374   0.122   0.612  19.870
 3393TIP3    H234375   0.061   0.703  19.970
 3394TIP3   OH234376   1.835   0.254  19.033
 3394TIP3    H134377   1.870   0.187  18.969
 3394TIP3    H234378   1.913   0.304  19.065
 3395TIP3   OH234379   0.136   0.270  19.380
 3395TIP3    H134380   0.038   0.267  19.371
 3395TIP3    H234381   0.156   0.336  19.312
 3396TIP3   OH234382   1.508   1.755  19.556
 3396TIP3    H134383   1.582   1.732  19.496
 3396TIP3    H234384   1.550   1.814  19.621
 3397TIP3   OH234385   0.266   1.747  19.907
 3397TIP3    H134386   0.287   1.771  19.998
 3397TIP3    H234387   0.346   1.696  19.883
 3398TIP3   OH234388   0.438   1.595  19.766
 3398TIP3    H134389   0.413   1.501  19.778
 3398TIP3    H234390   0.531   1.597  19.798
 3399TIP3   OH234391   0.701   1.645  19.868
 3399TIP3    H134392   0.723   1.552  19.844
 3399TIP3    H234393   0.738   1.654  19.957
 3400TIP3   OH234394   1.034   0.272  19.798
 3400TIP3    H134395   0.981   0.190  19.801
 3400TIP3    H234396   1.098   0.247  19.728
 3401TIP3   OH234397   1.561   0.090  19.817
 3401TIP3    H134398   1.636   0.137  19.773
 3401TIP3    H234399   1.488   0.140  19.779
 3402TIP3   OH234400   1.749   0.159  19.612
 3402TIP3    H134401   1.807   0.098  19.565
 3402TIP3    H234402   1.795   0.245  19.596
 3403TIP3   OH234403   0.290   0.135  19.568
 3403TIP3    H134404   0.227   0.165  19.500
 3403TIP3    H234405   0.283   0.037  19.558
 3404TIP3   OH234406   0.095   0.116  19.131
 3404TIP3    H134407   0.154   0.144  19.059
 3404TIP3    H234408   0.129   0.170  19.206
 3405TIP3   OH234409   0.759   0.103  19.488
 3405TIP3    H134410   0.854   0.130  19.488
 3405TIP3    H234411   0.725   0.149  19.566
 3406TIP3   OH234412   1.241   0.151  19.660
 3406TIP3    H134413   1.313   0.159  19.597
 3406TIP3    H234414   1.276   0.088  19.723
 3407TIP3   OH234415   1.438   0.171  19.233
 3407TIP3    H134416   1.344   0.199  19.226
 3407TIP3    H234417   1.428   0.077  19.253
 3408TIP3   OH234418   0.190   1.679  19.236
 3408TIP3    H134419   0.094   1.686  19.220
 3408TIP3    H234420   0.216   1.770  19.207
 3409TIP3   OH234421   0.314   0.186  18.976
 3409TIP3    H134422   0.387   0.160  18.914
 3409TIP3    H234423   0.365   0.231  19.046
 3410TIP3   OH234424   0.849   0.292  19.227
 3410TIP3    H134425   0.876   0.220  19.287
 3410TIP3    H234426   0.890   0.370  19.273
 3411TIP3   OH234427   1.064   1.777  19.066
 3411TIP3    H134428   1.159   1.780  19.044
 3411TIP3    H234429   1.035   1.724  18.988
 3412TIP3   OH234430   1.698   1.690  19.362
 3412TIP3    H134431   1.677   1.613  19.303
 3412TIP3    H234432   1.699   1.763  19.297
 3413TIP3   OH234433   0.310   1.722  18.925
 3413TIP3    H134434   0.298   1.746  19.017
 3413TIP3    H234435   0.381   1.657  18.934
 3414TIP3   OH234436   3.079   0.988  19.551
 3414TIP3    H134437   3.082   1.085  19.559
 3414TIP3    H234438   3.007   0.977  19.488
 3415TIP3   OH234439   2.973   0.892  19.870
 3415TIP3    H134440   2.965   0.849  19.957
 3415TIP3    H234441   2.916   0.839  19.812
 3416TIP3   OH234442   3.280   1.183  19.701
 3416TIP3    H134443   3.254   1.111  19.762
 3416TIP3    H234444   3.314   1.248  19.765
 3417TIP3   OH234445   2.318   1.335  19.887
 3417TIP3    H134446   2.295   1.244  19.859
 3417TIP3    H234447   2.415   1.337  19.873
 3418TIP3   OH234448   1.998   0.645  19.417
 3418TIP3    H134449   1.966   0.736  19.420
 3418TIP3    H234450   1.915   0.596  19.417
 3419TIP3   OH234451   2.007   0.892  19.603
 3419TIP3    H134452   2.046   0.817  19.653
 3419TIP3    H234453   2.083   0.930  19.557
 3420TIP3   OH234454   3.044   1.746  19.735
 3420TIP3    H134455   3.102   1.693  19.676
 3420TIP3    H234456   3.021   1.675  19.796
 3421TIP3   OH234457   2.847   1.163  19.980
 3421TIP3    H134458   2.886   1.122  19.902
 3421TIP3    H234459   2.913   1.140  20.046
 3422TIP3   OH234460   3.150   0.574  19.980
 3422TIP3    H134461   3.169   0.480  19.983
 3422TIP3    H234462   3.145   0.589  19.884
 3423TIP3   OH234463   2.462   0.384  19.670
 3423TIP3    H134464   2.474   0.471  19.626
 3423TIP3    H234465   2.410   0.335  19.602
 3424TIP3   OH234466   3.197   0.423  19.524
 3424TIP3    H134467   3.255   0.374  19.587
 3424TIP3    H234468   3.260   0.486  19.487
 3425TIP3   OH234469   2.125   0.685  19.732
 3425TIP3    H134470   2.182   0.630  19.788
 3425TIP3    H234471   2.126   0.628  19.652
 3426TIP3   OH234472   2.590   0.800  19.699
 3426TIP3    H134473   2.655   0.739  19.739
 3426TIP3    H234474   2.542   0.737  19.642
 3427TIP3   OH234475   3.016   1.228  19.425
 3427TIP3    H134476   2.999   1.227  19.329
 3427TIP3    H234477   2.996   1.322  19.447
 3428TIP3   OH234478   3.361   0.358  19.717
 3428TIP3    H134479   3.324   0.334  19.803
 3428TIP3    H234480   3.456   0.360  19.738
 3429TIP3   OH234481   2.307   0.490  19.868
 3429TIP3    H134482   2.328   0.582  19.850
 3429TIP3    H234483   2.342   0.446  19.787
 3430TIP3   OH234484   2.032   1.210  19.256
 3430TIP3    H134485   2.025   1.265  19.175
 3430TIP3    H234486   2.040   1.278  19.325
 3431TIP3   OH234487   3.394   1.345  19.876
 3431TIP3    H134488   3.343   1.294  19.943
 3431TIP3    H234489   3.437   1.409  19.933
 3432TIP3   OH234490   2.726   0.074  19.801
 3432TIP3    H134491   2.736  -0.023  19.813
 3432TIP3    H234492   2.653   0.089  19.864
 3433TIP3   OH234493   3.195   1.576  19.595
 3433TIP3    H134494   3.241   1.492  19.574
 3433TIP3    H234495   3.270   1.638  19.580
 3434TIP3   OH234496   3.354   1.365  19.486
 3434TIP3    H134497   3.341   1.298  19.416
 3434TIP3    H234498   3.346   1.307  19.564
 3435TIP3   OH234499   2.941   0.904  19.283
 3435TIP3    H134500   2.897   0.990  19.270
 3435TIP3    H234501   3.018   0.910  19.224
 3436TIP3   OH234502   2.957   0.805  18.984
 3436TIP3    H134503   3.034   0.847  19.026
 3436TIP3    H234504   2.988   0.714  18.972
 3437TIP3   OH234505   3.320   0.899  19.388
 3437TIP3    H134506   3.252   0.937  19.448
 3437TIP3    H234507   3.390   0.874  19.450
 3438TIP3   OH234508   2.454   0.986  19.565
 3438TIP3    H134509   2.420   0.935  19.488
 3438TIP3    H234510   2.507   0.918  19.612
 3439TIP3   OH234511   2.598   1.358  19.842
 3439TIP3    H134512   2.580   1.335  19.749
 3439TIP3    H234513   2.660   1.290  19.869
 3440TIP3   OH234514   2.441   0.848  19.918
 3440TIP3    H134515   2.499   0.839  19.839
 3440TIP3    H234516   2.483   0.918  19.972
 3441TIP3   OH234517   3.182   0.867  19.152
 3441TIP3    H134518   3.234   0.886  19.233
 3441TIP3    H234519   3.235   0.914  19.082
 3442TIP3   OH234520   2.952   1.485  19.455
 3442TIP3    H134521   3.025   1.519  19.511
 3442TIP3    H234522   2.913   1.567  19.423
 3443TIP3   OH234523   3.558   0.087  19.180
 3443TIP3    H134524   3.471   0.130  19.189
 3443TIP3    H234525   3.605   0.158  19.131
 3444TIP3   OH234526   2.323   0.887  19.339
 3444TIP3    H134527   2.308   0.975  19.298
 3444TIP3    H234528   2.289   0.828  19.270
 3445TIP3   OH234529   3.671   1.455  18.985
 3445TIP3    H134530   3.698   1.548  19.003
 3445TIP3    H234531   3.757   1.411  19.003
 3446TIP3   OH234532   1.963   1.459  19.832
 3446TIP3    H134533   2.032   1.396  19.860
 3446TIP3    H234534   1.939   1.504  19.913
 3447TIP3   OH234535   2.925   1.782  19.334
 3447TIP3    H134536   2.920   1.800  19.238
 3447TIP3    H234537   2.915   1.874  19.368
 3448TIP3   OH234538   2.275   1.681  19.505
 3448TIP3    H134539   2.295   1.664  19.600
 3448TIP3    H234540   2.188   1.638  19.495
 3449TIP3   OH234541   3.227   1.733  19.026
 3449TIP3    H134542   3.273   1.652  18.992
 3449TIP3    H234543   3.230   1.721  19.122
 3450TIP3   OH234544   3.187   1.713  19.301
 3450TIP3    H134545   3.093   1.738  19.312
 3450TIP3    H234546   3.195   1.638  19.362
 3451TIP3   OH234547   2.471   0.153  19.933
 3451TIP3    H134548   2.392   0.178  19.880
 3451TIP3    H234549   2.510   0.241  19.946
 3452TIP3   OH234550   3.335   0.991  18.972
 3452TIP3    H134551   3.318   1.005  18.877
 3452TIP3    H234552   3.432   1.004  18.971
 3453TIP3   OH234553   2.872   0.342  19.026
 3453TIP3    H134554   2.839   0.277  19.090
 3453TIP3    H234555   2.821   0.319  18.947
 3454TIP3   OH234556   2.466   0.619  19.559
 3454TIP3    H134557   2.372   0.595  19.540
 3454TIP3    H234558   2.507   0.612  19.469
 3455TIP3   OH234559   3.038   0.683  19.394
 3455TIP3    H134560   2.997   0.765  19.356
 3455TIP3    H234561   3.094   0.655  19.319
 3456TIP3   OH234562   3.122   0.614  19.699
 3456TIP3    H134563   3.105   0.679  19.628
 3456TIP3    H234564   3.136   0.534  19.643
 3457TIP3   OH234565   2.528   0.367  18.876
 3457TIP3    H134566   2.494   0.344  18.964
 3457TIP3    H234567   2.457   0.424  18.842
 3458TIP3   OH234568   1.914   0.393  19.609
 3458TIP3    H134569   1.975   0.372  19.681
 3458TIP3    H234570   1.957   0.350  19.533
 3459TIP3   OH234571   1.998   0.425  19.157
 3459TIP3    H134572   2.061   0.466  19.094
 3459TIP3    H234573   1.944   0.503  19.180
 3460TIP3   OH234574   2.753   0.376  19.612
 3460TIP3    H134575   2.663   0.346  19.638
 3460TIP3    H234576   2.805   0.346  19.689
 3461TIP3   OH234577   2.191   0.507  19.537
 3461TIP3    H134578   2.124   0.555  19.483
 3461TIP3    H234579   2.213   0.430  19.480
 3462TIP3   OH234580   2.555   0.587  19.307
 3462TIP3    H134581   2.643   0.567  19.269
 3462TIP3    H234582   2.507   0.620  19.229
 3463TIP3   OH234583   3.148   0.266  19.942
 3463TIP3    H134584   3.133   0.258  20.037
 3463TIP3    H234585   3.055   0.265  19.908
 3464TIP3   OH234586   2.447   0.688  19.016
 3464TIP3    H134587   2.422   0.642  18.933
 3464TIP3    H234588   2.535   0.720  18.986
 3465TIP3   OH234589   2.842   0.632  19.844
 3465TIP3    H134590   2.913   0.617  19.778
 3465TIP3    H234591   2.858   0.555  19.901
 3466TIP3   OH234592   2.336   0.296  19.431
 3466TIP3    H134593   2.298   0.214  19.472
 3466TIP3    H234594   2.402   0.257  19.371
 3467TIP3   OH234595   2.780   1.136  19.244
 3467TIP3    H134596   2.708   1.084  19.202
 3467TIP3    H234597   2.735   1.157  19.330
 3468TIP3   OH234598   3.134   0.395  19.030
 3468TIP3    H134599   3.035   0.395  19.034
 3468TIP3    H234600   3.157   0.478  19.077
 3469TIP3   OH234601   3.210   0.594  19.187
 3469TIP3    H134602   3.290   0.584  19.242
 3469TIP3    H234603   3.223   0.683  19.148
 3470TIP3   OH234604   2.264   1.088  19.794
 3470TIP3    H134605   2.312   1.087  19.710
 3470TIP3    H234606   2.322   1.034  19.852
 3471TIP3   OH234607   2.975   1.267  19.130
 3471TIP3    H134608   2.936   1.356  19.145
 3471TIP3    H234609   2.904   1.210  19.166
 3472TIP3   OH234610   3.698   0.622  19.194
 3472TIP3    H134611   3.654   0.590  19.113
 3472TIP3    H234612   3.713   0.716  19.173
 3473TIP3   OH234613   3.491   1.496  19.196
 3473TIP3    H134614   3.476   1.432  19.268
 3473TIP3    H234615   3.553   1.452  19.136
 3474TIP3   OH234616   3.237   0.973  19.880
 3474TIP3    H134617   3.145   0.940  19.866
 3474TIP3    H234618   3.288   0.909  19.826
 3475TIP3   OH234619   2.496   1.408  19.581
 3475TIP3    H134620   2.546   1.491  19.572
 3475TIP3    H234621   2.426   1.424  19.517
 3476TIP3   OH234622   2.136   0.923  19.015
 3476TIP3    H134623   2.175   0.977  19.087
 3476TIP3    H234624   2.040   0.926  19.030
 3477TIP3   OH234625   2.633   1.175  19.470
 3477TIP3    H134626   2.593   1.255  19.508
 3477TIP3    H234627   2.586   1.104  19.519
 3478TIP3   OH234628   2.537   1.653  19.427
 3478TIP3    H134629   2.440   1.664  19.439
 3478TIP3    H234630   2.568   1.737  19.469
 3479TIP3   OH234631   3.307   1.294  19.011
 3479TIP3    H134632   3.321   1.267  19.103
 3479TIP3    H234633   3.215   1.264  18.999
 3480TIP3   OH234634   3.729   1.719  19.050
 3480TIP3    H134635   3.791   1.781  19.009
 3480TIP3    H234636   3.660   1.781  19.082
 3481TIP3   OH234637   3.384   1.138  19.251
 3481TIP3    H134638   3.366   1.043  19.264
 3481TIP3    H234639   3.480   1.138  19.234
 3482TIP3   OH234640   2.700   1.449  18.862
 3482TIP3    H134641   2.690   1.389  18.787
 3482TIP3    H234642   2.638   1.412  18.927
 3483TIP3   OH234643   2.577   1.343  19.110
 3483TIP3    H134644   2.655   1.303  19.151
 3483TIP3    H234645   2.588   1.437  19.140
 3484TIP3   OH234646   2.268   1.096  19.172
 3484TIP3    H134647   2.180   1.135  19.193
 3484TIP3    H234648   2.311   1.168  19.122
 3485TIP3   OH234649   3.076   0.296  19.329
 3485TIP3    H134650   3.071   0.366  19.263
 3485TIP3    H234651   3.132   0.336  19.399
 3486TIP3   OH234652   2.879   1.522  19.160
 3486TIP3    H134653   2.791   1.560  19.181
 3486TIP3    H234654   2.932   1.603  19.145
 3487TIP3   OH234655   2.817   0.487  19.362
 3487TIP3    H134656   2.894   0.543  19.384
 3487TIP3    H234657   2.787   0.456  19.450
 3488TIP3   OH234658   2.881   0.183  19.469
 3488TIP3    H134659   2.859   0.263  19.520
 3488TIP3    H234660   2.965   0.212  19.427
 3489TIP3   OH234661   2.616   1.595  19.166
 3489TIP3    H134662   2.628   1.676  19.110
 3489TIP3    H234663   2.577   1.636  19.246
 3490TIP3   OH234664   2.434   0.317  19.135
 3490TIP3    H134665   2.419   0.394  19.191
 3490TIP3    H234666   2.525   0.295  19.165
 3491TIP3   OH234667   3.342   0.766  19.741
 3491TIP3    H134668   3.267   0.703  19.748
 3491TIP3    H234669   3.407   0.724  19.801
 3492TIP3   OH234670   2.296   1.335  19.019
 3492TIP3    H134671   2.367   1.370  19.076
 3492TIP3    H234672   2.349   1.288  18.952
 3493TIP3   OH234673   2.113   0.628  18.985
 3493TIP3    H134674   2.158   0.712  19.003
 3493TIP3    H234675   2.044   0.656  18.924
 3494TIP3   OH234676   3.476   1.698  19.945
 3494TIP3    H134677   3.486   1.774  19.884
 3494TIP3    H234678   3.559   1.698  19.994
 3495TIP3   OH234679   2.225   0.146  19.782
 3495TIP3    H134680   2.234   0.144  19.684
 3495TIP3    H234681   2.198   0.052  19.796
 3496TIP3   OH234682   2.084   1.468  19.432
 3496TIP3    H134683   2.007   1.525  19.446
 3496TIP3    H234684   2.118   1.507  19.350
 3497TIP3   OH234685   2.922   1.626  18.862
 3497TIP3    H134686   2.869   1.545  18.876
 3497TIP3    H234687   3.002   1.588  18.820
 3498TIP3   OH234688   3.358   1.542  18.879
 3498TIP3    H134689   3.374   1.478  18.950
 3498TIP3    H234690   3.444   1.546  18.833
 3499TIP3   OH234691   2.452   1.152  18.864
 3499TIP3    H134692   2.484   1.124  18.952
 3499TIP3    H234693   2.533   1.139  18.810
 3500TIP3   OH234694   3.014   1.285  18.845
 3500TIP3    H134695   2.982   1.271  18.936
 3500TIP3    H234696   3.009   1.192  18.813
 3501TIP3   OH234697   2.580   0.979  19.125
 3501TIP3    H134698   2.511   0.926  19.167
 3501TIP3    H234699   2.620   0.914  19.064
 3502TIP3   OH234700   2.693   0.782  18.929
 3502TIP3    H134701   2.701   0.801  18.834
 3502TIP3    H234702   2.786   0.794  18.959
 3503TIP3   OH234703   3.596   0.994  18.863
 3503TIP3    H134704   3.581   0.971  18.769
 3503TIP3    H234705   3.593   1.093  18.860
 3504TIP3   OH234706   2.671   1.838  19.069
 3504TIP3    H134707   2.769   1.836  19.069
 3504TIP3    H234708   2.655   1.888  18.987
 3505TIP3   OH234709   2.013   1.310  19.003
 3505TIP3    H134710   2.111   1.313  18.994
 3505TIP3    H234711   1.985   1.252  18.928
 3506TIP3   OH234712   1.915   1.813  19.456
 3506TIP3    H134713   1.831   1.767  19.432
 3506TIP3    H234714   1.935   1.766  19.540
 3507TIP3   OH234715   1.984   1.658  19.658
 3507TIP3    H134716   1.960   1.572  19.699
 3507TIP3    H234717   2.035   1.700  19.731
 3508TIP3   OH234718   3.662   1.114  19.242
 3508TIP3    H134719   3.746   1.163  19.256
 3508TIP3    H234720   3.660   1.055  19.321
 3509TIP3   OH234721   3.673   0.958  19.467
 3509TIP3    H134722   3.610   0.897  19.511
 3509TIP3    H234723   3.751   0.954  19.526
 3510TIP3   OH234724   3.766   1.202  19.944
 3510TIP3    H134725   3.814   1.145  19.883
 3510TIP3    H234726   3.706   1.253  19.887
 3511TIP3   OH234727   3.742   0.889  19.089
 3511TIP3    H134728   3.672   0.889  19.021
 3511TIP3    H234729   3.717   0.970  19.138
 3512TIP3   OH234730   3.567   0.641  18.949
 3512TIP3    H134731   3.591   0.688  18.867
 3512TIP3    H234732   3.542   0.552  18.915
 3513TIP3   OH234733   3.504   0.746  19.532
 3513TIP3    H134734   3.459   0.672  19.488
 3513TIP3    H234735   3.454   0.750  19.616
 3514TIP3   OH234736   1.947   0.933  19.870
 3514TIP3    H134737   1.994   0.914  19.787
 3514TIP3    H234738   2.020   0.953  19.932
 3515TIP3   OH234739   3.522   0.397  18.870
 3515TIP3    H134740   3.576   0.323  18.901
 3515TIP3    H234741   3.431   0.356  18.872
 3516TIP3   OH234742   3.430   0.541  19.369
 3516TIP3    H134743   3.463   0.448  19.372
 3516TIP3    H234744   3.513   0.585  19.340
 3517TIP3   OH234745   3.519   0.608  19.872
 3517TIP3    H134746   3.616   0.600  19.872
 3517TIP3    H234747   3.492   0.523  19.915
 3518TIP3   OH234748   3.517   0.278  19.397
 3518TIP3    H134749   3.540   0.229  19.478
 3518TIP3    H234750   3.453   0.219  19.353
 3519TIP3   OH234751   2.042   0.342  19.883
 3519TIP3    H134752   2.101   0.263  19.886
 3519TIP3    H234753   2.107   0.411  19.897
 3520TIP3   OH234754   1.907   0.662  19.885
 3520TIP3    H134755   1.977   0.649  19.820
 3520TIP3    H234756   1.914   0.758  19.901
 3521TIP3   OH234757   3.715   0.248  19.030
 3521TIP3    H134758   3.751   0.182  18.966
 3521TIP3    H234759   3.771   0.325  19.015
 3522TIP3   OH234760   1.941   0.237  19.378
 3522TIP3    H134761   1.845   0.230  19.358
 3522TIP3    H234762   1.973   0.285  19.300
 3523TIP3   OH234763   3.399   1.753  19.550
 3523TIP3    H134764   3.469   1.734  19.485
 3523TIP3    H234765   3.445   1.810  19.615
 3524TIP3   OH234766   2.146   1.753  19.867
 3524TIP3    H134767   2.168   1.760  19.963
 3524TIP3    H234768   2.224   1.704  19.832
 3525TIP3   OH234769   2.341   1.603  19.758
 3525TIP3    H134770   2.331   1.507  19.769
 3525TIP3    H234771   2.427   1.618  19.802
 3526TIP3   OH234772   2.587   1.647  19.857
 3526TIP3    H134773   2.611   1.553  19.844
 3526TIP3    H234774   2.583   1.650  19.953
 3527TIP3   OH234775   2.916   0.268  19.794
 3527TIP3    H134776   2.868   0.182  19.800
 3527TIP3    H234777   2.988   0.241  19.733
 3528TIP3   OH234778   3.442   0.091  19.802
 3528TIP3    H134779   3.502   0.111  19.728
 3528TIP3    H234780   3.357   0.129  19.772
 3529TIP3   OH234781   3.631   0.155  19.605
 3529TIP3    H134782   3.680   0.085  19.558
 3529TIP3    H234783   3.690   0.234  19.595
 3530TIP3   OH234784   2.201   0.103  19.526
 3530TIP3    H134785   2.127   0.118  19.464
 3530TIP3    H234786   2.192   0.007  19.542
 3531TIP3   OH234787   2.074   0.097  19.161
 3531TIP3    H134788   2.088   0.131  19.070
 3531TIP3    H234789   1.984   0.127  19.180
 3532TIP3   OH234790   2.647   0.100  19.548
 3532TIP3    H134791   2.726   0.129  19.497
 3532TIP3    H234792   2.682   0.105  19.640
 3533TIP3   OH234793   3.143   0.151  19.663
 3533TIP3    H134794   3.197   0.125  19.587
 3533TIP3    H234795   3.148   0.070  19.717
 3534TIP3   OH234796   3.309   0.176  19.238
 3534TIP3    H134797   3.215   0.197  19.227
 3534TIP3    H234798   3.303   0.083  19.265
 3535TIP3   OH234799   2.065   1.645  19.230
 3535TIP3    H134800   1.975   1.643  19.194
 3535TIP3    H234801   2.090   1.736  19.207
 3536TIP3   OH234802   2.196   0.230  18.962
 3536TIP3    H134803   2.260   0.178  18.908
 3536TIP3    H234804   2.253   0.255  19.036
 3537TIP3   OH234805   2.703   0.278  19.237
 3537TIP3    H134806   2.760   0.219  19.290
 3537TIP3    H234807   2.747   0.364  19.258
 3538TIP3   OH234808   2.962   1.782  19.068
 3538TIP3    H134809   3.057   1.781  19.045
 3538TIP3    H234810   2.932   1.731  18.989
 3539TIP3   OH234811   3.582   1.696  19.352
 3539TIP3    H134812   3.556   1.623  19.290
 3539TIP3    H234813   3.580   1.773  19.291
 3540TIP3   OH234814   2.166   1.723  18.917
 3540TIP3    H134815   2.144   1.771  18.999
 3540TIP3    H234816   2.248   1.677  18.943
 3541TIP3   OH234817   4.958   0.992  19.545
 3541TIP3    H134818   4.959   1.089  19.553
 3541TIP3    H234819   4.886   0.981  19.481
 3542TIP3   OH234820   4.858   0.888  19.872
 3542TIP3    H134821   4.853   0.847  19.961
 3542TIP3    H234822   4.792   0.840  19.820
 3543TIP3   OH234823   5.163   1.185  19.696
 3543TIP3    H134824   5.136   1.108  19.750
 3543TIP3    H234825   5.206   1.242  19.764
 3544TIP3   OH234826   4.205   1.331  19.880
 3544TIP3    H134827   4.185   1.240  19.849
 3544TIP3    H234828   4.302   1.334  19.869
 3545TIP3   OH234829   3.870   0.647  19.453
 3545TIP3    H134830   3.830   0.734  19.463
 3545TIP3    H234831   3.792   0.595  19.427
 3546TIP3   OH234832   3.904   0.894  19.608
 3546TIP3    H134833   3.945   0.820  19.656
 3546TIP3    H234834   3.976   0.932  19.556
 3547TIP3   OH234835   4.939   1.742  19.745
 3547TIP3    H134836   4.998   1.683  19.694
 3547TIP3    H234837   4.896   1.675  19.800
 3548TIP3   OH234838   4.741   1.174  19.990
 3548TIP3    H134839   4.774   1.135  19.908
 3548TIP3    H234840   4.802   1.135  20.054
 3549TIP3   OH234841   5.024   0.573  19.970
 3549TIP3    H134842   5.048   0.480  19.979
 3549TIP3    H234843   5.013   0.581  19.873
 3550TIP3   OH234844   4.340   0.394  19.668
 3550TIP3    H134845   4.350   0.474  19.611
 3550TIP3    H234846   4.293   0.336  19.605
 3551TIP3   OH234847   5.084   0.429  19.514
 3551TIP3    H134848   5.141   0.381  19.579
 3551TIP3    H234849   5.147   0.495  19.482
 3552TIP3   OH234850   3.964   0.658  19.753
 3552TIP3    H134851   4.032   0.610  19.802
 3552TIP3    H234852   3.979   0.622  19.663
 3553TIP3   OH234853   4.485   0.799  19.699
 3553TIP3    H134854   4.553   0.740  19.736
 3553TIP3    H234855   4.444   0.738  19.634
 3554TIP3   OH234856   4.900   1.235  19.415
 3554TIP3    H134857   4.878   1.235  19.320
 3554TIP3    H234858   4.881   1.329  19.436
 3555TIP3   OH234859   5.239   0.356  19.713
 3555TIP3    H134860   5.209   0.339  19.804
 3555TIP3    H234861   5.335   0.361  19.726
 3556TIP3   OH234862   4.190   0.490  19.874
 3556TIP3    H134863   4.211   0.581  19.846
 3556TIP3    H234864   4.225   0.440  19.796
 3557TIP3   OH234865   3.923   1.211  19.257
 3557TIP3    H134866   3.915   1.268  19.179
 3557TIP3    H234867   3.934   1.277  19.328
 3558TIP3   OH234868   5.289   1.338  19.874
 3558TIP3    H134869   5.249   1.300  19.956
 3558TIP3    H234870   5.318   1.424  19.905
 3559TIP3   OH234871   4.608   0.076  19.807
 3559TIP3    H134872   4.615  -0.022  19.816
 3559TIP3    H234873   4.532   0.094  19.866
 3560TIP3   OH234874   5.078   1.576  19.601
 3560TIP3    H134875   5.127   1.496  19.571
 3560TIP3    H234876   5.146   1.645  19.582
 3561TIP3   OH234877   5.236   1.373  19.495
 3561TIP3    H134878   5.222   1.306  19.426
 3561TIP3    H234879   5.227   1.316  19.574
 3562TIP3   OH234880   4.823   0.908  19.287
 3562TIP3    H134881   4.779   0.992  19.261
 3562TIP3    H234882   4.911   0.916  19.246
 3563TIP3   OH234883   4.850   0.804  18.989
 3563TIP3    H134884   4.910   0.844  19.054
 3563TIP3    H234885   4.871   0.710  18.995
 3564TIP3   OH234886   5.212   0.917  19.391
 3564TIP3    H134887   5.135   0.941  19.447
 3564TIP3    H234888   5.274   0.884  19.457
 3565TIP3   OH234889   4.347   0.988  19.562
 3565TIP3    H134890   4.310   0.940  19.485
 3565TIP3    H234891   4.399   0.920  19.608
 3566TIP3   OH234892   4.486   1.359  19.839
 3566TIP3    H134893   4.467   1.337  19.745
 3566TIP3    H234894   4.544   1.288  19.866
 3567TIP3   OH234895   4.316   0.829  19.915
 3567TIP3    H134896   4.379   0.836  19.840
 3567TIP3    H234897   4.361   0.879  19.985
 3568TIP3   OH234898   5.068   0.870  19.157
 3568TIP3    H134899   5.129   0.894  19.230
 3568TIP3    H234900   5.118   0.910  19.080
 3569TIP3   OH234901   4.847   1.488  19.448
 3569TIP3    H134902   4.914   1.521  19.510
 3569TIP3    H234903   4.797   1.568  19.426
 3570TIP3   OH234904   5.447   0.086  19.181
 3570TIP3    H134905   5.357   0.123  19.185
 3570TIP3    H234906   5.493   0.159  19.134
 3571TIP3   OH234907   4.208   0.892  19.344
 3571TIP3    H134908   4.198   0.979  19.300
 3571TIP3    H234909   4.181   0.832  19.273
 3572TIP3   OH234910   5.560   1.438  19.004
 3572TIP3    H134911   5.584   1.533  19.012
 3572TIP3    H234912   5.650   1.399  19.009
 3573TIP3   OH234913   3.834   1.454  19.835
 3573TIP3    H134914   3.910   1.413  19.878
 3573TIP3    H234915   3.785   1.492  19.910
 3574TIP3   OH234916   4.810   1.785  19.351
 3574TIP3    H134917   4.809   1.804  19.255
 3574TIP3    H234918   4.796   1.876  19.386
 3575TIP3   OH234919   4.154   1.682  19.508
 3575TIP3    H134920   4.174   1.658  19.601
 3575TIP3    H234921   4.065   1.643  19.496
 3576TIP3   OH234922   5.115   1.730  19.026
 3576TIP3    H134923   5.159   1.651  18.987
 3576TIP3    H234924   5.118   1.709  19.121
 3577TIP3   OH234925   5.069   1.718  19.307
 3577TIP3    H134926   4.974   1.742  19.321
 3577TIP3    H234927   5.079   1.645  19.371
 3578TIP3   OH234928   4.362   0.157  19.927
 3578TIP3    H134929   4.281   0.170  19.874
 3578TIP3    H234930   4.391   0.250  19.939
 3579TIP3   OH234931   5.217   0.993  18.966
 3579TIP3    H134932   5.195   1.010  18.873
 3579TIP3    H234933   5.313   1.005  18.963
 3580TIP3   OH234934   4.753   0.341  19.016
 3580TIP3    H134935   4.734   0.286  19.093
 3580TIP3    H234936   4.711   0.290  18.945
 3581TIP3   OH234937   4.354   0.624  19.544
 3581TIP3    H134938   4.258   0.607  19.532
 3581TIP3    H234939   4.388   0.607  19.453
 3582TIP3   OH234940   4.925   0.684  19.390
 3582TIP3    H134941   4.877   0.758  19.348
 3582TIP3    H234942   4.983   0.655  19.317
 3583TIP3   OH234943   5.007   0.617  19.697
 3583TIP3    H134944   4.994   0.686  19.630
 3583TIP3    H234945   5.018   0.540  19.637
 3584TIP3   OH234946   4.425   0.373  18.874
 3584TIP3    H134947   4.392   0.340  18.961
 3584TIP3    H234948   4.352   0.434  18.851
 3585TIP3   OH234949   3.791   0.391  19.609
 3585TIP3    H134950   3.846   0.375  19.687
 3585TIP3    H234951   3.848   0.357  19.538
 3586TIP3   OH234952   3.904   0.426  19.166
 3586TIP3    H134953   3.963   0.459  19.096
 3586TIP3    H234954   3.848   0.504  19.183
 3587TIP3   OH234955   4.637   0.380  19.624
 3587TIP3    H134956   4.545   0.360  19.652
 3587TIP3    H234957   4.683   0.351  19.706
 3588TIP3   OH234958   4.097   0.531  19.539
 3588TIP3    H134959   4.021   0.577  19.497
 3588TIP3    H234960   4.117   0.460  19.474
 3589TIP3   OH234961   4.444   0.582  19.298
 3589TIP3    H134962   4.534   0.569  19.264
 3589TIP3    H234963   4.398   0.625  19.224
 3590TIP3   OH234964   5.039   0.270  19.948
 3590TIP3    H134965   5.027   0.263  20.045
 3590TIP3    H234966   4.946   0.267  19.918
 3591TIP3   OH234967   4.324   0.684  19.033
 3591TIP3    H134968   4.277   0.617  18.981
 3591TIP3    H234969   4.404   0.697  18.980
 3592TIP3   OH234970   4.725   0.633  19.840
 3592TIP3    H134971   4.792   0.624  19.770
 3592TIP3    H234972   4.749   0.557  19.896
 3593TIP3   OH234973   4.213   0.300  19.430
 3593TIP3    H134974   4.168   0.222  19.470
 3593TIP3    H234975   4.289   0.255  19.392
 3594TIP3   OH234976   4.663   1.133  19.242
 3594TIP3    H134977   4.592   1.076  19.205
 3594TIP3    H234978   4.622   1.159  19.328
 3595TIP3   OH234979   5.006   0.394  19.047
 3595TIP3    H134980   4.907   0.396  19.043
 3595TIP3    H234981   5.029   0.483  19.080
 3596TIP3   OH234982   5.098   0.599  19.184
 3596TIP3    H134983   5.178   0.584  19.238
 3596TIP3    H234984   5.115   0.688  19.149
 3597TIP3   OH234985   4.137   1.077  19.784
 3597TIP3    H134986   4.152   1.049  19.693
 3597TIP3    H234987   4.212   1.038  19.832
 3598TIP3   OH234988   4.857   1.270  19.130
 3598TIP3    H134989   4.820   1.359  19.151
 3598TIP3    H234990   4.787   1.210  19.164
 3599TIP3   OH234991   5.578   0.630  19.188
 3599TIP3    H134992   5.534   0.595  19.108
 3599TIP3    H234993   5.593   0.724  19.160
 3600TIP3   OH234994   5.380   1.496  19.211
 3600TIP3    H134995   5.358   1.431  19.279
 3600TIP3    H234996   5.434   1.445  19.148
 3601TIP3   OH234997   5.120   0.967  19.882
 3601TIP3    H134998   5.027   0.938  19.866
 3601TIP3    H234999   5.173   0.904  19.828
 3602TIP3   OH235000   4.390   1.414  19.573
 3602TIP3    H135001   4.435   1.501  19.568
 3602TIP3    H235002   4.313   1.430  19.517
 3603TIP3   OH235003   4.012   0.920  19.024
 3603TIP3    H135004   4.054   0.980  19.089
 3603TIP3    H235005   3.916   0.921  19.046
 3604TIP3   OH235006   4.527   1.182  19.467
 3604TIP3    H135007   4.483   1.260  19.505
 3604TIP3    H235008   4.478   1.109  19.509
 3605TIP3   OH235009   4.415   1.662  19.427
 3605TIP3    H135010   4.320   1.669  19.448
 3605TIP3    H235011   4.449   1.742  19.473
 3606TIP3   OH235012   5.195   1.292  19.014
 3606TIP3    H135013   5.197   1.250  19.103
 3606TIP3    H235014   5.106   1.263  18.985
 3607TIP3   OH235015   5.617   1.715  19.054
 3607TIP3    H135016   5.674   1.775  19.005
 3607TIP3    H235017   5.548   1.777  19.088
 3608TIP3   OH235018   5.265   1.155  19.242
 3608TIP3    H135019   5.244   1.071  19.288
 3608TIP3    H235020   5.361   1.148  19.227
 3609TIP3   OH235021   4.592   1.427  18.867
 3609TIP3    H135022   4.577   1.371  18.790
 3609TIP3    H235023   4.535   1.382  18.933
 3610TIP3   OH235024   4.466   1.351  19.105
 3610TIP3    H135025   4.541   1.309  19.150
 3610TIP3    H235026   4.479   1.444  19.135
 3611TIP3   OH235027   4.154   1.092  19.171
 3611TIP3    H135028   4.070   1.132  19.201
 3611TIP3    H235029   4.193   1.166  19.119
 3612TIP3   OH235030   4.964   0.291  19.329
 3612TIP3    H135031   4.951   0.364  19.268
 3612TIP3    H235032   5.015   0.334  19.402
 3613TIP3   OH235033   4.758   1.519  19.164
 3613TIP3    H135034   4.673   1.563  19.185
 3613TIP3    H235035   4.814   1.596  19.149
 3614TIP3   OH235036   4.703   0.482  19.378
 3614TIP3    H135037   4.784   0.532  19.400
 3614TIP3    H235038   4.663   0.464  19.466
 3615TIP3   OH235039   4.757   0.188  19.457
 3615TIP3    H135040   4.748   0.270  19.509
 3615TIP3    H235041   4.842   0.209  19.411
 3616TIP3   OH235042   4.494   1.600  19.168
 3616TIP3    H135043   4.499   1.679  19.108
 3616TIP3    H235044   4.446   1.641  19.243
 3617TIP3   OH235045   4.342   0.333  19.128
 3617TIP3    H135046   4.316   0.400  19.194
 3617TIP3    H235047   4.434   0.317  19.160
 3618TIP3   OH235048   5.234   0.766  19.736
 3618TIP3    H135049   5.162   0.702  19.756
 3618TIP3    H235050   5.304   0.733  19.798
 3619TIP3   OH235051   4.174   1.342  19.016
 3619TIP3    H135052   4.246   1.383  19.067
 3619TIP3    H235053   4.226   1.296  18.946
 3620TIP3   OH235054   4.008   0.628  18.959
 3620TIP3    H135055   4.046   0.715  18.982
 3620TIP3    H235056   3.939   0.657  18.898
 3621TIP3   OH235057   5.355   1.706  19.947
 3621TIP3    H135058   5.367   1.782  19.886
 3621TIP3    H235059   5.441   1.702  19.989
 3622TIP3   OH235060   4.130   0.143  19.779
 3622TIP3    H135061   4.127   0.143  19.681
 3622TIP3    H235062   4.095   0.051  19.792
 3623TIP3   OH235063   3.970   1.459  19.423
 3623TIP3    H135064   3.895   1.517  19.445
 3623TIP3    H235065   4.005   1.509  19.346
 3624TIP3   OH235066   4.804   1.633  18.866
 3624TIP3    H135067   4.754   1.550  18.881
 3624TIP3    H235068   4.881   1.596  18.817
 3625TIP3   OH235069   5.250   1.536  18.876
 3625TIP3    H135070   5.267   1.474  18.949
 3625TIP3    H235071   5.338   1.549  18.839
 3626TIP3   OH235072   4.341   1.144  18.853
 3626TIP3    H135073   4.386   1.127  18.937
 3626TIP3    H235074   4.415   1.123  18.791
 3627TIP3   OH235075   4.901   1.282  18.844
 3627TIP3    H135076   4.866   1.274  18.934
 3627TIP3    H235077   4.890   1.188  18.815
 3628TIP3   OH235078   4.471   0.971  19.122
 3628TIP3    H135079   4.401   0.916  19.161
 3628TIP3    H235080   4.510   0.908  19.057
 3629TIP3   OH235081   4.590   0.793  18.923
 3629TIP3    H135082   4.585   0.822  18.830
 3629TIP3    H235083   4.687   0.801  18.939
 3630TIP3   OH235084   5.497   0.990  18.870
 3630TIP3    H135085   5.475   0.970  18.777
 3630TIP3    H235086   5.498   1.089  18.869
 3631TIP3   OH235087   4.544   1.837  19.070
 3631TIP3    H135088   4.637   1.835  19.100
 3631TIP3    H235089   4.553   1.893  18.990
 3632TIP3   OH235090   3.897   1.310  19.002
 3632TIP3    H135091   3.995   1.321  18.997
 3632TIP3    H235092   3.880   1.255  18.921
 3633TIP3   OH235093   3.800   1.809  19.453
 3633TIP3    H135094   3.713   1.768  19.432
 3633TIP3    H235095   3.820   1.759  19.535
 3634TIP3   OH235096   3.863   1.652  19.658
 3634TIP3    H135097   3.838   1.569  19.705
 3634TIP3    H235098   3.917   1.694  19.728
 3635TIP3   OH235099   5.546   1.117  19.237
 3635TIP3    H135100   5.630   1.164  19.252
 3635TIP3    H235101   5.544   1.056  19.315
 3636TIP3   OH235102   5.550   0.961  19.462
 3636TIP3    H135103   5.489   0.896  19.502
 3636TIP3    H235104   5.628   0.951  19.521
 3637TIP3   OH235105   5.639   1.199  19.934
 3637TIP3    H135106   5.700   1.158  19.871
 3637TIP3    H235107   5.584   1.257  19.879
 3638TIP3   OH235108   5.630   0.883  19.087
 3638TIP3    H135109   5.567   0.888  19.012
 3638TIP3    H235110   5.602   0.962  19.137
 3639TIP3   OH235111   5.445   0.631  18.929
 3639TIP3    H135112   5.453   0.677  18.845
 3639TIP3    H235113   5.409   0.541  18.908
 3640TIP3   OH235114   5.396   0.749  19.531
 3640TIP3    H135115   5.357   0.671  19.490
 3640TIP3    H235116   5.345   0.751  19.615
 3641TIP3   OH235117   3.831   0.935  19.866
 3641TIP3    H135118   3.875   0.931  19.778
 3641TIP3    H235119   3.908   0.933  19.926
 3642TIP3   OH235120   5.394   0.377  18.896
 3642TIP3    H135121   5.457   0.311  18.930
 3642TIP3    H235122   5.308   0.330  18.890
 3643TIP3   OH235123   5.311   0.550  19.361
 3643TIP3    H135124   5.338   0.455  19.361
 3643TIP3    H235125   5.395   0.590  19.332
 3644TIP3   OH235126   5.405   0.605  19.867
 3644TIP3    H135127   5.501   0.593  19.864
 3644TIP3    H235128   5.376   0.522  19.912
 3645TIP3   OH235129   5.401   0.287  19.388
 3645TIP3    H135130   5.426   0.233  19.466
 3645TIP3    H235131   5.337   0.231  19.340
 3646TIP3   OH235132   3.938   0.345  19.849
 3646TIP3    H135133   3.998   0.268  19.854
 3646TIP3    H235134   3.998   0.415  19.878
 3647TIP3   OH235135   3.793   0.604  19.967
 3647TIP3    H135136   3.823   0.579  19.877
 3647TIP3    H235137   3.815   0.698  19.963
 3648TIP3   OH235138   5.613   0.243  19.035
 3648TIP3    H135139   5.650   0.183  18.966
 3648TIP3    H235140   5.680   0.313  19.044
 3649TIP3   OH235141   3.835   0.233  19.372
 3649TIP3    H135142   3.739   0.233  19.366
 3649TIP3    H235143   3.859   0.285  19.292
 3650TIP3   OH235144   5.269   1.752  19.540
 3650TIP3    H135145   5.352   1.730  19.491
 3650TIP3    H235146   5.299   1.814  19.608
 3651TIP3   OH235147   4.028   1.749  19.863
 3651TIP3    H135148   4.038   1.752  19.962
 3651TIP3    H235149   4.107   1.696  19.839
 3652TIP3   OH235150   4.225   1.600  19.761
 3652TIP3    H135151   4.220   1.504  19.776
 3652TIP3    H235152   4.312   1.620  19.799
 3653TIP3   OH235153   4.476   1.647  19.862
 3653TIP3    H135154   4.500   1.555  19.841
 3653TIP3    H235155   4.473   1.644  19.959
 3654TIP3   OH235156   4.799   0.275  19.805
 3654TIP3    H135157   4.750   0.190  19.809
 3654TIP3    H235158   4.867   0.252  19.739
 3655TIP3   OH235159   5.323   0.099  19.798
 3655TIP3    H135160   5.386   0.121  19.725
 3655TIP3    H235161   5.242   0.142  19.767
 3656TIP3   OH235162   5.515   0.165  19.598
 3656TIP3    H135163   5.561   0.091  19.554
 3656TIP3    H235164   5.580   0.238  19.590
 3657TIP3   OH235165   4.078   0.105  19.524
 3657TIP3    H135166   4.005   0.123  19.462
 3657TIP3    H235167   4.073   0.007  19.528
 3658TIP3   OH235168   3.965   0.103  19.152
 3658TIP3    H135169   3.972   0.145  19.063
 3658TIP3    H235170   3.878   0.133  19.182
 3659TIP3   OH235171   4.528   0.108  19.554
 3659TIP3    H135172   4.604   0.136  19.500
 3659TIP3    H235173   4.569   0.106  19.644
 3660TIP3   OH235174   5.029   0.155  19.662
 3660TIP3    H135175   5.083   0.131  19.587
 3660TIP3    H235176   5.038   0.075  19.718
 3661TIP3   OH235177   5.199   0.179  19.231
 3661TIP3    H135178   5.106   0.206  19.219
 3661TIP3    H235179   5.187   0.087  19.259
 3662TIP3   OH235180   3.943   1.650  19.234
 3662TIP3    H135181   3.846   1.660  19.232
 3662TIP3    H235182   3.967   1.741  19.206
 3663TIP3   OH235183   4.091   0.233  18.961
 3663TIP3    H135184   4.146   0.175  18.903
 3663TIP3    H235185   4.152   0.240  19.037
 3664TIP3   OH235186   4.591   0.283  19.239
 3664TIP3    H135187   4.638   0.221  19.297
 3664TIP3    H235188   4.633   0.368  19.267
 3665TIP3   OH235189   4.851   1.777  19.085
 3665TIP3    H135190   4.944   1.776  19.056
 3665TIP3    H235191   4.813   1.743  19.001
 3666TIP3   OH235192   5.471   1.691  19.362
 3666TIP3    H135193   5.445   1.616  19.304
 3666TIP3    H235194   5.473   1.763  19.296
 3667TIP3   OH235195   4.070   1.726  18.919
 3667TIP3    H135196   4.047   1.764  19.005
 3667TIP3    H235197   4.143   1.668  18.945
 3668TIP3   OH235198   6.869   0.976  19.546
 3668TIP3    H135199   6.873   1.071  19.564
 3668TIP3    H235200   6.792   0.971  19.488
 3669TIP3   OH235201   6.742   0.882  19.861
 3669TIP3    H135202   6.742   0.846  19.953
 3669TIP3    H235203   6.683   0.820  19.816
 3670TIP3   OH235204   7.035   1.187  19.684
 3670TIP3    H135205   6.999   1.115  19.741
 3670TIP3    H235206   7.076   1.241  19.755
 3671TIP3   OH235207   6.087   1.325  19.883
 3671TIP3    H135208   6.072   1.236  19.842
 3671TIP3    H235209   6.183   1.333  19.874
 3672TIP3   OH235210   5.756   0.650  19.445
 3672TIP3    H135211   5.720   0.737  19.465
 3672TIP3    H235212   5.677   0.601  19.419
 3673TIP3   OH235213   5.786   0.890  19.604
 3673TIP3    H135214   5.828   0.816  19.652
 3673TIP3    H235215   5.859   0.929  19.555
 3674TIP3   OH235216   6.876   1.743  19.803
 3674TIP3    H135217   6.917   1.693  19.727
 3674TIP3    H235218   6.804   1.681  19.824
 3675TIP3   OH235219   6.612   1.170  19.990
 3675TIP3    H135220   6.642   1.129  19.907
 3675TIP3    H235221   6.685   1.150  20.050
 3676TIP3   OH235222   6.910   0.558  19.977
 3676TIP3    H135223   6.941   0.466  19.984
 3676TIP3    H235224   6.940   0.581  19.887
 3677TIP3   OH235225   6.231   0.393  19.677
 3677TIP3    H135226   6.245   0.474  19.621
 3677TIP3    H235227   6.182   0.337  19.613
 3678TIP3   OH235228   6.991   0.419  19.493
 3678TIP3    H135229   7.031   0.395  19.580
 3678TIP3    H235230   7.042   0.498  19.469
 3679TIP3   OH235231   5.844   0.656  19.749
 3679TIP3    H135232   5.916   0.614  19.800
 3679TIP3    H235233   5.862   0.618  19.661
 3680TIP3   OH235234   6.370   0.803  19.701
 3680TIP3    H135235   6.441   0.750  19.739
 3680TIP3    H235236   6.331   0.736  19.640
 3681TIP3   OH235237   6.794   1.224  19.432
 3681TIP3    H135238   6.771   1.233  19.338
 3681TIP3    H235239   6.762   1.309  19.468
 3682TIP3   OH235240   7.098   0.362  19.729
 3682TIP3    H135241   7.056   0.348  19.816
 3682TIP3    H235242   7.193   0.344  19.746
 3683TIP3   OH235243   6.068   0.487  19.872
 3683TIP3    H135244   6.097   0.578  19.853
 3683TIP3    H235245   6.112   0.439  19.798
 3684TIP3   OH235246   5.806   1.212  19.255
 3684TIP3    H135247   5.798   1.271  19.177
 3684TIP3    H235248   5.815   1.277  19.327
 3685TIP3   OH235249   7.182   1.318  19.879
 3685TIP3    H135250   7.145   1.266  19.953
 3685TIP3    H235251   7.215   1.395  19.927
 3686TIP3   OH235252   6.491   0.074  19.802
 3686TIP3    H135253   6.503  -0.022  19.819
 3686TIP3    H235254   6.416   0.091  19.863
 3687TIP3   OH235255   6.967   1.580  19.601
 3687TIP3    H135256   6.991   1.490  19.569
 3687TIP3    H235257   7.049   1.630  19.580
 3688TIP3   OH235258   7.111   1.362  19.477
 3688TIP3    H135259   7.099   1.290  19.413
 3688TIP3    H235260   7.129   1.310  19.558
 3689TIP3   OH235261   6.719   0.910  19.295
 3689TIP3    H135262   6.676   0.995  19.273
 3689TIP3    H235263   6.808   0.919  19.255
 3690TIP3   OH235264   6.741   0.812  18.974
 3690TIP3    H135265   6.802   0.854  19.039
 3690TIP3    H235266   6.752   0.719  18.998
 3691TIP3   OH235267   7.092   0.936  19.376
 3691TIP3    H135268   7.024   0.960  19.443
 3691TIP3    H235269   7.147   0.876  19.431
 3692TIP3   OH235270   6.232   0.987  19.566
 3692TIP3    H135271   6.201   0.940  19.486
 3692TIP3    H235272   6.291   0.922  19.609
 3693TIP3   OH235273   6.368   1.360  19.832
 3693TIP3    H135274   6.349   1.336  19.739
 3693TIP3    H235275   6.424   1.285  19.861
 3694TIP3   OH235276   6.203   0.820  19.919
 3694TIP3    H135277   6.256   0.834  19.838
 3694TIP3    H235278   6.236   0.891  19.977
 3695TIP3   OH235279   6.946   0.869  19.152
 3695TIP3    H135280   7.004   0.896  19.226
 3695TIP3    H235281   6.994   0.910  19.076
 3696TIP3   OH235282   6.725   1.485  19.458
 3696TIP3    H135283   6.773   1.519  19.535
 3696TIP3    H235284   6.681   1.566  19.426
 3697TIP3   OH235285   7.309   0.089  19.088
 3697TIP3    H135286   7.230   0.132  19.122
 3697TIP3    H235287   7.376   0.158  19.107
 3698TIP3   OH235288   6.094   0.894  19.338
 3698TIP3    H135289   6.079   0.980  19.293
 3698TIP3    H235290   6.072   0.831  19.267
 3699TIP3   OH235291   7.442   1.475  18.987
 3699TIP3    H135292   7.473   1.568  19.004
 3699TIP3    H235293   7.530   1.433  18.994
 3700TIP3   OH235294   5.725   1.457  19.844
 3700TIP3    H135295   5.797   1.405  19.883
 3700TIP3    H235296   5.681   1.495  19.921
 3701TIP3   OH235297   6.690   1.782  19.330
 3701TIP3    H135298   6.681   1.792  19.232
 3701TIP3    H235299   6.673   1.875  19.357
 3702TIP3   OH235300   6.047   1.673  19.506
 3702TIP3    H135301   6.067   1.660  19.601
 3702TIP3    H235302   5.956   1.638  19.498
 3703TIP3   OH235303   6.970   1.724  19.027
 3703TIP3    H135304   7.023   1.650  18.988
 3703TIP3    H235305   6.982   1.707  19.123
 3704TIP3   OH235306   6.950   1.707  19.299
 3704TIP3    H135307   6.855   1.722  19.315
 3704TIP3    H235308   6.970   1.641  19.367
 3705TIP3   OH235309   6.246   0.160  19.930
 3705TIP3    H135310   6.173   0.175  19.865
 3705TIP3    H235311   6.281   0.251  19.941
 3706TIP3   OH235312   7.090   0.990  18.967
 3706TIP3    H135313   7.065   0.999  18.872
 3706TIP3    H235314   7.185   1.008  18.962
 3707TIP3   OH235315   6.642   0.356  19.013
 3707TIP3    H135316   6.616   0.298  19.087
 3707TIP3    H235317   6.609   0.306  18.938
 3708TIP3   OH235318   6.246   0.625  19.551
 3708TIP3    H135319   6.150   0.605  19.544
 3708TIP3    H235320   6.277   0.607  19.459
 3709TIP3   OH235321   6.822   0.686  19.397
 3709TIP3    H135322   6.774   0.761  19.355
 3709TIP3    H235323   6.876   0.656  19.322
 3710TIP3   OH235324   6.904   0.613  19.686
 3710TIP3    H135325   6.877   0.678  19.618
 3710TIP3    H235326   6.907   0.533  19.629
 3711TIP3   OH235327   6.313   0.384  18.893
 3711TIP3    H135328   6.269   0.345  18.973
 3711TIP3    H235329   6.239   0.440  18.860
 3712TIP3   OH235330   5.678   0.397  19.623
 3712TIP3    H135331   5.723   0.384  19.710
 3712TIP3    H235332   5.742   0.359  19.562
 3713TIP3   OH235333   5.766   0.427  19.151
 3713TIP3    H135334   5.831   0.463  19.089
 3713TIP3    H235335   5.718   0.508  19.178
 3714TIP3   OH235336   6.516   0.386  19.612
 3714TIP3    H135337   6.433   0.347  19.645
 3714TIP3    H235338   6.576   0.365  19.687
 3715TIP3   OH235339   5.986   0.539  19.537
 3715TIP3    H135340   5.908   0.584  19.496
 3715TIP3    H235341   6.008   0.472  19.469
 3716TIP3   OH235342   6.324   0.584  19.301
 3716TIP3    H135343   6.416   0.564  19.273
 3716TIP3    H235344   6.284   0.628  19.224
 3717TIP3   OH235345   6.916   0.275  19.941
 3717TIP3    H135346   6.886   0.257  20.032
 3717TIP3    H235347   6.829   0.262  19.898
 3718TIP3   OH235348   6.222   0.699  19.035
 3718TIP3    H135349   6.194   0.623  18.982
 3718TIP3    H235350   6.303   0.725  18.985
 3719TIP3   OH235351   6.614   0.633  19.836
 3719TIP3    H135352   6.684   0.614  19.772
 3719TIP3    H235353   6.639   0.570  19.905
 3720TIP3   OH235354   6.103   0.301  19.440
 3720TIP3    H135355   6.054   0.225  19.479
 3720TIP3    H235356   6.173   0.251  19.397
 3721TIP3   OH235357   6.553   1.138  19.241
 3721TIP3    H135358   6.478   1.088  19.200
 3721TIP3    H235359   6.509   1.161  19.326
 3722TIP3   OH235360   6.896   0.387  19.069
 3722TIP3    H135361   6.803   0.401  19.043
 3722TIP3    H235362   6.926   0.477  19.096
 3723TIP3   OH235363   6.989   0.595  19.189
 3723TIP3    H135364   7.078   0.589  19.230
 3723TIP3    H235365   6.994   0.676  19.136
 3724TIP3   OH235366   6.034   1.076  19.789
 3724TIP3    H135367   6.063   1.050  19.700
 3724TIP3    H235368   6.095   1.030  19.848
 3725TIP3   OH235369   6.750   1.273  19.138
 3725TIP3    H135370   6.712   1.362  19.160
 3725TIP3    H235371   6.678   1.213  19.169
 3726TIP3   OH235372   7.463   0.618  19.180
 3726TIP3    H135373   7.417   0.578  19.103
 3726TIP3    H235374   7.487   0.706  19.141
 3727TIP3   OH235375   7.304   1.487  19.222
 3727TIP3    H135376   7.246   1.412  19.244
 3727TIP3    H235377   7.355   1.458  19.144
 3728TIP3   OH235378   6.983   1.001  19.874
 3728TIP3    H135379   6.898   0.954  19.853
 3728TIP3    H235380   7.047   0.947  19.821
 3729TIP3   OH235381   6.275   1.413  19.576
 3729TIP3    H135382   6.319   1.499  19.560
 3729TIP3    H235383   6.198   1.422  19.519
 3730TIP3   OH235384   5.905   0.908  19.019
 3730TIP3    H135385   5.946   0.969  19.084
 3730TIP3    H235386   5.809   0.914  19.038
 3731TIP3   OH235387   6.402   1.174  19.459
 3731TIP3    H135388   6.370   1.254  19.505
 3731TIP3    H235389   6.354   1.103  19.506
 3732TIP3   OH235390   6.306   1.652  19.430
 3732TIP3    H135391   6.209   1.661  19.442
 3732TIP3    H235392   6.335   1.737  19.466
 3733TIP3   OH235393   7.078   1.316  19.014
 3733TIP3    H135394   7.094   1.269  19.098
 3733TIP3    H235395   6.988   1.284  18.999
 3734TIP3   OH235396   7.526   1.725  19.033
 3734TIP3    H135397   7.550   1.811  18.992
 3734TIP3    H235398   7.440   1.752  19.068
 3735TIP3   OH235399   7.175   1.160  19.225
 3735TIP3    H135400   7.145   1.071  19.247
 3735TIP3    H235401   7.273   1.148  19.217
 3736TIP3   OH235402   6.473   1.431  18.864
 3736TIP3    H135403   6.453   1.382  18.782
 3736TIP3    H235404   6.420   1.379  18.928
 3737TIP3   OH235405   6.353   1.340  19.102
 3737TIP3    H135406   6.432   1.303  19.143
 3737TIP3    H235407   6.361   1.433  19.133
 3738TIP3   OH235408   6.031   1.095  19.161
 3738TIP3    H135409   5.946   1.134  19.192
 3738TIP3    H235410   6.072   1.172  19.118
 3739TIP3   OH235411   6.836   0.289  19.331
 3739TIP3    H135412   6.832   0.360  19.264
 3739TIP3    H235413   6.901   0.327  19.394
 3740TIP3   OH235414   6.642   1.532  19.167
 3740TIP3    H135415   6.551   1.565  19.184
 3740TIP3    H235416   6.688   1.615  19.147
 3741TIP3   OH235417   6.578   0.484  19.370
 3741TIP3    H135418   6.654   0.539  19.395
 3741TIP3    H235419   6.542   0.459  19.458
 3742TIP3   OH235420   6.646   0.183  19.468
 3742TIP3    H135421   6.633   0.274  19.497
 3742TIP3    H235422   6.733   0.194  19.423
 3743TIP3   OH235423   6.378   1.593  19.166
 3743TIP3    H135424   6.388   1.671  19.105
 3743TIP3    H235425   6.333   1.638  19.240
 3744TIP3   OH235426   6.204   0.326  19.134
 3744TIP3    H135427   6.186   0.394  19.200
 3744TIP3    H235428   6.297   0.308  19.158
 3745TIP3   OH235429   7.103   0.812  19.736
 3745TIP3    H135430   7.029   0.750  19.725
 3745TIP3    H235431   7.158   0.760  19.798
 3746TIP3   OH235432   6.067   1.336  19.018
 3746TIP3    H135433   6.138   1.375  19.072
 3746TIP3    H235434   6.120   1.287  18.953
 3747TIP3   OH235435   5.895   0.626  18.955
 3747TIP3    H135436   5.937   0.710  18.982
 3747TIP3    H235437   5.822   0.661  18.902
 3748TIP3   OH235438   7.271   1.696  19.942
 3748TIP3    H135439   7.275   1.759  19.868
 3748TIP3    H235440   7.363   1.698  19.976
 3749TIP3   OH235441   6.012   0.145  19.777
 3749TIP3    H135442   6.008   0.143  19.679
 3749TIP3    H235443   5.978   0.054  19.793
 3750TIP3   OH235444   5.859   1.459  19.427
 3750TIP3    H135445   5.782   1.516  19.444
 3750TIP3    H235446   5.894   1.507  19.349
 3751TIP3   OH235447   6.682   1.625  18.861
 3751TIP3    H135448   6.634   1.542  18.882
 3751TIP3    H235449   6.766   1.590  18.825
 3752TIP3   OH235450   7.139   1.560  18.887
 3752TIP3    H135451   7.159   1.485  18.947
 3752TIP3    H235452   7.217   1.559  18.828
 3753TIP3   OH235453   6.218   1.146  18.854
 3753TIP3    H135454   6.246   1.112  18.940
 3753TIP3    H235455   6.296   1.121  18.797
 3754TIP3   OH235456   6.786   1.276  18.842
 3754TIP3    H135457   6.751   1.272  18.933
 3754TIP3    H235458   6.769   1.182  18.816
 3755TIP3   OH235459   6.352   0.975  19.126
 3755TIP3    H135460   6.288   0.914  19.166
 3755TIP3    H235461   6.398   0.914  19.066
 3756TIP3   OH235462   6.483   0.791  18.913
 3756TIP3    H135463   6.474   0.821  18.821
 3756TIP3    H235464   6.580   0.803  18.924
 3757TIP3   OH235465   7.370   0.998  18.869
 3757TIP3    H135466   7.335   0.989  18.778
 3757TIP3    H235467   7.381   1.096  18.877
 3758TIP3   OH235468   6.431   1.827  19.062
 3758TIP3    H135469   6.526   1.831  19.085
 3758TIP3    H235470   6.429   1.891  18.989
 3759TIP3   OH235471   5.791   1.311  18.999
 3759TIP3    H135472   5.890   1.312  18.996
 3759TIP3    H235473   5.769   1.258  18.919
 3760TIP3   OH235474   5.679   1.824  19.457
 3760TIP3    H135475   5.597   1.774  19.435
 3760TIP3    H235476   5.705   1.776  19.539
 3761TIP3   OH235477   5.750   1.655  19.656
 3761TIP3    H135478   5.717   1.572  19.697
 3761TIP3    H235479   5.793   1.699  19.734
 3762TIP3   OH235480   7.445   1.113  19.244
 3762TIP3    H135481   7.534   1.142  19.266
 3762TIP3    H235482   7.431   1.047  19.315
 3763TIP3   OH235483   7.463   0.931  19.452
 3763TIP3    H135484   7.374   0.891  19.465
 3763TIP3    H235485   7.505   0.909  19.537
 3764TIP3   OH235486   7.542   1.163  19.949
 3764TIP3    H135487   7.634   1.177  19.921
 3764TIP3    H235488   7.501   1.249  19.924
 3765TIP3   OH235489   7.488   0.885  19.093
 3765TIP3    H135490   7.433   0.896  19.013
 3765TIP3    H235491   7.485   0.976  19.128
 3766TIP3   OH235492   7.307   0.620  18.951
 3766TIP3    H135493   7.319   0.674  18.873
 3766TIP3    H235494   7.285   0.532  18.912
 3767TIP3   OH235495   7.255   0.777  19.527
 3767TIP3    H135496   7.311   0.700  19.543
 3767TIP3    H235497   7.196   0.776  19.606
 3768TIP3   OH235498   5.719   0.927  19.862
 3768TIP3    H135499   5.755   0.924  19.771
 3768TIP3    H235500   5.801   0.936  19.914
 3769TIP3   OH235501   7.260   0.371  18.851
 3769TIP3    H135502   7.298   0.313  18.920
 3769TIP3    H235503   7.166   0.345  18.850
 3770TIP3   OH235504   7.233   0.535  19.342
 3770TIP3    H135505   7.244   0.438  19.353
 3770TIP3    H235506   7.326   0.561  19.331
 3771TIP3   OH235507   7.228   0.612  19.857
 3771TIP3    H135508   7.325   0.605  19.839
 3771TIP3    H235509   7.216   0.527  19.904
 3772TIP3   OH235510   7.277   0.271  19.367
 3772TIP3    H135511   7.283   0.204  19.438
 3772TIP3    H235512   7.194   0.244  19.321
 3773TIP3   OH235513   5.819   0.333  19.852
 3773TIP3    H135514   5.881   0.257  19.855
 3773TIP3    H235515   5.878   0.405  19.880
 3774TIP3   OH235516   5.682   0.615  19.962
 3774TIP3    H135517   5.722   0.611  19.872
 3774TIP3    H235518   5.692   0.710  19.980
 3775TIP3   OH235519   7.479   0.280  19.031
 3775TIP3    H135520   7.521   0.202  18.985
 3775TIP3    H235521   7.507   0.354  18.976
 3776TIP3   OH235522   5.728   0.232  19.374
 3776TIP3    H135523   5.632   0.223  19.371
 3776TIP3    H235524   5.743   0.284  19.294
 3777TIP3   OH235525   7.173   1.755  19.546
 3777TIP3    H135526   7.224   1.735  19.464
 3777TIP3    H235527   7.243   1.793  19.602
 3778TIP3   OH235528   5.914   1.752  19.869
 3778TIP3    H135529   5.933   1.757  19.965
 3778TIP3    H235530   5.990   1.698  19.837
 3779TIP3   OH235531   6.118   1.605  19.760
 3779TIP3    H135532   6.116   1.508  19.765
 3779TIP3    H235533   6.209   1.623  19.792
 3780TIP3   OH235534   6.363   1.636  19.860
 3780TIP3    H135535   6.372   1.538  19.861
 3780TIP3    H235536   6.349   1.654  19.953
 3781TIP3   OH235537   6.682   0.274  19.792
 3781TIP3    H135538   6.625   0.194  19.808
 3781TIP3    H235539   6.747   0.236  19.728
 3782TIP3   OH235540   7.231   0.092  19.812
 3782TIP3    H135541   7.282   0.095  19.728
 3782TIP3    H235542   7.143   0.120  19.786
 3783TIP3   OH235543   7.365   0.114  19.578
 3783TIP3    H135544   7.434   0.051  19.551
 3783TIP3    H235545   7.415   0.199  19.581
 3784TIP3   OH235546   5.959   0.106  19.524
 3784TIP3    H135547   5.886   0.122  19.462
 3784TIP3    H235548   5.957   0.008  19.530
 3785TIP3   OH235549   5.857   0.101  19.151
 3785TIP3    H135550   5.862   0.136  19.060
 3785TIP3    H235551   5.765   0.119  19.173
 3786TIP3   OH235552   6.414   0.105  19.548
 3786TIP3    H135553   6.492   0.136  19.497
 3786TIP3    H235554   6.453   0.103  19.639
 3787TIP3   OH235555   6.894   0.147  19.666
 3787TIP3    H135556   6.978   0.165  19.623
 3787TIP3    H235557   6.911   0.062  19.710
 3788TIP3   OH235558   7.071   0.168  19.239
 3788TIP3    H135559   6.977   0.197  19.234
 3788TIP3    H235560   7.061   0.075  19.265
 3789TIP3   OH235561   5.833   1.655  19.236
 3789TIP3    H135562   5.737   1.668  19.229
 3789TIP3    H235563   5.863   1.741  19.201
 3790TIP3   OH235564   5.971   0.242  18.954
 3790TIP3    H135565   6.031   0.184  18.902
 3790TIP3    H235566   6.022   0.253  19.036
 3791TIP3   OH235567   6.478   0.283  19.230
 3791TIP3    H135568   6.525   0.219  19.285
 3791TIP3    H235569   6.521   0.366  19.262
 3792TIP3   OH235570   6.706   1.788  19.064
 3792TIP3    H135571   6.800   1.788  19.034
 3792TIP3    H235572   6.672   1.732  18.990
 3793TIP3   OH235573   7.333   1.726  19.336
 3793TIP3    H135574   7.328   1.639  19.291
 3793TIP3    H235575   7.334   1.788  19.260
 3794TIP3   OH235576   5.950   1.727  18.918
 3794TIP3    H135577   5.925   1.766  19.004
 3794TIP3    H235578   6.028   1.673  18.941
 3795TIP3   OH235579   7.546   0.673  19.455
 3795TIP3    H135580   7.533   0.765  19.428
 3795TIP3    H235581   7.522   0.629  19.373
 3796TIP3   OH235582   7.550   1.429  19.879
 3796TIP3    H135583   7.648   1.435  19.877
 3796TIP3    H235584   7.526   1.476  19.960
 3797TIP3   OH235585   7.495   0.368  19.615
 3797TIP3    H135586   7.575   0.418  19.644
 3797TIP3    H235587   7.516   0.358  19.521
 3798TIP3   OH235588   7.505   1.836  19.505
 3798TIP3    H135589   7.448   1.786  19.442
 3798TIP3    H235590   7.517   1.769  19.577
 3799TIP3   OH235591   7.544   1.685  19.726
 3799TIP3    H135592   7.508   1.595  19.736
 3799TIP3    H235593   7.641   1.670  19.724
 3800TIP3   OH235594   7.639   0.874  19.897
 3800TIP3    H135595   7.665   0.914  19.812
 3800TIP3    H235596   7.655   0.948  19.957
 3801TIP3   OH235597   7.497   0.611  19.868
 3801TIP3    H135598   7.576   0.555  19.874
 3801TIP3    H235599   7.534   0.697  19.894
 3802TIP3   OH235600   7.552   0.291  19.344
 3802TIP3    H135601   7.455   0.288  19.349
 3802TIP3    H235602   7.565   0.292  19.247
 3803TIP3   OH235603   1.201   2.880  19.532
 3803TIP3    H135604   1.206   2.977  19.543
 3803TIP3    H235605   1.125   2.873  19.474
 3804TIP3   OH235606   1.097   2.779  19.873
 3804TIP3    H135607   1.088   2.738  19.960
 3804TIP3    H235608   1.029   2.734  19.821
 3805TIP3   OH235609   1.393   3.071  19.701
 3805TIP3    H135610   1.371   2.993  19.756
 3805TIP3    H235611   1.433   3.132  19.767
 3806TIP3   OH235612   0.382   3.208  19.850
 3806TIP3    H135613   0.374   3.114  19.822
 3806TIP3    H235614   0.476   3.211  19.877
 3807TIP3   OH235615   0.121   2.514  19.369
 3807TIP3    H135616   0.143   2.594  19.419
 3807TIP3    H235617   0.031   2.497  19.404
 3808TIP3   OH235618   0.102   2.782  19.676
 3808TIP3    H135619   0.147   2.700  19.707
 3808TIP3    H235620   0.170   2.824  19.622
 3809TIP3   OH235621   1.158   3.637  19.744
 3809TIP3    H135622   1.215   3.582  19.685
 3809TIP3    H235623   1.117   3.564  19.792
 3810TIP3   OH235624   0.966   3.051  19.979
 3810TIP3    H135625   1.011   3.004  19.908
 3810TIP3    H235626   1.033   3.043  20.048
 3811TIP3   OH235627   1.245   2.488  19.971
 3811TIP3    H135628   1.269   2.393  19.974
 3811TIP3    H235629   1.239   2.501  19.875
 3812TIP3   OH235630   0.589   2.262  19.707
 3812TIP3    H135631   0.597   2.346  19.656
 3812TIP3    H235632   0.545   2.207  19.639
 3813TIP3   OH235633   1.286   2.311  19.516
 3813TIP3    H135634   1.341   2.273  19.590
 3813TIP3    H235635   1.352   2.373  19.482
 3814TIP3   OH235636   0.237   2.546  19.722
 3814TIP3    H135637   0.287   2.477  19.770
 3814TIP3    H235638   0.249   2.512  19.632
 3815TIP3   OH235639   0.679   2.674  19.694
 3815TIP3    H135640   0.756   2.629  19.732
 3815TIP3    H235641   0.644   2.601  19.638
 3816TIP3   OH235642   1.140   3.122  19.412
 3816TIP3    H135643   1.118   3.121  19.317
 3816TIP3    H235644   1.118   3.216  19.433
 3817TIP3   OH235645   1.464   2.247  19.696
 3817TIP3    H135646   1.403   2.224  19.770
 3817TIP3    H235647   1.550   2.221  19.732
 3818TIP3   OH235648   0.385   2.376  19.865
 3818TIP3    H135649   0.428   2.444  19.918
 3818TIP3    H235650   0.459   2.336  19.815
 3819TIP3   OH235651   0.114   3.092  19.253
 3819TIP3    H135652   0.110   3.147  19.172
 3819TIP3    H235653   0.143   3.158  19.320
 3820TIP3   OH235654   1.508   3.236  19.872
 3820TIP3    H135655   1.483   3.174  19.943
 3820TIP3    H235656   1.550   3.304  19.925
 3821TIP3   OH235657   0.849   1.947  19.824
 3821TIP3    H135658   0.872   1.853  19.828
 3821TIP3    H235659   0.752   1.948  19.845
 3822TIP3   OH235660   1.301   3.470  19.599
 3822TIP3    H135661   1.347   3.389  19.572
 3822TIP3    H235662   1.373   3.534  19.578
 3823TIP3   OH235663   1.462   3.257  19.491
 3823TIP3    H135664   1.429   3.194  19.425
 3823TIP3    H235665   1.458   3.201  19.571
 3824TIP3   OH235666   1.059   2.799  19.276
 3824TIP3    H135667   1.017   2.886  19.258
 3824TIP3    H235668   1.149   2.809  19.239
 3825TIP3   OH235669   1.090   2.689  18.966
 3825TIP3    H135670   1.138   2.723  19.045
 3825TIP3    H235671   1.116   2.596  18.967
 3826TIP3   OH235672   1.445   2.803  19.384
 3826TIP3    H135673   1.380   2.821  19.455
 3826TIP3    H235674   1.514   2.751  19.431
 3827TIP3   OH235675   0.569   2.876  19.567
 3827TIP3    H135676   0.524   2.833  19.491
 3827TIP3    H235677   0.618   2.802  19.609
 3828TIP3   OH235678   0.727   3.248  19.834
 3828TIP3    H135679   0.712   3.215  19.744
 3828TIP3    H235680   0.792   3.184  19.870
 3829TIP3   OH235681   0.564   2.760  19.922
 3829TIP3    H135682   0.598   2.725  19.837
 3829TIP3    H235683   0.646   2.784  19.968
 3830TIP3   OH235684   1.297   2.780  19.151
 3830TIP3    H135685   1.360   2.795  19.226
 3830TIP3    H235686   1.350   2.812  19.074
 3831TIP3   OH235687   1.071   3.375  19.451
 3831TIP3    H135688   1.124   3.406  19.526
 3831TIP3    H235689   1.020   3.454  19.427
 3832TIP3   OH235690   1.684   1.890  19.175
 3832TIP3    H135691   1.590   1.901  19.199
 3832TIP3    H235692   1.713   1.979  19.150
 3833TIP3   OH235693   0.442   2.765  19.335
 3833TIP3    H135694   0.431   2.850  19.286
 3833TIP3    H235695   0.411   2.702  19.270
 3834TIP3   OH235696   1.793   3.333  18.983
 3834TIP3    H135697   1.813   3.426  19.005
 3834TIP3    H235698   1.873   3.290  19.019
 3835TIP3   OH235699   0.135   3.338  19.883
 3835TIP3    H135700   0.207   3.272  19.876
 3835TIP3    H235701   0.165   3.385  19.962
 3836TIP3   OH235702   1.048   3.685  19.339
 3836TIP3    H135703   1.046   3.694  19.241
 3836TIP3    H235704   1.019   3.775  19.365
 3837TIP3   OH235705   0.403   3.557  19.514
 3837TIP3    H135706   0.419   3.526  19.606
 3837TIP3    H235707   0.307   3.547  19.506
 3838TIP3   OH235708   1.348   3.616  19.026
 3838TIP3    H135709   1.400   3.540  18.992
 3838TIP3    H235710   1.344   3.597  19.123
 3839TIP3   OH235711   1.304   3.604  19.295
 3839TIP3    H135712   1.211   3.625  19.315
 3839TIP3    H235713   1.322   3.535  19.361
 3840TIP3   OH235714   0.584   2.001  19.846
 3840TIP3    H135715   0.495   2.029  19.817
 3840TIP3    H235716   0.612   2.078  19.901
 3841TIP3   OH235717   1.457   2.879  18.964
 3841TIP3    H135718   1.438   2.894  18.869
 3841TIP3    H235719   1.553   2.896  18.966
 3842TIP3   OH235720   1.020   2.233  18.971
 3842TIP3    H135721   0.978   2.230  19.058
 3842TIP3    H235722   0.977   2.154  18.932
 3843TIP3   OH235723   0.594   2.476  19.546
 3843TIP3    H135724   0.498   2.468  19.525
 3843TIP3    H235725   0.633   2.473  19.454
 3844TIP3   OH235726   1.156   2.580  19.388
 3844TIP3    H135727   1.112   2.656  19.345
 3844TIP3    H235728   1.213   2.549  19.315
 3845TIP3   OH235729   1.221   2.535  19.693
 3845TIP3    H135730   1.199   2.610  19.634
 3845TIP3    H235731   1.225   2.461  19.628
 3846TIP3   OH235732   0.653   2.264  18.916
 3846TIP3    H135733   0.599   2.205  18.975
 3846TIP3    H235734   0.586   2.310  18.865
 3847TIP3   OH235735   0.079   2.231  19.625
 3847TIP3    H135736   0.119   2.234  19.715
 3847TIP3    H235737   0.117   2.148  19.592
 3848TIP3   OH235738   0.106   2.325  19.139
 3848TIP3    H135739   0.169   2.356  19.071
 3848TIP3    H235740   0.099   2.405  19.194
 3849TIP3   OH235741   0.872   2.267  19.605
 3849TIP3    H135742   0.787   2.254  19.649
 3849TIP3    H235743   0.933   2.224  19.670
 3850TIP3   OH235744   0.333   2.422  19.500
 3850TIP3    H135745   0.264   2.430  19.430
 3850TIP3    H235746   0.341   2.323  19.498
 3851TIP3   OH235747   0.688   2.447  19.292
 3851TIP3    H135748   0.783   2.438  19.271
 3851TIP3    H235749   0.651   2.501  19.219
 3852TIP3   OH235750   1.286   2.226  19.896
 3852TIP3    H135751   1.289   2.202  19.991
 3852TIP3    H235752   1.192   2.209  19.875
 3853TIP3   OH235753   0.565   2.572  19.027
 3853TIP3    H135754   0.520   2.518  18.960
 3853TIP3    H235755   0.649   2.595  18.981
 3854TIP3   OH235756   0.947   2.539  19.827
 3854TIP3    H135757   0.984   2.520  19.740
 3854TIP3    H235758   1.008   2.489  19.884
 3855TIP3   OH235759   0.402   2.171  19.485
 3855TIP3    H135760   0.335   2.101  19.506
 3855TIP3    H235761   0.441   2.129  19.408
 3856TIP3   OH235762   0.900   3.016  19.252
 3856TIP3    H135763   0.827   2.967  19.208
 3856TIP3    H235764   0.854   3.041  19.336
 3857TIP3   OH235765   1.258   2.279  19.079
 3857TIP3    H135766   1.175   2.286  19.028
 3857TIP3    H235767   1.283   2.374  19.089
 3858TIP3   OH235768   1.324   2.511  19.175
 3858TIP3    H135769   1.394   2.480  19.235
 3858TIP3    H235770   1.353   2.600  19.148
 3859TIP3   OH235771   0.409   2.959  19.763
 3859TIP3    H135772   0.459   2.939  19.681
 3859TIP3    H235773   0.464   2.913  19.829
 3860TIP3   OH235774   1.083   3.157  19.124
 3860TIP3    H135775   1.050   3.246  19.149
 3860TIP3    H235776   1.015   3.099  19.165
 3861TIP3   OH235777   1.816   2.477  19.176
 3861TIP3    H135778   1.758   2.470  19.097
 3861TIP3    H235779   1.841   2.571  19.174
 3862TIP3   OH235780   1.640   3.359  19.212
 3862TIP3    H135781   1.621   3.293  19.279
 3862TIP3    H235782   1.686   3.310  19.141
 3863TIP3   OH235783   1.367   2.851  19.881
 3863TIP3    H135784   1.273   2.823  19.871
 3863TIP3    H235785   1.415   2.781  19.828
 3864TIP3   OH235786   0.625   3.297  19.544
 3864TIP3    H135787   0.651   3.382  19.501
 3864TIP3    H235788   0.535   3.290  19.512
 3865TIP3   OH235789   0.235   2.788  19.018
 3865TIP3    H135790   0.289   2.862  19.054
 3865TIP3    H235791   0.151   2.799  19.065
 3866TIP3   OH235792   0.750   3.057  19.483
 3866TIP3    H135793   0.704   3.139  19.510
 3866TIP3    H235794   0.703   2.988  19.534
 3867TIP3   OH235795   0.658   3.535  19.429
 3867TIP3    H135796   0.564   3.553  19.448
 3867TIP3    H235797   0.699   3.615  19.466
 3868TIP3   OH235798   1.420   3.189  19.000
 3868TIP3    H135799   1.433   3.148  19.088
 3868TIP3    H235800   1.329   3.159  18.986
 3869TIP3   OH235801   1.844   3.613  19.045
 3869TIP3    H135802   1.890   3.680  18.992
 3869TIP3    H235803   1.776   3.669  19.088
 3870TIP3   OH235804   1.502   3.041  19.232
 3870TIP3    H135805   1.480   2.955  19.271
 3870TIP3    H235806   1.599   3.032  19.220
 3871TIP3   OH235807   0.822   3.318  18.867
 3871TIP3    H135808   0.819   3.261  18.788
 3871TIP3    H235809   0.762   3.269  18.926
 3872TIP3   OH235810   0.679   3.225  19.101
 3872TIP3    H135811   0.756   3.188  19.146
 3872TIP3    H235812   0.689   3.320  19.129
 3873TIP3   OH235813   0.361   2.977  19.172
 3873TIP3    H135814   0.281   3.013  19.215
 3873TIP3    H235815   0.390   3.049  19.113
 3874TIP3   OH235816   1.212   2.151  19.306
 3874TIP3    H135817   1.225   2.209  19.228
 3874TIP3    H235818   1.250   2.205  19.378
 3875TIP3   OH235819   0.995   3.410  19.165
 3875TIP3    H135820   0.906   3.445  19.187
 3875TIP3    H235821   1.044   3.492  19.149
 3876TIP3   OH235822   0.946   2.364  19.363
 3876TIP3    H135823   1.003   2.441  19.381
 3876TIP3    H235824   0.912   2.339  19.452
 3877TIP3   OH235825   0.994   2.047  19.425
 3877TIP3    H135826   0.968   2.123  19.481
 3877TIP3    H235827   1.074   2.086  19.381
 3878TIP3   OH235828   0.726   3.474  19.166
 3878TIP3    H135829   0.743   3.558  19.116
 3878TIP3    H235830   0.687   3.515  19.247
 3879TIP3   OH235831   0.556   2.164  19.146
 3879TIP3    H135832   0.564   2.248  19.196
 3879TIP3    H235833   0.647   2.130  19.154
 3880TIP3   OH235834   1.475   2.654  19.738
 3880TIP3    H135835   1.394   2.600  19.749
 3880TIP3    H235836   1.537   2.601  19.795
 3881TIP3   OH235837   0.420   3.220  19.012
 3881TIP3    H135838   0.509   3.233  19.053
 3881TIP3    H235839   0.444   3.161  18.938
 3882TIP3   OH235840   0.233   2.500  18.969
 3882TIP3    H135841   0.257   2.591  18.994
 3882TIP3    H235842   0.162   2.512  18.905
 3883TIP3   OH235843   1.588   3.600  19.951
 3883TIP3    H135844   1.600   3.673  19.887
 3883TIP3    H235845   1.676   3.590  19.989
 3884TIP3   OH235846   0.314   1.991  19.789
 3884TIP3    H135847   0.312   1.968  19.693
 3884TIP3    H235848   0.303   1.902  19.827
 3885TIP3   OH235849   0.203   3.312  19.384
 3885TIP3    H135850   0.134   3.364  19.425
 3885TIP3    H235851   0.250   3.382  19.335
 3886TIP3   OH235852   1.035   3.512  18.863
 3886TIP3    H135853   0.980   3.433  18.880
 3886TIP3    H235854   1.114   3.471  18.821
 3887TIP3   OH235855   1.488   3.427  18.879
 3887TIP3    H135856   1.490   3.345  18.933
 3887TIP3    H235857   1.571   3.420  18.828
 3888TIP3   OH235858   0.567   3.023  18.863
 3888TIP3    H135859   0.608   3.000  18.949
 3888TIP3    H235860   0.645   3.011  18.803
 3889TIP3   OH235861   1.126   3.165  18.839
 3889TIP3    H135862   1.092   3.153  18.930
 3889TIP3    H235863   1.126   3.071  18.808
 3890TIP3   OH235864   0.696   2.851  19.117
 3890TIP3    H135865   0.640   2.788  19.165
 3890TIP3    H235866   0.736   2.790  19.052
 3891TIP3   OH235867   0.808   2.677  18.919
 3891TIP3    H135868   0.814   2.709  18.827
 3891TIP3    H235869   0.903   2.676  18.943
 3892TIP3   OH235870   1.734   2.881  18.866
 3892TIP3    H135871   1.712   2.851  18.775
 3892TIP3    H235872   1.717   2.979  18.859
 3893TIP3   OH235873   0.790   3.711  19.080
 3893TIP3    H135874   0.887   3.725  19.076
 3893TIP3    H235875   0.758   3.778  19.018
 3894TIP3   OH235876   0.157   3.224  19.024
 3894TIP3    H135877   0.255   3.233  19.027
 3894TIP3    H235878   0.147   3.173  18.942
 3895TIP3   OH235879   0.086   3.708  19.488
 3895TIP3    H135880  -0.010   3.724  19.493
 3895TIP3    H235881   0.099   3.648  19.563
 3896TIP3   OH235882   0.139   3.526  19.693
 3896TIP3    H135883   0.142   3.440  19.741
 3896TIP3    H235884   0.187   3.581  19.759
 3897TIP3   OH235885   1.771   2.988  19.241
 3897TIP3    H135886   1.858   3.030  19.259
 3897TIP3    H235887   1.768   2.924  19.316
 3898TIP3   OH235888   1.795   2.819  19.459
 3898TIP3    H135889   1.723   2.774  19.508
 3898TIP3    H235890   1.872   2.803  19.518
 3899TIP3   OH235891   1.877   3.101  19.938
 3899TIP3    H135892   1.914   3.026  19.888
 3899TIP3    H235893   1.820   3.146  19.874
 3900TIP3   OH235894   1.861   2.767  19.082
 3900TIP3    H135895   1.804   2.790  19.006
 3900TIP3    H235896   1.837   2.839  19.144
 3901TIP3   OH235897   1.656   2.487  18.933
 3901TIP3    H135898   1.679   2.547  18.860
 3901TIP3    H235899   1.637   2.404  18.885
 3902TIP3   OH235900   1.605   2.626  19.509
 3902TIP3    H135901   1.574   2.541  19.474
 3902TIP3    H235902   1.565   2.628  19.600
 3903TIP3   OH235903   0.189   2.940  19.934
 3903TIP3    H135904   0.189   2.906  19.843
 3903TIP3    H235905   0.258   2.882  19.970
 3904TIP3   OH235906   1.612   2.227  18.841
 3904TIP3    H135907   1.649   2.191  18.924
 3904TIP3    H235908   1.519   2.201  18.844
 3905TIP3   OH235909   1.532   2.424  19.344
 3905TIP3    H135910   1.550   2.330  19.366
 3905TIP3    H235911   1.617   2.445  19.304
 3906TIP3   OH235912   1.627   2.486  19.866
 3906TIP3    H135913   1.724   2.476  19.878
 3906TIP3    H235914   1.601   2.395  19.892
 3907TIP3   OH235915   1.617   2.161  19.361
 3907TIP3    H135916   1.657   2.114  19.437
 3907TIP3    H235917   1.558   2.091  19.328
 3908TIP3   OH235918   0.157   2.213  19.882
 3908TIP3    H135919   0.196   2.123  19.879
 3908TIP3    H235920   0.233   2.266  19.916
 3909TIP3   OH235921   0.098   2.516  19.981
 3909TIP3    H135922   0.128   2.502  19.890
 3909TIP3    H235923   0.068   2.608  19.975
 3910TIP3   OH235924   1.813   2.136  19.030
 3910TIP3    H135925   1.847   2.079  18.958
 3910TIP3    H235926   1.884   2.202  19.038
 3911TIP3   OH235927   0.105   2.126  19.314
 3911TIP3    H135928   0.016   2.122  19.354
 3911TIP3    H235929   0.092   2.193  19.244
 3912TIP3   OH235930   1.501   3.643  19.540
 3912TIP3    H135931   1.579   3.616  19.488
 3912TIP3    H235932   1.540   3.699  19.608
 3913TIP3   OH235933   0.277   3.639  19.903
 3913TIP3    H135934   0.307   3.664  19.993
 3913TIP3    H235935   0.354   3.583  19.876
 3914TIP3   OH235936   0.444   3.474  19.761
 3914TIP3    H135937   0.419   3.380  19.768
 3914TIP3    H235938   0.535   3.477  19.796
 3915TIP3   OH235939   0.708   3.534  19.875
 3915TIP3    H135940   0.742   3.448  19.841
 3915TIP3    H235941   0.737   3.530  19.967
 3916TIP3   OH235942   1.038   2.143  19.782
 3916TIP3    H135943   0.973   2.078  19.817
 3916TIP3    H235944   1.102   2.082  19.743
 3917TIP3   OH235945   1.595   1.938  19.768
 3917TIP3    H135946   1.647   1.978  19.694
 3917TIP3    H235947   1.504   1.969  19.749
 3918TIP3   OH235948   1.748   2.022  19.566
 3918TIP3    H135949   1.817   1.967  19.522
 3918TIP3    H235950   1.800   2.104  19.585
 3919TIP3   OH235951   0.321   1.931  19.533
 3919TIP3    H135952   0.237   1.909  19.484
 3919TIP3    H235953   0.369   1.845  19.523
 3920TIP3   OH235954   0.219   1.932  19.166
 3920TIP3    H135955   0.212   1.974  19.079
 3920TIP3    H235956   0.178   2.001  19.224
 3921TIP3   OH235957   0.722   1.891  19.540
 3921TIP3    H135958   0.803   1.938  19.517
 3921TIP3    H235959   0.724   1.887  19.636
 3922TIP3   OH235960   1.342   1.969  19.676
 3922TIP3    H135961   1.310   1.985  19.587
 3922TIP3    H235962   1.299   1.885  19.701
 3923TIP3   OH235963   1.451   1.954  19.295
 3923TIP3    H135964   1.378   1.991  19.243
 3923TIP3    H235965   1.414   1.867  19.324
 3924TIP3   OH235966   0.190   3.565  19.241
 3924TIP3    H135967   0.093   3.570  19.237
 3924TIP3    H235968   0.207   3.658  19.213
 3925TIP3   OH235969   0.304   2.110  18.971
 3925TIP3    H135970   0.378   2.065  18.927
 3925TIP3    H235971   0.341   2.125  19.060
 3926TIP3   OH235972   0.865   2.154  19.203
 3926TIP3    H135973   0.890   2.096  19.278
 3926TIP3    H235974   0.880   2.241  19.246
 3927TIP3   OH235975   1.067   3.670  19.072
 3927TIP3    H135976   1.159   3.675  19.040
 3927TIP3    H235977   1.033   3.618  18.994
 3928TIP3   OH235978   1.696   3.573  19.360
 3928TIP3    H135979   1.672   3.496  19.305
 3928TIP3    H235980   1.693   3.646  19.294
 3929TIP3   OH235981   0.299   3.623  18.932
 3929TIP3    H135982   0.284   3.631  19.027
 3929TIP3    H235983   0.368   3.555  18.931
 3930TIP3   OH235984   3.093   2.887  19.531
 3930TIP3    H135985   3.093   2.983  19.549
 3930TIP3    H235986   3.011   2.877  19.483
 3931TIP3   OH235987   2.987   2.784  19.865
 3931TIP3    H135988   2.978   2.738  19.951
 3931TIP3    H235989   2.912   2.751  19.815
 3932TIP3   OH235990   3.280   3.079  19.683
 3932TIP3    H135991   3.263   3.002  19.742
 3932TIP3    H235992   3.322   3.141  19.747
 3933TIP3   OH235993   2.307   3.219  19.871
 3933TIP3    H135994   2.289   3.127  19.842
 3933TIP3    H235995   2.403   3.224  19.861
 3934TIP3   OH235996   1.991   2.522  19.449
 3934TIP3    H135997   1.955   2.608  19.472
 3934TIP3    H235998   1.911   2.477  19.417
 3935TIP3   OH235999   2.057   2.784  19.649
 3935TIP3    H136000   2.092   2.706  19.697
 3935TIP3    H236001   2.107   2.857  19.691
 3936TIP3   OH236002   3.040   3.635  19.733
 3936TIP3    H136003   3.106   3.582  19.682
 3936TIP3    H236004   3.016   3.566  19.795
 3937TIP3   OH236005   2.867   3.065  19.979
 3937TIP3    H136006   2.908   3.000  19.919
 3937TIP3    H236007   2.919   3.050  20.059
 3938TIP3   OH236008   3.131   2.480  19.972
 3938TIP3    H136009   3.151   2.385  19.981
 3938TIP3    H236010   3.116   2.489  19.876
 3939TIP3   OH236011   2.470   2.268  19.699
 3939TIP3    H136012   2.496   2.348  19.650
 3939TIP3    H236013   2.422   2.216  19.631
 3940TIP3   OH236014   3.179   2.304  19.520
 3940TIP3    H136015   3.234   2.268  19.594
 3940TIP3    H236016   3.241   2.370  19.487
 3941TIP3   OH236017   2.102   2.506  19.754
 3941TIP3    H136018   2.152   2.438  19.803
 3941TIP3    H236019   2.099   2.469  19.664
 3942TIP3   OH236020   2.597   2.664  19.692
 3942TIP3    H136021   2.668   2.612  19.734
 3942TIP3    H236022   2.551   2.596  19.638
 3943TIP3   OH236023   3.016   3.127  19.415
 3943TIP3    H136024   2.990   3.118  19.321
 3943TIP3    H236025   3.002   3.223  19.431
 3944TIP3   OH236026   3.361   2.253  19.701
 3944TIP3    H136027   3.307   2.230  19.779
 3944TIP3    H236028   3.450   2.226  19.731
 3945TIP3   OH236029   2.305   2.368  19.890
 3945TIP3    H136030   2.324   2.462  19.877
 3945TIP3    H236031   2.350   2.327  19.813
 3946TIP3   OH236032   2.029   3.085  19.263
 3946TIP3    H136033   2.021   3.141  19.183
 3946TIP3    H236034   2.044   3.151  19.333
 3947TIP3   OH236035   3.391   3.239  19.871
 3947TIP3    H136036   3.357   3.183  19.943
 3947TIP3    H236037   3.438   3.306  19.922
 3948TIP3   OH236038   2.719   1.938  19.804
 3948TIP3    H136039   2.730   1.843  19.818
 3948TIP3    H236040   2.630   1.958  19.842
 3949TIP3   OH236041   3.208   3.469  19.616
 3949TIP3    H136042   3.228   3.389  19.565
 3949TIP3    H236043   3.289   3.523  19.599
 3950TIP3   OH236044   3.368   3.242  19.439
 3950TIP3    H136045   3.333   3.179  19.372
 3950TIP3    H236046   3.351   3.189  19.520
 3951TIP3   OH236047   2.937   2.794  19.273
 3951TIP3    H136048   2.896   2.883  19.265
 3951TIP3    H236049   3.025   2.808  19.232
 3952TIP3   OH236050   2.992   2.700  18.961
 3952TIP3    H136051   3.049   2.733  19.033
 3952TIP3    H236052   3.003   2.604  18.971
 3953TIP3   OH236053   3.338   2.813  19.382
 3953TIP3    H136054   3.262   2.838  19.440
 3953TIP3    H236055   3.396   2.765  19.446
 3954TIP3   OH236056   2.466   2.867  19.563
 3954TIP3    H136057   2.430   2.816  19.489
 3954TIP3    H236058   2.528   2.803  19.603
 3955TIP3   OH236059   2.595   3.237  19.839
 3955TIP3    H136060   2.583   3.210  19.746
 3955TIP3    H236061   2.661   3.174  19.870
 3956TIP3   OH236062   2.437   2.683  19.908
 3956TIP3    H136063   2.502   2.688  19.836
 3956TIP3    H236064   2.452   2.767  19.953
 3957TIP3   OH236065   3.181   2.780  19.156
 3957TIP3    H136066   3.243   2.799  19.230
 3957TIP3    H236067   3.232   2.816  19.079
 3958TIP3   OH236068   2.966   3.387  19.457
 3958TIP3    H136069   2.971   3.404  19.552
 3958TIP3    H236070   2.921   3.467  19.425
 3959TIP3   OH236071   3.576   1.895  19.174
 3959TIP3    H136072   3.481   1.909  19.194
 3959TIP3    H236073   3.610   1.984  19.150
 3960TIP3   OH236074   2.327   2.760  19.312
 3960TIP3    H136075   2.353   2.851  19.285
 3960TIP3    H236076   2.231   2.772  19.308
 3961TIP3   OH236077   3.711   3.346  18.956
 3961TIP3    H136078   3.709   3.433  19.001
 3961TIP3    H236079   3.789   3.310  19.004
 3962TIP3   OH236080   1.949   3.346  19.832
 3962TIP3    H136081   2.029   3.298  19.856
 3962TIP3    H236082   1.915   3.375  19.918
 3963TIP3   OH236083   2.924   3.672  19.341
 3963TIP3    H136084   2.929   3.686  19.244
 3963TIP3    H236085   2.906   3.765  19.372
 3964TIP3   OH236086   2.277   3.571  19.506
 3964TIP3    H136087   2.295   3.554  19.601
 3964TIP3    H236088   2.190   3.527  19.494
 3965TIP3   OH236089   3.234   3.619  19.026
 3965TIP3    H136090   3.275   3.538  18.988
 3965TIP3    H236091   3.232   3.599  19.121
 3966TIP3   OH236092   3.186   3.608  19.296
 3966TIP3    H136093   3.092   3.627  19.315
 3966TIP3    H236094   3.203   3.537  19.359
 3967TIP3   OH236095   2.456   2.030  19.886
 3967TIP3    H136096   2.380   2.035  19.824
 3967TIP3    H236097   2.451   2.117  19.926
 3968TIP3   OH236098   3.327   2.882  18.963
 3968TIP3    H136099   3.308   2.886  18.867
 3968TIP3    H236100   3.424   2.889  18.961
 3969TIP3   OH236101   2.905   2.231  18.982
 3969TIP3    H136102   2.854   2.225  19.064
 3969TIP3    H236103   2.848   2.175  18.927
 3970TIP3   OH236104   2.481   2.480  19.540
 3970TIP3    H136105   2.391   2.437  19.539
 3970TIP3    H236106   2.516   2.463  19.449
 3971TIP3   OH236107   3.036   2.586  19.391
 3971TIP3    H136108   2.994   2.659  19.339
 3971TIP3    H236109   3.095   2.551  19.321
 3972TIP3   OH236110   3.085   2.534  19.691
 3972TIP3    H136111   3.075   2.608  19.628
 3972TIP3    H236112   3.111   2.463  19.630
 3973TIP3   OH236113   2.545   2.274  18.907
 3973TIP3    H136114   2.494   2.211  18.963
 3973TIP3    H236115   2.476   2.313  18.851
 3974TIP3   OH236116   1.889   2.243  19.616
 3974TIP3    H136117   1.958   2.245  19.684
 3974TIP3    H236118   1.936   2.222  19.535
 3975TIP3   OH236119   2.015   2.306  19.132
 3975TIP3    H136120   2.071   2.347  19.064
 3975TIP3    H236121   1.945   2.375  19.141
 3976TIP3   OH236122   2.759   2.276  19.601
 3976TIP3    H136123   2.681   2.264  19.658
 3976TIP3    H236124   2.826   2.230  19.656
 3977TIP3   OH236125   2.227   2.399  19.496
 3977TIP3    H136126   2.139   2.431  19.466
 3977TIP3    H236127   2.221   2.301  19.485
 3978TIP3   OH236128   2.579   2.442  19.301
 3978TIP3    H136129   2.669   2.418  19.338
 3978TIP3    H236130   2.607   2.466  19.212
 3979TIP3   OH236131   3.179   2.217  19.899
 3979TIP3    H136132   3.171   2.189  19.992
 3979TIP3    H236133   3.086   2.214  19.871
 3980TIP3   OH236134   2.434   2.554  19.049
 3980TIP3    H136135   2.402   2.499  18.975
 3980TIP3    H236136   2.510   2.591  19.002
 3981TIP3   OH236137   2.840   2.523  19.829
 3981TIP3    H136138   2.902   2.532  19.755
 3981TIP3    H236139   2.892   2.470  19.891
 3982TIP3   OH236140   2.304   2.145  19.470
 3982TIP3    H136141   2.244   2.076  19.508
 3982TIP3    H236142   2.353   2.087  19.410
 3983TIP3   OH236143   2.786   3.011  19.240
 3983TIP3    H136144   2.708   2.973  19.193
 3983TIP3    H236145   2.742   3.042  19.323
 3984TIP3   OH236146   3.146   2.272  19.080
 3984TIP3    H136147   3.059   2.280  19.034
 3984TIP3    H236148   3.177   2.365  19.084
 3985TIP3   OH236149   3.215   2.509  19.176
 3985TIP3    H136150   3.282   2.477  19.239
 3985TIP3    H236151   3.247   2.599  19.159
 3986TIP3   OH236152   2.256   2.957  19.794
 3986TIP3    H136153   2.297   2.952  19.706
 3986TIP3    H236154   2.329   2.935  19.855
 3987TIP3   OH236155   2.969   3.162  19.128
 3987TIP3    H136156   2.921   3.247  19.142
 3987TIP3    H236157   2.902   3.095  19.153
 3988TIP3   OH236158   3.698   2.480  19.177
 3988TIP3    H136159   3.646   2.478  19.094
 3988TIP3    H236160   3.732   2.572  19.178
 3989TIP3   OH236161   3.539   3.334  19.205
 3989TIP3    H136162   3.482   3.325  19.284
 3989TIP3    H236163   3.562   3.242  19.192
 3990TIP3   OH236164   3.250   2.865  19.873
 3990TIP3    H136165   3.158   2.832  19.865
 3990TIP3    H236166   3.301   2.801  19.819
 3991TIP3   OH236167   2.494   3.306  19.572
 3991TIP3    H136168   2.544   3.390  19.566
 3991TIP3    H236169   2.430   3.321  19.501
 3992TIP3   OH236170   2.147   2.794  19.015
 3992TIP3    H136171   2.186   2.869  19.065
 3992TIP3    H236172   2.050   2.806  19.026
 3993TIP3   OH236173   2.650   3.087  19.461
 3993TIP3    H136174   2.594   3.157  19.498
 3993TIP3    H236175   2.631   3.013  19.520
 3994TIP3   OH236176   2.536   3.536  19.421
 3994TIP3    H136177   2.442   3.551  19.445
 3994TIP3    H236178   2.573   3.621  19.453
 3995TIP3   OH236179   3.309   3.186  19.017
 3995TIP3    H136180   3.308   3.138  19.103
 3995TIP3    H236181   3.215   3.172  18.993
 3996TIP3   OH236182   3.735   3.608  19.053
 3996TIP3    H136183   3.788   3.671  19.002
 3996TIP3    H236184   3.664   3.668  19.085
 3997TIP3   OH236185   3.387   3.046  19.239
 3997TIP3    H136186   3.365   2.962  19.284
 3997TIP3    H236187   3.484   3.040  19.235
 3998TIP3   OH236188   2.704   3.316  18.870
 3998TIP3    H136189   2.704   3.261  18.790
 3998TIP3    H236190   2.649   3.263  18.931
 3999TIP3   OH236191   2.578   3.240  19.106
 3999TIP3    H136192   2.653   3.212  19.161
 3999TIP3    H236193   2.584   3.337  19.126
 4000TIP3   OH236194   2.260   2.990  19.150
 4000TIP3    H136195   2.174   3.013  19.192
 4000TIP3    H236196   2.293   3.077  19.119
 4001TIP3   OH236197   3.139   2.129  19.307
 4001TIP3    H136198   3.122   2.190  19.232
 4001TIP3    H236199   3.158   2.189  19.381
 4002TIP3   OH236200   2.864   3.410  19.159
 4002TIP3    H136201   2.777   3.453  19.173
 4002TIP3    H236202   2.921   3.488  19.154
 4003TIP3   OH236203   2.828   2.373  19.364
 4003TIP3    H136204   2.890   2.449  19.374
 4003TIP3    H236205   2.811   2.343  19.456
 4004TIP3   OH236206   2.897   2.056  19.411
 4004TIP3    H136207   2.864   2.117  19.478
 4004TIP3    H236208   2.980   2.101  19.380
 4005TIP3   OH236209   2.602   3.492  19.155
 4005TIP3    H136210   2.619   3.576  19.105
 4005TIP3    H236211   2.564   3.531  19.236
 4006TIP3   OH236212   2.433   2.148  19.129
 4006TIP3    H136213   2.464   2.219  19.187
 4006TIP3    H236214   2.515   2.094  19.122
 4007TIP3   OH236215   3.352   2.654  19.741
 4007TIP3    H136216   3.278   2.595  19.761
 4007TIP3    H236217   3.421   2.615  19.800
 4008TIP3   OH236218   2.316   3.246  19.027
 4008TIP3    H136219   2.298   3.323  19.082
 4008TIP3    H236220   2.412   3.233  19.052
 4009TIP3   OH236221   2.126   2.502  18.962
 4009TIP3    H136222   2.163   2.591  18.976
 4009TIP3    H236223   2.049   2.519  18.906
 4010TIP3   OH236224   3.471   3.590  19.939
 4010TIP3    H136225   3.486   3.677  19.896
 4010TIP3    H236226   3.555   3.577  19.986
 4011TIP3   OH236227   2.216   2.005  19.769
 4011TIP3    H136228   2.200   1.966  19.680
 4011TIP3    H236229   2.215   1.925  19.825
 4012TIP3   OH236230   2.089   3.358  19.435
 4012TIP3    H136231   2.010   3.409  19.462
 4012TIP3    H236232   2.105   3.400  19.349
 4013TIP3   OH236233   2.912   3.509  18.861
 4013TIP3    H136234   2.861   3.427  18.883
 4013TIP3    H236235   2.989   3.472  18.812
 4014TIP3   OH236236   3.358   3.426  18.873
 4014TIP3    H136237   3.372   3.356  18.941
 4014TIP3    H236238   3.444   3.435  18.831
 4015TIP3   OH236239   2.454   3.044  18.853
 4015TIP3    H136240   2.479   3.015  18.942
 4015TIP3    H236241   2.537   3.021  18.804
 4016TIP3   OH236242   3.001   3.173  18.837
 4016TIP3    H136243   2.978   3.163  18.931
 4016TIP3    H236244   3.005   3.077  18.812
 4017TIP3   OH236245   2.574   2.861  19.121
 4017TIP3    H136246   2.514   2.797  19.164
 4017TIP3    H236247   2.620   2.801  19.058
 4018TIP3   OH236248   2.675   2.685  18.927
 4018TIP3    H136249   2.656   2.709  18.834
 4018TIP3    H236250   2.773   2.679  18.927
 4019TIP3   OH236251   3.603   2.890  18.862
 4019TIP3    H136252   3.589   2.859  18.770
 4019TIP3    H236253   3.586   2.987  18.856
 4020TIP3   OH236254   2.672   3.728  19.080
 4020TIP3    H136255   2.769   3.725  19.075
 4020TIP3    H236256   2.651   3.798  19.015
 4021TIP3   OH236257   2.006   3.178  19.015
 4021TIP3    H136258   2.092   3.162  18.974
 4021TIP3    H236259   1.947   3.132  18.950
 4022TIP3   OH236260   1.916   3.694  19.455
 4022TIP3    H136261   1.831   3.651  19.434
 4022TIP3    H236262   1.937   3.648  19.540
 4023TIP3   OH236263   1.996   3.539  19.658
 4023TIP3    H136264   1.964   3.457  19.703
 4023TIP3    H236265   2.041   3.585  19.732
 4024TIP3   OH236266   3.660   2.988  19.236
 4024TIP3    H136267   3.748   3.029  19.252
 4024TIP3    H236268   3.656   2.926  19.313
 4025TIP3   OH236269   3.684   2.815  19.451
 4025TIP3    H136270   3.616   2.763  19.498
 4025TIP3    H236271   3.755   2.822  19.517
 4026TIP3   OH236272   3.727   3.091  19.927
 4026TIP3    H136273   3.799   3.035  19.890
 4026TIP3    H236274   3.707   3.159  19.861
 4027TIP3   OH236275   3.747   2.781  19.075
 4027TIP3    H136276   3.675   2.794  19.010
 4027TIP3    H236277   3.720   2.847  19.143
 4028TIP3   OH236278   3.558   2.501  18.919
 4028TIP3    H136279   3.581   2.561  18.846
 4028TIP3    H236280   3.534   2.418  18.872
 4029TIP3   OH236281   3.495   2.636  19.519
 4029TIP3    H136282   3.465   2.551  19.479
 4029TIP3    H236283   3.449   2.634  19.606
 4030TIP3   OH236284   1.963   2.847  19.889
 4030TIP3    H136285   1.995   2.819  19.801
 4030TIP3    H236286   2.040   2.827  19.945
 4031TIP3   OH236287   3.502   2.234  18.842
 4031TIP3    H136288   3.540   2.197  18.924
 4031TIP3    H236289   3.411   2.200  18.839
 4032TIP3   OH236290   3.416   2.429  19.355
 4032TIP3    H136291   3.430   2.333  19.372
 4032TIP3    H236292   3.500   2.448  19.311
 4033TIP3   OH236293   3.512   2.488  19.876
 4033TIP3    H136294   3.610   2.478  19.868
 4033TIP3    H236295   3.489   2.396  19.900
 4034TIP3   OH236296   3.497   2.159  19.366
 4034TIP3    H136297   3.537   2.116  19.444
 4034TIP3    H236298   3.451   2.083  19.327
 4035TIP3   OH236299   2.060   2.220  19.852
 4035TIP3    H136300   2.104   2.136  19.825
 4035TIP3    H236301   2.126   2.253  19.916
 4036TIP3   OH236302   1.891   2.486  19.949
 4036TIP3    H136303   1.939   2.444  19.876
 4036TIP3    H236304   1.925   2.577  19.947
 4037TIP3   OH236305   3.698   2.122  19.035
 4037TIP3    H136306   3.730   2.071  18.958
 4037TIP3    H236307   3.780   2.165  19.066
 4038TIP3   OH236308   1.906   2.127  19.309
 4038TIP3    H136309   1.814   2.159  19.312
 4038TIP3    H236310   1.941   2.180  19.236
 4039TIP3   OH236311   3.396   3.646  19.547
 4039TIP3    H136312   3.474   3.620  19.495
 4039TIP3    H236313   3.432   3.701  19.619
 4040TIP3   OH236314   2.140   3.635  19.869
 4040TIP3    H136315   2.164   3.644  19.964
 4040TIP3    H236316   2.219   3.586  19.836
 4041TIP3   OH236317   2.334   3.499  19.754
 4041TIP3    H136318   2.324   3.403  19.763
 4041TIP3    H236319   2.419   3.514  19.801
 4042TIP3   OH236320   2.572   3.527  19.868
 4042TIP3    H136321   2.608   3.438  19.848
 4042TIP3    H236322   2.578   3.530  19.964
 4043TIP3   OH236323   2.936   2.133  19.767
 4043TIP3    H136324   2.874   2.063  19.797
 4043TIP3    H236325   3.018   2.080  19.769
 4044TIP3   OH236326   3.478   1.932  19.766
 4044TIP3    H136327   3.529   1.979  19.695
 4044TIP3    H236328   3.386   1.962  19.748
 4045TIP3   OH236329   3.638   2.023  19.565
 4045TIP3    H136330   3.707   1.971  19.518
 4045TIP3    H236331   3.689   2.106  19.585
 4046TIP3   OH236332   2.169   1.921  19.519
 4046TIP3    H136333   2.086   1.898  19.471
 4046TIP3    H236334   2.215   1.834  19.516
 4047TIP3   OH236335   2.060   1.930  19.131
 4047TIP3    H136336   2.086   1.996  19.065
 4047TIP3    H236337   2.003   1.984  19.190
 4048TIP3   OH236338   2.611   1.894  19.542
 4048TIP3    H136339   2.690   1.927  19.499
 4048TIP3    H236340   2.636   1.894  19.636
 4049TIP3   OH236341   3.223   1.964  19.682
 4049TIP3    H136342   3.190   1.986  19.594
 4049TIP3    H236343   3.183   1.876  19.699
 4050TIP3   OH236344   3.344   1.939  19.294
 4050TIP3    H136345   3.263   1.994  19.289
 4050TIP3    H236346   3.306   1.855  19.325
 4051TIP3   OH236347   2.058   3.523  19.223
 4051TIP3    H136348   1.961   3.533  19.215
 4051TIP3    H236349   2.082   3.610  19.186
 4052TIP3   OH236350   2.187   2.135  18.959
 4052TIP3    H136351   2.239   2.074  18.903
 4052TIP3    H236352   2.238   2.128  19.041
 4053TIP3   OH236353   2.735   2.177  19.189
 4053TIP3    H136354   2.770   2.102  19.239
 4053TIP3    H236355   2.767   2.251  19.243
 4054TIP3   OH236356   2.957   3.666  19.071
 4054TIP3    H136357   3.050   3.676  19.041
 4054TIP3    H236358   2.925   3.613  18.994
 4055TIP3   OH236359   3.573   3.564  19.352
 4055TIP3    H136360   3.566   3.492  19.285
 4055TIP3    H236361   3.572   3.643  19.294
 4056TIP3   OH236362   2.166   3.579  18.914
 4056TIP3    H136363   2.153   3.635  18.992
 4056TIP3    H236364   2.255   3.542  18.930
 4057TIP3   OH236365   4.998   2.891  19.513
 4057TIP3    H136366   4.972   2.985  19.493
 4057TIP3    H236367   4.912   2.856  19.543
 4058TIP3   OH236368   4.847   2.837  19.969
 4058TIP3    H136369   4.842   2.748  20.008
 4058TIP3    H236370   4.798   2.825  19.885
 4059TIP3   OH236371   5.177   3.076  19.697
 4059TIP3    H136372   5.138   3.005  19.750
 4059TIP3    H236373   5.215   3.135  19.766
 4060TIP3   OH236374   4.190   3.220  19.883
 4060TIP3    H136375   4.170   3.128  19.860
 4060TIP3    H236376   4.286   3.224  19.867
 4061TIP3   OH236377   3.866   2.525  19.443
 4061TIP3    H136378   3.841   2.613  19.475
 4061TIP3    H236379   3.779   2.490  19.417
 4062TIP3   OH236380   3.930   2.780  19.649
 4062TIP3    H136381   3.979   2.709  19.696
 4062TIP3    H236382   3.991   2.856  19.656
 4063TIP3   OH236383   4.916   3.631  19.775
 4063TIP3    H136384   4.974   3.583  19.713
 4063TIP3    H236385   4.892   3.552  19.827
 4064TIP3   OH236386   4.730   3.097  19.957
 4064TIP3    H136387   4.728   3.052  19.871
 4064TIP3    H236388   4.792   3.037  20.003
 4065TIP3   OH236389   5.051   2.487  19.955
 4065TIP3    H136390   5.045   2.390  19.958
 4065TIP3    H236391   5.028   2.504  19.861
 4066TIP3   OH236392   4.351   2.269  19.687
 4066TIP3    H136393   4.372   2.348  19.632
 4066TIP3    H236394   4.305   2.213  19.621
 4067TIP3   OH236395   5.063   2.315  19.520
 4067TIP3    H136396   5.106   2.263  19.593
 4067TIP3    H236397   5.136   2.375  19.501
 4068TIP3   OH236398   3.987   2.506  19.744
 4068TIP3    H136399   4.045   2.440  19.784
 4068TIP3    H236400   3.994   2.479  19.650
 4069TIP3   OH236401   4.412   2.690  19.695
 4069TIP3    H136402   4.507   2.713  19.704
 4069TIP3    H236403   4.416   2.609  19.639
 4070TIP3   OH236404   4.904   3.128  19.436
 4070TIP3    H136405   4.901   3.119  19.338
 4070TIP3    H236406   4.893   3.225  19.446
 4071TIP3   OH236407   5.235   2.249  19.704
 4071TIP3    H136408   5.175   2.238  19.782
 4071TIP3    H236409   5.321   2.230  19.743
 4072TIP3   OH236410   4.183   2.372  19.875
 4072TIP3    H136411   4.208   2.465  19.867
 4072TIP3    H236412   4.231   2.331  19.800
 4073TIP3   OH236413   3.916   3.086  19.245
 4073TIP3    H136414   3.912   3.141  19.164
 4073TIP3    H236415   3.919   3.154  19.315
 4074TIP3   OH236416   5.295   3.230  19.876
 4074TIP3    H136417   5.253   3.181  19.951
 4074TIP3    H236418   5.334   3.304  19.923
 4075TIP3   OH236419   4.594   1.924  19.813
 4075TIP3    H136420   4.600   1.827  19.817
 4075TIP3    H236421   4.502   1.942  19.844
 4076TIP3   OH236422   5.066   3.490  19.609
 4076TIP3    H136423   5.106   3.401  19.598
 4076TIP3    H236424   5.144   3.544  19.581
 4077TIP3   OH236425   5.229   3.271  19.500
 4077TIP3    H136426   5.211   3.211  19.425
 4077TIP3    H236427   5.217   3.208  19.574
 4078TIP3   OH236428   4.817   2.776  19.249
 4078TIP3    H136429   4.784   2.866  19.270
 4078TIP3    H236430   4.901   2.797  19.202
 4079TIP3   OH236431   4.901   2.629  18.952
 4079TIP3    H136432   4.940   2.678  19.026
 4079TIP3    H236433   4.932   2.539  18.969
 4080TIP3   OH236434   5.210   2.775  19.381
 4080TIP3    H136435   5.138   2.814  19.438
 4080TIP3    H236436   5.282   2.764  19.445
 4081TIP3   OH236437   4.322   2.894  19.570
 4081TIP3    H136438   4.310   2.845  19.487
 4081TIP3    H236439   4.360   2.823  19.627
 4082TIP3   OH236440   4.470   3.235  19.839
 4082TIP3    H136441   4.461   3.200  19.748
 4082TIP3    H236442   4.549   3.187  19.870
 4083TIP3   OH236443   4.296   2.727  19.935
 4083TIP3    H136444   4.331   2.722  19.843
 4083TIP3    H236445   4.374   2.757  19.983
 4084TIP3   OH236446   5.075   2.758  19.145
 4084TIP3    H136447   5.136   2.764  19.223
 4084TIP3    H236448   5.128   2.804  19.075
 4085TIP3   OH236449   4.852   3.393  19.450
 4085TIP3    H136450   4.904   3.430  19.524
 4085TIP3    H236451   4.794   3.467  19.426
 4086TIP3   OH236452   5.461   1.886  19.182
 4086TIP3    H136453   5.369   1.900  19.214
 4086TIP3    H236454   5.491   1.977  19.161
 4087TIP3   OH236455   4.223   2.755  19.334
 4087TIP3    H136456   4.201   2.840  19.289
 4087TIP3    H236457   4.163   2.694  19.291
 4088TIP3   OH236458   5.557   3.323  19.002
 4088TIP3    H136459   5.587   3.416  19.014
 4088TIP3    H236460   5.644   3.278  19.007
 4089TIP3   OH236461   3.850   3.343  19.844
 4089TIP3    H136462   3.923   3.295  19.887
 4089TIP3    H236463   3.801   3.379  19.920
 4090TIP3   OH236464   4.804   3.670  19.342
 4090TIP3    H136465   4.808   3.675  19.244
 4090TIP3    H236466   4.787   3.765  19.364
 4091TIP3   OH236467   4.150   3.560  19.507
 4091TIP3    H136468   4.169   3.542  19.601
 4091TIP3    H236469   4.062   3.517  19.498
 4092TIP3   OH236470   5.097   3.605  19.022
 4092TIP3    H136471   5.158   3.533  18.993
 4092TIP3    H236472   5.098   3.595  19.120
 4093TIP3   OH236473   5.063   3.605  19.291
 4093TIP3    H136474   4.969   3.626  19.311
 4093TIP3    H236475   5.080   3.537  19.358
 4094TIP3   OH236476   4.335   2.021  19.894
 4094TIP3    H136477   4.253   2.033  19.840
 4094TIP3    H236478   4.356   2.113  19.919
 4095TIP3   OH236479   5.235   2.883  18.975
 4095TIP3    H136480   5.220   2.891  18.878
 4095TIP3    H236481   5.332   2.888  18.977
 4096TIP3   OH236482   4.787   2.237  18.974
 4096TIP3    H136483   4.750   2.235  19.063
 4096TIP3    H236484   4.745   2.154  18.941
 4097TIP3   OH236485   4.350   2.482  19.537
 4097TIP3    H136486   4.256   2.463  19.520
 4097TIP3    H236487   4.389   2.481  19.447
 4098TIP3   OH236488   4.920   2.579  19.388
 4098TIP3    H136489   4.879   2.654  19.338
 4098TIP3    H236490   4.978   2.543  19.320
 4099TIP3   OH236491   4.997   2.540  19.686
 4099TIP3    H136492   4.959   2.608  19.627
 4099TIP3    H236493   5.008   2.467  19.623
 4100TIP3   OH236494   4.418   2.236  18.869
 4100TIP3    H136495   4.380   2.215  18.958
 4100TIP3    H236496   4.361   2.308  18.837
 4101TIP3   OH236497   3.776   2.247  19.618
 4101TIP3    H136498   3.840   2.250  19.692
 4101TIP3    H236499   3.830   2.277  19.544
 4102TIP3   OH236500   3.894   2.300  19.125
 4102TIP3    H136501   3.947   2.340  19.055
 4102TIP3    H236502   3.826   2.370  19.136
 4103TIP3   OH236503   4.659   2.232  19.572
 4103TIP3    H136504   4.580   2.245  19.627
 4103TIP3    H236505   4.728   2.211  19.638
 4104TIP3   OH236506   4.071   2.381  19.530
 4104TIP3    H136507   4.008   2.420  19.465
 4104TIP3    H236508   4.100   2.298  19.485
 4105TIP3   OH236509   4.457   2.437  19.297
 4105TIP3    H136510   4.554   2.450  19.304
 4105TIP3    H236511   4.429   2.503  19.232
 4106TIP3   OH236512   5.063   2.227  19.905
 4106TIP3    H136513   5.057   2.200  19.999
 4106TIP3    H236514   4.975   2.203  19.873
 4107TIP3   OH236515   4.281   2.560  19.005
 4107TIP3    H136516   4.277   2.522  18.915
 4107TIP3    H236517   4.379   2.556  19.014
 4108TIP3   OH236518   4.703   2.491  19.845
 4108TIP3    H136519   4.734   2.564  19.787
 4108TIP3    H236520   4.785   2.450  19.876
 4109TIP3   OH236521   4.181   2.163  19.452
 4109TIP3    H136522   4.130   2.090  19.495
 4109TIP3    H236523   4.235   2.114  19.390
 4110TIP3   OH236524   4.663   2.997  19.242
 4110TIP3    H136525   4.589   2.952  19.197
 4110TIP3    H236526   4.616   3.036  19.321
 4111TIP3   OH236527   5.036   2.263  19.068
 4111TIP3    H136528   4.954   2.276  19.017
 4111TIP3    H236529   5.059   2.357  19.088
 4112TIP3   OH236530   5.098   2.492  19.173
 4112TIP3    H136531   5.163   2.467  19.241
 4112TIP3    H236532   5.130   2.582  19.153
 4113TIP3   OH236533   4.155   2.957  19.781
 4113TIP3    H136534   4.210   2.956  19.699
 4113TIP3    H236535   4.222   2.932  19.848
 4114TIP3   OH236536   4.863   3.149  19.171
 4114TIP3    H136537   4.814   3.235  19.185
 4114TIP3    H236538   4.790   3.084  19.179
 4115TIP3   OH236539   5.571   2.478  19.184
 4115TIP3    H136540   5.529   2.470  19.095
 4115TIP3    H236541   5.604   2.570  19.180
 4116TIP3   OH236542   5.403   3.374  19.218
 4116TIP3    H136543   5.387   3.303  19.281
 4116TIP3    H236544   5.445   3.328  19.142
 4117TIP3   OH236545   5.141   2.844  19.879
 4117TIP3    H136546   5.045   2.827  19.887
 4117TIP3    H236547   5.165   2.790  19.801
 4118TIP3   OH236548   4.374   3.288  19.577
 4118TIP3    H136549   4.428   3.369  19.576
 4118TIP3    H236550   4.310   3.309  19.508
 4119TIP3   OH236551   4.033   2.821  19.006
 4119TIP3    H136552   4.074   2.846  19.091
 4119TIP3    H236553   3.940   2.807  19.030
 4120TIP3   OH236554   4.535   3.089  19.453
 4120TIP3    H136555   4.474   3.143  19.506
 4120TIP3    H236556   4.566   3.023  19.516
 4121TIP3   OH236557   4.416   3.541  19.429
 4121TIP3    H136558   4.319   3.544  19.445
 4121TIP3    H236559   4.444   3.626  19.469
 4122TIP3   OH236560   5.190   3.182  19.017
 4122TIP3    H136561   5.206   3.149  19.108
 4122TIP3    H236562   5.096   3.159  19.007
 4123TIP3   OH236563   5.612   3.596  19.045
 4123TIP3    H136564   5.650   3.659  18.984
 4123TIP3    H236565   5.537   3.646  19.085
 4124TIP3   OH236566   5.265   3.042  19.248
 4124TIP3    H136567   5.238   2.952  19.271
 4124TIP3    H236568   5.362   3.030  19.231
 4125TIP3   OH236569   4.580   3.338  18.866
 4125TIP3    H136570   4.588   3.266  18.800
 4125TIP3    H236571   4.523   3.294  18.931
 4126TIP3   OH236572   4.452   3.231  19.107
 4126TIP3    H136573   4.528   3.187  19.149
 4126TIP3    H236574   4.464   3.323  19.139
 4127TIP3   OH236575   4.164   2.978  19.181
 4127TIP3    H136576   4.080   3.008  19.220
 4127TIP3    H236577   4.190   3.058  19.130
 4128TIP3   OH236578   4.986   2.160  19.315
 4128TIP3    H136579   5.012   2.195  19.228
 4128TIP3    H236580   5.020   2.228  19.376
 4129TIP3   OH236581   4.742   3.388  19.180
 4129TIP3    H136582   4.666   3.439  19.215
 4129TIP3    H236583   4.804   3.456  19.152
 4130TIP3   OH236584   4.732   2.378  19.355
 4130TIP3    H136585   4.788   2.455  19.378
 4130TIP3    H236586   4.722   2.332  19.441
 4131TIP3   OH236587   4.770   2.044  19.426
 4131TIP3    H136588   4.730   2.108  19.489
 4131TIP3    H236589   4.847   2.097  19.392
 4132TIP3   OH236590   4.483   3.485  19.167
 4132TIP3    H136591   4.494   3.561  19.105
 4132TIP3    H236592   4.442   3.531  19.243
 4133TIP3   OH236593   4.345   2.176  19.125
 4133TIP3    H136594   4.348   2.248  19.190
 4133TIP3    H236595   4.429   2.130  19.143
 4134TIP3   OH236596   5.263   2.655  19.724
 4134TIP3    H136597   5.180   2.609  19.746
 4134TIP3    H236598   5.325   2.610  19.788
 4135TIP3   OH236599   4.179   3.205  19.016
 4135TIP3    H136600   4.251   3.253  19.062
 4135TIP3    H236601   4.235   3.144  18.961
 4136TIP3   OH236602   3.986   2.508  18.946
 4136TIP3    H136603   4.055   2.567  18.982
 4136TIP3    H236604   3.921   2.570  18.909
 4137TIP3   OH236605   5.369   3.587  19.941
 4137TIP3    H136606   5.378   3.662  19.879
 4137TIP3    H236607   5.451   3.588  19.990
 4138TIP3   OH236608   4.099   2.000  19.782
 4138TIP3    H136609   4.083   1.964  19.691
 4138TIP3    H236610   4.089   1.916  19.833
 4139TIP3   OH236611   3.961   3.348  19.435
 4139TIP3    H136612   3.885   3.404  19.454
 4139TIP3    H236613   3.996   3.394  19.357
 4140TIP3   OH236614   4.795   3.515  18.865
 4140TIP3    H136615   4.734   3.439  18.879
 4140TIP3    H236616   4.874   3.471  18.829
 4141TIP3   OH236617   5.239   3.426  18.873
 4141TIP3    H136618   5.247   3.341  18.922
 4141TIP3    H236619   5.321   3.427  18.820
 4142TIP3   OH236620   4.356   3.042  18.879
 4142TIP3    H136621   4.398   2.995  18.953
 4142TIP3    H236622   4.435   3.062  18.824
 4143TIP3   OH236623   4.880   3.195  18.841
 4143TIP3    H136624   4.847   3.170  18.929
 4143TIP3    H236625   4.890   3.105  18.805
 4144TIP3   OH236626   4.470   2.859  19.113
 4144TIP3    H136627   4.392   2.807  19.137
 4144TIP3    H236628   4.526   2.795  19.065
 4145TIP3   OH236629   4.538   2.562  18.963
 4145TIP3    H136630   4.524   2.626  18.889
 4145TIP3    H236631   4.635   2.560  18.964
 4146TIP3   OH236632   5.496   2.888  18.867
 4146TIP3    H136633   5.488   2.854  18.776
 4146TIP3    H236634   5.492   2.986  18.850
 4147TIP3   OH236635   4.542   3.719  19.054
 4147TIP3    H136636   4.636   3.718  19.076
 4147TIP3    H236637   4.543   3.788  18.984
 4148TIP3   OH236638   3.914   3.183  18.989
 4148TIP3    H136639   4.012   3.196  19.000
 4148TIP3    H236640   3.916   3.103  18.934
 4149TIP3   OH236641   3.788   3.687  19.450
 4149TIP3    H136642   3.703   3.640  19.435
 4149TIP3    H236643   3.815   3.647  19.536
 4150TIP3   OH236644   3.869   3.535  19.660
 4150TIP3    H136645   3.847   3.451  19.707
 4150TIP3    H236646   3.921   3.581  19.729
 4151TIP3   OH236647   5.540   2.993  19.235
 4151TIP3    H136648   5.623   3.042  19.251
 4151TIP3    H236649   5.541   2.929  19.310
 4152TIP3   OH236650   5.583   2.827  19.457
 4152TIP3    H136651   5.514   2.763  19.483
 4152TIP3    H236652   5.650   2.816  19.527
 4153TIP3   OH236653   5.607   3.094  19.941
 4153TIP3    H136654   5.670   3.027  19.906
 4153TIP3    H236655   5.589   3.154  19.867
 4154TIP3   OH236656   5.612   2.754  19.093
 4154TIP3    H136657   5.551   2.763  19.017
 4154TIP3    H236658   5.596   2.842  19.135
 4155TIP3   OH236659   5.465   2.493  18.916
 4155TIP3    H136660   5.485   2.554  18.844
 4155TIP3    H236661   5.431   2.414  18.872
 4156TIP3   OH236662   5.424   2.610  19.503
 4156TIP3    H136663   5.377   2.537  19.457
 4156TIP3    H236664   5.369   2.621  19.583
 4157TIP3   OH236665   3.883   2.876  19.894
 4157TIP3    H136666   3.902   2.835  19.807
 4157TIP3    H236667   3.956   2.844  19.949
 4158TIP3   OH236668   5.389   2.235  18.837
 4158TIP3    H136669   5.419   2.195  18.920
 4158TIP3    H236670   5.299   2.196  18.825
 4159TIP3   OH236671   5.328   2.418  19.340
 4159TIP3    H136672   5.344   2.324  19.364
 4159TIP3    H236673   5.410   2.435  19.290
 4160TIP3   OH236674   5.403   2.478  19.862
 4160TIP3    H136675   5.501   2.469  19.866
 4160TIP3    H236676   5.381   2.386  19.890
 4161TIP3   OH236677   5.396   2.149  19.367
 4161TIP3    H136678   5.431   2.105  19.447
 4161TIP3    H236679   5.341   2.075  19.333
 4162TIP3   OH236680   3.940   2.213  19.856
 4162TIP3    H136681   3.982   2.127  19.833
 4162TIP3    H236682   4.014   2.260  19.899
 4163TIP3   OH236683   3.785   2.495  19.946
 4163TIP3    H136684   3.837   2.459  19.871
 4163TIP3    H236685   3.823   2.584  19.951
 4164TIP3   OH236686   5.565   2.127  19.042
 4164TIP3    H136687   5.604   2.080  18.965
 4164TIP3    H236688   5.645   2.172  19.074
 4165TIP3   OH236689   3.799   2.130  19.312
 4165TIP3    H136690   3.708   2.160  19.319
 4165TIP3    H236691   3.834   2.190  19.243
 4166TIP3   OH236692   5.273   3.641  19.528
 4166TIP3    H136693   5.352   3.612  19.477
 4166TIP3    H236694   5.310   3.700  19.595
 4167TIP3   OH236695   4.026   3.639  19.871
 4167TIP3    H136696   4.050   3.653  19.965
 4167TIP3    H236697   4.105   3.589  19.839
 4168TIP3   OH236698   4.228   3.498  19.762
 4168TIP3    H136699   4.222   3.401  19.773
 4168TIP3    H236700   4.320   3.515  19.793
 4169TIP3   OH236701   4.472   3.529  19.857
 4169TIP3    H136702   4.489   3.433  19.854
 4169TIP3    H236703   4.473   3.547  19.951
 4170TIP3   OH236704   4.838   2.115  19.763
 4170TIP3    H136705   4.763   2.063  19.798
 4170TIP3    H236706   4.910   2.051  19.780
 4171TIP3   OH236707   5.349   1.927  19.764
 4171TIP3    H136708   5.406   1.973  19.697
 4171TIP3    H236709   5.262   1.969  19.751
 4172TIP3   OH236710   5.516   2.019  19.571
 4172TIP3    H136711   5.583   1.963  19.525
 4172TIP3    H236712   5.568   2.101  19.590
 4173TIP3   OH236713   4.061   1.929  19.527
 4173TIP3    H136714   3.977   1.916  19.477
 4173TIP3    H236715   4.099   1.838  19.522
 4174TIP3   OH236716   3.961   1.937  19.140
 4174TIP3    H136717   3.991   1.997  19.070
 4174TIP3    H236718   3.897   1.993  19.188
 4175TIP3   OH236719   4.502   1.889  19.557
 4175TIP3    H136720   4.570   1.930  19.503
 4175TIP3    H236721   4.534   1.906  19.648
 4176TIP3   OH236722   5.082   1.975  19.669
 4176TIP3    H136723   5.066   1.985  19.574
 4176TIP3    H236724   5.041   1.888  19.689
 4177TIP3   OH236725   5.233   1.941  19.303
 4177TIP3    H136726   5.166   1.976  19.243
 4177TIP3    H236727   5.190   1.857  19.332
 4178TIP3   OH236728   3.948   3.536  19.237
 4178TIP3    H136729   3.852   3.549  19.229
 4178TIP3    H236730   3.978   3.620  19.196
 4179TIP3   OH236731   4.082   2.151  18.971
 4179TIP3    H136732   4.144   2.088  18.928
 4179TIP3    H236733   4.138   2.190  19.040
 4180TIP3   OH236734   4.634   2.151  19.199
 4180TIP3    H136735   4.668   2.096  19.272
 4180TIP3    H236736   4.645   2.239  19.240
 4181TIP3   OH236737   4.841   3.665  19.075
 4181TIP3    H136738   4.935   3.668  19.049
 4181TIP3    H236739   4.806   3.619  18.995
 4182TIP3   OH236740   5.485   3.577  19.358
 4182TIP3    H136741   5.455   3.502  19.302
 4182TIP3    H236742   5.473   3.653  19.296
 4183TIP3   OH236743   4.046   3.607  18.918
 4183TIP3    H136744   4.034   3.653  19.003
 4183TIP3    H236745   4.132   3.564  18.935
 4184TIP3   OH236746   6.873   2.866  19.535
 4184TIP3    H136747   6.852   2.963  19.538
 4184TIP3    H236748   6.795   2.836  19.486
 4185TIP3   OH236749   6.738   2.798  19.870
 4185TIP3    H136750   6.741   2.756  19.959
 4185TIP3    H236751   6.667   2.746  19.827
 4186TIP3   OH236752   7.056   3.056  19.692
 4186TIP3    H136753   7.008   3.007  19.762
 4186TIP3    H236754   7.097   3.126  19.750
 4187TIP3   OH236755   6.075   3.234  19.881
 4187TIP3    H136756   6.007   3.167  19.898
 4187TIP3    H236757   6.154   3.196  19.923
 4188TIP3   OH236758   5.769   2.539  19.428
 4188TIP3    H136759   5.727   2.626  19.429
 4188TIP3    H236760   5.691   2.485  19.410
 4189TIP3   OH236761   5.803   2.772  19.646
 4189TIP3    H136762   5.810   2.675  19.660
 4189TIP3    H236763   5.846   2.786  19.560
 4190TIP3   OH236764   6.814   3.616  19.737
 4190TIP3    H136765   6.892   3.566  19.701
 4190TIP3    H236766   6.771   3.544  19.784
 4191TIP3   OH236767   6.637   3.068  19.987
 4191TIP3    H136768   6.670   3.000  19.927
 4191TIP3    H236769   6.700   3.059  20.060
 4192TIP3   OH236770   6.872   2.480  19.959
 4192TIP3    H136771   6.873   2.403  20.018
 4192TIP3    H236772   6.834   2.445  19.877
 4193TIP3   OH236773   6.239   2.270  19.688
 4193TIP3    H136774   6.258   2.351  19.636
 4193TIP3    H236775   6.194   2.215  19.622
 4194TIP3   OH236776   6.964   2.314  19.513
 4194TIP3    H136777   7.009   2.266  19.587
 4194TIP3    H236778   7.035   2.374  19.486
 4195TIP3   OH236779   5.847   2.491  19.740
 4195TIP3    H136780   5.918   2.461  19.799
 4195TIP3    H236781   5.882   2.460  19.653
 4196TIP3   OH236782   6.369   2.679  19.698
 4196TIP3    H136783   6.447   2.628  19.728
 4196TIP3    H236784   6.326   2.611  19.641
 4197TIP3   OH236785   6.802   3.106  19.421
 4197TIP3    H136786   6.766   3.112  19.330
 4197TIP3    H236787   6.782   3.198  19.453
 4198TIP3   OH236788   7.110   2.242  19.726
 4198TIP3    H136789   7.102   2.202  19.813
 4198TIP3    H236790   7.206   2.237  19.714
 4199TIP3   OH236791   6.068   2.375  19.874
 4199TIP3    H136792   6.099   2.466  19.867
 4199TIP3    H236793   6.116   2.332  19.800
 4200TIP3   OH236794   5.805   3.089  19.243
 4200TIP3    H136795   5.792   3.139  19.158
 4200TIP3    H236796   5.813   3.160  19.310
 4201TIP3   OH236797   7.175   3.209  19.880
 4201TIP3    H136798   7.137   3.176  19.964
 4201TIP3    H236799   7.188   3.302  19.904
 4202TIP3   OH236800   6.499   1.925  19.799
 4202TIP3    H136801   6.498   1.827  19.797
 4202TIP3    H236802   6.413   1.947  19.841
 4203TIP3   OH236803   6.975   3.455  19.605
 4203TIP3    H136804   7.000   3.371  19.561
 4203TIP3    H236805   7.055   3.509  19.585
 4204TIP3   OH236806   7.114   3.255  19.471
 4204TIP3    H136807   7.096   3.189  19.402
 4204TIP3    H236808   7.134   3.199  19.548
 4205TIP3   OH236809   6.719   2.801  19.268
 4205TIP3    H136810   6.667   2.882  19.254
 4205TIP3    H236811   6.804   2.826  19.224
 4206TIP3   OH236812   6.746   2.688  18.981
 4206TIP3    H136813   6.811   2.734  19.038
 4206TIP3    H236814   6.764   2.596  19.004
 4207TIP3   OH236815   7.103   2.833  19.385
 4207TIP3    H136816   7.009   2.823  19.415
 4207TIP3    H236817   7.144   2.747  19.404
 4208TIP3   OH236818   6.225   2.906  19.580
 4208TIP3    H136819   6.186   2.857  19.505
 4208TIP3    H236820   6.255   2.832  19.637
 4209TIP3   OH236821   6.375   3.222  19.828
 4209TIP3    H136822   6.438   3.221  19.754
 4209TIP3    H236823   6.436   3.202  19.901
 4210TIP3   OH236824   6.195   2.745  19.912
 4210TIP3    H136825   6.263   2.715  19.849
 4210TIP3    H236826   6.243   2.743  19.997
 4211TIP3   OH236827   6.959   2.770  19.156
 4211TIP3    H136828   7.021   2.807  19.221
 4211TIP3    H236829   7.002   2.801  19.071
 4212TIP3   OH236830   6.730   3.366  19.457
 4212TIP3    H136831   6.775   3.404  19.534
 4212TIP3    H236832   6.679   3.442  19.423
 4213TIP3   OH236833   7.323   1.903  19.126
 4213TIP3    H136834   7.228   1.913  19.149
 4213TIP3    H236835   7.358   1.993  19.133
 4214TIP3   OH236836   6.071   2.765  19.357
 4214TIP3    H136837   6.072   2.840  19.293
 4214TIP3    H236838   6.070   2.689  19.297
 4215TIP3   OH236839   7.447   3.358  18.980
 4215TIP3    H136840   7.481   3.449  18.995
 4215TIP3    H236841   7.533   3.312  18.982
 4216TIP3   OH236842   5.748   3.342  19.848
 4216TIP3    H136843   5.829   3.305  19.886
 4216TIP3    H236844   5.710   3.393  19.921
 4217TIP3   OH236845   6.677   3.673  19.334
 4217TIP3    H136846   6.672   3.690  19.238
 4217TIP3    H236847   6.674   3.766  19.368
 4218TIP3   OH236848   6.051   3.573  19.500
 4218TIP3    H136849   6.067   3.558  19.596
 4218TIP3    H236850   5.965   3.530  19.489
 4219TIP3   OH236851   6.971   3.616  19.034
 4219TIP3    H136852   7.022   3.542  18.993
 4219TIP3    H236853   6.986   3.603  19.130
 4220TIP3   OH236854   6.951   3.602  19.309
 4220TIP3    H136855   6.853   3.608  19.314
 4220TIP3    H236856   6.970   3.528  19.369
 4221TIP3   OH236857   6.231   2.027  19.874
 4221TIP3    H136858   6.157   2.015  19.810
 4221TIP3    H236859   6.197   2.107  19.915
 4222TIP3   OH236860   7.094   2.877  18.962
 4222TIP3    H136861   7.073   2.879  18.867
 4222TIP3    H236862   7.190   2.900  18.960
 4223TIP3   OH236863   6.682   2.230  18.974
 4223TIP3    H136864   6.667   2.200  19.065
 4223TIP3    H236865   6.611   2.178  18.933
 4224TIP3   OH236866   6.259   2.497  19.543
 4224TIP3    H136867   6.163   2.489  19.528
 4224TIP3    H236868   6.297   2.489  19.452
 4225TIP3   OH236869   6.829   2.594  19.384
 4225TIP3    H136870   6.781   2.661  19.328
 4225TIP3    H236871   6.882   2.549  19.314
 4226TIP3   OH236872   6.821   2.514  19.662
 4226TIP3    H136873   6.802   2.572  19.586
 4226TIP3    H236874   6.871   2.445  19.614
 4227TIP3   OH236875   6.315   2.276  18.919
 4227TIP3    H136876   6.259   2.225  18.981
 4227TIP3    H236877   6.249   2.326  18.867
 4228TIP3   OH236878   5.656   2.242  19.624
 4228TIP3    H136879   5.711   2.239  19.705
 4228TIP3    H236880   5.721   2.225  19.555
 4229TIP3   OH236881   5.764   2.298  19.140
 4229TIP3    H136882   5.823   2.340  19.074
 4229TIP3    H236883   5.701   2.372  19.152
 4230TIP3   OH236884   6.544   2.298  19.603
 4230TIP3    H136885   6.469   2.294  19.664
 4230TIP3    H236886   6.613   2.254  19.658
 4231TIP3   OH236887   5.976   2.401  19.525
 4231TIP3    H136888   5.908   2.435  19.462
 4231TIP3    H236889   5.994   2.311  19.489
 4232TIP3   OH236890   6.347   2.462  19.296
 4232TIP3    H136891   6.433   2.451  19.254
 4232TIP3    H236892   6.295   2.508  19.227
 4233TIP3   OH236893   6.902   2.116  19.941
 4233TIP3    H136894   6.903   2.173  20.020
 4233TIP3    H236895   6.853   2.173  19.880
 4234TIP3   OH236896   6.221   2.565  19.034
 4234TIP3    H136897   6.182   2.510  18.964
 4234TIP3    H236898   6.299   2.600  18.986
 4235TIP3   OH236899   6.611   2.565  19.816
 4235TIP3    H136900   6.670   2.551  19.739
 4235TIP3    H236901   6.648   2.497  19.874
 4236TIP3   OH236902   6.060   2.160  19.466
 4236TIP3    H136903   6.011   2.089  19.512
 4236TIP3    H236904   6.113   2.107  19.406
 4237TIP3   OH236905   6.555   3.020  19.226
 4237TIP3    H136906   6.477   2.973  19.190
 4237TIP3    H236907   6.517   3.049  19.312
 4238TIP3   OH236908   6.926   2.272  19.075
 4238TIP3    H136909   6.836   2.286  19.039
 4238TIP3    H236910   6.955   2.363  19.094
 4239TIP3   OH236911   6.999   2.496  19.194
 4239TIP3    H136912   7.087   2.481  19.233
 4239TIP3    H236913   7.016   2.563  19.125
 4240TIP3   OH236914   6.047   2.968  19.777
 4240TIP3    H136915   5.996   2.910  19.718
 4240TIP3    H236916   6.106   2.907  19.826
 4241TIP3   OH236917   6.758   3.159  19.125
 4241TIP3    H136918   6.721   3.246  19.153
 4241TIP3    H236919   6.686   3.098  19.153
 4242TIP3   OH236920   7.463   2.494  19.179
 4242TIP3    H136921   7.410   2.465  19.102
 4242TIP3    H236922   7.480   2.586  19.150
 4243TIP3   OH236923   7.309   3.371  19.220
 4243TIP3    H136924   7.249   3.297  19.239
 4243TIP3    H236925   7.356   3.345  19.137
 4244TIP3   OH236926   6.991   2.872  19.872
 4244TIP3    H136927   6.895   2.849  19.864
 4244TIP3    H236928   7.028   2.783  19.859
 4245TIP3   OH236929   6.266   3.298  19.568
 4245TIP3    H136930   6.330   3.366  19.594
 4245TIP3    H236931   6.226   3.346  19.493
 4246TIP3   OH236932   5.916   2.803  19.027
 4246TIP3    H136933   5.954   2.871  19.086
 4246TIP3    H236934   5.820   2.813  19.035
 4247TIP3   OH236935   6.419   3.073  19.443
 4247TIP3    H136936   6.372   3.146  19.488
 4247TIP3    H236937   6.401   2.994  19.496
 4248TIP3   OH236938   6.310   3.530  19.423
 4248TIP3    H136939   6.217   3.556  19.443
 4248TIP3    H236940   6.352   3.614  19.447
 4249TIP3   OH236941   7.082   3.208  19.016
 4249TIP3    H136942   7.099   3.156  19.098
 4249TIP3    H236943   6.996   3.169  18.994
 4250TIP3   OH236944   7.523   3.611  19.038
 4250TIP3    H136945   7.557   3.692  18.996
 4250TIP3    H236946   7.437   3.645  19.067
 4251TIP3   OH236947   7.184   3.051  19.225
 4251TIP3    H136948   7.165   2.966  19.270
 4251TIP3    H236949   7.282   3.042  19.213
 4252TIP3   OH236950   6.477   3.318  18.870
 4252TIP3    H136951   6.468   3.270  18.786
 4252TIP3    H236952   6.416   3.268  18.928
 4253TIP3   OH236953   6.342   3.232  19.102
 4253TIP3    H136954   6.417   3.193  19.150
 4253TIP3    H236955   6.356   3.327  19.126
 4254TIP3   OH236956   6.045   2.984  19.174
 4254TIP3    H136957   5.956   3.016  19.198
 4254TIP3    H236958   6.083   3.060  19.126
 4255TIP3   OH236959   6.867   2.164  19.311
 4255TIP3    H136960   6.898   2.212  19.232
 4255TIP3    H236961   6.897   2.225  19.383
 4256TIP3   OH236962   6.638   3.406  19.174
 4256TIP3    H136963   6.547   3.442  19.186
 4256TIP3    H236964   6.686   3.487  19.153
 4257TIP3   OH236965   6.619   2.355  19.347
 4257TIP3    H136966   6.652   2.444  19.369
 4257TIP3    H236967   6.579   2.327  19.432
 4258TIP3   OH236968   6.646   2.047  19.415
 4258TIP3    H136969   6.616   2.111  19.481
 4258TIP3    H236970   6.725   2.093  19.377
 4259TIP3   OH236971   6.381   3.479  19.167
 4259TIP3    H136972   6.387   3.555  19.104
 4259TIP3    H236973   6.337   3.522  19.243
 4260TIP3   OH236974   6.222   2.167  19.143
 4260TIP3    H136975   6.223   2.247  19.197
 4260TIP3    H236976   6.315   2.138  19.148
 4261TIP3   OH236977   7.047   2.648  19.758
 4261TIP3    H136978   6.981   2.580  19.780
 4261TIP3    H236979   7.130   2.602  19.786
 4262TIP3   OH236980   6.063   3.231  19.013
 4262TIP3    H136981   6.138   3.260  19.068
 4262TIP3    H236982   6.112   3.177  18.947
 4263TIP3   OH236983   5.884   2.500  18.985
 4263TIP3    H136984   5.928   2.582  19.012
 4263TIP3    H236985   5.826   2.531  18.914
 4264TIP3   OH236986   7.259   3.571  19.945
 4264TIP3    H136987   7.242   3.653  19.893
 4264TIP3    H236988   7.347   3.590  19.979
 4265TIP3   OH236989   5.993   2.001  19.769
 4265TIP3    H136990   5.978   1.961  19.681
 4265TIP3    H236991   5.979   1.922  19.825
 4266TIP3   OH236992   5.860   3.364  19.444
 4266TIP3    H136993   5.773   3.399  19.468
 4266TIP3    H236994   5.868   3.405  19.355
 4267TIP3   OH236995   6.685   3.505  18.874
 4267TIP3    H136996   6.631   3.424  18.887
 4267TIP3    H236997   6.765   3.469  18.830
 4268TIP3   OH236998   7.142   3.451  18.885
 4268TIP3    H136999   7.157   3.377  18.947
 4268TIP3    H237000   7.222   3.448  18.830
 4269TIP3   OH237001   6.220   3.045  18.859
 4269TIP3    H137002   6.258   3.008  18.940
 4269TIP3    H237003   6.295   3.033  18.797
 4270TIP3   OH237004   6.787   3.166  18.840
 4270TIP3    H137005   6.756   3.165  18.932
 4270TIP3    H237006   6.772   3.071  18.820
 4271TIP3   OH237007   6.356   2.846  19.123
 4271TIP3    H137008   6.287   2.788  19.160
 4271TIP3    H237009   6.396   2.787  19.056
 4272TIP3   OH237010   6.461   2.674  18.929
 4272TIP3    H137011   6.452   2.689  18.832
 4272TIP3    H237012   6.558   2.686  18.940
 4273TIP3   OH237013   7.358   2.886  18.882
 4273TIP3    H137014   7.334   2.872  18.788
 4273TIP3    H237015   7.377   2.982  18.884
 4274TIP3   OH237016   6.433   3.706  19.053
 4274TIP3    H137017   6.531   3.707  19.060
 4274TIP3    H237018   6.422   3.777  18.986
 4275TIP3   OH237019   5.787   3.191  19.001
 4275TIP3    H137020   5.885   3.206  18.999
 4275TIP3    H237021   5.777   3.128  18.925
 4276TIP3   OH237022   5.690   3.711  19.449
 4276TIP3    H137023   5.609   3.662  19.424
 4276TIP3    H237024   5.705   3.670  19.538
 4277TIP3   OH237025   5.732   3.577  19.678
 4277TIP3    H137026   5.694   3.493  19.708
 4277TIP3    H237027   5.797   3.593  19.750
 4278TIP3   OH237028   7.446   2.988  19.241
 4278TIP3    H137029   7.512   3.049  19.276
 4278TIP3    H237030   7.448   2.921  19.312
 4279TIP3   OH237031   7.467   2.837  19.470
 4279TIP3    H137032   7.388   2.795  19.506
 4279TIP3    H237033   7.530   2.819  19.541
 4280TIP3   OH237034   7.518   3.036  19.878
 4280TIP3    H137035   7.610   3.066  19.886
 4280TIP3    H237036   7.474   3.122  19.887
 4281TIP3   OH237037   7.480   2.765  19.105
 4281TIP3    H137038   7.437   2.788  19.020
 4281TIP3    H237039   7.486   2.855  19.142
 4282TIP3   OH237040   7.314   2.478  18.938
 4282TIP3    H137041   7.327   2.539  18.864
 4282TIP3    H237042   7.287   2.397  18.889
 4283TIP3   OH237043   7.231   2.626  19.514
 4283TIP3    H137044   7.228   2.567  19.435
 4283TIP3    H237045   7.278   2.565  19.573
 4284TIP3   OH237046   5.792   2.898  19.885
 4284TIP3    H137047   5.798   2.845  19.803
 4284TIP3    H237048   5.840   2.846  19.952
 4285TIP3   OH237049   7.255   2.230  18.842
 4285TIP3    H137050   7.249   2.197  18.932
 4285TIP3    H237051   7.167   2.202  18.808
 4286TIP3   OH237052   7.235   2.419  19.352
 4286TIP3    H137053   7.218   2.326  19.375
 4286TIP3    H237054   7.328   2.413  19.324
 4287TIP3   OH237055   7.254   2.501  19.822
 4287TIP3    H137056   7.354   2.505  19.825
 4287TIP3    H237057   7.235   2.441  19.895
 4288TIP3   OH237058   7.248   2.133  19.372
 4288TIP3    H137059   7.279   2.098  19.458
 4288TIP3    H237060   7.195   2.057  19.338
 4289TIP3   OH237061   5.829   2.208  19.847
 4289TIP3    H137062   5.874   2.121  19.835
 4289TIP3    H237063   5.902   2.261  19.885
 4290TIP3   OH237064   5.664   2.496  19.939
 4290TIP3    H137065   5.714   2.455  19.866
 4290TIP3    H237066   5.700   2.586  19.934
 4291TIP3   OH237067   7.477   2.128  19.047
 4291TIP3    H137068   7.492   2.071  18.969
 4291TIP3    H237069   7.515   2.213  19.017
 4292TIP3   OH237070   5.684   2.120  19.317
 4292TIP3    H137071   5.594   2.152  19.330
 4292TIP3    H237072   5.719   2.195  19.263
 4293TIP3   OH237073   7.175   3.630  19.556
 4293TIP3    H137074   7.233   3.608  19.480
 4293TIP3    H237075   7.234   3.683  19.612
 4294TIP3   OH237076   5.920   3.624  19.869
 4294TIP3    H137077   5.944   3.635  19.964
 4294TIP3    H237078   6.000   3.584  19.830
 4295TIP3   OH237079   6.120   3.491  19.752
 4295TIP3    H137080   6.124   3.401  19.787
 4295TIP3    H237081   6.200   3.529  19.795
 4296TIP3   OH237082   6.349   3.554  19.860
 4296TIP3    H137083   6.407   3.478  19.848
 4296TIP3    H237084   6.349   3.565  19.956
 4297TIP3   OH237085   6.687   2.146  19.769
 4297TIP3    H137086   6.631   2.071  19.798
 4297TIP3    H237087   6.768   2.095  19.751
 4298TIP3   OH237088   7.194   1.912  19.786
 4298TIP3    H137089   7.270   1.966  19.754
 4298TIP3    H237090   7.127   1.951  19.726
 4299TIP3   OH237091   7.358   2.038  19.617
 4299TIP3    H137092   7.424   1.982  19.570
 4299TIP3    H237093   7.403   2.126  19.617
 4300TIP3   OH237094   5.946   1.913  19.524
 4300TIP3    H137095   5.866   1.902  19.469
 4300TIP3    H237096   5.985   1.824  19.518
 4301TIP3   OH237097   5.850   1.925  19.150
 4301TIP3    H137098   5.869   1.986  19.077
 4301TIP3    H237099   5.782   1.972  19.200
 4302TIP3   OH237100   6.370   1.907  19.547
 4302TIP3    H137101   6.450   1.922  19.496
 4302TIP3    H237102   6.405   1.914  19.638
 4303TIP3   OH237103   6.939   1.980  19.635
 4303TIP3    H137104   6.925   1.981  19.539
 4303TIP3    H237105   6.914   1.889  19.661
 4304TIP3   OH237106   7.095   1.931  19.287
 4304TIP3    H137107   7.013   1.975  19.259
 4304TIP3    H237108   7.063   1.846  19.323
 4305TIP3   OH237109   5.822   3.522  19.232
 4305TIP3    H137110   5.729   3.550  19.234
 4305TIP3    H237111   5.860   3.601  19.189
 4306TIP3   OH237112   5.964   2.133  18.973
 4306TIP3    H137113   6.021   2.074  18.920
 4306TIP3    H237114   6.013   2.135  19.057
 4307TIP3   OH237115   6.532   2.140  19.181
 4307TIP3    H137116   6.562   2.085  19.255
 4307TIP3    H237117   6.541   2.229  19.222
 4308TIP3   OH237118   6.708   3.677  19.066
 4308TIP3    H137119   6.802   3.676  19.039
 4308TIP3    H237120   6.677   3.615  18.995
 4309TIP3   OH237121   7.342   3.601  19.346
 4309TIP3    H137122   7.340   3.518  19.292
 4309TIP3    H237123   7.341   3.668  19.274
 4310TIP3   OH237124   5.951   3.612  18.909
 4310TIP3    H137125   5.930   3.644  18.998
 4310TIP3    H237126   6.029   3.556  18.926
 4311TIP3   OH237127   7.550   2.573  19.442
 4311TIP3    H137128   7.526   2.663  19.414
 4311TIP3    H237129   7.529   2.521  19.363
 4312TIP3   OH237130   7.552   3.306  19.874
 4312TIP3    H137131   7.650   3.315  19.883
 4312TIP3    H237132   7.519   3.357  19.950
 4313TIP3   OH237133   7.502   2.261  19.576
 4313TIP3    H137134   7.597   2.278  19.597
 4313TIP3    H237135   7.511   2.211  19.491
 4314TIP3   OH237136   7.504   3.722  19.513
 4314TIP3    H137137   7.452   3.669  19.448
 4314TIP3    H237138   7.514   3.658  19.587
 4315TIP3   OH237139   7.553   3.571  19.730
 4315TIP3    H137140   7.508   3.488  19.748
 4315TIP3    H237141   7.648   3.544  19.721
 4316TIP3   OH237142   7.655   2.754  19.913
 4316TIP3    H137143   7.696   2.785  19.829
 4316TIP3    H237144   7.660   2.835  19.967
 4317TIP3   OH237145   7.501   2.542  19.896
 4317TIP3    H137146   7.574   2.485  19.867
 4317TIP3    H237147   7.554   2.622  19.920
 4318TIP3   OH237148   7.514   2.152  19.337
 4318TIP3    H137149   7.417   2.156  19.321
 4318TIP3    H237150   7.551   2.159  19.247
 4319TIP3   OH237151   1.217   4.768  19.522
 4319TIP3    H137152   1.215   4.863  19.544
 4319TIP3    H237153   1.130   4.757  19.482
 4320TIP3   OH237154   1.089   4.661  19.865
 4320TIP3    H137155   1.080   4.625  19.956
 4320TIP3    H237156   1.017   4.613  19.821
 4321TIP3   OH237157   1.393   4.954  19.701
 4321TIP3    H137158   1.365   4.878  19.757
 4321TIP3    H237159   1.427   5.017  19.770
 4322TIP3   OH237160   0.392   5.079  19.847
 4322TIP3    H137161   0.369   4.987  19.819
 4322TIP3    H237162   0.487   5.068  19.861
 4323TIP3   OH237163   0.122   4.401  19.367
 4323TIP3    H137164   0.127   4.481  19.420
 4323TIP3    H237165   0.033   4.374  19.395
 4324TIP3   OH237166   0.114   4.676  19.687
 4324TIP3    H137167   0.153   4.586  19.701
 4324TIP3    H237168   0.193   4.728  19.665
 4325TIP3   OH237169   1.157   5.517  19.749
 4325TIP3    H137170   1.219   5.464  19.694
 4325TIP3    H237171   1.117   5.444  19.798
 4326TIP3   OH237172   0.963   4.929  19.983
 4326TIP3    H137173   1.010   4.874  19.918
 4326TIP3    H237174   1.035   4.946  20.047
 4327TIP3   OH237175   1.232   4.373  19.969
 4327TIP3    H137176   1.262   4.280  19.974
 4327TIP3    H237177   1.229   4.386  19.872
 4328TIP3   OH237178   0.569   4.163  19.700
 4328TIP3    H137179   0.590   4.242  19.646
 4328TIP3    H237180   0.526   4.106  19.633
 4329TIP3   OH237181   1.293   4.202  19.524
 4329TIP3    H137182   1.348   4.161  19.595
 4329TIP3    H237183   1.362   4.258  19.483
 4330TIP3   OH237184   0.232   4.424  19.727
 4330TIP3    H137185   0.286   4.359  19.775
 4330TIP3    H237186   0.245   4.392  19.635
 4331TIP3   OH237187   0.693   4.560  19.703
 4331TIP3    H137188   0.770   4.512  19.738
 4331TIP3    H237189   0.655   4.489  19.646
 4332TIP3   OH237190   1.137   5.010  19.414
 4332TIP3    H137191   1.119   4.997  19.319
 4332TIP3    H237192   1.122   5.107  19.419
 4333TIP3   OH237193   1.475   4.132  19.696
 4333TIP3    H137194   1.415   4.108  19.771
 4333TIP3    H237195   1.561   4.110  19.733
 4334TIP3   OH237196   0.385   4.261  19.885
 4334TIP3    H137197   0.433   4.338  19.919
 4334TIP3    H237198   0.452   4.217  19.828
 4335TIP3   OH237199   0.122   4.979  19.257
 4335TIP3    H137200   0.097   5.033  19.179
 4335TIP3    H237201   0.146   5.048  19.323
 4336TIP3   OH237202   1.509   5.116  19.874
 4336TIP3    H137203   1.475   5.072  19.955
 4336TIP3    H237204   1.564   5.184  19.914
 4337TIP3   OH237205   0.853   3.833  19.811
 4337TIP3    H137206   0.874   3.739  19.811
 4337TIP3    H237207   0.759   3.836  19.841
 4338TIP3   OH237208   1.310   5.356  19.606
 4338TIP3    H137209   1.351   5.269  19.590
 4338TIP3    H237210   1.388   5.414  19.585
 4339TIP3   OH237211   1.449   5.142  19.494
 4339TIP3    H137212   1.426   5.070  19.433
 4339TIP3    H237213   1.453   5.090  19.577
 4340TIP3   OH237214   1.071   4.692  19.265
 4340TIP3    H137215   1.015   4.770  19.248
 4340TIP3    H237216   1.161   4.728  19.250
 4341TIP3   OH237217   1.086   4.565  18.965
 4341TIP3    H137218   1.129   4.597  19.047
 4341TIP3    H237219   1.118   4.473  18.962
 4342TIP3   OH237220   1.450   4.682  19.389
 4342TIP3    H137221   1.370   4.708  19.440
 4342TIP3    H237222   1.509   4.649  19.459
 4343TIP3   OH237223   0.579   4.750  19.554
 4343TIP3    H137224   0.535   4.696  19.485
 4343TIP3    H237225   0.634   4.684  19.601
 4344TIP3   OH237226   0.727   5.131  19.835
 4344TIP3    H137227   0.708   5.093  19.747
 4344TIP3    H237228   0.792   5.068  19.870
 4345TIP3   OH237229   0.553   4.644  19.912
 4345TIP3    H137230   0.602   4.630  19.828
 4345TIP3    H237231   0.623   4.674  19.971
 4346TIP3   OH237232   1.311   4.665  19.158
 4346TIP3    H137233   1.377   4.685  19.227
 4346TIP3    H237234   1.360   4.692  19.076
 4347TIP3   OH237235   1.082   5.266  19.439
 4347TIP3    H137236   1.149   5.288  19.505
 4347TIP3    H237237   1.029   5.346  19.433
 4348TIP3   OH237238   1.678   3.774  19.183
 4348TIP3    H137239   1.583   3.789  19.192
 4348TIP3    H237240   1.714   3.863  19.161
 4349TIP3   OH237241   0.473   4.633  19.313
 4349TIP3    H137242   0.424   4.711  19.280
 4349TIP3    H237243   0.418   4.558  19.287
 4350TIP3   OH237244   1.793   5.205  19.005
 4350TIP3    H137245   1.817   5.300  19.007
 4350TIP3    H237246   1.883   5.167  19.018
 4351TIP3   OH237247   0.131   5.218  19.880
 4351TIP3    H137248   0.200   5.150  19.876
 4351TIP3    H237249   0.169   5.274  19.950
 4352TIP3   OH237250   1.043   5.561  19.342
 4352TIP3    H137251   1.040   5.569  19.244
 4352TIP3    H237252   1.020   5.653  19.367
 4353TIP3   OH237253   0.413   5.444  19.514
 4353TIP3    H137254   0.425   5.412  19.606
 4353TIP3    H237255   0.317   5.447  19.502
 4354TIP3   OH237256   1.328   5.495  19.024
 4354TIP3    H137257   1.377   5.419  18.985
 4354TIP3    H237258   1.337   5.480  19.119
 4355TIP3   OH237259   1.302   5.497  19.299
 4355TIP3    H137260   1.207   5.509  19.322
 4355TIP3    H237261   1.326   5.423  19.357
 4356TIP3   OH237262   0.585   3.888  19.847
 4356TIP3    H137263   0.495   3.905  19.811
 4356TIP3    H237264   0.610   3.976  19.880
 4357TIP3   OH237265   1.462   4.759  18.968
 4357TIP3    H137266   1.440   4.775  18.874
 4357TIP3    H237267   1.559   4.770  18.966
 4358TIP3   OH237268   1.013   4.111  18.965
 4358TIP3    H137269   0.982   4.103  19.057
 4358TIP3    H237270   0.961   4.038  18.927
 4359TIP3   OH237271   0.592   4.376  19.544
 4359TIP3    H137272   0.498   4.352  19.526
 4359TIP3    H237273   0.626   4.370  19.450
 4360TIP3   OH237274   1.137   4.475  19.387
 4360TIP3    H137275   1.109   4.554  19.335
 4360TIP3    H237276   1.200   4.438  19.323
 4361TIP3   OH237277   1.217   4.420  19.697
 4361TIP3    H137278   1.199   4.494  19.636
 4361TIP3    H237279   1.231   4.348  19.633
 4362TIP3   OH237280   0.637   4.144  18.903
 4362TIP3    H137281   0.599   4.085  18.973
 4362TIP3    H237282   0.557   4.174  18.860
 4363TIP3   OH237283   0.071   4.123  19.620
 4363TIP3    H137284   0.109   4.137  19.709
 4363TIP3    H237285   0.116   4.042  19.592
 4364TIP3   OH237286   0.094   4.202  19.135
 4364TIP3    H137287   0.166   4.244  19.082
 4364TIP3    H237288   0.050   4.279  19.172
 4365TIP3   OH237289   0.865   4.172  19.620
 4365TIP3    H137290   0.782   4.157  19.668
 4365TIP3    H237291   0.928   4.116  19.671
 4366TIP3   OH237292   0.337   4.304  19.496
 4366TIP3    H137293   0.267   4.312  19.427
 4366TIP3    H237294   0.343   4.205  19.499
 4367TIP3   OH237295   0.661   4.333  19.291
 4367TIP3    H137296   0.756   4.331  19.270
 4367TIP3    H237297   0.624   4.387  19.219
 4368TIP3   OH237298   1.296   4.121  19.888
 4368TIP3    H137299   1.294   4.095  19.983
 4368TIP3    H237300   1.202   4.110  19.863
 4369TIP3   OH237301   0.567   4.462  19.032
 4369TIP3    H137302   0.521   4.400  18.974
 4369TIP3    H237303   0.650   4.479  18.981
 4370TIP3   OH237304   0.938   4.425  19.810
 4370TIP3    H137305   0.974   4.405  19.722
 4370TIP3    H237306   1.007   4.382  19.864
 4371TIP3   OH237307   0.404   4.052  19.493
 4371TIP3    H137308   0.347   3.976  19.519
 4371TIP3    H237309   0.449   4.008  19.418
 4372TIP3   OH237310   0.903   4.892  19.249
 4372TIP3    H137311   0.830   4.844  19.205
 4372TIP3    H237312   0.857   4.921  19.332
 4373TIP3   OH237313   1.257   4.160  19.069
 4373TIP3    H137314   1.174   4.167  19.017
 4373TIP3    H237315   1.277   4.255  19.087
 4374TIP3   OH237316   1.316   4.393  19.177
 4374TIP3    H137317   1.375   4.355  19.243
 4374TIP3    H237318   1.359   4.478  19.159
 4375TIP3   OH237319   0.406   4.832  19.765
 4375TIP3    H137320   0.459   4.818  19.684
 4375TIP3    H237321   0.457   4.784  19.833
 4376TIP3   OH237322   1.090   5.037  19.148
 4376TIP3    H137323   1.050   5.126  19.164
 4376TIP3    H237324   1.018   4.976  19.179
 4377TIP3   OH237325   1.810   4.365  19.181
 4377TIP3    H137326   1.757   4.361  19.098
 4377TIP3    H237327   1.835   4.459  19.182
 4378TIP3   OH237328   1.627   5.244  19.212
 4378TIP3    H137329   1.600   5.172  19.270
 4378TIP3    H237330   1.685   5.201  19.145
 4379TIP3   OH237331   1.357   4.730  19.881
 4379TIP3    H137332   1.264   4.700  19.869
 4379TIP3    H237333   1.408   4.663  19.830
 4380TIP3   OH237334   0.621   5.166  19.561
 4380TIP3    H137335   0.666   5.249  19.582
 4380TIP3    H237336   0.546   5.201  19.511
 4381TIP3   OH237337   0.231   4.688  19.026
 4381TIP3    H137338   0.271   4.767  19.066
 4381TIP3    H237339   0.139   4.690  19.057
 4382TIP3   OH237340   0.755   4.947  19.460
 4382TIP3    H137341   0.711   5.021  19.507
 4382TIP3    H237342   0.735   4.870  19.516
 4383TIP3   OH237343   0.661   5.418  19.429
 4383TIP3    H137344   0.567   5.435  19.451
 4383TIP3    H237345   0.699   5.501  19.466
 4384TIP3   OH237346   1.426   5.066  18.999
 4384TIP3    H137347   1.435   5.032  19.090
 4384TIP3    H237348   1.333   5.041  18.984
 4385TIP3   OH237349   1.844   5.493  19.046
 4385TIP3    H137350   1.908   5.561  19.019
 4385TIP3    H237351   1.777   5.548  19.091
 4386TIP3   OH237352   1.501   4.926  19.236
 4386TIP3    H137353   1.480   4.841  19.278
 4386TIP3    H237354   1.596   4.912  19.214
 4387TIP3   OH237355   0.833   5.200  18.863
 4387TIP3    H137356   0.830   5.139  18.787
 4387TIP3    H237357   0.779   5.151  18.928
 4388TIP3   OH237358   0.725   5.116  19.102
 4388TIP3    H137359   0.811   5.097  19.144
 4388TIP3    H237360   0.720   5.213  19.123
 4389TIP3   OH237361   0.361   4.880  19.181
 4389TIP3    H137362   0.275   4.899  19.227
 4389TIP3    H237363   0.349   4.933  19.100
 4390TIP3   OH237364   1.201   4.066  19.309
 4390TIP3    H137365   1.227   4.108  19.224
 4390TIP3    H237366   1.242   4.124  19.377
 4391TIP3   OH237367   0.972   5.277  19.158
 4391TIP3    H137368   0.897   5.329  19.196
 4391TIP3    H237369   1.038   5.347  19.150
 4392TIP3   OH237370   0.931   4.262  19.371
 4392TIP3    H137371   0.987   4.340  19.386
 4392TIP3    H237372   0.903   4.232  19.461
 4393TIP3   OH237373   0.990   3.944  19.418
 4393TIP3    H137374   0.966   3.998  19.495
 4393TIP3    H237375   1.067   3.995  19.382
 4394TIP3   OH237376   0.723   5.372  19.165
 4394TIP3    H137377   0.738   5.455  19.111
 4394TIP3    H237378   0.684   5.414  19.245
 4395TIP3   OH237379   0.566   4.051  19.149
 4395TIP3    H137380   0.558   4.132  19.201
 4395TIP3    H237381   0.662   4.035  19.152
 4396TIP3   OH237382   1.469   4.529  19.740
 4396TIP3    H137383   1.390   4.475  19.758
 4396TIP3    H237384   1.535   4.483  19.799
 4397TIP3   OH237385   0.404   5.123  19.014
 4397TIP3    H137386   0.439   5.212  18.993
 4397TIP3    H237387   0.423   5.075  18.930
 4398TIP3   OH237388   0.233   4.384  18.975
 4398TIP3    H137389   0.255   4.476  18.998
 4398TIP3    H237390   0.183   4.397  18.893
 4399TIP3   OH237391   1.582   5.480  19.943
 4399TIP3    H137392   1.598   5.553  19.880
 4399TIP3    H237393   1.666   5.474  19.989
 4400TIP3   OH237394   0.315   3.883  19.786
 4400TIP3    H137395   0.309   3.861  19.691
 4400TIP3    H237396   0.303   3.793  19.823
 4401TIP3   OH237397   0.214   5.198  19.388
 4401TIP3    H137398   0.140   5.229  19.440
 4401TIP3    H237399   0.243   5.281  19.347
 4402TIP3   OH237400   1.032   5.390  18.853
 4402TIP3    H137401   0.983   5.309  18.877
 4402TIP3    H237402   1.113   5.352  18.814
 4403TIP3   OH237403   1.473   5.317  18.870
 4403TIP3    H137404   1.486   5.238  18.926
 4403TIP3    H237405   1.553   5.316  18.815
 4404TIP3   OH237406   0.577   4.914  18.888
 4404TIP3    H137407   0.598   4.826  18.921
 4404TIP3    H237408   0.661   4.933  18.842
 4405TIP3   OH237409   1.137   5.042  18.866
 4405TIP3    H137410   1.096   5.037  18.954
 4405TIP3    H237411   1.129   4.948  18.838
 4406TIP3   OH237412   0.676   4.755  19.126
 4406TIP3    H137413   0.626   4.693  19.183
 4406TIP3    H237414   0.723   4.690  19.071
 4407TIP3   OH237415   0.803   4.565  18.918
 4407TIP3    H137416   0.801   4.600  18.827
 4407TIP3    H237417   0.899   4.562  18.938
 4408TIP3   OH237418   1.732   4.769  18.866
 4408TIP3    H137419   1.704   4.743  18.775
 4408TIP3    H237420   1.724   4.867  18.862
 4409TIP3   OH237421   0.775   5.610  19.067
 4409TIP3    H137422   0.872   5.611  19.074
 4409TIP3    H237423   0.762   5.678  18.998
 4410TIP3   OH237424   0.132   5.103  19.012
 4410TIP3    H137425   0.227   5.127  19.014
 4410TIP3    H237426   0.128   5.051  18.931
 4411TIP3   OH237427   0.089   5.594  19.485
 4411TIP3    H137428  -0.009   5.604  19.495
 4411TIP3    H237429   0.106   5.531  19.558
 4412TIP3   OH237430   0.128   5.413  19.691
 4412TIP3    H137431   0.124   5.327  19.740
 4412TIP3    H237432   0.184   5.463  19.754
 4413TIP3   OH237433   1.769   4.873  19.241
 4413TIP3    H137434   1.854   4.918  19.260
 4413TIP3    H237435   1.764   4.812  19.318
 4414TIP3   OH237436   1.803   4.699  19.458
 4414TIP3    H137437   1.736   4.648  19.509
 4414TIP3    H237438   1.881   4.699  19.518
 4415TIP3   OH237439   1.894   4.986  19.941
 4415TIP3    H137440   1.928   4.911  19.889
 4415TIP3    H237441   1.818   5.017  19.888
 4416TIP3   OH237442   1.858   4.655  19.085
 4416TIP3    H137443   1.794   4.665  19.010
 4416TIP3    H237444   1.832   4.731  19.141
 4417TIP3   OH237445   1.697   4.383  18.928
 4417TIP3    H137446   1.689   4.441  18.852
 4417TIP3    H237447   1.658   4.298  18.894
 4418TIP3   OH237448   1.617   4.504  19.526
 4418TIP3    H137449   1.571   4.430  19.483
 4418TIP3    H237450   1.567   4.512  19.611
 4419TIP3   OH237451   0.180   4.829  19.926
 4419TIP3    H137452   0.172   4.785  19.840
 4419TIP3    H237453   0.238   4.764  19.970
 4420TIP3   OH237454   1.603   4.137  18.869
 4420TIP3    H137455   1.646   4.081  18.937
 4420TIP3    H237456   1.521   4.089  18.847
 4421TIP3   OH237457   1.522   4.304  19.357
 4421TIP3    H137458   1.545   4.212  19.383
 4421TIP3    H237459   1.608   4.325  19.317
 4422TIP3   OH237460   1.636   4.375  19.869
 4422TIP3    H137461   1.734   4.369  19.879
 4422TIP3    H237462   1.615   4.281  19.890
 4423TIP3   OH237463   1.611   4.051  19.365
 4423TIP3    H137464   1.648   4.005  19.442
 4423TIP3    H237465   1.553   3.980  19.331
 4424TIP3   OH237466   0.153   4.100  19.870
 4424TIP3    H137467   0.194   4.012  19.860
 4424TIP3    H237468   0.223   4.148  19.918
 4425TIP3   OH237469   0.098   4.402  19.991
 4425TIP3    H137470   0.120   4.380  19.899
 4425TIP3    H237471   0.055   4.489  19.977
 4426TIP3   OH237472   1.799   4.011  19.040
 4426TIP3    H137473   1.840   3.961  18.965
 4426TIP3    H237474   1.862   4.084  19.051
 4427TIP3   OH237475   0.097   4.012  19.316
 4427TIP3    H137476   0.016   4.040  19.363
 4427TIP3    H237477   0.092   4.069  19.236
 4428TIP3   OH237478   1.512   5.520  19.544
 4428TIP3    H137479   1.587   5.503  19.483
 4428TIP3    H237480   1.549   5.581  19.610
 4429TIP3   OH237481   0.276   5.511  19.899
 4429TIP3    H137482   0.294   5.532  19.992
 4429TIP3    H237483   0.359   5.463  19.877
 4430TIP3   OH237484   0.447   5.352  19.762
 4430TIP3    H137485   0.423   5.258  19.773
 4430TIP3    H237486   0.535   5.355  19.806
 4431TIP3   OH237487   0.702   5.404  19.873
 4431TIP3    H137488   0.733   5.315  19.845
 4431TIP3    H237489   0.746   5.411  19.958
 4432TIP3   OH237490   1.052   4.021  19.769
 4432TIP3    H137491   0.987   3.952  19.796
 4432TIP3    H237492   1.131   3.964  19.767
 4433TIP3   OH237493   1.596   3.821  19.773
 4433TIP3    H137494   1.647   3.862  19.699
 4433TIP3    H237495   1.503   3.849  19.754
 4434TIP3   OH237496   1.751   3.904  19.563
 4434TIP3    H137497   1.821   3.854  19.517
 4434TIP3    H237498   1.800   3.988  19.582
 4435TIP3   OH237499   0.320   3.813  19.528
 4435TIP3    H137500   0.235   3.793  19.481
 4435TIP3    H237501   0.368   3.729  19.513
 4436TIP3   OH237502   0.215   3.818  19.173
 4436TIP3    H137503   0.220   3.858  19.085
 4436TIP3    H237504   0.170   3.888  19.227
 4437TIP3   OH237505   0.726   3.773  19.546
 4437TIP3    H137506   0.805   3.820  19.516
 4437TIP3    H237507   0.734   3.775  19.642
 4438TIP3   OH237508   1.340   3.851  19.683
 4438TIP3    H137509   1.309   3.876  19.596
 4438TIP3    H237510   1.295   3.764  19.697
 4439TIP3   OH237511   1.435   3.850  19.311
 4439TIP3    H137512   1.353   3.902  19.317
 4439TIP3    H237513   1.406   3.757  19.325
 4440TIP3   OH237514   0.190   5.448  19.242
 4440TIP3    H137515   0.094   5.458  19.230
 4440TIP3    H237516   0.217   5.537  19.210
 4441TIP3   OH237517   0.300   3.993  18.969
 4441TIP3    H137518   0.370   3.944  18.922
 4441TIP3    H237519   0.337   4.002  19.058
 4442TIP3   OH237520   0.865   4.049  19.191
 4442TIP3    H137521   0.909   3.993  19.258
 4442TIP3    H237522   0.876   4.135  19.236
 4443TIP3   OH237523   1.061   5.550  19.069
 4443TIP3    H137524   1.155   5.559  19.043
 4443TIP3    H237525   1.033   5.495  18.992
 4444TIP3   OH237526   1.701   5.457  19.356
 4444TIP3    H137527   1.677   5.378  19.301
 4444TIP3    H237528   1.701   5.528  19.288
 4445TIP3   OH237529   0.317   5.452  18.939
 4445TIP3    H137530   0.301   5.494  19.024
 4445TIP3    H237531   0.411   5.431  18.945
 4446TIP3   OH237532   3.098   4.767  19.524
 4446TIP3    H137533   3.094   4.863  19.541
 4446TIP3    H237534   3.014   4.754  19.479
 4447TIP3   OH237535   2.978   4.669  19.865
 4447TIP3    H137536   2.975   4.620  19.949
 4447TIP3    H237537   2.918   4.617  19.809
 4448TIP3   OH237538   3.266   4.962  19.701
 4448TIP3    H137539   3.248   4.886  19.762
 4448TIP3    H237540   3.307   5.026  19.764
 4449TIP3   OH237541   2.310   5.104  19.865
 4449TIP3    H137542   2.289   5.009  19.855
 4449TIP3    H237543   2.407   5.104  19.853
 4450TIP3   OH237544   1.988   4.403  19.464
 4450TIP3    H137545   1.966   4.496  19.476
 4450TIP3    H237546   1.908   4.370  19.420
 4451TIP3   OH237547   2.044   4.665  19.628
 4451TIP3    H137548   2.084   4.591  19.679
 4451TIP3    H237549   2.120   4.721  19.604
 4452TIP3   OH237550   3.051   5.518  19.750
 4452TIP3    H137551   3.113   5.465  19.695
 4452TIP3    H237552   3.008   5.444  19.794
 4453TIP3   OH237553   2.844   4.912  19.994
 4453TIP3    H137554   2.896   4.854  19.936
 4453TIP3    H237555   2.906   4.927  20.067
 4454TIP3   OH237556   3.119   4.368  19.964
 4454TIP3    H137557   3.146   4.274  19.973
 4454TIP3    H237558   3.126   4.379  19.868
 4455TIP3   OH237559   2.475   4.144  19.691
 4455TIP3    H137560   2.490   4.223  19.634
 4455TIP3    H237561   2.415   4.093  19.632
 4456TIP3   OH237562   3.178   4.208  19.528
 4456TIP3    H137563   3.234   4.162  19.596
 4456TIP3    H237564   3.248   4.261  19.486
 4457TIP3   OH237565   2.101   4.403  19.756
 4457TIP3    H137566   2.161   4.338  19.799
 4457TIP3    H237567   2.105   4.372  19.663
 4458TIP3   OH237568   2.593   4.560  19.692
 4458TIP3    H137569   2.665   4.506  19.730
 4458TIP3    H237570   2.539   4.491  19.647
 4459TIP3   OH237571   3.010   4.999  19.419
 4459TIP3    H137572   2.997   4.998  19.323
 4459TIP3    H237573   2.999   5.096  19.434
 4460TIP3   OH237574   3.361   4.136  19.701
 4460TIP3    H137575   3.301   4.111  19.776
 4460TIP3    H237576   3.448   4.109  19.737
 4461TIP3   OH237577   2.298   4.254  19.875
 4461TIP3    H137578   2.328   4.347  19.876
 4461TIP3    H237579   2.345   4.219  19.797
 4462TIP3   OH237580   2.035   4.973  19.270
 4462TIP3    H137581   2.027   5.027  19.188
 4462TIP3    H237582   2.048   5.043  19.336
 4463TIP3   OH237583   3.390   5.122  19.871
 4463TIP3    H137584   3.377   5.057  19.943
 4463TIP3    H237585   3.436   5.190  19.920
 4464TIP3   OH237586   2.717   3.822  19.794
 4464TIP3    H137587   2.740   3.729  19.809
 4464TIP3    H237588   2.624   3.828  19.827
 4465TIP3   OH237589   3.191   5.355  19.602
 4465TIP3    H137590   3.236   5.273  19.575
 4465TIP3    H237591   3.263   5.420  19.581
 4466TIP3   OH237592   3.350   5.148  19.489
 4466TIP3    H137593   3.337   5.086  19.415
 4466TIP3    H237594   3.335   5.089  19.565
 4467TIP3   OH237595   2.937   4.687  19.269
 4467TIP3    H137596   2.892   4.770  19.249
 4467TIP3    H237597   3.026   4.698  19.230
 4468TIP3   OH237598   2.975   4.579  18.967
 4468TIP3    H137599   3.035   4.612  19.038
 4468TIP3    H237600   3.000   4.485  18.964
 4469TIP3   OH237601   3.318   4.671  19.378
 4469TIP3    H137602   3.250   4.704  19.442
 4469TIP3    H237603   3.388   4.635  19.437
 4470TIP3   OH237604   2.462   4.747  19.558
 4470TIP3    H137605   2.423   4.700  19.482
 4470TIP3    H237606   2.524   4.681  19.596
 4471TIP3   OH237607   2.599   5.130  19.836
 4471TIP3    H137608   2.592   5.103  19.743
 4471TIP3    H237609   2.656   5.058  19.870
 4472TIP3   OH237610   2.439   4.573  19.916
 4472TIP3    H137611   2.490   4.580  19.833
 4472TIP3    H237612   2.462   4.657  19.960
 4473TIP3   OH237613   3.176   4.667  19.147
 4473TIP3    H137614   3.235   4.680  19.225
 4473TIP3    H237615   3.236   4.692  19.072
 4474TIP3   OH237616   2.974   5.260  19.443
 4474TIP3    H137617   3.037   5.295  19.510
 4474TIP3    H237618   2.922   5.338  19.421
 4475TIP3   OH237619   3.564   3.771  19.180
 4475TIP3    H137620   3.470   3.796  19.188
 4475TIP3    H237621   3.607   3.857  19.157
 4476TIP3   OH237622   2.314   4.650  19.334
 4476TIP3    H137623   2.299   4.732  19.282
 4476TIP3    H237624   2.291   4.582  19.270
 4477TIP3   OH237625   3.678   5.217  18.993
 4477TIP3    H137626   3.698   5.313  19.003
 4477TIP3    H237627   3.768   5.180  19.005
 4478TIP3   OH237628   1.955   5.227  19.826
 4478TIP3    H137629   2.013   5.158  19.862
 4478TIP3    H237630   1.910   5.255  19.907
 4479TIP3   OH237631   2.931   5.569  19.330
 4479TIP3    H137632   2.926   5.584  19.234
 4479TIP3    H237633   2.907   5.659  19.363
 4480TIP3   OH237634   2.281   5.443  19.509
 4480TIP3    H137635   2.298   5.425  19.604
 4480TIP3    H237636   2.189   5.410  19.499
 4481TIP3   OH237637   3.223   5.500  19.019
 4481TIP3    H137638   3.276   5.425  18.986
 4481TIP3    H237639   3.226   5.486  19.116
 4482TIP3   OH237640   3.186   5.500  19.296
 4482TIP3    H137641   3.090   5.514  19.316
 4482TIP3    H237642   3.205   5.430  19.360
 4483TIP3   OH237643   2.456   3.901  19.884
 4483TIP3    H137644   2.379   3.898  19.824
 4483TIP3    H237645   2.451   3.993  19.910
 4484TIP3   OH237646   3.347   4.760  18.967
 4484TIP3    H137647   3.330   4.779  18.872
 4484TIP3    H237648   3.443   4.774  18.970
 4485TIP3   OH237649   2.899   4.115  18.975
 4485TIP3    H137650   2.859   4.113  19.063
 4485TIP3    H237651   2.843   4.049  18.931
 4486TIP3   OH237652   2.472   4.370  19.552
 4486TIP3    H137653   2.378   4.344  19.535
 4486TIP3    H237654   2.509   4.370  19.460
 4487TIP3   OH237655   3.034   4.471  19.385
 4487TIP3    H137656   2.996   4.548  19.335
 4487TIP3    H237657   3.093   4.436  19.316
 4488TIP3   OH237658   3.093   4.424  19.689
 4488TIP3    H137659   3.087   4.492  19.619
 4488TIP3    H237660   3.109   4.346  19.633
 4489TIP3   OH237661   2.552   4.157  18.905
 4489TIP3    H137662   2.503   4.116  18.979
 4489TIP3    H237663   2.480   4.190  18.849
 4490TIP3   OH237664   1.890   4.127  19.620
 4490TIP3    H137665   1.954   4.131  19.694
 4490TIP3    H237666   1.944   4.151  19.543
 4491TIP3   OH237667   2.001   4.187  19.120
 4491TIP3    H137668   2.065   4.230  19.059
 4491TIP3    H237669   1.938   4.261  19.134
 4492TIP3   OH237670   2.761   4.152  19.597
 4492TIP3    H137671   2.680   4.148  19.650
 4492TIP3    H237672   2.823   4.109  19.659
 4493TIP3   OH237673   2.212   4.274  19.537
 4493TIP3    H137674   2.138   4.321  19.492
 4493TIP3    H237675   2.216   4.186  19.493
 4494TIP3   OH237676   2.556   4.349  19.298
 4494TIP3    H137677   2.644   4.335  19.261
 4494TIP3    H237678   2.512   4.398  19.227
 4495TIP3   OH237679   3.180   4.116  19.897
 4495TIP3    H137680   3.179   4.091  19.991
 4495TIP3    H237681   3.086   4.104  19.875
 4496TIP3   OH237682   2.438   4.456  19.025
 4496TIP3    H137683   2.407   4.394  18.958
 4496TIP3    H237684   2.522   4.482  18.983
 4497TIP3   OH237685   2.840   4.408  19.824
 4497TIP3    H137686   2.907   4.412  19.753
 4497TIP3    H237687   2.888   4.356  19.890
 4498TIP3   OH237688   2.300   4.032  19.466
 4498TIP3    H137689   2.238   3.969  19.508
 4498TIP3    H237690   2.352   3.968  19.415
 4499TIP3   OH237691   2.778   4.904  19.235
 4499TIP3    H137692   2.702   4.857  19.194
 4499TIP3    H237693   2.739   4.925  19.324
 4500TIP3   OH237694   3.139   4.161  19.066
 4500TIP3    H137695   3.048   4.158  19.027
 4500TIP3    H237696   3.154   4.257  19.075
 4501TIP3   OH237697   3.215   4.395  19.177
 4501TIP3    H137698   3.279   4.363  19.243
 4501TIP3    H237699   3.252   4.482  19.155
 4502TIP3   OH237700   2.257   4.841  19.807
 4502TIP3    H137701   2.277   4.835  19.713
 4502TIP3    H237702   2.342   4.818  19.848
 4503TIP3   OH237703   2.977   5.045  19.132
 4503TIP3    H137704   2.940   5.135  19.150
 4503TIP3    H237705   2.904   4.986  19.161
 4504TIP3   OH237706   3.691   4.363  19.182
 4504TIP3    H137707   3.647   4.366  19.094
 4504TIP3    H237708   3.724   4.455  19.187
 4505TIP3   OH237709   3.509   5.258  19.209
 4505TIP3    H137710   3.494   5.189  19.275
 4505TIP3    H237711   3.556   5.213  19.137
 4506TIP3   OH237712   3.246   4.745  19.878
 4506TIP3    H137713   3.153   4.712  19.868
 4506TIP3    H237714   3.295   4.683  19.821
 4507TIP3   OH237715   2.519   5.194  19.552
 4507TIP3    H137716   2.543   5.275  19.502
 4507TIP3    H237717   2.424   5.193  19.533
 4508TIP3   OH237718   2.128   4.669  19.025
 4508TIP3    H137719   2.171   4.722  19.095
 4508TIP3    H237720   2.031   4.681  19.040
 4509TIP3   OH237721   2.630   4.941  19.459
 4509TIP3    H137722   2.602   5.024  19.502
 4509TIP3    H237723   2.591   4.872  19.516
 4510TIP3   OH237724   2.545   5.432  19.433
 4510TIP3    H137725   2.448   5.443  19.443
 4510TIP3    H237726   2.575   5.516  19.474
 4511TIP3   OH237727   3.305   5.077  19.000
 4511TIP3    H137728   3.319   5.039  19.089
 4511TIP3    H237729   3.213   5.053  18.990
 4512TIP3   OH237730   3.729   5.485  19.041
 4512TIP3    H137731   3.777   5.549  18.987
 4512TIP3    H237732   3.661   5.542  19.084
 4513TIP3   OH237733   3.377   4.935  19.234
 4513TIP3    H137734   3.343   4.853  19.272
 4513TIP3    H237735   3.474   4.917  19.231
 4514TIP3   OH237736   2.701   5.199  18.869
 4514TIP3    H137737   2.685   5.146  18.790
 4514TIP3    H237738   2.643   5.154  18.934
 4515TIP3   OH237739   2.572   5.120  19.098
 4515TIP3    H137740   2.649   5.081  19.143
 4515TIP3    H237741   2.583   5.214  19.126
 4516TIP3   OH237742   2.258   4.861  19.163
 4516TIP3    H137743   2.174   4.890  19.206
 4516TIP3    H237744   2.286   4.943  19.118
 4517TIP3   OH237745   3.106   4.060  19.317
 4517TIP3    H137746   3.123   4.106  19.232
 4517TIP3    H237747   3.138   4.123  19.384
 4518TIP3   OH237748   2.877   5.300  19.153
 4518TIP3    H137749   2.787   5.331  19.178
 4518TIP3    H237750   2.924   5.385  19.146
 4519TIP3   OH237751   2.823   4.254  19.349
 4519TIP3    H137752   2.882   4.330  19.369
 4519TIP3    H237753   2.787   4.229  19.437
 4520TIP3   OH237754   2.889   3.939  19.421
 4520TIP3    H137755   2.858   4.008  19.482
 4520TIP3    H237756   2.969   3.986  19.384
 4521TIP3   OH237757   2.609   5.367  19.168
 4521TIP3    H137758   2.620   5.446  19.109
 4521TIP3    H237759   2.572   5.411  19.246
 4522TIP3   OH237760   2.452   4.058  19.136
 4522TIP3    H137761   2.426   4.124  19.202
 4522TIP3    H237762   2.547   4.047  19.159
 4523TIP3   OH237763   3.351   4.545  19.736
 4523TIP3    H137764   3.273   4.490  19.755
 4523TIP3    H237765   3.418   4.501  19.795
 4524TIP3   OH237766   2.302   5.111  19.020
 4524TIP3    H137767   2.377   5.142  19.074
 4524TIP3    H237768   2.352   5.062  18.952
 4525TIP3   OH237769   2.126   4.389  18.955
 4525TIP3    H137770   2.164   4.471  18.993
 4525TIP3    H237771   2.044   4.422  18.915
 4526TIP3   OH237772   3.476   5.476  19.946
 4526TIP3    H137773   3.487   5.552  19.883
 4526TIP3    H237774   3.561   5.474  19.991
 4527TIP3   OH237775   2.214   3.887  19.772
 4527TIP3    H137776   2.201   3.850  19.681
 4527TIP3    H237777   2.203   3.806  19.825
 4528TIP3   OH237778   2.083   5.230  19.427
 4528TIP3    H137779   2.005   5.282  19.452
 4528TIP3    H237780   2.108   5.277  19.345
 4529TIP3   OH237781   2.918   5.389  18.856
 4529TIP3    H137782   2.867   5.309  18.880
 4529TIP3    H237783   2.999   5.351  18.814
 4530TIP3   OH237784   3.367   5.320  18.870
 4530TIP3    H137785   3.378   5.247  18.935
 4530TIP3    H237786   3.453   5.322  18.825
 4531TIP3   OH237787   2.448   4.933  18.859
 4531TIP3    H137788   2.475   4.895  18.943
 4531TIP3    H237789   2.527   4.915  18.803
 4532TIP3   OH237790   3.014   5.059  18.848
 4532TIP3    H137791   2.978   5.043  18.938
 4532TIP3    H237792   3.015   4.966  18.814
 4533TIP3   OH237793   2.577   4.752  19.120
 4533TIP3    H137794   2.507   4.699  19.162
 4533TIP3    H237795   2.620   4.685  19.064
 4534TIP3   OH237796   2.695   4.569  18.918
 4534TIP3    H137797   2.692   4.594  18.823
 4534TIP3    H237798   2.792   4.570  18.934
 4535TIP3   OH237799   3.616   4.773  18.865
 4535TIP3    H137800   3.596   4.742  18.774
 4535TIP3    H237801   3.610   4.872  18.854
 4536TIP3   OH237802   2.663   5.611  19.080
 4536TIP3    H137803   2.761   5.609  19.079
 4536TIP3    H237804   2.649   5.672  19.004
 4537TIP3   OH237805   2.022   5.080  19.011
 4537TIP3    H137806   2.120   5.088  18.998
 4537TIP3    H237807   1.998   5.019  18.936
 4538TIP3   OH237808   1.917   5.580  19.457
 4538TIP3    H137809   1.831   5.535  19.436
 4538TIP3    H237810   1.936   5.538  19.544
 4539TIP3   OH237811   1.978   5.429  19.663
 4539TIP3    H137812   1.952   5.342  19.701
 4539TIP3    H237813   2.009   5.475  19.743
 4540TIP3   OH237814   3.647   4.878  19.244
 4540TIP3    H137815   3.736   4.918  19.256
 4540TIP3    H237816   3.645   4.815  19.319
 4541TIP3   OH237817   3.685   4.709  19.458
 4541TIP3    H137818   3.617   4.655  19.503
 4541TIP3    H237819   3.763   4.703  19.517
 4542TIP3   OH237820   3.716   4.975  19.945
 4542TIP3    H137821   3.775   4.907  19.906
 4542TIP3    H237822   3.701   5.039  19.873
 4543TIP3   OH237823   3.747   4.659  19.080
 4543TIP3    H137824   3.679   4.676  19.012
 4543TIP3    H237825   3.725   4.730  19.143
 4544TIP3   OH237826   3.569   4.384  18.923
 4544TIP3    H137827   3.573   4.443  18.847
 4544TIP3    H237828   3.539   4.299  18.883
 4545TIP3   OH237829   3.501   4.519  19.520
 4545TIP3    H137830   3.464   4.437  19.481
 4545TIP3    H237831   3.453   4.523  19.606
 4546TIP3   OH237832   1.956   4.722  19.869
 4546TIP3    H137833   1.997   4.715  19.780
 4546TIP3    H237834   2.036   4.718  19.926
 4547TIP3   OH237835   3.503   4.125  18.844
 4547TIP3    H137836   3.542   4.084  18.924
 4547TIP3    H237837   3.410   4.100  18.847
 4548TIP3   OH237838   3.414   4.312  19.367
 4548TIP3    H137839   3.432   4.216  19.382
 4548TIP3    H237840   3.494   4.329  19.314
 4549TIP3   OH237841   3.511   4.381  19.867
 4549TIP3    H137842   3.603   4.357  19.850
 4549TIP3    H237843   3.481   4.294  19.901
 4550TIP3   OH237844   3.497   4.062  19.370
 4550TIP3    H137845   3.530   4.014  19.447
 4550TIP3    H237846   3.451   3.991  19.322
 4551TIP3   OH237847   2.057   4.105  19.846
 4551TIP3    H137848   2.101   4.020  19.824
 4551TIP3    H237849   2.126   4.148  19.900
 4552TIP3   OH237850   1.901   4.379  19.953
 4552TIP3    H137851   1.946   4.341  19.874
 4552TIP3    H237852   1.936   4.469  19.950
 4553TIP3   OH237853   3.686   4.007  19.040
 4553TIP3    H137854   3.724   3.960  18.962
 4553TIP3    H237855   3.764   4.054  19.075
 4554TIP3   OH237856   1.926   4.023  19.321
 4554TIP3    H137857   1.832   4.044  19.326
 4554TIP3    H237858   1.954   4.077  19.245
 4555TIP3   OH237859   3.385   5.524  19.537
 4555TIP3    H137860   3.466   5.496  19.489
 4555TIP3    H237861   3.418   5.591  19.598
 4556TIP3   OH237862   2.151   5.525  19.873
 4556TIP3    H137863   2.134   5.495  19.964
 4556TIP3    H237864   2.214   5.457  19.840
 4557TIP3   OH237865   2.330   5.358  19.765
 4557TIP3    H137866   2.290   5.268  19.760
 4557TIP3    H237867   2.417   5.337  19.800
 4558TIP3   OH237868   2.589   5.417  19.883
 4558TIP3    H137869   2.609   5.370  19.800
 4558TIP3    H237870   2.630   5.353  19.944
 4559TIP3   OH237871   2.939   4.023  19.773
 4559TIP3    H137872   2.880   3.950  19.800
 4559TIP3    H237873   3.020   3.972  19.755
 4560TIP3   OH237874   3.482   3.823  19.773
 4560TIP3    H137875   3.533   3.864  19.698
 4560TIP3    H237876   3.389   3.846  19.752
 4561TIP3   OH237877   3.633   3.905  19.564
 4561TIP3    H137878   3.698   3.851  19.515
 4561TIP3    H237879   3.686   3.986  19.585
 4562TIP3   OH237880   2.169   3.808  19.524
 4562TIP3    H137881   2.088   3.788  19.473
 4562TIP3    H237882   2.212   3.719  19.522
 4563TIP3   OH237883   2.083   3.819  19.141
 4563TIP3    H137884   2.108   3.888  19.077
 4563TIP3    H237885   2.012   3.864  19.190
 4564TIP3   OH237886   2.606   3.786  19.541
 4564TIP3    H137887   2.680   3.818  19.489
 4564TIP3    H237888   2.641   3.796  19.631
 4565TIP3   OH237889   3.226   3.847  19.682
 4565TIP3    H137890   3.205   3.865  19.590
 4565TIP3    H237891   3.176   3.765  19.702
 4566TIP3   OH237892   3.328   3.852  19.301
 4566TIP3    H137893   3.245   3.902  19.309
 4566TIP3    H237894   3.300   3.760  19.322
 4567TIP3   OH237895   2.060   5.422  19.237
 4567TIP3    H137896   1.963   5.426  19.230
 4567TIP3    H237897   2.081   5.509  19.198
 4568TIP3   OH237898   2.184   4.009  18.960
 4568TIP3    H137899   2.246   3.950  18.913
 4568TIP3    H237900   2.236   4.032  19.039
 4569TIP3   OH237901   2.733   4.050  19.197
 4569TIP3    H137902   2.767   3.984  19.261
 4569TIP3    H237903   2.762   4.132  19.243
 4570TIP3   OH237904   2.950   5.559  19.056
 4570TIP3    H137905   3.046   5.559  19.039
 4570TIP3    H237906   2.923   5.502  18.980
 4571TIP3   OH237907   3.585   5.458  19.360
 4571TIP3    H137908   3.558   5.382  19.303
 4571TIP3    H237909   3.589   5.530  19.294
 4572TIP3   OH237910   2.185   5.510  18.921
 4572TIP3    H137911   2.166   5.534  19.013
 4572TIP3    H237912   2.254   5.442  18.934
 4573TIP3   OH237913   4.991   4.770  19.521
 4573TIP3    H137914   4.989   4.864  19.549
 4573TIP3    H237915   4.902   4.760  19.484
 4574TIP3   OH237916   4.846   4.652  19.863
 4574TIP3    H137917   4.859   4.641  19.959
 4574TIP3    H237918   4.786   4.579  19.841
 4575TIP3   OH237919   5.156   4.969  19.686
 4575TIP3    H137920   5.146   4.887  19.738
 4575TIP3    H237921   5.198   5.027  19.754
 4576TIP3   OH237922   4.209   5.096  19.878
 4576TIP3    H137923   4.192   5.003  19.853
 4576TIP3    H237924   4.305   5.104  19.865
 4577TIP3   OH237925   3.865   4.377  19.443
 4577TIP3    H137926   3.864   4.467  19.478
 4577TIP3    H237927   3.773   4.369  19.413
 4578TIP3   OH237928   3.933   4.664  19.651
 4578TIP3    H137929   3.968   4.586  19.699
 4578TIP3    H237930   3.997   4.733  19.676
 4579TIP3   OH237931   4.927   5.526  19.751
 4579TIP3    H137932   4.987   5.468  19.700
 4579TIP3    H237933   4.895   5.459  19.812
 4580TIP3   OH237934   4.714   4.959  19.961
 4580TIP3    H137935   4.751   4.908  19.888
 4580TIP3    H237936   4.777   4.923  20.029
 4581TIP3   OH237937   5.018   4.368  19.965
 4581TIP3    H137938   5.029   4.273  19.977
 4581TIP3    H237939   5.011   4.376  19.868
 4582TIP3   OH237940   4.357   4.147  19.689
 4582TIP3    H137941   4.371   4.222  19.627
 4582TIP3    H237942   4.311   4.085  19.630
 4583TIP3   OH237943   5.068   4.204  19.532
 4583TIP3    H137944   5.124   4.154  19.596
 4583TIP3    H237945   5.137   4.259  19.491
 4584TIP3   OH237946   3.973   4.390  19.739
 4584TIP3    H137947   4.036   4.333  19.787
 4584TIP3    H237948   3.996   4.367  19.646
 4585TIP3   OH237949   4.484   4.562  19.697
 4585TIP3    H137950   4.554   4.505  19.734
 4585TIP3    H237951   4.436   4.495  19.642
 4586TIP3   OH237952   4.901   5.011  19.414
 4586TIP3    H137953   4.882   5.003  19.318
 4586TIP3    H237954   4.885   5.107  19.427
 4587TIP3   OH237955   5.251   4.121  19.697
 4587TIP3    H137956   5.192   4.103  19.774
 4587TIP3    H237957   5.338   4.110  19.737
 4588TIP3   OH237958   4.177   4.257  19.871
 4588TIP3    H137959   4.213   4.347  19.880
 4588TIP3    H237960   4.225   4.225  19.792
 4589TIP3   OH237961   3.912   4.969  19.249
 4589TIP3    H137962   3.904   5.023  19.167
 4589TIP3    H237963   3.926   5.037  19.317
 4590TIP3   OH237964   5.282   5.113  19.875
 4590TIP3    H137965   5.241   5.060  19.947
 4590TIP3    H237966   5.343   5.164  19.928
 4591TIP3   OH237967   4.601   3.818  19.800
 4591TIP3    H137968   4.624   3.723  19.807
 4591TIP3    H237969   4.511   3.825  19.839
 4592TIP3   OH237970   5.088   5.370  19.621
 4592TIP3    H137971   5.123   5.287  19.582
 4592TIP3    H237972   5.163   5.430  19.597
 4593TIP3   OH237973   5.223   5.163  19.490
 4593TIP3    H137974   5.200   5.105  19.415
 4593TIP3    H237975   5.216   5.099  19.565
 4594TIP3   OH237976   4.823   4.676  19.263
 4594TIP3    H137977   4.778   4.764  19.260
 4594TIP3    H237978   4.911   4.699  19.226
 4595TIP3   OH237979   4.865   4.580  18.962
 4595TIP3    H137980   4.925   4.625  19.024
 4595TIP3    H237981   4.874   4.489  18.994
 4596TIP3   OH237982   5.217   4.684  19.389
 4596TIP3    H137983   5.140   4.717  19.442
 4596TIP3    H237984   5.275   4.648  19.458
 4597TIP3   OH237985   4.338   4.741  19.557
 4597TIP3    H137986   4.301   4.694  19.479
 4597TIP3    H237987   4.404   4.678  19.592
 4598TIP3   OH237988   4.488   5.130  19.852
 4598TIP3    H137989   4.493   5.097  19.761
 4598TIP3    H237990   4.543   5.062  19.898
 4599TIP3   OH237991   4.340   4.570  19.924
 4599TIP3    H137992   4.382   4.574  19.835
 4599TIP3    H237993   4.367   4.656  19.961
 4600TIP3   OH237994   5.075   4.663  19.160
 4600TIP3    H137995   5.140   4.684  19.232
 4600TIP3    H237996   5.129   4.689  19.080
 4601TIP3   OH237997   4.856   5.270  19.446
 4601TIP3    H137998   4.904   5.293  19.526
 4601TIP3    H237999   4.806   5.350  19.427
 4602TIP3   OH238000   5.440   3.764  19.175
 4602TIP3    H138001   5.348   3.779  19.205
 4602TIP3    H238002   5.456   3.840  19.115
 4603TIP3   OH238003   4.199   4.643  19.339
 4603TIP3    H138004   4.180   4.727  19.292
 4603TIP3    H238005   4.182   4.577  19.270
 4604TIP3   OH238006   5.575   5.215  19.008
 4604TIP3    H138007   5.602   5.310  19.006
 4604TIP3    H238008   5.663   5.171  19.010
 4605TIP3   OH238009   3.853   5.227  19.842
 4605TIP3    H138010   3.929   5.174  19.874
 4605TIP3    H238011   3.830   5.282  19.917
 4606TIP3   OH238012   4.803   5.556  19.336
 4606TIP3    H138013   4.808   5.569  19.239
 4606TIP3    H238014   4.792   5.648  19.368
 4607TIP3   OH238015   4.160   5.453  19.505
 4607TIP3    H138016   4.183   5.436  19.599
 4607TIP3    H238017   4.074   5.407  19.497
 4608TIP3   OH238018   5.107   5.507  19.033
 4608TIP3    H138019   5.157   5.428  18.999
 4608TIP3    H238020   5.115   5.496  19.130
 4609TIP3   OH238021   5.066   5.505  19.309
 4609TIP3    H138022   4.972   5.527  19.326
 4609TIP3    H238023   5.077   5.425  19.363
 4610TIP3   OH238024   4.345   3.909  19.895
 4610TIP3    H138025   4.277   3.899  19.824
 4610TIP3    H238026   4.323   3.998  19.924
 4611TIP3   OH238027   5.233   4.760  18.974
 4611TIP3    H138028   5.214   4.768  18.878
 4611TIP3    H238029   5.330   4.776  18.973
 4612TIP3   OH238030   4.789   4.120  18.976
 4612TIP3    H138031   4.747   4.126  19.064
 4612TIP3    H238032   4.726   4.060  18.934
 4613TIP3   OH238033   4.378   4.378  19.549
 4613TIP3    H138034   4.282   4.389  19.532
 4613TIP3    H238035   4.408   4.368  19.454
 4614TIP3   OH238036   4.919   4.474  19.398
 4614TIP3    H138037   4.879   4.546  19.343
 4614TIP3    H238038   4.976   4.434  19.331
 4615TIP3   OH238039   4.984   4.420  19.701
 4615TIP3    H138040   4.964   4.495  19.641
 4615TIP3    H238041   5.002   4.349  19.636
 4616TIP3   OH238042   4.426   4.166  18.912
 4616TIP3    H138043   4.376   4.113  18.979
 4616TIP3    H238044   4.356   4.194  18.850
 4617TIP3   OH238045   3.767   4.127  19.622
 4617TIP3    H138046   3.825   4.135  19.700
 4617TIP3    H238047   3.825   4.157  19.549
 4618TIP3   OH238048   3.880   4.184  19.124
 4618TIP3    H138049   3.947   4.222  19.064
 4618TIP3    H238050   3.821   4.262  19.135
 4619TIP3   OH238051   4.653   4.144  19.608
 4619TIP3    H138052   4.569   4.139  19.657
 4619TIP3    H238053   4.716   4.113  19.676
 4620TIP3   OH238054   4.113   4.299  19.518
 4620TIP3    H138055   4.029   4.317  19.470
 4620TIP3    H238056   4.144   4.218  19.473
 4621TIP3   OH238057   4.432   4.347  19.298
 4621TIP3    H138058   4.526   4.327  19.280
 4621TIP3    H238059   4.402   4.390  19.216
 4622TIP3   OH238060   5.069   4.104  19.903
 4622TIP3    H138061   5.063   4.104  20.000
 4622TIP3    H238062   4.974   4.096  19.881
 4623TIP3   OH238063   4.316   4.455  19.026
 4623TIP3    H138064   4.282   4.387  18.966
 4623TIP3    H238065   4.404   4.468  18.986
 4624TIP3   OH238066   4.721   4.405  19.821
 4624TIP3    H138067   4.799   4.395  19.762
 4624TIP3    H238068   4.756   4.378  19.908
 4625TIP3   OH238069   4.182   4.036  19.466
 4625TIP3    H138070   4.120   3.973  19.509
 4625TIP3    H238071   4.231   3.972  19.414
 4626TIP3   OH238072   4.668   4.896  19.241
 4626TIP3    H138073   4.593   4.849  19.199
 4626TIP3    H238074   4.626   4.921  19.327
 4627TIP3   OH238075   5.040   4.159  19.067
 4627TIP3    H138076   4.954   4.164  19.020
 4627TIP3    H238077   5.054   4.255  19.086
 4628TIP3   OH238078   5.088   4.391  19.186
 4628TIP3    H138079   5.154   4.362  19.251
 4628TIP3    H238080   5.124   4.478  19.163
 4629TIP3   OH238081   4.144   4.838  19.786
 4629TIP3    H138082   4.174   4.848  19.695
 4629TIP3    H238083   4.223   4.803  19.830
 4630TIP3   OH238084   4.862   5.037  19.128
 4630TIP3    H138085   4.818   5.124  19.135
 4630TIP3    H238086   4.791   4.977  19.159
 4631TIP3   OH238087   5.584   4.346  19.186
 4631TIP3    H138088   5.525   4.352  19.108
 4631TIP3    H238089   5.621   4.435  19.187
 4632TIP3   OH238090   5.384   5.275  19.186
 4632TIP3    H138091   5.373   5.207  19.254
 4632TIP3    H238092   5.456   5.239  19.130
 4633TIP3   OH238093   5.141   4.733  19.880
 4633TIP3    H138094   5.043   4.731  19.892
 4633TIP3    H238095   5.154   4.665  19.811
 4634TIP3   OH238096   4.368   5.186  19.577
 4634TIP3    H138097   4.420   5.268  19.575
 4634TIP3    H238098   4.302   5.206  19.509
 4635TIP3   OH238099   4.024   4.681  19.004
 4635TIP3    H138100   4.067   4.740  19.069
 4635TIP3    H238101   3.928   4.691  19.023
 4636TIP3   OH238102   4.523   4.946  19.466
 4636TIP3    H138103   4.480   5.025  19.503
 4636TIP3    H238104   4.478   4.874  19.513
 4637TIP3   OH238105   4.420   5.429  19.425
 4637TIP3    H138106   4.324   5.439  19.438
 4637TIP3    H238107   4.450   5.515  19.462
 4638TIP3   OH238108   5.196   5.068  19.000
 4638TIP3    H138109   5.208   5.038  19.092
 4638TIP3    H238110   5.103   5.046  18.989
 4639TIP3   OH238111   5.634   5.494  19.043
 4639TIP3    H138112   5.704   5.560  19.028
 4639TIP3    H238113   5.564   5.551  19.080
 4640TIP3   OH238114   5.262   4.942  19.242
 4640TIP3    H138115   5.234   4.855  19.277
 4640TIP3    H238116   5.358   4.928  19.231
 4641TIP3   OH238117   4.588   5.213  18.862
 4641TIP3    H138118   4.575   5.149  18.789
 4641TIP3    H238119   4.522   5.181  18.927
 4642TIP3   OH238120   4.460   5.120  19.107
 4642TIP3    H138121   4.533   5.085  19.160
 4642TIP3    H238122   4.467   5.216  19.129
 4643TIP3   OH238123   4.144   4.857  19.166
 4643TIP3    H138124   4.059   4.894  19.196
 4643TIP3    H238125   4.185   4.934  19.124
 4644TIP3   OH238126   4.971   4.080  19.315
 4644TIP3    H138127   5.010   4.113  19.231
 4644TIP3    H238128   5.017   4.133  19.383
 4645TIP3   OH238129   4.750   5.290  19.144
 4645TIP3    H138130   4.662   5.329  19.168
 4645TIP3    H238131   4.805   5.370  19.139
 4646TIP3   OH238132   4.692   4.266  19.371
 4646TIP3    H138133   4.754   4.339  19.391
 4646TIP3    H238134   4.679   4.223  19.459
 4647TIP3   OH238135   4.774   3.936  19.420
 4647TIP3    H138136   4.741   4.005  19.479
 4647TIP3    H238137   4.858   3.979  19.389
 4648TIP3   OH238138   4.493   5.373  19.164
 4648TIP3    H138139   4.505   5.452  19.106
 4648TIP3    H238140   4.456   5.416  19.244
 4649TIP3   OH238141   4.329   4.061  19.141
 4649TIP3    H138142   4.321   4.140  19.197
 4649TIP3    H238143   4.424   4.041  19.153
 4650TIP3   OH238144   5.245   4.532  19.729
 4650TIP3    H138145   5.167   4.485  19.761
 4650TIP3    H238146   5.310   4.502  19.796
 4651TIP3   OH238147   4.183   5.105  19.019
 4651TIP3    H138148   4.258   5.137  19.072
 4651TIP3    H238149   4.229   5.056  18.949
 4652TIP3   OH238150   4.005   4.391  18.963
 4652TIP3    H138151   4.047   4.470  19.002
 4652TIP3    H238152   3.929   4.427  18.916
 4653TIP3   OH238153   5.352   5.472  19.941
 4653TIP3    H138154   5.373   5.552  19.887
 4653TIP3    H238155   5.432   5.460  19.994
 4654TIP3   OH238156   4.112   3.885  19.770
 4654TIP3    H138157   4.093   3.850  19.679
 4654TIP3    H238158   4.093   3.804  19.821
 4655TIP3   OH238159   3.969   5.237  19.430
 4655TIP3    H138160   3.890   5.289  19.451
 4655TIP3    H238161   3.996   5.284  19.349
 4656TIP3   OH238162   4.809   5.389  18.858
 4656TIP3    H138163   4.752   5.311  18.879
 4656TIP3    H238164   4.889   5.346  18.820
 4657TIP3   OH238165   5.250   5.323  18.883
 4657TIP3    H138166   5.268   5.253  18.949
 4657TIP3    H238167   5.329   5.319  18.827
 4658TIP3   OH238168   4.342   4.917  18.857
 4658TIP3    H138169   4.388   4.907  18.942
 4658TIP3    H238170   4.416   4.891  18.796
 4659TIP3   OH238171   4.900   5.053  18.841
 4659TIP3    H138172   4.865   5.040  18.931
 4659TIP3    H238173   4.906   4.958  18.811
 4660TIP3   OH238174   4.459   4.745  19.124
 4660TIP3    H138175   4.394   4.684  19.163
 4660TIP3    H238176   4.500   4.687  19.057
 4661TIP3   OH238177   4.581   4.564  18.920
 4661TIP3    H138178   4.572   4.587  18.826
 4661TIP3    H238179   4.679   4.567  18.930
 4662TIP3   OH238180   5.504   4.779  18.870
 4662TIP3    H138181   5.481   4.749  18.780
 4662TIP3    H238182   5.495   4.878  18.861
 4663TIP3   OH238183   4.542   5.605  19.055
 4663TIP3    H138184   4.638   5.606  19.069
 4663TIP3    H238185   4.536   5.659  18.975
 4664TIP3   OH238186   3.904   5.080  19.004
 4664TIP3    H138187   4.002   5.081  18.998
 4664TIP3    H238188   3.878   5.028  18.924
 4665TIP3   OH238189   3.791   5.591  19.460
 4665TIP3    H138190   3.711   5.540  19.438
 4665TIP3    H238191   3.822   5.541  19.539
 4666TIP3   OH238192   3.882   5.425  19.650
 4666TIP3    H138193   3.849   5.343  19.693
 4666TIP3    H238194   3.931   5.468  19.724
 4667TIP3   OH238195   5.537   4.873  19.228
 4667TIP3    H138196   5.623   4.916  19.250
 4667TIP3    H238197   5.530   4.809  19.302
 4668TIP3   OH238198   5.567   4.699  19.461
 4668TIP3    H138199   5.504   4.636  19.501
 4668TIP3    H238200   5.638   4.702  19.528
 4669TIP3   OH238201   5.601   4.972  19.916
 4669TIP3    H138202   5.679   4.920  19.886
 4669TIP3    H238203   5.592   5.044  19.853
 4670TIP3   OH238204   5.638   4.659  19.071
 4670TIP3    H138205   5.579   4.677  18.994
 4670TIP3    H238206   5.611   4.732  19.129
 4671TIP3   OH238207   5.430   4.373  18.921
 4671TIP3    H138208   5.465   4.438  18.856
 4671TIP3    H238209   5.404   4.302  18.859
 4672TIP3   OH238210   5.403   4.484  19.521
 4672TIP3    H138211   5.348   4.412  19.485
 4672TIP3    H238212   5.352   4.502  19.604
 4673TIP3   OH238213   3.855   4.752  19.893
 4673TIP3    H138214   3.886   4.723  19.805
 4673TIP3    H238215   3.933   4.731  19.949
 4674TIP3   OH238216   5.371   4.106  18.833
 4674TIP3    H138217   5.393   4.087  18.924
 4674TIP3    H238218   5.273   4.095  18.833
 4675TIP3   OH238219   5.284   4.299  19.365
 4675TIP3    H138220   5.320   4.208  19.383
 4675TIP3    H238221   5.362   4.334  19.317
 4676TIP3   OH238222   5.405   4.366  19.863
 4676TIP3    H138223   5.502   4.357  19.871
 4676TIP3    H238224   5.380   4.275  19.891
 4677TIP3   OH238225   5.387   4.038  19.362
 4677TIP3    H138226   5.421   3.993  19.443
 4677TIP3    H238227   5.332   3.968  19.324
 4678TIP3   OH238228   3.941   4.099  19.850
 4678TIP3    H138229   3.984   4.014  19.825
 4678TIP3    H238230   4.015   4.145  19.895
 4679TIP3   OH238231   3.786   4.377  19.955
 4679TIP3    H138232   3.823   4.328  19.879
 4679TIP3    H238233   3.827   4.464  19.942
 4680TIP3   OH238234   5.608   3.990  19.035
 4680TIP3    H138235   5.615   3.930  18.957
 4680TIP3    H238236   5.609   4.075  18.989
 4681TIP3   OH238237   3.796   4.009  19.308
 4681TIP3    H138238   3.707   4.045  19.321
 4681TIP3    H238239   3.832   4.075  19.245
 4682TIP3   OH238240   5.288   5.525  19.538
 4682TIP3    H138241   5.362   5.494  19.483
 4682TIP3    H238242   5.331   5.580  19.605
 4683TIP3   OH238243   4.034   5.521  19.875
 4683TIP3    H138244   4.059   5.530  19.970
 4683TIP3    H238245   4.111   5.470  19.840
 4684TIP3   OH238246   4.222   5.373  19.757
 4684TIP3    H138247   4.218   5.277  19.768
 4684TIP3    H238248   4.309   5.391  19.800
 4685TIP3   OH238249   4.469   5.419  19.869
 4685TIP3    H138250   4.503   5.330  19.847
 4685TIP3    H238251   4.468   5.415  19.965
 4686TIP3   OH238252   4.820   4.015  19.782
 4686TIP3    H138253   4.753   3.945  19.796
 4686TIP3    H238254   4.898   3.957  19.782
 4687TIP3   OH238255   5.378   3.813  19.762
 4687TIP3    H138256   5.432   3.848  19.687
 4687TIP3    H238257   5.290   3.852  19.743
 4688TIP3   OH238258   5.518   3.895  19.557
 4688TIP3    H138259   5.592   3.840  19.523
 4688TIP3    H238260   5.565   3.978  19.583
 4689TIP3   OH238261   4.052   3.804  19.526
 4689TIP3    H138262   3.973   3.795  19.469
 4689TIP3    H238263   4.092   3.714  19.516
 4690TIP3   OH238264   3.960   3.819  19.146
 4690TIP3    H138265   3.984   3.883  19.076
 4690TIP3    H238266   3.897   3.870  19.201
 4691TIP3   OH238267   4.498   3.796  19.549
 4691TIP3    H138268   4.581   3.807  19.501
 4691TIP3    H238269   4.527   3.813  19.640
 4692TIP3   OH238270   5.109   3.848  19.675
 4692TIP3    H138271   5.085   3.876  19.586
 4692TIP3    H238272   5.050   3.772  19.693
 4693TIP3   OH238273   5.206   3.837  19.298
 4693TIP3    H138274   5.137   3.858  19.233
 4693TIP3    H238275   5.174   3.750  19.329
 4694TIP3   OH238276   3.936   5.417  19.229
 4694TIP3    H138277   3.854   5.406  19.176
 4694TIP3    H238278   3.956   5.510  19.207
 4695TIP3   OH238279   4.070   4.018  18.974
 4695TIP3    H138280   4.136   3.964  18.926
 4695TIP3    H238281   4.117   4.035  19.057
 4696TIP3   OH238282   4.619   4.063  19.198
 4696TIP3    H138283   4.649   3.999  19.263
 4696TIP3    H238284   4.651   4.144  19.242
 4697TIP3   OH238285   4.843   5.550  19.067
 4697TIP3    H138286   4.939   5.550  19.048
 4697TIP3    H238287   4.814   5.499  18.988
 4698TIP3   OH238288   5.480   5.457  19.355
 4698TIP3    H138289   5.449   5.389  19.292
 4698TIP3    H238290   5.483   5.534  19.295
 4699TIP3   OH238291   4.060   5.497  18.919
 4699TIP3    H138292   4.040   5.539  19.005
 4699TIP3    H238293   4.141   5.447  18.942
 4700TIP3   OH238294   6.868   4.746  19.523
 4700TIP3    H138295   6.868   4.834  19.564
 4700TIP3    H238296   6.778   4.739  19.488
 4701TIP3   OH238297   6.759   4.666  19.864
 4701TIP3    H138298   6.754   4.619  19.950
 4701TIP3    H238299   6.672   4.647  19.826
 4702TIP3   OH238300   7.019   4.969  19.695
 4702TIP3    H138301   7.006   4.892  19.755
 4702TIP3    H238302   7.077   5.019  19.758
 4703TIP3   OH238303   6.099   5.104  19.868
 4703TIP3    H138304   6.088   5.010  19.842
 4703TIP3    H238305   6.195   5.118  19.852
 4704TIP3   OH238306   5.752   4.416  19.429
 4704TIP3    H138307   5.720   4.505  19.453
 4704TIP3    H238308   5.667   4.372  19.413
 4705TIP3   OH238309   5.811   4.668  19.640
 4705TIP3    H138310   5.857   4.605  19.698
 4705TIP3    H238311   5.864   4.749  19.650
 4706TIP3   OH238312   6.807   5.526  19.748
 4706TIP3    H138313   6.876   5.476  19.698
 4706TIP3    H238314   6.772   5.454  19.802
 4707TIP3   OH238315   6.620   4.923  19.990
 4707TIP3    H138316   6.675   4.872  19.927
 4707TIP3    H238317   6.669   4.909  20.072
 4708TIP3   OH238318   6.889   4.363  19.977
 4708TIP3    H138319   6.903   4.267  19.986
 4708TIP3    H238320   6.919   4.376  19.885
 4709TIP3   OH238321   6.230   4.173  19.685
 4709TIP3    H138322   6.263   4.252  19.639
 4709TIP3    H238323   6.187   4.125  19.612
 4710TIP3   OH238324   6.959   4.181  19.516
 4710TIP3    H138325   7.003   4.135  19.592
 4710TIP3    H238326   7.033   4.239  19.491
 4711TIP3   OH238327   5.862   4.403  19.759
 4711TIP3    H138328   5.924   4.353  19.816
 4711TIP3    H238329   5.879   4.363  19.672
 4712TIP3   OH238330   6.400   4.579  19.696
 4712TIP3    H138331   6.461   4.522  19.746
 4712TIP3    H238332   6.359   4.510  19.640
 4713TIP3   OH238333   6.843   4.997  19.436
 4713TIP3    H138334   6.913   4.948  19.390
 4713TIP3    H238335   6.898   5.045  19.501
 4714TIP3   OH238336   7.129   4.121  19.709
 4714TIP3    H138337   7.074   4.107  19.789
 4714TIP3    H238338   7.220   4.118  19.741
 4715TIP3   OH238339   6.061   4.259  19.871
 4715TIP3    H138340   6.105   4.346  19.874
 4715TIP3    H238341   6.114   4.213  19.802
 4716TIP3   OH238342   5.798   4.973  19.255
 4716TIP3    H138343   5.793   5.033  19.177
 4716TIP3    H238344   5.816   5.038  19.325
 4717TIP3   OH238345   7.187   5.087  19.883
 4717TIP3    H138346   7.153   5.048  19.966
 4717TIP3    H238347   7.195   5.180  19.909
 4718TIP3   OH238348   6.496   3.817  19.777
 4718TIP3    H138349   6.515   3.724  19.797
 4718TIP3    H238350   6.409   3.833  19.819
 4719TIP3   OH238351   6.963   5.361  19.608
 4719TIP3    H138352   6.999   5.276  19.576
 4719TIP3    H238353   7.038   5.422  19.586
 4720TIP3   OH238354   7.092   5.130  19.471
 4720TIP3    H138355   7.120   5.071  19.399
 4720TIP3    H238356   7.116   5.081  19.552
 4721TIP3   OH238357   6.708   4.686  19.266
 4721TIP3    H138358   6.665   4.768  19.237
 4721TIP3    H238359   6.798   4.691  19.225
 4722TIP3   OH238360   6.738   4.568  18.964
 4722TIP3    H138361   6.793   4.609  19.033
 4722TIP3    H238362   6.755   4.475  18.982
 4723TIP3   OH238363   7.083   4.717  19.362
 4723TIP3    H138364   7.009   4.717  19.429
 4723TIP3    H238365   7.147   4.660  19.409
 4724TIP3   OH238366   6.259   4.757  19.546
 4724TIP3    H138367   6.201   4.706  19.486
 4724TIP3    H238368   6.312   4.690  19.594
 4725TIP3   OH238369   6.366   5.129  19.832
 4725TIP3    H138370   6.373   5.102  19.739
 4725TIP3    H238371   6.426   5.068  19.878
 4726TIP3   OH238372   6.236   4.553  19.919
 4726TIP3    H138373   6.281   4.580  19.836
 4726TIP3    H238374   6.248   4.633  19.974
 4727TIP3   OH238375   6.941   4.648  19.148
 4727TIP3    H138376   6.999   4.669  19.225
 4727TIP3    H238377   6.998   4.676  19.073
 4728TIP3   OH238378   6.705   5.246  19.487
 4728TIP3    H138379   6.745   5.267  19.573
 4728TIP3    H238380   6.684   5.336  19.456
 4729TIP3   OH238381   7.317   3.774  19.140
 4729TIP3    H138382   7.222   3.791  19.160
 4729TIP3    H238383   7.356   3.863  19.146
 4730TIP3   OH238384   6.077   4.639  19.350
 4730TIP3    H138385   6.069   4.722  19.299
 4730TIP3    H238386   6.069   4.572  19.281
 4731TIP3   OH238387   7.432   5.253  18.967
 4731TIP3    H138388   7.466   5.345  18.961
 4731TIP3    H238389   7.518   5.209  18.980
 4732TIP3   OH238390   5.719   5.227  19.834
 4732TIP3    H138391   5.802   5.189  19.866
 4732TIP3    H238392   5.676   5.267  19.911
 4733TIP3   OH238393   6.702   5.565  19.348
 4733TIP3    H138394   6.692   5.559  19.249
 4733TIP3    H238395   6.676   5.659  19.362
 4734TIP3   OH238396   6.045   5.446  19.517
 4734TIP3    H138397   6.075   5.431  19.610
 4734TIP3    H238398   5.961   5.396  19.516
 4735TIP3   OH238399   6.990   5.504  19.026
 4735TIP3    H138400   7.036   5.426  18.988
 4735TIP3    H238401   6.998   5.491  19.123
 4736TIP3   OH238402   6.956   5.494  19.302
 4736TIP3    H138403   6.862   5.520  19.316
 4736TIP3    H238404   6.962   5.420  19.361
 4737TIP3   OH238405   6.240   3.894  19.872
 4737TIP3    H138406   6.160   3.887  19.817
 4737TIP3    H238407   6.228   3.985  19.905
 4738TIP3   OH238408   7.108   4.749  18.972
 4738TIP3    H138409   7.084   4.765  18.879
 4738TIP3    H238410   7.203   4.767  18.968
 4739TIP3   OH238411   6.676   4.125  18.971
 4739TIP3    H138412   6.652   4.094  19.060
 4739TIP3    H238413   6.617   4.065  18.922
 4740TIP3   OH238414   6.259   4.407  19.549
 4740TIP3    H138415   6.201   4.481  19.525
 4740TIP3    H238416   6.287   4.375  19.459
 4741TIP3   OH238417   6.807   4.478  19.395
 4741TIP3    H138418   6.764   4.547  19.340
 4741TIP3    H238419   6.870   4.441  19.330
 4742TIP3   OH238420   6.882   4.408  19.695
 4742TIP3    H138421   6.857   4.474  19.627
 4742TIP3    H238422   6.887   4.329  19.638
 4743TIP3   OH238423   6.306   4.133  18.872
 4743TIP3    H138424   6.266   4.093  18.952
 4743TIP3    H238425   6.239   4.198  18.846
 4744TIP3   OH238426   5.653   4.103  19.631
 4744TIP3    H138427   5.712   4.124  19.708
 4744TIP3    H238428   5.717   4.093  19.561
 4745TIP3   OH238429   5.846   4.226  19.179
 4745TIP3    H138430   5.868   4.244  19.084
 4745TIP3    H238431   5.753   4.259  19.180
 4746TIP3   OH238432   6.557   4.160  19.611
 4746TIP3    H138433   6.490   4.168  19.680
 4746TIP3    H238434   6.624   4.106  19.659
 4747TIP3   OH238435   5.964   4.270  19.516
 4747TIP3    H138436   5.907   4.345  19.484
 4747TIP3    H238437   6.054   4.300  19.495
 4748TIP3   OH238438   6.315   4.345  19.295
 4748TIP3    H138439   6.407   4.317  19.280
 4748TIP3    H238440   6.297   4.403  19.219
 4749TIP3   OH238441   6.947   4.097  19.901
 4749TIP3    H138442   6.929   4.071  19.992
 4749TIP3    H238443   6.856   4.096  19.865
 4750TIP3   OH238444   6.204   4.446  19.012
 4750TIP3    H138445   6.179   4.401  18.928
 4750TIP3    H238446   6.293   4.475  18.982
 4751TIP3   OH238447   6.599   4.418  19.816
 4751TIP3    H138448   6.659   4.411  19.740
 4751TIP3    H238449   6.649   4.367  19.882
 4752TIP3   OH238450   6.101   4.019  19.471
 4752TIP3    H138451   6.056   3.944  19.519
 4752TIP3    H238452   6.176   3.972  19.429
 4753TIP3   OH238453   6.528   4.909  19.240
 4753TIP3    H138454   6.464   4.850  19.191
 4753TIP3    H238455   6.477   4.923  19.323
 4754TIP3   OH238456   6.915   4.163  19.072
 4754TIP3    H138457   6.826   4.178  19.032
 4754TIP3    H238458   6.944   4.255  19.090
 4755TIP3   OH238459   7.004   4.384  19.196
 4755TIP3    H138460   7.082   4.372  19.255
 4755TIP3    H238461   7.025   4.464  19.146
 4756TIP3   OH238462   6.037   4.835  19.788
 4756TIP3    H138463   6.095   4.859  19.715
 4756TIP3    H238464   6.099   4.802  19.856
 4757TIP3   OH238465   6.750   5.031  19.145
 4757TIP3    H138466   6.709   5.109  19.103
 4757TIP3    H238467   6.680   4.964  19.138
 4758TIP3   OH238468   7.439   4.359  19.192
 4758TIP3    H138469   7.396   4.345  19.106
 4758TIP3    H238470   7.498   4.435  19.172
 4759TIP3   OH238471   7.301   5.261  19.211
 4759TIP3    H138472   7.252   5.179  19.218
 4759TIP3    H238473   7.347   5.254  19.124
 4760TIP3   OH238474   7.000   4.777  19.877
 4760TIP3    H138475   6.911   4.742  19.854
 4760TIP3    H238476   7.058   4.714  19.829
 4761TIP3   OH238477   6.279   5.197  19.540
 4761TIP3    H138478   6.301   5.280  19.494
 4761TIP3    H238479   6.184   5.195  19.522
 4762TIP3   OH238480   5.918   4.703  19.005
 4762TIP3    H138481   5.959   4.751  19.080
 4762TIP3    H238482   5.822   4.701  19.027
 4763TIP3   OH238483   6.431   4.979  19.480
 4763TIP3    H138484   6.371   5.053  19.504
 4763TIP3    H238485   6.392   4.906  19.533
 4764TIP3   OH238486   6.302   5.451  19.424
 4764TIP3    H138487   6.205   5.462  19.436
 4764TIP3    H238488   6.332   5.531  19.473
 4765TIP3   OH238489   7.084   5.083  19.019
 4765TIP3    H138490   7.112   5.030  19.096
 4765TIP3    H238491   6.990   5.058  19.014
 4766TIP3   OH238492   7.526   5.491  19.017
 4766TIP3    H138493   7.556   5.582  19.001
 4766TIP3    H238494   7.444   5.510  19.065
 4767TIP3   OH238495   7.154   4.937  19.235
 4767TIP3    H138496   7.117   4.849  19.258
 4767TIP3    H238497   7.248   4.911  19.221
 4768TIP3   OH238498   6.500   5.163  18.885
 4768TIP3    H138499   6.473   5.135  18.795
 4768TIP3    H238500   6.418   5.146  18.934
 4769TIP3   OH238501   6.341   5.125  19.108
 4769TIP3    H138502   6.420   5.091  19.152
 4769TIP3    H238503   6.350   5.222  19.121
 4770TIP3   OH238504   6.045   4.866  19.178
 4770TIP3    H138505   5.957   4.891  19.213
 4770TIP3    H238506   6.068   4.943  19.123
 4771TIP3   OH238507   6.847   4.060  19.306
 4771TIP3    H138508   6.889   4.098  19.226
 4771TIP3    H238509   6.891   4.111  19.378
 4772TIP3   OH238510   6.611   5.273  19.188
 4772TIP3    H138511   6.534   5.334  19.193
 4772TIP3    H238512   6.677   5.334  19.149
 4773TIP3   OH238513   6.583   4.245  19.354
 4773TIP3    H138514   6.642   4.322  19.364
 4773TIP3    H238515   6.578   4.209  19.446
 4774TIP3   OH238516   6.655   3.929  19.425
 4774TIP3    H138517   6.624   3.995  19.488
 4774TIP3    H238518   6.728   3.980  19.381
 4775TIP3   OH238519   6.375   5.393  19.154
 4775TIP3    H138520   6.384   5.480  19.109
 4775TIP3    H238521   6.340   5.425  19.239
 4776TIP3   OH238522   6.236   4.058  19.147
 4776TIP3    H138523   6.244   4.144  19.190
 4776TIP3    H238524   6.328   4.026  19.151
 4777TIP3   OH238525   7.087   4.575  19.739
 4777TIP3    H138526   7.010   4.516  19.726
 4777TIP3    H238527   7.146   4.518  19.792
 4778TIP3   OH238528   6.055   5.102  19.026
 4778TIP3    H138529   6.117   5.156  19.079
 4778TIP3    H238530   6.118   5.073  18.957
 4779TIP3   OH238531   5.890   4.374  18.955
 4779TIP3    H138532   5.944   4.450  18.979
 4779TIP3    H238533   5.818   4.417  18.905
 4780TIP3   OH238534   7.262   5.461  19.941
 4780TIP3    H138535   7.244   5.551  19.905
 4780TIP3    H238536   7.347   5.475  19.983
 4781TIP3   OH238537   5.986   3.874  19.773
 4781TIP3    H138538   5.948   3.834  19.692
 4781TIP3    H238539   5.980   3.797  19.833
 4782TIP3   OH238540   5.852   5.231  19.435
 4782TIP3    H138541   5.774   5.289  19.440
 4782TIP3    H238542   5.891   5.271  19.356
 4783TIP3   OH238543   6.698   5.364  18.886
 4783TIP3    H138544   6.632   5.292  18.876
 4783TIP3    H238545   6.767   5.337  18.822
 4784TIP3   OH238546   7.122   5.318  18.878
 4784TIP3    H138547   7.149   5.254  18.945
 4784TIP3    H238548   7.200   5.321  18.819
 4785TIP3   OH238549   6.231   4.926  18.861
 4785TIP3    H138550   6.266   4.904  18.948
 4785TIP3    H238551   6.304   4.900  18.800
 4786TIP3   OH238552   6.777   5.042  18.835
 4786TIP3    H138553   6.698   5.045  18.891
 4786TIP3    H238554   6.779   4.946  18.813
 4787TIP3   OH238555   6.350   4.745  19.117
 4787TIP3    H138556   6.258   4.716  19.122
 4787TIP3    H238557   6.390   4.680  19.054
 4788TIP3   OH238558   6.458   4.567  18.919
 4788TIP3    H138559   6.453   4.613  18.832
 4788TIP3    H238560   6.556   4.557  18.929
 4789TIP3   OH238561   7.370   4.770  18.875
 4789TIP3    H138562   7.344   4.749  18.782
 4789TIP3    H238563   7.365   4.869  18.875
 4790TIP3   OH238564   6.479   5.656  19.160
 4790TIP3    H138565   6.555   5.670  19.103
 4790TIP3    H238566   6.403   5.687  19.103
 4791TIP3   OH238567   5.790   5.071  18.989
 4791TIP3    H138568   5.888   5.077  18.997
 4791TIP3    H238569   5.781   5.021  18.904
 4792TIP3   OH238570   5.686   5.590  19.460
 4792TIP3    H138571   5.606   5.542  19.430
 4792TIP3    H238572   5.706   5.535  19.539
 4793TIP3   OH238573   5.752   5.424  19.654
 4793TIP3    H138574   5.722   5.343  19.700
 4793TIP3    H238575   5.799   5.471  19.726
 4794TIP3   OH238576   7.416   4.863  19.259
 4794TIP3    H138577   7.497   4.909  19.287
 4794TIP3    H238578   7.412   4.796  19.331
 4795TIP3   OH238579   7.454   4.702  19.464
 4795TIP3    H138580   7.369   4.662  19.493
 4795TIP3    H238581   7.507   4.689  19.545
 4796TIP3   OH238582   7.531   4.930  19.931
 4796TIP3    H138583   7.618   4.962  19.901
 4796TIP3    H238584   7.480   5.014  19.927
 4797TIP3   OH238585   7.522   4.678  19.087
 4797TIP3    H138586   7.464   4.695  19.010
 4797TIP3    H238587   7.499   4.754  19.143
 4798TIP3   OH238588   7.315   4.370  18.931
 4798TIP3    H138589   7.342   4.430  18.860
 4798TIP3    H238590   7.291   4.288  18.884
 4799TIP3   OH238591   7.246   4.548  19.533
 4799TIP3    H138592   7.300   4.468  19.544
 4799TIP3    H238593   7.191   4.543  19.614
 4800TIP3   OH238594   5.773   4.769  19.890
 4800TIP3    H138595   5.774   4.718  19.808
 4800TIP3    H238596   5.843   4.729  19.944
 4801TIP3   OH238597   7.253   4.117  18.855
 4801TIP3    H138598   7.247   4.087  18.947
 4801TIP3    H238599   7.164   4.093  18.822
 4802TIP3   OH238600   7.222   4.295  19.349
 4802TIP3    H138601   7.249   4.203  19.367
 4802TIP3    H238602   7.301   4.325  19.299
 4803TIP3   OH238603   7.243   4.380  19.824
 4803TIP3    H138604   7.342   4.383  19.823
 4803TIP3    H238605   7.229   4.294  19.870
 4804TIP3   OH238606   7.249   4.025  19.376
 4804TIP3    H138607   7.262   3.991  19.468
 4804TIP3    H238608   7.191   3.955  19.338
 4805TIP3   OH238609   5.834   4.105  19.843
 4805TIP3    H138610   5.863   4.012  19.839
 4805TIP3    H238611   5.916   4.147  19.877
 4806TIP3   OH238612   5.666   4.378  19.961
 4806TIP3    H138613   5.706   4.333  19.885
 4806TIP3    H238614   5.704   4.467  19.952
 4807TIP3   OH238615   7.488   4.011  19.054
 4807TIP3    H138616   7.520   3.956  18.982
 4807TIP3    H238617   7.517   4.099  19.024
 4808TIP3   OH238618   5.708   4.030  19.315
 4808TIP3    H138619   5.615   4.032  19.341
 4808TIP3    H238620   5.698   4.022  19.218
 4809TIP3   OH238621   7.167   5.530  19.542
 4809TIP3    H138622   7.240   5.499  19.485
 4809TIP3    H238623   7.214   5.583  19.608
 4810TIP3   OH238624   5.908   5.522  19.874
 4810TIP3    H138625   5.932   5.532  19.968
 4810TIP3    H238626   5.984   5.468  19.841
 4811TIP3   OH238627   6.112   5.386  19.767
 4811TIP3    H138628   6.118   5.289  19.773
 4811TIP3    H238629   6.197   5.409  19.809
 4812TIP3   OH238630   6.347   5.430  19.885
 4812TIP3    H138631   6.383   5.342  19.868
 4812TIP3    H238632   6.339   5.432  19.981
 4813TIP3   OH238633   6.719   4.018  19.770
 4813TIP3    H138634   6.659   3.944  19.793
 4813TIP3    H238635   6.797   3.968  19.737
 4814TIP3   OH238636   7.219   3.806  19.810
 4814TIP3    H138637   7.266   3.860  19.742
 4814TIP3    H238638   7.128   3.826  19.785
 4815TIP3   OH238639   7.347   3.920  19.607
 4815TIP3    H138640   7.410   3.857  19.563
 4815TIP3    H238641   7.399   4.003  19.609
 4816TIP3   OH238642   5.935   3.812  19.511
 4816TIP3    H138643   5.853   3.789  19.461
 4816TIP3    H238644   5.983   3.727  19.504
 4817TIP3   OH238645   5.848   3.807  19.141
 4817TIP3    H138646   5.880   3.872  19.075
 4817TIP3    H238647   5.758   3.840  19.156
 4818TIP3   OH238648   6.340   3.797  19.525
 4818TIP3    H138649   6.424   3.808  19.478
 4818TIP3    H238650   6.371   3.795  19.617
 4819TIP3   OH238651   6.924   3.860  19.637
 4819TIP3    H138652   6.929   3.853  19.541
 4819TIP3    H238653   6.898   3.768  19.665
 4820TIP3   OH238654   7.086   3.831  19.297
 4820TIP3    H138655   7.001   3.873  19.282
 4820TIP3    H238656   7.060   3.741  19.325
 4821TIP3   OH238657   5.822   5.410  19.235
 4821TIP3    H138658   5.753   5.400  19.167
 4821TIP3    H238659   5.846   5.503  19.218
 4822TIP3   OH238660   5.944   4.018  18.971
 4822TIP3    H138661   6.008   3.969  18.916
 4822TIP3    H238662   5.999   4.041  19.047
 4823TIP3   OH238663   6.530   4.035  19.183
 4823TIP3    H138664   6.571   3.977  19.250
 4823TIP3    H238665   6.541   4.122  19.228
 4824TIP3   OH238666   6.735   5.549  19.087
 4824TIP3    H138667   6.827   5.547  19.051
 4824TIP3    H238668   6.688   5.504  19.014
 4825TIP3   OH238669   7.356   5.477  19.352
 4825TIP3    H138670   7.340   5.397  19.296
 4825TIP3    H238671   7.350   5.547  19.285
 4826TIP3   OH238672   5.958   5.459  18.925
 4826TIP3    H138673   5.960   5.519  19.001
 4826TIP3    H238674   6.052   5.431  18.922
 4827TIP3   OH238675   7.558   4.454  19.451
 4827TIP3    H138676   7.523   4.539  19.418
 4827TIP3    H238677   7.497   4.390  19.410
 4828TIP3   OH238678   7.540   5.199  19.875
 4828TIP3    H138679   7.636   5.208  19.886
 4828TIP3    H238680   7.504   5.238  19.956
 4829TIP3   OH238681   7.495   4.150  19.579
 4829TIP3    H138682   7.591   4.165  19.599
 4829TIP3    H238683   7.503   4.110  19.489
 4830TIP3   OH238684   7.509   5.615  19.513
 4830TIP3    H138685   7.460   5.561  19.446
 4830TIP3    H238686   7.514   5.549  19.586
 4831TIP3   OH238687   7.539   5.460  19.725
 4831TIP3    H138688   7.488   5.383  19.756
 4831TIP3    H238689   7.631   5.429  19.732
 4832TIP3   OH238690   7.647   4.635  19.910
 4832TIP3    H138691   7.688   4.660  19.824
 4832TIP3    H238692   7.658   4.717  19.962
 4833TIP3   OH238693   7.497   4.414  19.875
 4833TIP3    H138694   7.574   4.357  19.876
 4833TIP3    H238695   7.539   4.497  19.904
 4834TIP3   OH238696   7.511   4.051  19.328
 4834TIP3    H138697   7.414   4.049  19.325
 4834TIP3    H238698   7.533   4.040  19.232
 4835TIP3   OH238699   1.207   6.657  19.522
 4835TIP3    H138700   1.177   6.750  19.534
 4835TIP3    H238701   1.139   6.622  19.462
 4836TIP3   OH238702   1.097   6.557  19.871
 4836TIP3    H138703   1.082   6.510  19.955
 4836TIP3    H238704   1.037   6.511  19.810
 4837TIP3   OH238705   1.411   6.825  19.696
 4837TIP3    H138706   1.398   6.748  19.756
 4837TIP3    H238707   1.449   6.890  19.759
 4838TIP3   OH238708   0.375   6.966  19.857
 4838TIP3    H138709   0.360   6.875  19.819
 4838TIP3    H238710   0.467   6.954  19.887
 4839TIP3   OH238711   0.115   6.273  19.372
 4839TIP3    H138712   0.138   6.357  19.413
 4839TIP3    H238713   0.020   6.270  19.399
 4840TIP3   OH238714   0.123   6.555  19.676
 4840TIP3    H138715   0.153   6.463  19.693
 4840TIP3    H238716   0.204   6.595  19.641
 4841TIP3   OH238717   1.170   7.370  19.758
 4841TIP3    H138718   1.241   7.320  19.710
 4841TIP3    H238719   1.142   7.301  19.821
 4842TIP3   OH238720   0.962   6.838  19.973
 4842TIP3    H138721   1.004   6.772  19.915
 4842TIP3    H238722   1.022   6.835  20.049
 4843TIP3   OH238723   1.219   6.257  19.968
 4843TIP3    H138724   1.247   6.164  19.976
 4843TIP3    H238725   1.233   6.274  19.874
 4844TIP3   OH238726   0.593   6.031  19.699
 4844TIP3    H138727   0.607   6.116  19.651
 4844TIP3    H238728   0.542   5.984  19.631
 4845TIP3   OH238729   1.299   6.080  19.518
 4845TIP3    H138730   1.352   6.042  19.593
 4845TIP3    H238731   1.365   6.143  19.486
 4846TIP3   OH238732   0.224   6.311  19.718
 4846TIP3    H138733   0.288   6.250  19.760
 4846TIP3    H238734   0.236   6.282  19.626
 4847TIP3   OH238735   0.702   6.437  19.690
 4847TIP3    H138736   0.775   6.387  19.731
 4847TIP3    H238737   0.656   6.364  19.644
 4848TIP3   OH238738   1.125   6.903  19.394
 4848TIP3    H138739   1.106   6.906  19.299
 4848TIP3    H238740   1.138   6.996  19.415
 4849TIP3   OH238741   1.479   6.019  19.700
 4849TIP3    H138742   1.419   6.002  19.777
 4849TIP3    H238743   1.563   5.988  19.735
 4850TIP3   OH238744   0.391   6.140  19.860
 4850TIP3    H138745   0.435   6.207  19.913
 4850TIP3    H238746   0.464   6.099  19.809
 4851TIP3   OH238747   0.125   6.846  19.248
 4851TIP3    H138748   0.117   6.900  19.166
 4851TIP3    H238749   0.151   6.912  19.314
 4852TIP3   OH238750   1.493   7.014  19.863
 4852TIP3    H138751   1.467   6.965  19.945
 4852TIP3    H238752   1.546   7.086  19.898
 4853TIP3   OH238753   0.847   5.719  19.828
 4853TIP3    H138754   0.866   5.625  19.824
 4853TIP3    H238755   0.748   5.723  19.841
 4854TIP3   OH238756   1.322   7.240  19.591
 4854TIP3    H138757   1.354   7.148  19.597
 4854TIP3    H238758   1.406   7.283  19.559
 4855TIP3   OH238759   1.468   6.996  19.497
 4855TIP3    H138760   1.445   6.946  19.416
 4855TIP3    H238761   1.452   6.928  19.566
 4856TIP3   OH238762   1.060   6.574  19.272
 4856TIP3    H138763   1.002   6.648  19.245
 4856TIP3    H238764   1.147   6.602  19.235
 4857TIP3   OH238765   1.084   6.459  18.970
 4857TIP3    H138766   1.136   6.491  19.046
 4857TIP3    H238767   1.118   6.368  18.959
 4858TIP3   OH238768   1.442   6.569  19.385
 4858TIP3    H138769   1.368   6.604  19.440
 4858TIP3    H238770   1.505   6.536  19.453
 4859TIP3   OH238771   0.584   6.636  19.563
 4859TIP3    H138772   0.539   6.605  19.482
 4859TIP3    H238773   0.636   6.559  19.594
 4860TIP3   OH238774   0.735   6.995  19.839
 4860TIP3    H138775   0.708   6.950  19.757
 4860TIP3    H238776   0.803   6.936  19.876
 4861TIP3   OH238777   0.554   6.541  19.921
 4861TIP3    H138778   0.599   6.524  19.836
 4861TIP3    H238779   0.624   6.528  19.986
 4862TIP3   OH238780   1.294   6.551  19.149
 4862TIP3    H138781   1.354   6.558  19.227
 4862TIP3    H238782   1.355   6.572  19.073
 4863TIP3   OH238783   1.041   7.277  19.528
 4863TIP3    H138784   1.105   7.208  19.550
 4863TIP3    H238785   1.075   7.347  19.589
 4864TIP3   OH238786   1.682   5.659  19.187
 4864TIP3    H138787   1.594   5.681  19.225
 4864TIP3    H238788   1.711   5.744  19.148
 4865TIP3   OH238789   0.445   6.527  19.331
 4865TIP3    H138790   0.437   6.612  19.282
 4865TIP3    H238791   0.406   6.466  19.268
 4866TIP3   OH238792   1.791   7.101  19.007
 4866TIP3    H138793   1.822   7.195  19.003
 4866TIP3    H238794   1.875   7.050  19.013
 4867TIP3   OH238795   0.128   7.083  19.843
 4867TIP3    H138796   0.211   7.033  19.861
 4867TIP3    H238797   0.152   7.171  19.877
 4868TIP3   OH238798   0.974   7.477  19.309
 4868TIP3    H138799   1.008   7.471  19.217
 4868TIP3    H238800   0.999   7.567  19.334
 4869TIP3   OH238801   0.398   7.325  19.506
 4869TIP3    H138802   0.419   7.315  19.602
 4869TIP3    H238803   0.317   7.272  19.498
 4870TIP3   OH238804   1.330   7.367  19.068
 4870TIP3    H138805   1.402   7.311  19.031
 4870TIP3    H238806   1.337   7.347  19.163
 4871TIP3   OH238807   1.271   7.351  19.323
 4871TIP3    H138808   1.181   7.376  19.345
 4871TIP3    H238809   1.290   7.279  19.385
 4872TIP3   OH238810   0.587   5.763  19.834
 4872TIP3    H138811   0.496   5.774  19.800
 4872TIP3    H238812   0.599   5.851  19.874
 4873TIP3   OH238813   1.462   6.639  18.968
 4873TIP3    H138814   1.446   6.657  18.873
 4873TIP3    H238815   1.558   6.658  18.971
 4874TIP3   OH238816   1.014   6.004  18.973
 4874TIP3    H138817   0.980   5.998  19.063
 4874TIP3    H238818   0.958   5.937  18.931
 4875TIP3   OH238819   0.591   6.245  19.547
 4875TIP3    H138820   0.494   6.233  19.532
 4875TIP3    H238821   0.624   6.248  19.453
 4876TIP3   OH238822   1.142   6.356  19.387
 4876TIP3    H138823   1.110   6.433  19.333
 4876TIP3    H238824   1.202   6.316  19.322
 4877TIP3   OH238825   1.224   6.307  19.693
 4877TIP3    H138826   1.207   6.383  19.634
 4877TIP3    H238827   1.231   6.236  19.628
 4878TIP3   OH238828   0.651   6.046  18.911
 4878TIP3    H138829   0.612   5.992  18.984
 4878TIP3    H238830   0.575   6.062  18.854
 4879TIP3   OH238831   0.074   5.991  19.622
 4879TIP3    H138832   0.109   5.995  19.714
 4879TIP3    H238833   0.126   5.918  19.587
 4880TIP3   OH238834   0.106   6.086  19.141
 4880TIP3    H138835   0.171   6.121  19.076
 4880TIP3    H238836   0.095   6.164  19.198
 4881TIP3   OH238837   0.875   6.035  19.602
 4881TIP3    H138838   0.792   6.029  19.653
 4881TIP3    H238839   0.937   5.992  19.663
 4882TIP3   OH238840   0.331   6.191  19.498
 4882TIP3    H138841   0.261   6.194  19.428
 4882TIP3    H238842   0.343   6.093  19.502
 4883TIP3   OH238843   0.673   6.218  19.291
 4883TIP3    H138844   0.765   6.207  19.263
 4883TIP3    H238845   0.635   6.273  19.221
 4884TIP3   OH238846   1.291   6.000  19.890
 4884TIP3    H138847   1.293   5.968  19.982
 4884TIP3    H238848   1.197   5.984  19.868
 4885TIP3   OH238849   0.564   6.337  19.027
 4885TIP3    H138850   0.523   6.278  18.963
 4885TIP3    H238851   0.647   6.358  18.980
 4886TIP3   OH238852   0.950   6.310  19.821
 4886TIP3    H138853   1.002   6.302  19.739
 4886TIP3    H238854   1.008   6.262  19.882
 4887TIP3   OH238855   0.413   5.940  19.502
 4887TIP3    H138856   0.360   5.859  19.523
 4887TIP3    H238857   0.458   5.906  19.423
 4888TIP3   OH238858   0.894   6.771  19.228
 4888TIP3    H138859   0.817   6.721  19.193
 4888TIP3    H238860   0.861   6.799  19.317
 4889TIP3   OH238861   1.255   6.052  19.075
 4889TIP3    H138862   1.167   6.049  19.032
 4889TIP3    H238863   1.274   6.148  19.077
 4890TIP3   OH238864   1.330   6.282  19.181
 4890TIP3    H138865   1.397   6.247  19.242
 4890TIP3    H238866   1.369   6.365  19.153
 4891TIP3   OH238867   0.410   6.726  19.757
 4891TIP3    H138868   0.467   6.701  19.680
 4891TIP3    H238869   0.455   6.677  19.829
 4892TIP3   OH238870   1.076   6.920  19.117
 4892TIP3    H138871   1.023   6.999  19.137
 4892TIP3    H238872   1.021   6.849  19.158
 4893TIP3   OH238873   1.809   6.246  19.189
 4893TIP3    H138874   1.756   6.241  19.106
 4893TIP3    H238875   1.831   6.340  19.194
 4894TIP3   OH238876   1.622   7.134  19.220
 4894TIP3    H138877   1.622   7.055  19.274
 4894TIP3    H238878   1.677   7.109  19.143
 4895TIP3   OH238879   1.359   6.633  19.876
 4895TIP3    H138880   1.265   6.609  19.862
 4895TIP3    H238881   1.407   6.560  19.832
 4896TIP3   OH238882   0.627   7.039  19.557
 4896TIP3    H138883   0.654   7.130  19.580
 4896TIP3    H238884   0.540   7.051  19.517
 4897TIP3   OH238885   0.229   6.547  19.018
 4897TIP3    H138886   0.279   6.626  19.050
 4897TIP3    H238887   0.141   6.561  19.055
 4898TIP3   OH238888   0.766   6.820  19.451
 4898TIP3    H138889   0.705   6.884  19.493
 4898TIP3    H238890   0.748   6.740  19.503
 4899TIP3   OH238891   0.663   7.296  19.445
 4899TIP3    H138892   0.565   7.301  19.451
 4899TIP3    H238893   0.686   7.381  19.490
 4900TIP3   OH238894   1.427   6.955  19.005
 4900TIP3    H138895   1.439   6.906  19.089
 4900TIP3    H238896   1.333   6.935  18.988
 4901TIP3   OH238897   1.869   7.358  19.016
 4901TIP3    H138898   1.930   7.433  19.022
 4901TIP3    H238899   1.782   7.400  19.038
 4902TIP3   OH238900   1.485   6.815  19.242
 4902TIP3    H138901   1.461   6.728  19.282
 4902TIP3    H238902   1.577   6.800  19.215
 4903TIP3   OH238903   0.840   7.065  18.877
 4903TIP3    H138904   0.825   7.009  18.799
 4903TIP3    H238905   0.763   7.037  18.932
 4904TIP3   OH238906   0.680   7.011  19.109
 4904TIP3    H138907   0.746   6.967  19.164
 4904TIP3    H238908   0.689   7.104  19.139
 4905TIP3   OH238909   0.365   6.738  19.159
 4905TIP3    H138910   0.288   6.771  19.209
 4905TIP3    H238911   0.399   6.818  19.113
 4906TIP3   OH238912   1.230   5.925  19.306
 4906TIP3    H138913   1.254   5.980  19.227
 4906TIP3    H238914   1.254   5.985  19.380
 4907TIP3   OH238915   0.997   7.163  19.202
 4907TIP3    H138916   0.940   7.200  19.132
 4907TIP3    H238917   1.085   7.181  19.166
 4908TIP3   OH238918   0.952   6.137  19.366
 4908TIP3    H138919   0.997   6.223  19.380
 4908TIP3    H238920   0.918   6.113  19.456
 4909TIP3   OH238921   1.003   5.822  19.407
 4909TIP3    H138922   0.976   5.886  19.474
 4909TIP3    H238923   1.080   5.869  19.366
 4910TIP3   OH238924   0.738   7.276  19.169
 4910TIP3    H138925   0.745   7.347  19.099
 4910TIP3    H238926   0.666   7.313  19.222
 4911TIP3   OH238927   0.573   5.939  19.148
 4911TIP3    H138928   0.560   6.021  19.199
 4911TIP3    H238929   0.668   5.923  19.164
 4912TIP3   OH238930   1.469   6.428  19.744
 4912TIP3    H138931   1.392   6.368  19.757
 4912TIP3    H238932   1.535   6.386  19.804
 4913TIP3   OH238933   0.412   6.987  19.012
 4913TIP3    H138934   0.495   7.022  19.051
 4913TIP3    H238935   0.448   6.927  18.944
 4914TIP3   OH238936   0.232   6.262  18.969
 4914TIP3    H138937   0.258   6.353  18.994
 4914TIP3    H238938   0.166   6.281  18.901
 4915TIP3   OH238939   1.608   7.350  19.934
 4915TIP3    H138940   1.625   7.400  19.853
 4915TIP3    H238941   1.694   7.358  19.979
 4916TIP3   OH238942   0.322   5.765  19.794
 4916TIP3    H138943   0.311   5.748  19.698
 4916TIP3    H238944   0.315   5.673  19.827
 4917TIP3   OH238945   0.234   7.096  19.439
 4917TIP3    H138946   0.147   7.123  19.470
 4917TIP3    H238947   0.246   7.153  19.361
 4918TIP3   OH238948   1.044   7.250  18.882
 4918TIP3    H138949   0.986   7.170  18.880
 4918TIP3    H238950   1.121   7.219  18.829
 4919TIP3   OH238951   1.510   7.225  18.926
 4919TIP3    H138952   1.510   7.134  18.961
 4919TIP3    H238953   1.574   7.224  18.853
 4920TIP3   OH238954   0.574   6.801  18.855
 4920TIP3    H138955   0.586   6.743  18.931
 4920TIP3    H238956   0.656   6.782  18.804
 4921TIP3   OH238957   1.139   6.914  18.849
 4921TIP3    H138958   1.079   6.919  18.926
 4921TIP3    H238959   1.134   6.817  18.832
 4922TIP3   OH238960   0.690   6.617  19.117
 4922TIP3    H138961   0.631   6.552  19.158
 4922TIP3    H238962   0.738   6.562  19.052
 4923TIP3   OH238963   0.807   6.451  18.919
 4923TIP3    H138964   0.813   6.490  18.828
 4923TIP3    H238965   0.902   6.445  18.941
 4924TIP3   OH238966   1.725   6.668  18.866
 4924TIP3    H138967   1.705   6.637  18.775
 4924TIP3    H238968   1.723   6.766  18.853
 4925TIP3   OH238969   0.786   7.498  19.024
 4925TIP3    H138970   0.848   7.567  19.050
 4925TIP3    H238971   0.722   7.545  18.969
 4926TIP3   OH238972   0.147   6.997  19.032
 4926TIP3    H138973   0.244   7.007  19.035
 4926TIP3    H238974   0.141   6.929  18.962
 4927TIP3   OH238975   0.026   7.535  19.408
 4927TIP3    H138976  -0.069   7.549  19.427
 4927TIP3    H238977   0.036   7.458  19.465
 4928TIP3   OH238978   0.139   7.287  19.656
 4928TIP3    H138979   0.157   7.194  19.684
 4928TIP3    H238980   0.185   7.335  19.727
 4929TIP3   OH238981   1.772   6.752  19.224
 4929TIP3    H138982   1.859   6.794  19.239
 4929TIP3    H238983   1.768   6.692  19.302
 4930TIP3   OH238984   1.799   6.584  19.457
 4930TIP3    H138985   1.734   6.528  19.504
 4930TIP3    H238986   1.873   6.588  19.522
 4931TIP3   OH238987   1.808   6.860  19.972
 4931TIP3    H138988   1.865   6.792  19.932
 4931TIP3    H238989   1.818   6.934  19.910
 4932TIP3   OH238990   1.864   6.533  19.075
 4932TIP3    H138991   1.805   6.560  19.001
 4932TIP3    H238992   1.852   6.611  19.133
 4933TIP3   OH238993   1.660   6.246  18.929
 4933TIP3    H138994   1.688   6.308  18.861
 4933TIP3    H238995   1.641   6.168  18.876
 4934TIP3   OH238996   1.617   6.394  19.525
 4934TIP3    H138997   1.582   6.318  19.476
 4934TIP3    H238998   1.568   6.391  19.610
 4935TIP3   OH238999   0.158   6.716  19.898
 4935TIP3    H139000   0.176   6.673  19.811
 4935TIP3    H239001   0.207   6.657  19.957
 4936TIP3   OH239002   1.611   5.985  18.823
 4936TIP3    H139003   1.640   5.969  18.915
 4936TIP3    H239004   1.514   5.975  18.829
 4937TIP3   OH239005   1.547   6.194  19.355
 4937TIP3    H139006   1.565   6.099  19.374
 4937TIP3    H239007   1.627   6.211  19.304
 4938TIP3   OH239008   1.632   6.265  19.868
 4938TIP3    H139009   1.728   6.246  19.862
 4938TIP3    H239010   1.604   6.174  19.894
 4939TIP3   OH239011   1.626   5.939  19.369
 4939TIP3    H139012   1.662   5.883  19.442
 4939TIP3    H239013   1.562   5.877  19.331
 4940TIP3   OH239014   0.159   5.989  19.875
 4940TIP3    H139015   0.202   5.902  19.882
 4940TIP3    H239016   0.232   6.046  19.908
 4941TIP3   OH239017   0.105   6.267  19.979
 4941TIP3    H139018   0.137   6.244  19.890
 4941TIP3    H239019   0.064   6.352  19.960
 4942TIP3   OH239020   1.797   5.918  19.038
 4942TIP3    H139021   1.841   5.856  18.977
 4942TIP3    H239022   1.876   5.964  19.075
 4943TIP3   OH239023   0.114   5.883  19.311
 4943TIP3    H139024   0.030   5.889  19.361
 4943TIP3    H239025   0.098   5.948  19.240
 4944TIP3   OH239026   1.522   7.378  19.495
 4944TIP3    H139027   1.604   7.371  19.439
 4944TIP3    H239028   1.547   7.448  19.559
 4945TIP3   OH239029   0.261   7.320  19.917
 4945TIP3    H139030   0.295   7.372  19.994
 4945TIP3    H239031   0.347   7.285  19.882
 4946TIP3   OH239032   0.462   7.241  19.751
 4946TIP3    H139033   0.448   7.145  19.763
 4946TIP3    H239034   0.556   7.250  19.779
 4947TIP3   OH239035   0.702   7.259  19.855
 4947TIP3    H139036   0.720   7.165  19.876
 4947TIP3    H239037   0.730   7.307  19.934
 4948TIP3   OH239038   1.048   5.911  19.776
 4948TIP3    H139039   0.983   5.844  19.807
 4948TIP3    H239040   1.119   5.854  19.745
 4949TIP3   OH239041   1.592   5.698  19.762
 4949TIP3    H139042   1.648   5.742  19.693
 4949TIP3    H239043   1.502   5.731  19.744
 4950TIP3   OH239044   1.754   5.791  19.567
 4950TIP3    H139045   1.819   5.736  19.519
 4950TIP3    H239046   1.809   5.872  19.586
 4951TIP3   OH239047   0.322   5.700  19.540
 4951TIP3    H139048   0.236   5.679  19.495
 4951TIP3    H239049   0.371   5.615  19.533
 4952TIP3   OH239050   0.217   5.692  19.155
 4952TIP3    H139051   0.220   5.739  19.070
 4952TIP3    H239052   0.183   5.762  19.217
 4953TIP3   OH239053   0.722   5.659  19.548
 4953TIP3    H139054   0.806   5.692  19.514
 4953TIP3    H239055   0.731   5.663  19.643
 4954TIP3   OH239056   1.335   5.736  19.677
 4954TIP3    H139057   1.319   5.757  19.585
 4954TIP3    H239058   1.282   5.655  19.694
 4955TIP3   OH239059   1.436   5.741  19.313
 4955TIP3    H139060   1.354   5.794  19.306
 4955TIP3    H239061   1.400   5.650  19.322
 4956TIP3   OH239062   0.169   7.298  19.247
 4956TIP3    H139063   0.077   7.295  19.218
 4956TIP3    H239064   0.198   7.382  19.206
 4957TIP3   OH239065   0.297   5.876  18.971
 4957TIP3    H139066   0.369   5.824  18.930
 4957TIP3    H239067   0.333   5.898  19.059
 4958TIP3   OH239068   0.853   5.940  19.199
 4958TIP3    H139069   0.889   5.878  19.265
 4958TIP3    H239070   0.883   6.023  19.242
 4959TIP3   OH239071   1.076   7.438  19.072
 4959TIP3    H139072   1.170   7.421  19.048
 4959TIP3    H239073   1.032   7.393  18.997
 4960TIP3   OH239074   1.724   7.354  19.322
 4960TIP3    H139075   1.689   7.270  19.283
 4960TIP3    H239076   1.714   7.415  19.246
 4961TIP3   OH239077   0.323   7.351  18.914
 4961TIP3    H139078   0.281   7.411  18.980
 4961TIP3    H239079   0.390   7.308  18.969
 4962TIP3   OH239080   3.095   6.651  19.523
 4962TIP3    H139081   3.088   6.743  19.554
 4962TIP3    H239082   3.011   6.641  19.475
 4963TIP3   OH239083   2.979   6.547  19.865
 4963TIP3    H139084   2.969   6.503  19.951
 4963TIP3    H239085   2.912   6.503  19.812
 4964TIP3   OH239086   3.282   6.827  19.701
 4964TIP3    H139087   3.261   6.757  19.765
 4964TIP3    H239088   3.318   6.896  19.763
 4965TIP3   OH239089   2.308   6.986  19.871
 4965TIP3    H139090   2.271   6.900  19.842
 4965TIP3    H239091   2.403   6.967  19.859
 4966TIP3   OH239092   1.978   6.294  19.468
 4966TIP3    H139093   1.965   6.386  19.495
 4966TIP3    H239094   1.895   6.272  19.427
 4967TIP3   OH239095   2.053   6.547  19.644
 4967TIP3    H139096   2.081   6.467  19.694
 4967TIP3    H239097   2.126   6.608  19.663
 4968TIP3   OH239098   3.046   7.373  19.772
 4968TIP3    H139099   3.116   7.328  19.719
 4968TIP3    H239100   3.006   7.293  19.812
 4969TIP3   OH239101   2.843   6.844  19.977
 4969TIP3    H139102   2.880   6.792  19.905
 4969TIP3    H239103   2.898   6.814  20.050
 4970TIP3   OH239104   3.129   6.247  19.967
 4970TIP3    H139105   3.163   6.156  19.973
 4970TIP3    H239106   3.115   6.255  19.870
 4971TIP3   OH239107   2.474   6.008  19.683
 4971TIP3    H139108   2.488   6.099  19.647
 4971TIP3    H239109   2.405   5.976  19.622
 4972TIP3   OH239110   3.180   6.083  19.531
 4972TIP3    H139111   3.238   6.045  19.601
 4972TIP3    H239112   3.244   6.144  19.491
 4973TIP3   OH239113   2.099   6.276  19.749
 4973TIP3    H139114   2.165   6.217  19.793
 4973TIP3    H239115   2.111   6.246  19.656
 4974TIP3   OH239116   2.599   6.442  19.697
 4974TIP3    H139117   2.672   6.392  19.736
 4974TIP3    H239118   2.551   6.369  19.651
 4975TIP3   OH239119   3.001   6.898  19.404
 4975TIP3    H139120   2.990   6.891  19.308
 4975TIP3    H239121   2.994   6.995  19.417
 4976TIP3   OH239122   3.361   6.026  19.709
 4976TIP3    H139123   3.303   5.998  19.783
 4976TIP3    H239124   3.448   6.000  19.744
 4977TIP3   OH239125   2.304   6.160  19.870
 4977TIP3    H139126   2.339   6.251  19.862
 4977TIP3    H239127   2.347   6.115  19.796
 4978TIP3   OH239128   2.029   6.841  19.249
 4978TIP3    H139129   2.022   6.894  19.166
 4978TIP3    H239130   2.043   6.910  19.316
 4979TIP3   OH239131   3.373   7.003  19.877
 4979TIP3    H139132   3.345   6.962  19.963
 4979TIP3    H239133   3.413   7.085  19.909
 4980TIP3   OH239134   2.729   5.716  19.794
 4980TIP3    H139135   2.755   5.625  19.816
 4980TIP3    H239136   2.649   5.732  19.846
 4981TIP3   OH239137   3.213   7.239  19.624
 4981TIP3    H139138   3.220   7.144  19.600
 4981TIP3    H239139   3.292   7.273  19.575
 4982TIP3   OH239140   3.333   7.001  19.492
 4982TIP3    H139141   3.318   6.945  19.415
 4982TIP3    H239142   3.331   6.936  19.565
 4983TIP3   OH239143   2.941   6.564  19.267
 4983TIP3    H139144   2.889   6.642  19.236
 4983TIP3    H239145   3.030   6.582  19.229
 4984TIP3   OH239146   2.973   6.460  18.966
 4984TIP3    H139147   3.037   6.499  19.030
 4984TIP3    H239148   2.986   6.366  18.982
 4985TIP3   OH239149   3.325   6.574  19.383
 4985TIP3    H139150   3.248   6.603  19.438
 4985TIP3    H239151   3.388   6.544  19.452
 4986TIP3   OH239152   2.461   6.628  19.569
 4986TIP3    H139153   2.420   6.585  19.490
 4986TIP3    H239154   2.524   6.560  19.601
 4987TIP3   OH239155   2.588   6.993  19.837
 4987TIP3    H139156   2.593   6.994  19.740
 4987TIP3    H239157   2.661   6.934  19.863
 4988TIP3   OH239158   2.448   6.452  19.923
 4988TIP3    H139159   2.501   6.455  19.840
 4988TIP3    H239160   2.465   6.541  19.958
 4989TIP3   OH239161   3.179   6.540  19.144
 4989TIP3    H139162   3.236   6.557  19.221
 4989TIP3    H239163   3.237   6.571  19.070
 4990TIP3   OH239164   2.968   7.169  19.448
 4990TIP3    H139165   2.992   7.191  19.538
 4990TIP3    H239166   2.904   7.238  19.426
 4991TIP3   OH239167   3.573   5.653  19.176
 4991TIP3    H139168   3.483   5.669  19.213
 4991TIP3    H239169   3.604   5.744  19.158
 4992TIP3   OH239170   2.317   6.529  19.343
 4992TIP3    H139171   2.305   6.614  19.296
 4992TIP3    H239172   2.287   6.465  19.278
 4993TIP3   OH239173   3.677   7.096  19.010
 4993TIP3    H139174   3.710   7.188  19.005
 4993TIP3    H239175   3.760   7.044  19.012
 4994TIP3   OH239176   1.974   7.067  19.853
 4994TIP3    H139177   2.067   7.042  19.851
 4994TIP3    H239178   1.975   7.154  19.898
 4995TIP3   OH239179   2.934   7.494  19.333
 4995TIP3    H139180   2.941   7.491  19.235
 4995TIP3    H239181   2.893   7.580  19.347
 4996TIP3   OH239182   2.292   7.304  19.492
 4996TIP3    H139183   2.314   7.308  19.588
 4996TIP3    H239184   2.230   7.227  19.491
 4997TIP3   OH239185   3.218   7.369  19.068
 4997TIP3    H139186   3.289   7.310  19.032
 4997TIP3    H239187   3.219   7.346  19.164
 4998TIP3   OH239188   3.170   7.362  19.323
 4998TIP3    H139189   3.080   7.395  19.344
 4998TIP3    H239190   3.179   7.283  19.379
 4999TIP3   OH239191   2.428   5.775  19.925
 4999TIP3    H139192   2.380   5.808  19.845
 4999TIP3    H239193   2.476   5.858  19.951
 5000TIP3   OH239194   3.342   6.638  18.964
 5000TIP3    H139195   3.322   6.652  18.869
 5000TIP3    H239196   3.438   6.656  18.965
 5001TIP3   OH239197   2.904   6.004  18.994
 5001TIP3    H139198   2.859   5.990  19.079
 5001TIP3    H239199   2.854   5.942  18.939
 5002TIP3   OH239200   2.468   6.246  19.568
 5002TIP3    H139201   2.374   6.227  19.547
 5002TIP3    H239202   2.505   6.256  19.477
 5003TIP3   OH239203   3.032   6.349  19.387
 5003TIP3    H139204   3.000   6.429  19.339
 5003TIP3    H239205   3.090   6.311  19.319
 5004TIP3   OH239206   3.102   6.298  19.687
 5004TIP3    H139207   3.088   6.367  19.618
 5004TIP3    H239208   3.111   6.220  19.627
 5005TIP3   OH239209   2.541   6.029  18.895
 5005TIP3    H139210   2.498   5.993  18.977
 5005TIP3    H239211   2.471   6.083  18.855
 5006TIP3   OH239212   1.892   6.017  19.623
 5006TIP3    H139213   1.950   6.017  19.702
 5006TIP3    H239214   1.951   6.047  19.553
 5007TIP3   OH239215   2.003   6.068  19.120
 5007TIP3    H139216   2.067   6.112  19.059
 5007TIP3    H239217   1.941   6.143  19.136
 5008TIP3   OH239218   2.774   6.035  19.619
 5008TIP3    H139219   2.685   6.020  19.653
 5008TIP3    H239220   2.829   5.980  19.680
 5009TIP3   OH239221   2.205   6.178  19.523
 5009TIP3    H139222   2.126   6.216  19.478
 5009TIP3    H239223   2.224   6.099  19.468
 5010TIP3   OH239224   2.553   6.225  19.309
 5010TIP3    H139225   2.643   6.205  19.280
 5010TIP3    H239226   2.517   6.276  19.234
 5011TIP3   OH239227   3.162   5.979  19.905
 5011TIP3    H139228   3.142   5.972  20.001
 5011TIP3    H239229   3.072   5.978  19.868
 5012TIP3   OH239230   2.440   6.326  19.023
 5012TIP3    H139231   2.406   6.276  18.947
 5012TIP3    H239232   2.526   6.353  18.985
 5013TIP3   OH239233   2.837   6.303  19.827
 5013TIP3    H139234   2.889   6.274  19.750
 5013TIP3    H239235   2.877   6.252  19.898
 5014TIP3   OH239236   2.281   5.938  19.467
 5014TIP3    H139237   2.233   5.865  19.514
 5014TIP3    H239238   2.335   5.885  19.407
 5015TIP3   OH239239   2.780   6.776  19.232
 5015TIP3    H139240   2.703   6.731  19.191
 5015TIP3    H239241   2.742   6.798  19.321
 5016TIP3   OH239242   3.155   6.052  19.053
 5016TIP3    H139243   3.057   6.053  19.036
 5016TIP3    H239244   3.172   6.145  19.078
 5017TIP3   OH239245   3.225   6.273  19.178
 5017TIP3    H139246   3.296   6.245  19.238
 5017TIP3    H239247   3.250   6.365  19.158
 5018TIP3   OH239248   2.257   6.727  19.791
 5018TIP3    H139249   2.286   6.707  19.700
 5018TIP3    H239250   2.323   6.681  19.846
 5019TIP3   OH239251   2.976   6.925  19.134
 5019TIP3    H139252   2.920   7.006  19.134
 5019TIP3    H239253   2.910   6.859  19.165
 5020TIP3   OH239254   3.696   6.241  19.181
 5020TIP3    H139255   3.647   6.236  19.096
 5020TIP3    H239256   3.723   6.335  19.184
 5021TIP3   OH239257   3.523   7.125  19.226
 5021TIP3    H139258   3.499   7.044  19.273
 5021TIP3    H239259   3.577   7.091  19.152
 5022TIP3   OH239260   3.243   6.628  19.877
 5022TIP3    H139261   3.149   6.602  19.863
 5022TIP3    H239262   3.293   6.562  19.824
 5023TIP3   OH239263   2.512   7.054  19.553
 5023TIP3    H139264   2.554   7.143  19.554
 5023TIP3    H239265   2.441   7.069  19.489
 5024TIP3   OH239266   2.140   6.578  19.016
 5024TIP3    H139267   2.185   6.635  19.082
 5024TIP3    H239268   2.045   6.588  19.037
 5025TIP3   OH239269   2.634   6.812  19.455
 5025TIP3    H139270   2.599   6.898  19.485
 5025TIP3    H239271   2.597   6.751  19.523
 5026TIP3   OH239272   2.560   7.302  19.427
 5026TIP3    H139273   2.463   7.315  19.438
 5026TIP3    H239274   2.598   7.379  19.476
 5027TIP3   OH239275   3.315   6.952  19.007
 5027TIP3    H139276   3.328   6.903  19.092
 5027TIP3    H239277   3.218   6.946  19.002
 5028TIP3   OH239278   3.752   7.357  19.020
 5028TIP3    H139279   3.816   7.431  19.022
 5028TIP3    H239280   3.669   7.402  19.048
 5029TIP3   OH239281   3.381   6.814  19.238
 5029TIP3    H139282   3.350   6.727  19.271
 5029TIP3    H239283   3.476   6.796  19.225
 5030TIP3   OH239284   2.726   7.056  18.874
 5030TIP3    H139285   2.700   7.002  18.797
 5030TIP3    H239286   2.647   7.047  18.932
 5031TIP3   OH239287   2.571   7.008  19.115
 5031TIP3    H139288   2.650   6.969  19.155
 5031TIP3    H239289   2.584   7.102  19.143
 5032TIP3   OH239290   2.270   6.741  19.175
 5032TIP3    H139291   2.181   6.775  19.198
 5032TIP3    H239292   2.309   6.815  19.125
 5033TIP3   OH239293   3.096   5.957  19.310
 5033TIP3    H139294   3.149   5.990  19.236
 5033TIP3    H239295   3.137   6.000  19.388
 5034TIP3   OH239296   2.839   7.143  19.179
 5034TIP3    H139297   2.751   7.185  19.193
 5034TIP3    H239298   2.898   7.219  19.186
 5035TIP3   OH239299   2.829   6.141  19.373
 5035TIP3    H139300   2.887   6.220  19.385
 5035TIP3    H239301   2.822   6.103  19.464
 5036TIP3   OH239302   2.880   5.834  19.417
 5036TIP3    H139303   2.857   5.891  19.491
 5036TIP3    H239304   2.960   5.882  19.385
 5037TIP3   OH239305   2.601   7.262  19.167
 5037TIP3    H139306   2.602   7.341  19.107
 5037TIP3    H239307   2.576   7.299  19.254
 5038TIP3   OH239308   2.457   5.939  19.140
 5038TIP3    H139309   2.446   6.010  19.206
 5038TIP3    H239310   2.550   5.914  19.154
 5039TIP3   OH239311   3.351   6.420  19.740
 5039TIP3    H139312   3.271   6.368  19.758
 5039TIP3    H239313   3.414   6.374  19.800
 5040TIP3   OH239314   2.287   6.978  19.005
 5040TIP3    H139315   2.348   7.035  19.056
 5040TIP3    H239316   2.354   6.927  18.954
 5041TIP3   OH239317   2.124   6.276  18.948
 5041TIP3    H139318   2.178   6.348  18.984
 5041TIP3    H239319   2.042   6.324  18.926
 5042TIP3   OH239320   3.491   7.359  19.940
 5042TIP3    H139321   3.512   7.406  19.859
 5042TIP3    H239322   3.578   7.350  19.981
 5043TIP3   OH239323   2.206   5.773  19.774
 5043TIP3    H139324   2.202   5.739  19.681
 5043TIP3    H239325   2.195   5.689  19.823
 5044TIP3   OH239326   2.075   7.116  19.419
 5044TIP3    H139327   2.001   7.164  19.459
 5044TIP3    H239328   2.080   7.166  19.335
 5045TIP3   OH239329   2.916   7.255  18.867
 5045TIP3    H139330   2.868   7.172  18.888
 5045TIP3    H239331   2.994   7.221  18.820
 5046TIP3   OH239332   3.381   7.222  18.918
 5046TIP3    H139333   3.395   7.133  18.956
 5046TIP3    H239334   3.453   7.229  18.852
 5047TIP3   OH239335   2.463   6.805  18.861
 5047TIP3    H139336   2.485   6.754  18.940
 5047TIP3    H239337   2.548   6.798  18.811
 5048TIP3   OH239338   3.024   6.921  18.839
 5048TIP3    H139339   2.974   6.922  18.922
 5048TIP3    H239340   3.023   6.825  18.819
 5049TIP3   OH239341   2.577   6.630  19.118
 5049TIP3    H139342   2.507   6.576  19.157
 5049TIP3    H239343   2.618   6.570  19.054
 5050TIP3   OH239344   2.699   6.458  18.915
 5050TIP3    H139345   2.690   6.481  18.820
 5050TIP3    H239346   2.797   6.456  18.923
 5051TIP3   OH239347   3.613   6.672  18.866
 5051TIP3    H139348   3.593   6.642  18.775
 5051TIP3    H239349   3.606   6.770  18.856
 5052TIP3   OH239350   2.663   7.485  19.029
 5052TIP3    H139351   2.743   7.537  19.050
 5052TIP3    H239352   2.614   7.547  18.974
 5053TIP3   OH239353   2.017   6.940  19.003
 5053TIP3    H139354   2.115   6.947  18.994
 5053TIP3    H239355   1.991   6.896  18.919
 5054TIP3   OH239356   1.898   7.505  19.450
 5054TIP3    H139357   1.822   7.460  19.407
 5054TIP3    H239358   1.890   7.464  19.537
 5055TIP3   OH239359   1.974   7.293  19.648
 5055TIP3    H139360   1.942   7.205  19.676
 5055TIP3    H239361   2.021   7.322  19.728
 5056TIP3   OH239362   3.650   6.756  19.232
 5056TIP3    H139363   3.738   6.796  19.249
 5056TIP3    H239364   3.643   6.693  19.308
 5057TIP3   OH239365   3.678   6.592  19.459
 5057TIP3    H139366   3.611   6.534  19.503
 5057TIP3    H239367   3.750   6.591  19.524
 5058TIP3   OH239368   3.692   6.864  19.955
 5058TIP3    H139369   3.764   6.804  19.928
 5058TIP3    H239370   3.702   6.938  19.894
 5059TIP3   OH239371   3.753   6.547  19.076
 5059TIP3    H139372   3.687   6.561  19.005
 5059TIP3    H239373   3.738   6.625  19.133
 5060TIP3   OH239374   3.540   6.253  18.925
 5060TIP3    H139375   3.572   6.298  18.846
 5060TIP3    H239376   3.515   6.168  18.883
 5061TIP3   OH239377   3.499   6.401  19.523
 5061TIP3    H139378   3.471   6.316  19.484
 5061TIP3    H239379   3.451   6.400  19.609
 5062TIP3   OH239380   1.948   6.638  19.879
 5062TIP3    H139381   1.990   6.621  19.792
 5062TIP3    H239382   2.024   6.624  19.939
 5063TIP3   OH239383   3.511   5.993  18.837
 5063TIP3    H139384   3.547   5.966  18.925
 5063TIP3    H239385   3.415   5.988  18.851
 5064TIP3   OH239386   3.428   6.183  19.345
 5064TIP3    H139387   3.439   6.087  19.363
 5064TIP3    H239388   3.513   6.201  19.303
 5065TIP3   OH239389   3.512   6.255  19.862
 5065TIP3    H139390   3.609   6.249  19.857
 5065TIP3    H239391   3.492   6.164  19.897
 5066TIP3   OH239392   3.503   5.924  19.363
 5066TIP3    H139393   3.547   5.881  19.439
 5066TIP3    H239394   3.446   5.851  19.332
 5067TIP3   OH239395   2.058   5.988  19.853
 5067TIP3    H139396   2.111   5.908  19.828
 5067TIP3    H239397   2.122   6.042  19.903
 5068TIP3   OH239398   1.896   6.265  19.954
 5068TIP3    H139399   1.942   6.235  19.874
 5068TIP3    H239400   1.925   6.357  19.957
 5069TIP3   OH239401   3.691   5.909  19.040
 5069TIP3    H139402   3.729   5.856  18.967
 5069TIP3    H239403   3.772   5.930  19.091
 5070TIP3   OH239404   1.920   5.894  19.312
 5070TIP3    H139405   1.834   5.932  19.333
 5070TIP3    H239406   1.953   5.962  19.250
 5071TIP3   OH239407   3.402   7.376  19.492
 5071TIP3    H139408   3.485   7.365  19.440
 5071TIP3    H239409   3.424   7.447  19.554
 5072TIP3   OH239410   2.136   7.310  19.880
 5072TIP3    H139411   2.189   7.364  19.943
 5072TIP3    H239412   2.207   7.272  19.824
 5073TIP3   OH239413   2.347   7.241  19.741
 5073TIP3    H139414   2.357   7.145  19.758
 5073TIP3    H239415   2.427   7.275  19.788
 5074TIP3   OH239416   2.583   7.258  19.849
 5074TIP3    H139417   2.606   7.163  19.859
 5074TIP3    H239418   2.588   7.291  19.940
 5075TIP3   OH239419   2.942   5.896  19.771
 5075TIP3    H139420   2.874   5.830  19.794
 5075TIP3    H239421   3.020   5.838  19.769
 5076TIP3   OH239422   3.483   5.705  19.768
 5076TIP3    H139423   3.534   5.745  19.692
 5076TIP3    H239424   3.392   5.736  19.750
 5077TIP3   OH239425   3.633   5.797  19.569
 5077TIP3    H139426   3.701   5.741  19.528
 5077TIP3    H239427   3.686   5.880  19.585
 5078TIP3   OH239428   2.189   5.689  19.524
 5078TIP3    H139429   2.104   5.680  19.476
 5078TIP3    H239430   2.226   5.599  19.511
 5079TIP3   OH239431   2.053   5.702  19.119
 5079TIP3    H139432   2.082   5.768  19.054
 5079TIP3    H239433   2.002   5.756  19.183
 5080TIP3   OH239434   2.624   5.668  19.541
 5080TIP3    H139435   2.671   5.700  19.463
 5080TIP3    H239436   2.676   5.707  19.613
 5081TIP3   OH239437   3.218   5.734  19.680
 5081TIP3    H139438   3.191   5.757  19.591
 5081TIP3    H239439   3.170   5.651  19.697
 5082TIP3   OH239440   3.343   5.721  19.295
 5082TIP3    H139441   3.282   5.744  19.225
 5082TIP3    H239442   3.305   5.636  19.327
 5083TIP3   OH239443   2.047   7.285  19.220
 5083TIP3    H139444   1.954   7.295  19.192
 5083TIP3    H239445   2.085   7.362  19.173
 5084TIP3   OH239446   2.188   5.891  18.962
 5084TIP3    H139447   2.256   5.839  18.917
 5084TIP3    H239448   2.219   5.886  19.053
 5085TIP3   OH239449   2.734   5.941  19.205
 5085TIP3    H139450   2.769   5.876  19.268
 5085TIP3    H239451   2.765   6.023  19.249
 5086TIP3   OH239452   2.959   7.442  19.071
 5086TIP3    H139453   3.049   7.412  19.045
 5086TIP3    H239454   2.908   7.392  19.005
 5087TIP3   OH239455   3.610   7.356  19.324
 5087TIP3    H139456   3.580   7.270  19.283
 5087TIP3    H239457   3.589   7.419  19.252
 5088TIP3   OH239458   2.247   7.418  18.929
 5088TIP3    H139459   2.176   7.431  18.993
 5088TIP3    H239460   2.290   7.338  18.961
 5089TIP3   OH239461   4.993   6.650  19.521
 5089TIP3    H139462   4.984   6.740  19.557
 5089TIP3    H239463   4.902   6.631  19.493
 5090TIP3   OH239464   4.882   6.545  19.858
 5090TIP3    H139465   4.863   6.504  19.943
 5090TIP3    H239466   4.792   6.578  19.837
 5091TIP3   OH239467   5.173   6.828  19.706
 5091TIP3    H139468   5.150   6.756  19.768
 5091TIP3    H239469   5.210   6.895  19.770
 5092TIP3   OH239470   4.214   6.995  19.872
 5092TIP3    H139471   4.188   6.904  19.841
 5092TIP3    H239472   4.312   6.984  19.874
 5093TIP3   OH239473   3.854   6.294  19.434
 5093TIP3    H139474   3.840   6.383  19.469
 5093TIP3    H239475   3.764   6.265  19.414
 5094TIP3   OH239476   3.929   6.543  19.643
 5094TIP3    H139477   3.970   6.466  19.689
 5094TIP3    H239478   3.999   6.610  19.641
 5095TIP3   OH239479   4.935   7.384  19.763
 5095TIP3    H139480   5.002   7.334  19.712
 5095TIP3    H239481   4.895   7.307  19.809
 5096TIP3   OH239482   4.717   6.889  19.950
 5096TIP3    H139483   4.680   6.800  19.926
 5096TIP3    H239484   4.799   6.863  19.995
 5097TIP3   OH239485   5.023   6.245  19.975
 5097TIP3    H139486   5.034   6.150  19.956
 5097TIP3    H239487   5.008   6.276  19.884
 5098TIP3   OH239488   4.334   6.053  19.684
 5098TIP3    H139489   4.344   6.121  19.613
 5098TIP3    H239490   4.285   5.985  19.634
 5099TIP3   OH239491   5.073   6.068  19.519
 5099TIP3    H139492   5.126   6.034  19.596
 5099TIP3    H239493   5.135   6.135  19.488
 5100TIP3   OH239494   3.989   6.278  19.746
 5100TIP3    H139495   4.052   6.221  19.794
 5100TIP3    H239496   3.996   6.237  19.656
 5101TIP3   OH239497   4.451   6.421  19.678
 5101TIP3    H139498   4.533   6.384  19.718
 5101TIP3    H239499   4.422   6.353  19.615
 5102TIP3   OH239500   4.895   6.902  19.409
 5102TIP3    H139501   4.877   6.897  19.313
 5102TIP3    H239502   4.895   6.999  19.421
 5103TIP3   OH239503   5.255   6.024  19.704
 5103TIP3    H139504   5.201   6.000  19.783
 5103TIP3    H239505   5.343   5.998  19.736
 5104TIP3   OH239506   4.207   6.164  19.899
 5104TIP3    H139507   4.235   6.257  19.887
 5104TIP3    H239508   4.240   6.123  19.816
 5105TIP3   OH239509   3.911   6.841  19.259
 5105TIP3    H139510   3.910   6.902  19.182
 5105TIP3    H239511   3.937   6.900  19.332
 5106TIP3   OH239512   5.266   7.007  19.876
 5106TIP3    H139513   5.247   6.974  19.967
 5106TIP3    H239514   5.317   7.088  19.893
 5107TIP3   OH239515   4.599   5.697  19.800
 5107TIP3    H139516   4.617   5.603  19.813
 5107TIP3    H239517   4.506   5.706  19.832
 5108TIP3   OH239518   5.095   7.240  19.621
 5108TIP3    H139519   5.106   7.146  19.598
 5108TIP3    H239520   5.173   7.277  19.573
 5109TIP3   OH239521   5.213   7.003  19.495
 5109TIP3    H139522   5.201   6.947  19.416
 5109TIP3    H239523   5.207   6.935  19.567
 5110TIP3   OH239524   4.822   6.561  19.262
 5110TIP3    H139525   4.777   6.647  19.249
 5110TIP3    H239526   4.913   6.580  19.229
 5111TIP3   OH239527   4.865   6.459  18.967
 5111TIP3    H139528   4.924   6.493  19.038
 5111TIP3    H239529   4.885   6.363  18.971
 5112TIP3   OH239530   5.220   6.570  19.378
 5112TIP3    H139531   5.146   6.602  19.434
 5112TIP3    H239532   5.279   6.526  19.443
 5113TIP3   OH239533   4.319   6.644  19.580
 5113TIP3    H139534   4.305   6.598  19.496
 5113TIP3    H239535   4.375   6.578  19.629
 5114TIP3   OH239536   4.486   6.996  19.843
 5114TIP3    H139537   4.490   6.956  19.754
 5114TIP3    H239538   4.555   6.942  19.889
 5115TIP3   OH239539   4.332   6.425  19.921
 5115TIP3    H139540   4.384   6.432  19.838
 5115TIP3    H239541   4.361   6.507  19.963
 5116TIP3   OH239542   5.063   6.543  19.154
 5116TIP3    H139543   5.122   6.552  19.232
 5116TIP3    H239544   5.122   6.571  19.079
 5117TIP3   OH239545   4.859   7.191  19.439
 5117TIP3    H139546   4.880   7.207  19.532
 5117TIP3    H239547   4.794   7.261  19.420
 5118TIP3   OH239548   5.460   5.657  19.177
 5118TIP3    H139549   5.364   5.675  19.185
 5118TIP3    H239550   5.497   5.745  19.155
 5119TIP3   OH239551   4.197   6.532  19.342
 5119TIP3    H139552   4.190   6.620  19.299
 5119TIP3    H239553   4.171   6.473  19.270
 5120TIP3   OH239554   5.561   7.093  19.001
 5120TIP3    H139555   5.599   7.184  18.998
 5120TIP3    H239556   5.642   7.040  19.014
 5121TIP3   OH239557   3.861   7.069  19.854
 5121TIP3    H139558   3.954   7.044  19.859
 5121TIP3    H239559   3.857   7.154  19.900
 5122TIP3   OH239560   4.816   7.490  19.327
 5122TIP3    H139561   4.819   7.486  19.229
 5122TIP3    H239562   4.777   7.577  19.342
 5123TIP3   OH239563   4.183   7.302  19.493
 5123TIP3    H139564   4.204   7.312  19.589
 5123TIP3    H239565   4.121   7.226  19.497
 5124TIP3   OH239566   5.105   7.371  19.060
 5124TIP3    H139567   5.172   7.310  19.024
 5124TIP3    H239568   5.107   7.350  19.156
 5125TIP3   OH239569   5.057   7.367  19.319
 5125TIP3    H139570   4.968   7.402  19.340
 5125TIP3    H239571   5.061   7.285  19.371
 5126TIP3   OH239572   4.352   5.825  19.872
 5126TIP3    H139573   4.267   5.828  19.824
 5126TIP3    H239574   4.359   5.915  19.910
 5127TIP3   OH239575   5.224   6.635  18.966
 5127TIP3    H139576   5.211   6.653  18.871
 5127TIP3    H239577   5.319   6.654  18.976
 5128TIP3   OH239578   4.794   6.009  18.982
 5128TIP3    H139579   4.755   5.996  19.069
 5128TIP3    H239580   4.739   5.946  18.933
 5129TIP3   OH239581   4.323   6.246  19.498
 5129TIP3    H139582   4.231   6.226  19.474
 5129TIP3    H239583   4.372   6.238  19.413
 5130TIP3   OH239584   4.904   6.360  19.400
 5130TIP3    H139585   4.874   6.438  19.345
 5130TIP3    H239586   4.969   6.324  19.338
 5131TIP3   OH239587   4.997   6.297  19.697
 5131TIP3    H139588   4.967   6.372  19.642
 5131TIP3    H239589   4.998   6.226  19.629
 5132TIP3   OH239590   4.436   6.036  18.905
 5132TIP3    H139591   4.383   5.995  18.977
 5132TIP3    H239592   4.368   6.080  18.851
 5133TIP3   OH239593   3.777   6.016  19.624
 5133TIP3    H139594   3.840   6.018  19.699
 5133TIP3    H239595   3.833   6.040  19.550
 5134TIP3   OH239596   3.889   6.067  19.129
 5134TIP3    H139597   3.957   6.110  19.074
 5134TIP3    H239598   3.823   6.140  19.134
 5135TIP3   OH239599   4.634   6.018  19.578
 5135TIP3    H139600   4.555   6.026  19.634
 5135TIP3    H239601   4.701   5.994  19.646
 5136TIP3   OH239602   4.031   6.134  19.530
 5136TIP3    H139603   3.981   6.177  19.457
 5136TIP3    H239604   4.078   6.059  19.486
 5137TIP3   OH239605   4.445   6.217  19.269
 5137TIP3    H139606   4.536   6.217  19.235
 5137TIP3    H239607   4.396   6.265  19.199
 5138TIP3   OH239608   5.058   5.993  19.892
 5138TIP3    H139609   5.047   5.948  19.978
 5138TIP3    H239610   4.968   5.985  19.856
 5139TIP3   OH239611   4.327   6.326  19.033
 5139TIP3    H139612   4.295   6.274  18.957
 5139TIP3    H239613   4.408   6.361  18.990
 5140TIP3   OH239614   4.691   6.288  19.794
 5140TIP3    H139615   4.780   6.291  19.754
 5140TIP3    H239616   4.708   6.259  19.884
 5141TIP3   OH239617   4.172   5.929  19.461
 5141TIP3    H139618   4.124   5.856  19.508
 5141TIP3    H239619   4.228   5.879  19.403
 5142TIP3   OH239620   4.667   6.774  19.245
 5142TIP3    H139621   4.590   6.729  19.205
 5142TIP3    H239622   4.625   6.802  19.330
 5143TIP3   OH239623   5.041   6.043  19.077
 5143TIP3    H139624   4.955   6.060  19.033
 5143TIP3    H239625   5.069   6.134  19.099
 5144TIP3   OH239626   5.102   6.275  19.182
 5144TIP3    H139627   5.171   6.244  19.242
 5144TIP3    H239628   5.139   6.360  19.150
 5145TIP3   OH239629   4.151   6.736  19.799
 5145TIP3    H139630   4.188   6.716  19.711
 5145TIP3    H239631   4.223   6.708  19.857
 5146TIP3   OH239632   4.859   6.920  19.139
 5146TIP3    H139633   4.804   7.001  19.140
 5146TIP3    H239634   4.793   6.852  19.168
 5147TIP3   OH239635   5.573   6.248  19.194
 5147TIP3    H139636   5.535   6.244  19.103
 5147TIP3    H239637   5.610   6.339  19.193
 5148TIP3   OH239638   5.413   7.127  19.225
 5148TIP3    H139639   5.380   7.045  19.262
 5148TIP3    H239640   5.463   7.098  19.145
 5149TIP3   OH239641   5.138   6.629  19.883
 5149TIP3    H139642   5.043   6.606  19.868
 5149TIP3    H239643   5.184   6.557  19.833
 5150TIP3   OH239644   4.393   7.062  19.544
 5150TIP3    H139645   4.441   7.147  19.552
 5150TIP3    H239646   4.325   7.085  19.479
 5151TIP3   OH239647   4.026   6.568  18.997
 5151TIP3    H139648   4.069   6.627  19.063
 5151TIP3    H239649   3.931   6.577  19.017
 5152TIP3   OH239650   4.510   6.810  19.451
 5152TIP3    H139651   4.469   6.888  19.494
 5152TIP3    H239652   4.514   6.747  19.525
 5153TIP3   OH239653   4.447   7.316  19.418
 5153TIP3    H139654   4.350   7.320  19.434
 5153TIP3    H239655   4.481   7.393  19.471
 5154TIP3   OH239656   5.200   6.949  19.011
 5154TIP3    H139657   5.217   6.901  19.094
 5154TIP3    H239658   5.104   6.941  19.007
 5155TIP3   OH239659   5.636   7.356  19.017
 5155TIP3    H139660   5.698   7.430  19.021
 5155TIP3    H239661   5.550   7.401  19.038
 5156TIP3   OH239662   5.266   6.809  19.238
 5156TIP3    H139663   5.240   6.724  19.279
 5156TIP3    H239664   5.362   6.794  19.229
 5157TIP3   OH239665   4.603   7.059  18.876
 5157TIP3    H139666   4.576   7.003  18.802
 5157TIP3    H239667   4.533   7.039  18.941
 5158TIP3   OH239668   4.457   6.999  19.116
 5158TIP3    H139669   4.535   6.958  19.156
 5158TIP3    H239670   4.473   7.093  19.141
 5159TIP3   OH239671   4.146   6.739  19.167
 5159TIP3    H139672   4.057   6.769  19.195
 5159TIP3    H239673   4.182   6.817  19.122
 5160TIP3   OH239674   4.986   5.923  19.306
 5160TIP3    H139675   5.013   5.975  19.227
 5160TIP3    H239676   5.027   5.971  19.380
 5161TIP3   OH239677   4.728   7.145  19.172
 5161TIP3    H139678   4.645   7.194  19.191
 5161TIP3    H239679   4.792   7.218  19.174
 5162TIP3   OH239680   4.727   6.137  19.347
 5162TIP3    H139681   4.763   6.226  19.366
 5162TIP3    H239682   4.690   6.108  19.434
 5163TIP3   OH239683   4.771   5.817  19.419
 5163TIP3    H139684   4.743   5.889  19.479
 5163TIP3    H239685   4.849   5.859  19.377
 5164TIP3   OH239686   4.488   7.259  19.162
 5164TIP3    H139687   4.476   7.336  19.102
 5164TIP3    H239688   4.462   7.293  19.251
 5165TIP3   OH239689   4.332   5.949  19.140
 5165TIP3    H139690   4.329   6.033  19.188
 5165TIP3    H239691   4.424   5.920  19.159
 5166TIP3   OH239692   5.242   6.422  19.744
 5166TIP3    H139693   5.161   6.369  19.758
 5166TIP3    H239694   5.308   6.371  19.797
 5167TIP3   OH239695   4.173   6.975  19.013
 5167TIP3    H139696   4.236   7.023  19.070
 5167TIP3    H239697   4.236   6.928  18.955
 5168TIP3   OH239698   4.009   6.274  18.977
 5168TIP3    H139699   4.057   6.358  18.990
 5168TIP3    H239700   3.937   6.297  18.918
 5169TIP3   OH239701   5.378   7.356  19.931
 5169TIP3    H139702   5.399   7.410  19.852
 5169TIP3    H239703   5.461   7.360  19.980
 5170TIP3   OH239704   4.109   5.775  19.781
 5170TIP3    H139705   4.094   5.743  19.690
 5170TIP3    H239706   4.103   5.691  19.831
 5171TIP3   OH239707   3.976   7.112  19.435
 5171TIP3    H139708   3.901   7.155  19.479
 5171TIP3    H239709   3.973   7.153  19.347
 5172TIP3   OH239710   4.802   7.258  18.866
 5172TIP3    H139711   4.754   7.175  18.889
 5172TIP3    H239712   4.880   7.224  18.818
 5173TIP3   OH239713   5.271   7.214  18.922
 5173TIP3    H139714   5.286   7.125  18.958
 5173TIP3    H239715   5.337   7.222  18.850
 5174TIP3   OH239716   4.348   6.809  18.862
 5174TIP3    H139717   4.376   6.771  18.947
 5174TIP3    H239718   4.430   6.794  18.810
 5175TIP3   OH239719   4.907   6.928  18.854
 5175TIP3    H139720   4.858   6.932  18.938
 5175TIP3    H239721   4.902   6.831  18.835
 5176TIP3   OH239722   4.459   6.625  19.114
 5176TIP3    H139723   4.405   6.562  19.164
 5176TIP3    H239724   4.504   6.567  19.048
 5177TIP3   OH239725   4.581   6.455  18.919
 5177TIP3    H139726   4.582   6.483  18.825
 5177TIP3    H239727   4.678   6.449  18.936
 5178TIP3   OH239728   5.506   6.665  18.862
 5178TIP3    H139729   5.480   6.630  18.774
 5178TIP3    H239730   5.492   6.762  18.851
 5179TIP3   OH239731   4.541   7.490  19.029
 5179TIP3    H139732   4.616   7.541  19.060
 5179TIP3    H239733   4.493   7.552  18.973
 5180TIP3   OH239734   3.902   6.940  18.999
 5180TIP3    H139735   3.999   6.953  18.993
 5180TIP3    H239736   3.885   6.891  18.916
 5181TIP3   OH239737   3.783   7.509  19.458
 5181TIP3    H139738   3.708   7.465  19.413
 5181TIP3    H239739   3.778   7.462  19.543
 5182TIP3   OH239740   3.841   7.306  19.662
 5182TIP3    H139741   3.808   7.217  19.685
 5182TIP3    H239742   3.902   7.324  19.736
 5183TIP3   OH239743   5.534   6.758  19.233
 5183TIP3    H139744   5.623   6.797  19.250
 5183TIP3    H239745   5.528   6.694  19.307
 5184TIP3   OH239746   5.563   6.588  19.454
 5184TIP3    H139747   5.497   6.527  19.494
 5184TIP3    H239748   5.629   6.594  19.525
 5185TIP3   OH239749   5.571   6.865  19.951
 5185TIP3    H139750   5.636   6.800  19.918
 5185TIP3    H239751   5.573   6.934  19.884
 5186TIP3   OH239752   5.639   6.545  19.078
 5186TIP3    H139753   5.575   6.562  19.006
 5186TIP3    H239754   5.622   6.622  19.136
 5187TIP3   OH239755   5.456   6.273  18.919
 5187TIP3    H139756   5.465   6.327  18.839
 5187TIP3    H239757   5.428   6.187  18.882
 5188TIP3   OH239758   5.380   6.390  19.512
 5188TIP3    H139759   5.350   6.310  19.464
 5188TIP3    H239760   5.339   6.382  19.602
 5189TIP3   OH239761   3.860   6.653  19.879
 5189TIP3    H139762   3.888   6.613  19.794
 5189TIP3    H239763   3.932   6.628  19.939
 5190TIP3   OH239764   5.379   6.009  18.851
 5190TIP3    H139765   5.424   5.967  18.926
 5190TIP3    H239766   5.291   5.970  18.854
 5191TIP3   OH239767   5.320   6.182  19.349
 5191TIP3    H139768   5.334   6.086  19.368
 5191TIP3    H239769   5.404   6.200  19.303
 5192TIP3   OH239770   5.408   6.254  19.858
 5192TIP3    H139771   5.504   6.232  19.858
 5192TIP3    H239772   5.375   6.171  19.897
 5193TIP3   OH239773   5.409   5.920  19.360
 5193TIP3    H139774   5.438   5.876  19.442
 5193TIP3    H239775   5.349   5.852  19.322
 5194TIP3   OH239776   3.945   5.983  19.859
 5194TIP3    H139777   3.996   5.905  19.828
 5194TIP3    H239778   4.006   6.024  19.923
 5195TIP3   OH239779   3.779   6.271  19.939
 5195TIP3    H139780   3.835   6.229  19.871
 5195TIP3    H239781   3.812   6.361  19.933
 5196TIP3   OH239782   5.565   5.898  19.035
 5196TIP3    H139783   5.613   5.848  18.966
 5196TIP3    H239784   5.632   5.966  19.059
 5197TIP3   OH239785   3.797   5.896  19.312
 5197TIP3    H139786   3.704   5.924  19.319
 5197TIP3    H239787   3.833   5.963  19.252
 5198TIP3   OH239788   5.288   7.379  19.497
 5198TIP3    H139789   5.369   7.369  19.442
 5198TIP3    H239790   5.313   7.447  19.561
 5199TIP3   OH239791   4.020   7.324  19.872
 5199TIP3    H139792   4.062   7.378  19.942
 5199TIP3    H239793   4.100   7.287  19.827
 5200TIP3   OH239794   4.235   7.241  19.746
 5200TIP3    H139795   4.240   7.145  19.767
 5200TIP3    H239796   4.322   7.267  19.783
 5201TIP3   OH239797   4.474   7.259  19.845
 5201TIP3    H139798   4.495   7.163  19.848
 5201TIP3    H239799   4.476   7.285  19.939
 5202TIP3   OH239800   4.827   5.889  19.764
 5202TIP3    H139801   4.755   5.832  19.796
 5202TIP3    H239802   4.899   5.824  19.771
 5203TIP3   OH239803   5.366   5.707  19.772
 5203TIP3    H139804   5.423   5.747  19.702
 5203TIP3    H239805   5.276   5.738  19.748
 5204TIP3   OH239806   5.525   5.788  19.575
 5204TIP3    H139807   5.593   5.737  19.527
 5204TIP3    H239808   5.573   5.873  19.589
 5205TIP3   OH239809   4.058   5.696  19.532
 5205TIP3    H139810   3.973   5.675  19.488
 5205TIP3    H239811   4.103   5.609  19.521
 5206TIP3   OH239812   3.952   5.699  19.135
 5206TIP3    H139813   3.982   5.763  19.067
 5206TIP3    H239814   3.894   5.755  19.189
 5207TIP3   OH239815   4.496   5.667  19.539
 5207TIP3    H139816   4.573   5.697  19.488
 5207TIP3    H239817   4.524   5.691  19.629
 5208TIP3   OH239818   5.115   5.733  19.676
 5208TIP3    H139819   5.078   5.758  19.590
 5208TIP3    H239820   5.066   5.652  19.699
 5209TIP3   OH239821   5.222   5.728  19.295
 5209TIP3    H139822   5.129   5.755  19.280
 5209TIP3    H239823   5.207   5.639  19.333
 5210TIP3   OH239824   3.931   7.285  19.227
 5210TIP3    H139825   3.837   7.294  19.200
 5210TIP3    H239826   3.968   7.359  19.175
 5211TIP3   OH239827   4.080   5.906  18.986
 5211TIP3    H139828   4.149   5.855  18.940
 5211TIP3    H239829   4.127   5.934  19.067
 5212TIP3   OH239830   4.628   5.936  19.190
 5212TIP3    H139831   4.660   5.872  19.255
 5212TIP3    H239832   4.652   6.019  19.237
 5213TIP3   OH239833   4.843   7.445  19.066
 5213TIP3    H139834   4.935   7.419  19.042
 5213TIP3    H239835   4.794   7.395  18.998
 5214TIP3   OH239836   5.497   7.355  19.325
 5214TIP3    H139837   5.466   7.270  19.286
 5214TIP3    H239838   5.476   7.418  19.253
 5215TIP3   OH239839   4.110   7.400  18.923
 5215TIP3    H139840   4.057   7.426  19.001
 5215TIP3    H239841   4.168   7.333  18.962
 5216TIP3   OH239842   6.874   6.642  19.523
 5216TIP3    H139843   6.867   6.737  19.543
 5216TIP3    H239844   6.792   6.625  19.476
 5217TIP3   OH239845   6.741   6.539  19.857
 5217TIP3    H139846   6.744   6.504  19.949
 5217TIP3    H239847   6.678   6.479  19.813
 5218TIP3   OH239848   7.059   6.834  19.699
 5218TIP3    H139849   7.014   6.769  19.758
 5218TIP3    H239850   7.086   6.901  19.764
 5219TIP3   OH239851   6.080   6.980  19.868
 5219TIP3    H139852   6.050   6.890  19.843
 5219TIP3    H239853   6.176   6.966  19.860
 5220TIP3   OH239854   5.753   6.281  19.446
 5220TIP3    H139855   5.743   6.374  19.471
 5220TIP3    H239856   5.664   6.260  19.413
 5221TIP3   OH239857   5.821   6.553  19.647
 5221TIP3    H139858   5.864   6.478  19.693
 5221TIP3    H239859   5.895   6.614  19.629
 5222TIP3   OH239860   6.815   7.375  19.775
 5222TIP3    H139861   6.876   7.322  19.722
 5222TIP3    H239862   6.779   7.303  19.829
 5223TIP3   OH239863   6.615   6.841  19.976
 5223TIP3    H139864   6.651   6.787  19.904
 5223TIP3    H239865   6.673   6.815  20.049
 5224TIP3   OH239866   6.901   6.256  19.974
 5224TIP3    H139867   6.920   6.162  19.990
 5224TIP3    H239868   6.885   6.258  19.878
 5225TIP3   OH239869   6.243   6.037  19.695
 5225TIP3    H139870   6.250   6.117  19.639
 5225TIP3    H239871   6.194   5.979  19.635
 5226TIP3   OH239872   6.963   6.090  19.527
 5226TIP3    H139873   7.016   6.041  19.594
 5226TIP3    H239874   7.035   6.143  19.488
 5227TIP3   OH239875   5.866   6.287  19.747
 5227TIP3    H139876   5.930   6.237  19.801
 5227TIP3    H239877   5.888   6.254  19.657
 5228TIP3   OH239878   6.363   6.438  19.694
 5228TIP3    H139879   6.439   6.384  19.721
 5228TIP3    H239880   6.313   6.373  19.640
 5229TIP3   OH239881   6.785   6.894  19.417
 5229TIP3    H139882   6.755   6.887  19.324
 5229TIP3    H239883   6.773   6.989  19.433
 5230TIP3   OH239884   7.134   6.009  19.706
 5230TIP3    H139885   7.087   5.987  19.790
 5230TIP3    H239886   7.227   5.997  19.729
 5231TIP3   OH239887   6.064   6.148  19.872
 5231TIP3    H139888   6.104   6.236  19.884
 5231TIP3    H239889   6.120   6.109  19.801
 5232TIP3   OH239890   5.795   6.841  19.254
 5232TIP3    H139891   5.797   6.897  19.173
 5232TIP3    H239892   5.815   6.906  19.323
 5233TIP3   OH239893   7.174   7.026  19.877
 5233TIP3    H139894   7.110   6.986  19.940
 5233TIP3    H239895   7.160   7.121  19.895
 5234TIP3   OH239896   6.505   5.711  19.804
 5234TIP3    H139897   6.505   5.614  19.813
 5234TIP3    H239898   6.417   5.738  19.838
 5235TIP3   OH239899   6.960   7.228  19.613
 5235TIP3    H139900   6.989   7.142  19.577
 5235TIP3    H239901   7.039   7.281  19.587
 5236TIP3   OH239902   7.105   6.997  19.487
 5236TIP3    H139903   7.082   6.922  19.430
 5236TIP3    H239904   7.117   6.946  19.570
 5237TIP3   OH239905   6.705   6.555  19.260
 5237TIP3    H139906   6.647   6.634  19.256
 5237TIP3    H239907   6.784   6.589  19.213
 5238TIP3   OH239908   6.759   6.460  18.962
 5238TIP3    H139909   6.826   6.509  19.014
 5238TIP3    H239910   6.755   6.380  19.016
 5239TIP3   OH239911   7.087   6.570  19.364
 5239TIP3    H139912   7.019   6.593  19.431
 5239TIP3    H239913   7.146   6.513  19.419
 5240TIP3   OH239914   6.228   6.632  19.560
 5240TIP3    H139915   6.192   6.590  19.479
 5240TIP3    H239916   6.294   6.566  19.591
 5241TIP3   OH239917   6.356   6.994  19.841
 5241TIP3    H139918   6.352   6.979  19.745
 5241TIP3    H239919   6.432   6.941  19.869
 5242TIP3   OH239920   6.205   6.441  19.911
 5242TIP3    H139921   6.266   6.454  19.834
 5242TIP3    H239922   6.221   6.523  19.961
 5243TIP3   OH239923   6.943   6.534  19.142
 5243TIP3    H139924   6.989   6.547  19.228
 5243TIP3    H239925   7.009   6.575  19.080
 5244TIP3   OH239926   6.734   7.155  19.458
 5244TIP3    H139927   6.776   7.178  19.543
 5244TIP3    H239928   6.681   7.233  19.438
 5245TIP3   OH239929   7.319   5.665  19.149
 5245TIP3    H139930   7.222   5.674  19.158
 5245TIP3    H239931   7.349   5.758  19.146
 5246TIP3   OH239932   6.081   6.533  19.339
 5246TIP3    H139933   6.067   6.619  19.293
 5246TIP3    H239934   6.051   6.471  19.272
 5247TIP3   OH239935   7.457   7.122  18.968
 5247TIP3    H139936   7.480   7.215  18.987
 5247TIP3    H239937   7.546   7.086  18.979
 5248TIP3   OH239938   5.750   7.066  19.851
 5248TIP3    H139939   5.844   7.045  19.859
 5248TIP3    H239940   5.741   7.151  19.898
 5249TIP3   OH239941   6.708   7.486  19.331
 5249TIP3    H139942   6.709   7.479  19.233
 5249TIP3    H239943   6.668   7.573  19.343
 5250TIP3   OH239944   6.064   7.301  19.500
 5250TIP3    H139945   6.091   7.312  19.594
 5250TIP3    H239946   5.998   7.229  19.510
 5251TIP3   OH239947   6.984   7.377  19.060
 5251TIP3    H139948   7.052   7.315  19.022
 5251TIP3    H239949   6.984   7.345  19.153
 5252TIP3   OH239950   6.939   7.351  19.320
 5252TIP3    H139951   6.853   7.394  19.339
 5252TIP3    H239952   6.935   7.270  19.374
 5253TIP3   OH239953   6.239   5.816  19.885
 5253TIP3    H139954   6.168   5.792  19.821
 5253TIP3    H239955   6.200   5.896  19.920
 5254TIP3   OH239956   7.098   6.645  18.969
 5254TIP3    H139957   7.073   6.656  18.875
 5254TIP3    H239958   7.194   6.665  18.964
 5255TIP3   OH239959   6.675   6.026  18.980
 5255TIP3    H139960   6.628   6.011  19.065
 5255TIP3    H239961   6.622   5.965  18.926
 5256TIP3   OH239962   6.244   6.255  19.540
 5256TIP3    H139963   6.147   6.239  19.527
 5256TIP3    H239964   6.277   6.248  19.447
 5257TIP3   OH239965   6.820   6.369  19.400
 5257TIP3    H139966   6.774   6.433  19.339
 5257TIP3    H239967   6.871   6.319  19.334
 5258TIP3   OH239968   6.845   6.298  19.681
 5258TIP3    H139969   6.842   6.363  19.608
 5258TIP3    H239970   6.880   6.221  19.631
 5259TIP3   OH239971   6.316   6.052  18.927
 5259TIP3    H139972   6.268   5.993  18.988
 5259TIP3    H239973   6.246   6.077  18.863
 5260TIP3   OH239974   5.665   6.017  19.615
 5260TIP3    H139975   5.726   6.022  19.691
 5260TIP3    H239976   5.721   6.040  19.540
 5261TIP3   OH239977   5.769   6.069  19.109
 5261TIP3    H139978   5.842   6.099  19.051
 5261TIP3    H239979   5.720   6.153  19.122
 5262TIP3   OH239980   6.543   6.034  19.601
 5262TIP3    H139981   6.462   6.037  19.653
 5262TIP3    H239982   6.601   5.982  19.660
 5263TIP3   OH239983   5.978   6.180  19.532
 5263TIP3    H139984   5.901   6.211  19.478
 5263TIP3    H239985   5.994   6.090  19.497
 5264TIP3   OH239986   6.322   6.221  19.290
 5264TIP3    H139987   6.409   6.222  19.249
 5264TIP3    H239988   6.273   6.278  19.230
 5265TIP3   OH239989   6.951   5.984  19.897
 5265TIP3    H139990   6.935   5.954  19.987
 5265TIP3    H239991   6.860   5.991  19.866
 5266TIP3   OH239992   6.196   6.334  19.035
 5266TIP3    H139993   6.166   6.265  18.973
 5266TIP3    H239994   6.280   6.357  18.992
 5267TIP3   OH239995   6.601   6.291  19.815
 5267TIP3    H139996   6.679   6.268  19.760
 5267TIP3    H239997   6.609   6.233  19.893
 5268TIP3   OH239998   6.068   5.942  19.478
 5268TIP3    H139999   6.011   5.863  19.497
 5268TIP3    H240000   6.120   5.911  19.403
 5269TIP3   OH240001   6.551   6.775  19.232
 5269TIP3    H140002   6.475   6.725  19.195
 5269TIP3    H240003   6.508   6.808  19.315
 5270TIP3   OH240004   6.924   6.043  19.061
 5270TIP3    H140005   6.831   6.060  19.031
 5270TIP3    H240006   6.956   6.132  19.086
 5271TIP3   OH240007   7.022   6.267  19.181
 5271TIP3    H140008   7.099   6.255  19.241
 5271TIP3    H240009   7.036   6.355  19.143
 5272TIP3   OH240010   6.033   6.726  19.790
 5272TIP3    H140011   6.072   6.718  19.701
 5272TIP3    H240012   6.094   6.673  19.843
 5273TIP3   OH240013   6.750   6.916  19.142
 5273TIP3    H140014   6.693   6.997  19.152
 5273TIP3    H240015   6.686   6.845  19.164
 5274TIP3   OH240016   7.433   6.262  19.193
 5274TIP3    H140017   7.406   6.226  19.106
 5274TIP3    H240018   7.454   6.354  19.163
 5275TIP3   OH240019   7.303   7.133  19.220
 5275TIP3    H140020   7.248   7.060  19.254
 5275TIP3    H240021   7.355   7.088  19.151
 5276TIP3   OH240022   6.975   6.661  19.879
 5276TIP3    H140023   6.884   6.625  19.863
 5276TIP3    H240024   7.023   6.600  19.817
 5277TIP3   OH240025   6.275   7.055  19.554
 5277TIP3    H140026   6.326   7.139  19.547
 5277TIP3    H240027   6.200   7.074  19.496
 5278TIP3   OH240028   5.914   6.569  19.017
 5278TIP3    H140029   5.953   6.627  19.085
 5278TIP3    H240030   5.816   6.574  19.030
 5279TIP3   OH240031   6.406   6.819  19.451
 5279TIP3    H140032   6.368   6.899  19.492
 5279TIP3    H240033   6.367   6.749  19.507
 5280TIP3   OH240034   6.330   7.302  19.428
 5280TIP3    H140035   6.234   7.313  19.441
 5280TIP3    H240036   6.365   7.382  19.475
 5281TIP3   OH240037   7.084   6.963  19.028
 5281TIP3    H140038   7.100   6.903  19.105
 5281TIP3    H240039   6.990   6.946  19.012
 5282TIP3   OH240040   7.554   7.360  19.061
 5282TIP3    H140041   7.589   7.435  19.010
 5282TIP3    H240042   7.460   7.385  19.066
 5283TIP3   OH240043   7.175   6.810  19.235
 5283TIP3    H140044   7.143   6.721  19.261
 5283TIP3    H240045   7.271   6.794  19.223
 5284TIP3   OH240046   6.489   7.068  18.865
 5284TIP3    H140047   6.478   6.999  18.799
 5284TIP3    H240048   6.421   7.044  18.932
 5285TIP3   OH240049   6.351   7.009  19.109
 5285TIP3    H140050   6.428   6.966  19.148
 5285TIP3    H240051   6.364   7.101  19.144
 5286TIP3   OH240052   6.041   6.740  19.175
 5286TIP3    H140053   5.954   6.777  19.196
 5286TIP3    H240054   6.086   6.815  19.130
 5287TIP3   OH240055   6.865   5.959  19.311
 5287TIP3    H140056   6.874   5.999  19.222
 5287TIP3    H240057   6.900   6.028  19.371
 5288TIP3   OH240058   6.620   7.142  19.170
 5288TIP3    H140059   6.535   7.191  19.180
 5288TIP3    H240060   6.683   7.214  19.166
 5289TIP3   OH240061   6.642   6.168  19.395
 5289TIP3    H140062   6.692   6.250  19.419
 5289TIP3    H240063   6.627   6.125  19.482
 5290TIP3   OH240064   6.655   5.829  19.410
 5290TIP3    H140065   6.623   5.890  19.479
 5290TIP3    H240066   6.736   5.878  19.379
 5291TIP3   OH240067   6.388   7.265  19.168
 5291TIP3    H140068   6.392   7.344  19.109
 5291TIP3    H240069   6.356   7.299  19.255
 5292TIP3   OH240070   6.185   5.972  19.164
 5292TIP3    H140071   6.223   6.048  19.212
 5292TIP3    H240072   6.262   5.913  19.158
 5293TIP3   OH240073   7.072   6.454  19.736
 5293TIP3    H140074   6.997   6.392  19.730
 5293TIP3    H240075   7.134   6.404  19.793
 5294TIP3   OH240076   6.061   6.972  19.015
 5294TIP3    H140077   6.123   7.026  19.069
 5294TIP3    H240078   6.127   6.924  18.960
 5295TIP3   OH240079   5.894   6.267  18.955
 5295TIP3    H140080   5.934   6.350  18.984
 5295TIP3    H240081   5.824   6.300  18.897
 5296TIP3   OH240082   7.272   7.322  19.939
 5296TIP3    H140083   7.257   7.390  19.870
 5296TIP3    H240084   7.360   7.349  19.969
 5297TIP3   OH240085   6.003   5.770  19.771
 5297TIP3    H140086   5.979   5.731  19.684
 5297TIP3    H240087   5.984   5.695  19.831
 5298TIP3   OH240088   5.853   7.115  19.422
 5298TIP3    H140089   5.776   7.163  19.458
 5298TIP3    H240090   5.859   7.163  19.337
 5299TIP3   OH240091   6.690   7.256  18.874
 5299TIP3    H140092   6.635   7.174  18.882
 5299TIP3    H240093   6.772   7.222  18.831
 5300TIP3   OH240094   7.152   7.217  18.928
 5300TIP3    H140095   7.165   7.129  18.969
 5300TIP3    H240096   7.224   7.223  18.864
 5301TIP3   OH240097   6.228   6.811  18.865
 5301TIP3    H140098   6.231   6.731  18.920
 5301TIP3    H240099   6.317   6.807  18.825
 5302TIP3   OH240100   6.785   6.925  18.857
 5302TIP3    H140101   6.748   6.919  18.947
 5302TIP3    H240102   6.775   6.830  18.832
 5303TIP3   OH240103   6.346   6.615  19.126
 5303TIP3    H140104   6.275   6.558  19.157
 5303TIP3    H240105   6.386   6.561  19.055
 5304TIP3   OH240106   6.475   6.456  18.925
 5304TIP3    H140107   6.463   6.461  18.827
 5304TIP3    H240108   6.573   6.458  18.929
 5305TIP3   OH240109   7.355   6.664  18.878
 5305TIP3    H140110   7.341   6.642  18.783
 5305TIP3    H240111   7.390   6.755  18.872
 5306TIP3   OH240112   6.437   7.486  19.028
 5306TIP3    H140113   6.521   7.529  19.051
 5306TIP3    H240114   6.393   7.550  18.971
 5307TIP3   OH240115   5.788   6.939  19.003
 5307TIP3    H140116   5.886   6.949  18.998
 5307TIP3    H240117   5.769   6.894  18.917
 5308TIP3   OH240118   5.671   7.510  19.455
 5308TIP3    H140119   5.593   7.472  19.412
 5308TIP3    H240120   5.664   7.463  19.540
 5309TIP3   OH240121   5.737   7.303  19.656
 5309TIP3    H140122   5.700   7.216  19.681
 5309TIP3    H240123   5.793   7.323  19.734
 5310TIP3   OH240124   7.448   6.766  19.240
 5310TIP3    H140125   7.527   6.815  19.264
 5310TIP3    H240126   7.442   6.702  19.315
 5311TIP3   OH240127   7.458   6.600  19.445
 5311TIP3    H140128   7.374   6.558  19.471
 5311TIP3    H240129   7.507   6.599  19.529
 5312TIP3   OH240130   7.559   6.801  19.846
 5312TIP3    H140131   7.650   6.771  19.870
 5312TIP3    H240132   7.579   6.895  19.828
 5313TIP3   OH240133   7.483   6.530  19.110
 5313TIP3    H140134   7.440   6.554  19.027
 5313TIP3    H240135   7.490   6.617  19.152
 5314TIP3   OH240136   7.316   6.251  18.926
 5314TIP3    H140137   7.340   6.314  18.857
 5314TIP3    H240138   7.296   6.171  18.873
 5315TIP3   OH240139   7.239   6.421  19.520
 5315TIP3    H140140   7.261   6.328  19.536
 5315TIP3    H240141   7.202   6.446  19.607
 5316TIP3   OH240142   5.732   6.647  19.887
 5316TIP3    H140143   5.767   6.615  19.801
 5316TIP3    H240144   5.809   6.632  19.945
 5317TIP3   OH240145   7.253   6.011  18.828
 5317TIP3    H140146   7.258   5.978  18.919
 5317TIP3    H240147   7.162   5.980  18.803
 5318TIP3   OH240148   7.237   6.174  19.355
 5318TIP3    H140149   7.253   6.079  19.370
 5318TIP3    H240150   7.324   6.201  19.320
 5319TIP3   OH240151   7.248   6.281  19.824
 5319TIP3    H140152   7.346   6.273  19.828
 5319TIP3    H240153   7.219   6.206  19.878
 5320TIP3   OH240154   7.258   5.899  19.370
 5320TIP3    H140155   7.274   5.866  19.461
 5320TIP3    H240156   7.199   5.829  19.331
 5321TIP3   OH240157   5.832   5.984  19.856
 5321TIP3    H140158   5.878   5.903  19.826
 5321TIP3    H240159   5.904   6.034  19.898
 5322TIP3   OH240160   5.674   6.271  19.949
 5322TIP3    H140161   5.720   6.232  19.871
 5322TIP3    H240162   5.704   6.363  19.939
 5323TIP3   OH240163   7.476   5.897  19.054
 5323TIP3    H140164   7.503   5.846  18.976
 5323TIP3    H240165   7.491   5.989  19.026
 5324TIP3   OH240166   5.693   5.902  19.312
 5324TIP3    H140167   5.599   5.920  19.324
 5324TIP3    H240168   5.715   5.963  19.240
 5325TIP3   OH240169   7.163   7.375  19.510
 5325TIP3    H140170   7.229   7.378  19.438
 5325TIP3    H240171   7.201   7.442  19.571
 5326TIP3   OH240172   5.908   7.321  19.877
 5326TIP3    H140173   5.955   7.382  19.937
 5326TIP3    H240174   5.983   7.281  19.827
 5327TIP3   OH240175   6.121   7.243  19.749
 5327TIP3    H140176   6.128   7.146  19.763
 5327TIP3    H240177   6.207   7.272  19.787
 5328TIP3   OH240178   6.357   7.263  19.851
 5328TIP3    H140179   6.373   7.166  19.852
 5328TIP3    H240180   6.361   7.287  19.945
 5329TIP3   OH240181   6.708   5.896  19.760
 5329TIP3    H140182   6.652   5.823  19.789
 5329TIP3    H240183   6.792   5.847  19.750
 5330TIP3   OH240184   7.209   5.692  19.806
 5330TIP3    H140185   7.261   5.746  19.743
 5330TIP3    H240186   7.120   5.716  19.776
 5331TIP3   OH240187   7.355   5.811  19.619
 5331TIP3    H140188   7.421   5.749  19.579
 5331TIP3    H240189   7.404   5.896  19.613
 5332TIP3   OH240190   5.940   5.690  19.522
 5332TIP3    H140191   5.849   5.673  19.489
 5332TIP3    H240192   5.979   5.600  19.514
 5333TIP3   OH240193   5.810   5.697  19.127
 5333TIP3    H140194   5.848   5.764  19.065
 5333TIP3    H240195   5.778   5.754  19.200
 5334TIP3   OH240196   6.379   5.678  19.565
 5334TIP3    H140197   6.437   5.700  19.492
 5334TIP3    H240198   6.429   5.711  19.642
 5335TIP3   OH240199   6.958   5.746  19.664
 5335TIP3    H140200   6.954   5.761  19.570
 5335TIP3    H240201   6.910   5.661  19.677
 5336TIP3   OH240202   7.075   5.729  19.285
 5336TIP3    H140203   6.995   5.783  19.295
 5336TIP3    H240204   7.042   5.639  19.306
 5337TIP3   OH240205   5.812   7.285  19.228
 5337TIP3    H140206   5.720   7.293  19.200
 5337TIP3    H240207   5.852   7.357  19.175
 5338TIP3   OH240208   5.973   5.895  18.989
 5338TIP3    H140209   6.039   5.830  18.955
 5338TIP3    H240210   6.018   5.915  19.073
 5339TIP3   OH240211   6.526   5.956  19.189
 5339TIP3    H140212   6.555   5.883  19.246
 5339TIP3    H240213   6.541   6.033  19.246
 5340TIP3   OH240214   6.720   7.444  19.065
 5340TIP3    H140215   6.809   7.421  19.031
 5340TIP3    H240216   6.667   7.389  19.003
 5341TIP3   OH240217   7.364   7.372  19.328
 5341TIP3    H140218   7.347   7.279  19.299
 5341TIP3    H240219   7.367   7.420  19.243
 5342TIP3   OH240220   5.997   7.408  18.918
 5342TIP3    H140221   5.949   7.427  19.000
 5342TIP3    H240222   6.058   7.338  18.946
 5343TIP3   OH240223   7.552   6.350  19.441
 5343TIP3    H140224   7.517   6.436  19.412
 5343TIP3    H240225   7.511   6.291  19.375
 5344TIP3   OH240226   7.552   7.061  19.901
 5344TIP3    H140227   7.651   7.070  19.892
 5344TIP3    H240228   7.524   7.144  19.855
 5345TIP3   OH240229   7.495   6.039  19.580
 5345TIP3    H140230   7.591   6.051  19.599
 5345TIP3    H240231   7.498   6.003  19.489
 5346TIP3   OH240232   7.481   7.474  19.543
 5346TIP3    H140233   7.438   7.433  19.465
 5346TIP3    H240234   7.431   7.433  19.615
 5347TIP3   OH240235   7.557   7.274  19.743
 5347TIP3    H140236   7.574   7.220  19.664
 5347TIP3    H240237   7.642   7.321  19.742
 5348TIP3   OH240238   7.651   6.514  19.898
 5348TIP3    H140239   7.706   6.547  19.823
 5348TIP3    H240240   7.671   6.580  19.967
 5349TIP3   OH240241   7.499   6.295  19.908
 5349TIP3    H140242   7.573   6.241  19.878
 5349TIP3    H240243   7.543   6.383  19.912
 5350TIP3   OH240244   7.518   5.926  19.337
 5350TIP3    H140245   7.421   5.924  19.325
 5350TIP3    H240246   7.549   5.917  19.245
 5351TIP3   OH240247   0.831   7.500  19.886
 5351TIP3    H140248   0.867   7.437  19.821
 5351TIP3    H240249   0.735   7.498  19.863
 5352TIP3   OH240250   1.672   7.502  19.110
 5352TIP3    H140251   1.595   7.499  19.170
 5352TIP3    H240252   1.682   7.600  19.106
 5353TIP3   OH240253   0.572   7.584  19.874
 5353TIP3    H140254   0.501   7.553  19.933
 5353TIP3    H240255   0.583   7.676  19.908
 5354TIP3   OH240256   0.282   7.577  19.813
 5354TIP3    H140257   0.284   7.566  19.715
 5354TIP3    H240258   0.242   7.495  19.845
 5355TIP3   OH240259   1.618   7.535  19.710
 5355TIP3    H140260   1.625   7.626  19.748
 5355TIP3    H240261   1.520   7.531  19.709
 5356TIP3   OH240262   0.267   7.557  19.527
 5356TIP3    H140263   0.189   7.541  19.470
 5356TIP3    H240264   0.321   7.476  19.514
 5357TIP3   OH240265   0.213   7.534  19.110
 5357TIP3    H140266   0.238   7.617  19.067
 5357TIP3    H240267   0.146   7.567  19.173
 5358TIP3   OH240268   0.742   7.520  19.563
 5358TIP3    H140269   0.775   7.590  19.503
 5358TIP3    H240270   0.710   7.578  19.635
 5359TIP3   OH240271   1.349   7.560  19.661
 5359TIP3    H140272   1.272   7.590  19.612
 5359TIP3    H240273   1.308   7.491  19.717
 5360TIP3   OH240274   1.468   7.563  19.271
 5360TIP3    H140275   1.397   7.551  19.206
 5360TIP3    H240276   1.430   7.517  19.349
 5361TIP3   OH240277   2.702   7.504  19.883
 5361TIP3    H140278   2.734   7.444  19.813
 5361TIP3    H240279   2.605   7.514  19.860
 5362TIP3   OH240280   3.550   7.508  19.109
 5362TIP3    H140281   3.474   7.521  19.171
 5362TIP3    H240282   3.573   7.603  19.099
 5363TIP3   OH240283   2.449   7.580  19.868
 5363TIP3    H140284   2.359   7.557  19.900
 5363TIP3    H240285   2.456   7.673  19.902
 5364TIP3   OH240286   2.149   7.571  19.799
 5364TIP3    H140287   2.149   7.554  19.702
 5364TIP3    H240288   2.112   7.488  19.835
 5365TIP3   OH240289   3.511   7.533  19.706
 5365TIP3    H140290   3.522   7.618  19.753
 5365TIP3    H240291   3.414   7.526  19.713
 5366TIP3   OH240292   2.160   7.532  19.511
 5366TIP3    H140293   2.074   7.518  19.466
 5366TIP3    H240294   2.209   7.450  19.484
 5367TIP3   OH240295   2.066   7.524  19.118
 5367TIP3    H140296   2.111   7.611  19.113
 5367TIP3    H240297   2.001   7.551  19.185
 5368TIP3   OH240298   2.630   7.517  19.559
 5368TIP3    H140299   2.642   7.600  19.510
 5368TIP3    H240300   2.570   7.550  19.627
 5369TIP3   OH240301   3.223   7.563  19.646
 5369TIP3    H140302   3.162   7.549  19.573
 5369TIP3    H240303   3.188   7.500  19.711
 5370TIP3   OH240304   3.347   7.574  19.280
 5370TIP3    H140305   3.295   7.556  19.201
 5370TIP3    H240306   3.307   7.510  19.342
 5371TIP3   OH240307   4.591   7.502  19.885
 5371TIP3    H140308   4.623   7.434  19.823
 5371TIP3    H240309   4.493   7.503  19.868
 5372TIP3   OH240310   5.436   7.507  19.110
 5372TIP3    H140311   5.361   7.515  19.173
 5372TIP3    H240312   5.455   7.603  19.103
 5373TIP3   OH240313   4.333   7.584  19.866
 5373TIP3    H140314   4.248   7.560  19.908
 5373TIP3    H240315   4.347   7.674  19.904
 5374TIP3   OH240316   4.028   7.578  19.791
 5374TIP3    H140317   4.036   7.559  19.695
 5374TIP3    H240318   4.005   7.490  19.825
 5375TIP3   OH240319   5.400   7.533  19.711
 5375TIP3    H140320   5.415   7.620  19.754
 5375TIP3    H240321   5.303   7.534  19.711
 5376TIP3   OH240322   4.051   7.531  19.505
 5376TIP3    H140323   3.963   7.510  19.467
 5376TIP3    H240324   4.103   7.451  19.479
 5377TIP3   OH240325   3.956   7.525  19.116
 5377TIP3    H140326   4.004   7.610  19.108
 5377TIP3    H240327   3.892   7.555  19.183
 5378TIP3   OH240328   4.513   7.527  19.564
 5378TIP3    H140329   4.515   7.615  19.520
 5378TIP3    H240330   4.458   7.552  19.640
 5379TIP3   OH240331   5.123   7.566  19.646
 5379TIP3    H140332   5.071   7.550  19.567
 5379TIP3    H240333   5.078   7.507  19.711
 5380TIP3   OH240334   5.236   7.577  19.276
 5380TIP3    H140335   5.181   7.566  19.198
 5380TIP3    H240336   5.191   7.515  19.338
 5381TIP3   OH240337   6.478   7.505  19.884
 5381TIP3    H140338   6.512   7.455  19.808
 5381TIP3    H240339   6.381   7.511  19.865
 5382TIP3   OH240340   7.305   7.493  19.078
 5382TIP3    H140341   7.233   7.494  19.146
 5382TIP3    H240342   7.316   7.590  19.066
 5383TIP3   OH240343   6.221   7.581  19.873
 5383TIP3    H140344   6.137   7.554  19.914
 5383TIP3    H240345   6.230   7.672  19.910
 5384TIP3   OH240346   5.914   7.579  19.790
 5384TIP3    H140347   5.923   7.562  19.694
 5384TIP3    H240348   5.887   7.492  19.824
 5385TIP3   OH240349   7.259   7.511  19.735
 5385TIP3    H140350   7.278   7.590  19.789
 5385TIP3    H240351   7.165   7.527  19.715
 5386TIP3   OH240352   5.936   7.531  19.506
 5386TIP3    H140353   5.849   7.505  19.468
 5386TIP3    H240354   5.989   7.451  19.486
 5387TIP3   OH240355   5.849   7.522  19.127
 5387TIP3    H140356   5.890   7.610  19.117
 5387TIP3    H240357   5.781   7.548  19.192
 5388TIP3   OH240358   6.389   7.523  19.559
 5388TIP3    H140359   6.415   7.608  19.517
 5388TIP3    H240360   6.324   7.559  19.620
 5389TIP3   OH240361   6.986   7.562  19.650
 5389TIP3    H140362   6.925   7.566  19.576
 5389TIP3    H240363   6.940   7.499  19.709
 5390TIP3   OH240364   7.116   7.551  19.269
 5390TIP3    H140365   7.048   7.574  19.205
 5390TIP3    H240366   7.071   7.473  19.310
 5391TIP3   OH240367   1.199   0.996  10.659
 5391TIP3    H140368   1.181   1.092  10.663
 5391TIP3    H240369   1.130   0.964  10.600
 5392TIP3   OH240370   1.114   0.869  10.995
 5392TIP3    H140371   1.091   0.841  11.086
 5392TIP3    H240372   1.046   0.822  10.942
 5393TIP3   OH240373   0.325   0.893  11.158
 5393TIP3    H140374   0.289   0.821  11.212
 5393TIP3    H240375   0.393   0.926  11.220
 5394TIP3   OH240376   1.414   1.187  10.867
 5394TIP3    H140377   1.391   1.109  10.921
 5394TIP3    H240378   1.448   1.247  10.935
 5395TIP3   OH240379   0.370   1.336  10.982
 5395TIP3    H140380   0.362   1.244  10.948
 5395TIP3    H240381   0.467   1.334  10.991
 5396TIP3   OH240382   0.124   0.641  10.497
 5396TIP3    H140383   0.118   0.722  10.550
 5396TIP3    H240384   0.038   0.598  10.519
 5397TIP3   OH240385   0.112   0.906  10.818
 5397TIP3    H140386   0.156   0.820  10.840
 5397TIP3    H240387   0.172   0.947  10.755
 5398TIP3   OH240388   1.182   1.740  10.863
 5398TIP3    H140389   1.250   1.683  10.819
 5398TIP3    H240390   1.128   1.670  10.901
 5399TIP3   OH240391   0.911   1.173  11.087
 5399TIP3    H140392   0.942   1.116  11.015
 5399TIP3    H240393   0.997   1.200  11.124
 5400TIP3   OH240394   1.778   0.308  11.081
 5400TIP3    H140395   1.785   0.373  11.154
 5400TIP3    H240396   1.845   0.345  11.021
 5401TIP3   OH240397   1.265   0.618  11.119
 5401TIP3    H140398   1.287   0.525  11.137
 5401TIP3    H240399   1.254   0.615  11.022
 5402TIP3   OH240400   0.575   0.407  10.812
 5402TIP3    H140401   0.595   0.480  10.750
 5402TIP3    H240402   0.540   0.342  10.748
 5403TIP3   OH240403   1.316   0.410  10.629
 5403TIP3    H140404   1.363   0.395  10.715
 5403TIP3    H240405   1.374   0.476  10.589
 5404TIP3   OH240406   0.218   0.655  10.880
 5404TIP3    H140407   0.280   0.597  10.927
 5404TIP3    H240408   0.235   0.632  10.787
 5405TIP3   OH240409   0.708   0.819  10.831
 5405TIP3    H140410   0.781   0.769  10.872
 5405TIP3    H240411   0.674   0.748  10.773
 5406TIP3   OH240412   1.808   0.444  11.312
 5406TIP3    H140413   1.765   0.533  11.303
 5406TIP3    H240414   1.805   0.432  11.408
 5407TIP3   OH240415   0.446   0.306  11.219
 5407TIP3    H140416   0.411   0.351  11.140
 5407TIP3    H240417   0.371   0.316  11.281
 5408TIP3   OH240418   1.142   1.258  10.545
 5408TIP3    H140419   1.132   1.251  10.448
 5408TIP3    H240420   1.133   1.354  10.559
 5409TIP3   OH240421   0.720   1.044  11.226
 5409TIP3    H140422   0.656   1.104  11.269
 5409TIP3    H240423   0.779   1.108  11.181
 5410TIP3   OH240424   1.477   0.414  10.852
 5410TIP3    H140425   1.441   0.362  10.926
 5410TIP3    H240426   1.567   0.433  10.882
 5411TIP3   OH240427   0.390   0.486  11.011
 5411TIP3    H140428   0.447   0.553  11.056
 5411TIP3    H240429   0.450   0.455  10.939
 5412TIP3   OH240430   0.575   1.291  11.283
 5412TIP3    H140431   0.553   1.365  11.224
 5412TIP3    H240432   0.486   1.273  11.320
 5413TIP3   OH240433   0.102   1.224  10.377
 5413TIP3    H140434   0.110   1.261  10.286
 5413TIP3    H240435   0.139   1.294  10.435
 5414TIP3   OH240436   1.517   1.406  11.072
 5414TIP3    H140437   1.420   1.418  11.085
 5414TIP3    H240438   1.537   1.493  11.034
 5415TIP3   OH240439   1.539   0.203  11.215
 5415TIP3    H140440   1.463   0.233  11.161
 5415TIP3    H240441   1.607   0.199  11.144
 5416TIP3   OH240442   0.831   0.093  10.900
 5416TIP3    H140443   0.837   0.008  10.949
 5416TIP3    H240444   0.768   0.143  10.957
 5417TIP3   OH240445   1.336   1.564  10.740
 5417TIP3    H140446   1.352   1.486  10.684
 5417TIP3    H240447   1.420   1.613  10.720
 5418TIP3   OH240448   1.437   1.362  10.589
 5418TIP3    H140449   1.436   1.291  10.521
 5418TIP3    H240450   1.437   1.309  10.670
 5419TIP3   OH240451   1.607   1.230  11.459
 5419TIP3    H140452   1.630   1.161  11.393
 5419TIP3    H240453   1.617   1.311  11.404
 5420TIP3   OH240454   1.047   0.923  10.403
 5420TIP3    H140455   1.009   1.012  10.386
 5420TIP3    H240456   1.128   0.924  10.348
 5421TIP3   OH240457   1.101   0.772  10.118
 5421TIP3    H140458   1.183   0.801  10.166
 5421TIP3    H240459   1.122   0.682  10.090
 5422TIP3   OH240460   1.809   0.869  11.216
 5422TIP3    H140461   1.760   0.950  11.236
 5422TIP3    H240462   1.872   0.904  11.150
 5423TIP3   OH240463   1.423   0.890  10.516
 5423TIP3    H140464   1.349   0.930  10.566
 5423TIP3    H240465   1.486   0.869  10.587
 5424TIP3   OH240466   1.410   0.736  11.426
 5424TIP3    H140467   1.401   0.830  11.447
 5424TIP3    H240468   1.340   0.726  11.359
 5425TIP3   OH240469   0.558   1.003  10.700
 5425TIP3    H140470   0.492   0.962  10.639
 5425TIP3    H240471   0.610   0.926  10.732
 5426TIP3   OH240472   0.708   1.311  10.955
 5426TIP3    H140473   0.719   1.311  10.858
 5426TIP3    H240474   0.782   1.258  10.990
 5427TIP3   OH240475   0.597   0.872  11.070
 5427TIP3    H140476   0.643   0.887  10.984
 5427TIP3    H240477   0.637   0.939  11.130
 5428TIP3   OH240478   1.262   1.434  11.141
 5428TIP3    H140479   1.243   1.488  11.219
 5428TIP3    H240480   1.242   1.344  11.174
 5429TIP3   OH240481   0.700   1.317  11.517
 5429TIP3    H140482   0.624   1.362  11.559
 5429TIP3    H240483   0.667   1.305  11.425
 5430TIP3   OH240484   1.280   0.885  10.279
 5430TIP3    H140485   1.341   0.871  10.355
 5430TIP3    H240486   1.344   0.907  10.208
 5431TIP3   OH240487   0.429   0.979  11.393
 5431TIP3    H140488   0.433   1.043  11.467
 5431TIP3    H240489   0.350   0.928  11.419
 5432TIP3   OH240490   1.082   1.577  10.554
 5432TIP3    H140491   1.090   1.568  10.650
 5432TIP3    H240492   1.018   1.650  10.541
 5433TIP3   OH240493   0.515   1.499  11.617
 5433TIP3    H140494   0.509   1.517  11.521
 5433TIP3    H240495   0.420   1.495  11.641
 5434TIP3   OH240496   1.680   0.071  10.278
 5434TIP3    H140497   1.608   0.114  10.325
 5434TIP3    H240498   1.710   0.141  10.216
 5435TIP3   OH240499   0.395   0.892  10.506
 5435TIP3    H140500   0.386   0.968  10.445
 5435TIP3    H240501   0.411   0.817  10.447
 5436TIP3   OH240502   1.788   1.487  10.118
 5436TIP3    H140503   1.817   1.580  10.130
 5436TIP3    H240504   1.871   1.437  10.133
 5437TIP3   OH240505   0.153   1.147  11.370
 5437TIP3    H140506   0.057   1.137  11.356
 5437TIP3    H240507   0.185   1.065  11.327
 5438TIP3   OH240508   0.127   1.456  10.983
 5438TIP3    H140509   0.198   1.387  10.992
 5438TIP3    H240510   0.140   1.502  11.067
 5439TIP3   OH240511   1.866   1.488  11.624
 5439TIP3    H140512   1.850   1.399  11.588
 5439TIP3    H240513   1.775   1.508  11.655
 5440TIP3   OH240514   0.949   1.445  11.493
 5440TIP3    H140515   0.964   1.532  11.536
 5440TIP3    H240516   0.853   1.429  11.509
 5441TIP3   OH240517   0.989   1.811  10.424
 5441TIP3    H140518   1.033   1.828  10.338
 5441TIP3    H240519   1.018   1.889  10.476
 5442TIP3   OH240520   0.402   1.667  10.649
 5442TIP3    H140521   0.421   1.646  10.743
 5442TIP3    H240522   0.306   1.654  10.644
 5443TIP3   OH240523   1.301   1.783  10.184
 5443TIP3    H140524   1.358   1.709  10.150
 5443TIP3    H240525   1.323   1.784  10.278
 5444TIP3   OH240526   1.281   1.728  10.462
 5444TIP3    H140527   1.188   1.701  10.465
 5444TIP3    H240528   1.320   1.652  10.510
 5445TIP3   OH240529   1.545   0.622  11.647
 5445TIP3    H140530   1.510   0.668  11.567
 5445TIP3    H240531   1.543   0.531  11.612
 5446TIP3   OH240532   0.343   1.308  11.431
 5446TIP3    H140533   0.352   1.255  11.513
 5446TIP3    H240534   0.263   1.261  11.395
 5447TIP3   OH240535   0.584   0.188  11.010
 5447TIP3    H140536   0.497   0.209  10.969
 5447TIP3    H240537   0.581   0.246  11.088
 5448TIP3   OH240538   0.993   0.171  11.427
 5448TIP3    H140539   1.036   0.083  11.425
 5448TIP3    H240540   0.905   0.148  11.394
 5449TIP3   OH240541   1.357   0.449  11.458
 5449TIP3    H140542   1.299   0.434  11.537
 5449TIP3    H240543   1.354   0.546  11.456
 5450TIP3   OH240544   1.467   0.984  10.124
 5450TIP3    H140545   1.439   0.944  10.037
 5450TIP3    H240546   1.559   1.009  10.100
 5451TIP3   OH240547   0.981   0.344  10.135
 5451TIP3    H140548   0.947   0.283  10.203
 5451TIP3    H240549   0.955   0.302  10.052
 5452TIP3   OH240550   0.601   0.608  11.143
 5452TIP3    H140551   0.590   0.640  11.235
 5452TIP3    H240552   0.597   0.695  11.097
 5453TIP3   OH240553   0.604   0.625  10.671
 5453TIP3    H140554   0.507   0.609  10.657
 5453TIP3    H240555   0.632   0.601  10.580
 5454TIP3   OH240556   1.143   0.711  10.539
 5454TIP3    H140557   1.101   0.782  10.484
 5454TIP3    H240558   1.214   0.683  10.477
 5455TIP3   OH240559   1.068   0.691  11.717
 5455TIP3    H140560   0.997   0.659  11.658
 5455TIP3    H240561   1.136   0.622  11.711
 5456TIP3   OH240562   1.241   0.621  10.820
 5456TIP3    H140563   1.227   0.701  10.767
 5456TIP3    H240564   1.238   0.553  10.750
 5457TIP3   OH240565   0.314   0.636  11.301
 5457TIP3    H140566   0.388   0.678  11.350
 5457TIP3    H240567   0.327   0.545  11.332
 5458TIP3   OH240568   0.666   0.403  10.024
 5458TIP3    H140569   0.642   0.386  10.116
 5458TIP3    H240570   0.597   0.463   9.994
 5459TIP3   OH240571   0.101   0.427  10.746
 5459TIP3    H140572   0.153   0.398  10.822
 5459TIP3    H240573   0.130   0.367  10.675
 5460TIP3   OH240574   0.122   0.424  10.257
 5460TIP3    H140575   0.199   0.470  10.220
 5460TIP3    H240576   0.060   0.497  10.270
 5461TIP3   OH240577   1.127   0.808  11.262
 5461TIP3    H140578   1.193   0.756  11.210
 5461TIP3    H240579   1.089   0.734  11.316
 5462TIP3   OH240580   0.871   0.376  10.740
 5462TIP3    H140581   0.785   0.351  10.779
 5462TIP3    H240582   0.930   0.359  10.816
 5463TIP3   OH240583   0.352   0.570  10.609
 5463TIP3    H140584   0.276   0.589  10.550
 5463TIP3    H240585   0.374   0.478  10.584
 5464TIP3   OH240586   0.660   0.546  10.418
 5464TIP3    H140587   0.758   0.549  10.416
 5464TIP3    H240588   0.635   0.600  10.340
 5465TIP3   OH240589   1.284   0.296  11.059
 5465TIP3    H140590   1.229   0.310  11.138
 5465TIP3    H240591   1.219   0.259  10.996
 5466TIP3   OH240592   0.568   0.679  10.207
 5466TIP3    H140593   0.486   0.634  10.178
 5466TIP3    H240594   0.615   0.698  10.125
 5467TIP3   OH240595   1.602   1.901  11.706
 5467TIP3    H140596   1.636   1.949  11.628
 5467TIP3    H240597   1.681   1.909  11.763
 5468TIP3   OH240598   0.418   1.128  11.622
 5468TIP3    H140599   0.472   1.133  11.705
 5468TIP3    H240600   0.336   1.091  11.658
 5469TIP3   OH240601   0.941   0.664  10.933
 5469TIP3    H140602   1.001   0.614  10.876
 5469TIP3    H240603   0.941   0.611  11.014
 5470TIP3   OH240604   0.470   0.305  10.589
 5470TIP3    H140605   0.414   0.230  10.621
 5470TIP3    H240606   0.519   0.263  10.518
 5471TIP3   OH240607   0.873   0.461  11.161
 5471TIP3    H140608   0.810   0.533  11.146
 5471TIP3    H240609   0.939   0.505  11.217
 5472TIP3   OH240610   0.898   1.149  10.368
 5472TIP3    H140611   0.822   1.101  10.328
 5472TIP3    H240612   0.860   1.162  10.458
 5473TIP3   OH240613   1.645   1.075  11.254
 5473TIP3    H140614   1.691   1.127  11.183
 5473TIP3    H240615   1.559   1.063  11.210
 5474TIP3   OH240616   1.235   0.413  10.199
 5474TIP3    H140617   1.145   0.435  10.169
 5474TIP3    H240618   1.281   0.499  10.196
 5475TIP3   OH240619   0.994   1.171  11.455
 5475TIP3    H140620   0.955   1.115  11.524
 5475TIP3    H240621   0.965   1.261  11.480
 5476TIP3   OH240622   1.328   0.625  10.343
 5476TIP3    H140623   1.412   0.602  10.388
 5476TIP3    H240624   1.365   0.663  10.262
 5477TIP3   OH240625   0.416   1.086  10.909
 5477TIP3    H140626   0.467   1.064  10.828
 5477TIP3    H240627   0.437   1.010  10.967
 5478TIP3   OH240628   1.115   1.279  10.254
 5478TIP3    H140629   1.073   1.367  10.264
 5478TIP3    H240630   1.039   1.221  10.275
 5479TIP3   OH240631   0.172   0.871  11.413
 5479TIP3    H140632   0.168   0.826  11.498
 5479TIP3    H240633   0.076   0.870  11.391
 5480TIP3   OH240634   0.791   0.909  11.692
 5480TIP3    H140635   0.742   0.830  11.660
 5480TIP3    H240636   0.880   0.873  11.678
 5481TIP3   OH240637   1.292   1.406  11.484
 5481TIP3    H140638   1.208   1.412  11.437
 5481TIP3    H240639   1.264   1.435  11.573
 5482TIP3   OH240640   1.817   0.640  10.360
 5482TIP3    H140641   1.783   0.598  10.278
 5482TIP3    H240642   1.827   0.731  10.328
 5483TIP3   OH240643   1.845   1.189  11.580
 5483TIP3    H140644   1.758   1.203  11.536
 5483TIP3    H240645   1.904   1.185  11.501
 5484TIP3   OH240646   1.674   1.464  10.364
 5484TIP3    H140647   1.589   1.419  10.368
 5484TIP3    H240648   1.698   1.457  10.269
 5485TIP3   OH240649   1.379   0.976  11.033
 5485TIP3    H140650   1.292   0.942  11.004
 5485TIP3    H240651   1.438   0.909  10.997
 5486TIP3   OH240652   0.623   1.408  10.693
 5486TIP3    H140653   0.658   1.493  10.658
 5486TIP3    H240654   0.541   1.400  10.641
 5487TIP3   OH240655   0.229   0.887  10.124
 5487TIP3    H140656   0.284   0.959  10.159
 5487TIP3    H240657   0.146   0.895  10.173
 5488TIP3   OH240658   0.763   1.167  10.612
 5488TIP3    H140659   0.707   1.244  10.631
 5488TIP3    H240660   0.721   1.096  10.665
 5489TIP3   OH240661   0.842   1.593  11.291
 5489TIP3    H140662   0.903   1.660  11.254
 5489TIP3    H240663   0.903   1.542  11.349
 5490TIP3   OH240664   0.664   1.650  10.575
 5490TIP3    H140665   0.572   1.673  10.598
 5490TIP3    H240666   0.708   1.736  10.591
 5491TIP3   OH240667   1.141   1.192  11.223
 5491TIP3    H140668   1.088   1.165  11.302
 5491TIP3    H240669   1.183   1.107  11.203
 5492TIP3   OH240670   1.389   1.286  10.122
 5492TIP3    H140671   1.413   1.202  10.167
 5492TIP3    H240672   1.302   1.297  10.163
 5493TIP3   OH240673   1.461   1.637  11.469
 5493TIP3    H140674   1.378   1.587  11.454
 5493TIP3    H240675   1.468   1.696  11.391
 5494TIP3   OH240676   1.862   1.743  10.172
 5494TIP3    H140677   1.922   1.816  10.147
 5494TIP3    H240678   1.795   1.796  10.223
 5495TIP3   OH240679   0.267   0.394  11.429
 5495TIP3    H140680   0.181   0.439  11.425
 5495TIP3    H240681   0.240   0.302  11.444
 5496TIP3   OH240682   1.479   1.165  10.369
 5496TIP3    H140683   1.454   1.075  10.344
 5496TIP3    H240684   1.575   1.161  10.354
 5497TIP3   OH240685   0.237   1.554  11.235
 5497TIP3    H140686   0.308   1.493  11.256
 5497TIP3    H240687   0.220   1.592  11.323
 5498TIP3   OH240688   0.669   1.344  10.221
 5498TIP3    H140689   0.753   1.306  10.254
 5498TIP3    H240690   0.682   1.439  10.243
 5499TIP3   OH240691   0.348   1.086  10.296
 5499TIP3    H140692   0.261   1.128  10.305
 5499TIP3    H240693   0.403   1.156  10.256
 5500TIP3   OH240694   1.154   0.339  11.293
 5500TIP3    H140695   1.228   0.354  11.353
 5500TIP3    H240696   1.097   0.282  11.350
 5501TIP3   OH240697   1.191   0.277  10.431
 5501TIP3    H140698   1.194   0.333  10.349
 5501TIP3    H240699   1.245   0.331  10.493
 5502TIP3   OH240700   0.983   1.528  10.264
 5502TIP3    H140701   0.894   1.543  10.300
 5502TIP3    H240702   1.020   1.618  10.265
 5503TIP3   OH240703   0.920   0.495  10.478
 5503TIP3    H140704   1.000   0.547  10.493
 5503TIP3    H240705   0.891   0.470  10.568
 5504TIP3   OH240706   1.054   0.581  11.390
 5504TIP3    H140707   0.962   0.595  11.423
 5504TIP3    H240708   1.060   0.484  11.388
 5505TIP3   OH240709   1.003   0.179  10.581
 5505TIP3    H140710   0.990   0.261  10.633
 5505TIP3    H240711   1.079   0.205  10.522
 5506TIP3   OH240712   0.717   1.600  10.296
 5506TIP3    H140713   0.732   1.690  10.260
 5506TIP3    H240714   0.707   1.621  10.392
 5507TIP3   OH240715   0.559   0.324  10.279
 5507TIP3    H140716   0.566   0.395  10.346
 5507TIP3    H240717   0.648   0.286  10.291
 5508TIP3   OH240718   1.603   0.383  11.502
 5508TIP3    H140719   1.505   0.383  11.491
 5508TIP3    H240720   1.630   0.348  11.415
 5509TIP3   OH240721   1.468   0.739  10.915
 5509TIP3    H140722   1.396   0.674  10.911
 5509TIP3    H240723   1.536   0.692  10.966
 5510TIP3   OH240724   0.406   1.357  10.135
 5510TIP3    H140725   0.475   1.381  10.200
 5510TIP3    H240726   0.458   1.294  10.082
 5511TIP3   OH240727   0.306   0.625  10.151
 5511TIP3    H140728   0.297   0.723  10.150
 5511TIP3    H240729   0.250   0.607  10.073
 5512TIP3   OH240730   1.582   1.684  11.067
 5512TIP3    H140731   1.579   1.746  10.991
 5512TIP3    H240732   1.679   1.673  11.069
 5513TIP3   OH240733   0.318   0.169  10.923
 5513TIP3    H140734   0.309   0.156  10.825
 5513TIP3    H240735   0.310   0.075  10.951
 5514TIP3   OH240736   0.203   1.450  10.516
 5514TIP3    H140737   0.123   1.500  10.535
 5514TIP3    H240738   0.254   1.513  10.464
 5515TIP3   OH240739   0.150   1.743  11.671
 5515TIP3    H140740   0.212   1.745  11.746
 5515TIP3    H240741   0.119   1.652  11.683
 5516TIP3   OH240742   0.647   1.618  11.850
 5516TIP3    H140743   0.735   1.588  11.820
 5516TIP3    H240744   0.592   1.595  11.772
 5517TIP3   OH240745   1.006   1.564  19.956
 5517TIP3    H140746   0.937   1.495  19.964
 5517TIP3    H240747   1.082   1.518  19.995
 5518TIP3   OH240748   1.234   1.479  11.738
 5518TIP3    H140749   1.207   1.394  11.779
 5518TIP3    H240750   1.320   1.492  11.784
 5519TIP3   OH240751   1.427   1.550  10.103
 5519TIP3    H140752   1.421   1.452  10.099
 5519TIP3    H240753   1.473   1.578  10.023
 5520TIP3   OH240754   0.192   1.157  11.797
 5520TIP3    H140755   0.206   1.062  11.812
 5520TIP3    H240756   0.100   1.150  11.765
 5521TIP3   OH240757   0.596   1.134  10.034
 5521TIP3    H140758   0.617   1.101  10.123
 5521TIP3    H240759   0.671   1.193  10.017
 5522TIP3   OH240760   0.786   1.175  11.721
 5522TIP3    H140761   0.757   1.221  11.639
 5522TIP3    H240762   0.769   1.080  11.700
 5523TIP3   OH240763   1.351   1.110  11.490
 5523TIP3    H140764   1.435   1.158  11.481
 5523TIP3    H240765   1.296   1.187  11.512
 5524TIP3   OH240766   0.272   0.853  11.751
 5524TIP3    H140767   0.317   0.767  11.750
 5524TIP3    H240768   0.247   0.861  11.846
 5525TIP3   OH240769   0.692   1.002  10.259
 5525TIP3    H140770   0.626   0.950  10.305
 5525TIP3    H240771   0.738   0.935  10.206
 5526TIP3   OH240772   0.556   0.746  11.381
 5526TIP3    H140773   0.537   0.839  11.356
 5526TIP3    H240774   0.652   0.752  11.402
 5527TIP3   OH240775   0.818   0.788  10.072
 5527TIP3    H140776   0.828   0.720  10.002
 5527TIP3    H240777   0.913   0.802  10.096
 5528TIP3   OH240778   1.144   1.015  11.784
 5528TIP3    H140779   1.196   0.985  11.709
 5528TIP3    H240780   1.106   0.932  11.817
 5529TIP3   OH240781   1.697   1.015  19.997
 5529TIP3    H140782   1.750   0.958  19.938
 5529TIP3    H240783   1.744   1.099  19.987
 5530TIP3   OH240784   0.598   0.391  11.576
 5530TIP3    H140785   0.616   0.367  11.483
 5530TIP3    H240786   0.664   0.463  11.587
 5531TIP3   OH240787   0.700   0.337  11.329
 5531TIP3    H140788   0.764   0.375  11.264
 5531TIP3    H240789   0.614   0.368  11.295
 5532TIP3   OH240790   0.841   0.810  11.247
 5532TIP3    H140791   0.920   0.851  11.285
 5532TIP3    H240792   0.785   0.889  11.238
 5533TIP3   OH240793   1.341   0.614  11.828
 5533TIP3    H140794   1.355   0.539  11.887
 5533TIP3    H240795   1.432   0.627  11.793
 5534TIP3   OH240796   1.444   0.936  11.677
 5534TIP3    H140797   1.405   0.985  11.602
 5534TIP3    H240798   1.536   0.921  11.649
 5535TIP3   OH240799   0.477   0.595  11.769
 5535TIP3    H140800   0.420   0.515  11.773
 5535TIP3    H240801   0.512   0.588  11.679
 5536TIP3   OH240802   0.729   0.080  11.357
 5536TIP3    H140803   0.714   0.178  11.362
 5536TIP3    H240804   0.642   0.053  11.325
 5537TIP3   OH240805   0.912   0.462  11.765
 5537TIP3    H140806   0.852   0.505  11.827
 5537TIP3    H240807   0.875   0.493  11.679
 5538TIP3   OH240808   1.193   0.404  11.666
 5538TIP3    H140809   1.098   0.386  11.682
 5538TIP3    H240810   1.235   0.360  11.742
 5539TIP3   OH240811   1.366   0.299  11.847
 5539TIP3    H140812   1.343   0.204  11.839
 5539TIP3    H240813   1.318   0.323  11.930
 5540TIP3   OH240814   0.338   0.368  11.805
 5540TIP3    H140815   0.395   0.347  11.729
 5540TIP3    H240816   0.305   0.279  11.824
 5541TIP3   OH240817   0.816   0.062  11.642
 5541TIP3    H140818   0.782  -0.030  11.641
 5541TIP3    H240819   0.809   0.088  11.548
 5542TIP3   OH240820   0.771   0.150  11.885
 5542TIP3    H140821   0.801   0.111  11.800
 5542TIP3    H240822   0.757   0.242  11.857
 5543TIP3   OH240823   0.748   1.847  10.202
 5543TIP3    H140824   0.845   1.851  10.207
 5543TIP3    H240825   0.730   1.888  10.116
 5544TIP3   OH240826   0.153   1.284  10.121
 5544TIP3    H140827   0.247   1.314  10.122
 5544TIP3    H240828   0.155   1.220  10.048
 5545TIP3   OH240829   0.084   1.806  10.577
 5545TIP3    H140830  -0.005   1.843  10.595
 5545TIP3    H240831   0.103   1.758  10.661
 5546TIP3   OH240832   0.172   1.657  10.792
 5546TIP3    H140833   0.179   1.562  10.814
 5546TIP3    H240834   0.191   1.696  10.879
 5547TIP3   OH240835   1.859   1.729  11.071
 5547TIP3    H140836   1.873   1.728  11.167
 5547TIP3    H240837   1.913   1.806  11.049
 5548TIP3   OH240838   1.796   1.686  11.364
 5548TIP3    H140839   1.762   1.607  11.316
 5548TIP3    H240840   1.828   1.643  11.445
 5549TIP3   OH240841   1.638   1.322  11.834
 5549TIP3    H140842   1.548   1.348  11.810
 5549TIP3    H240843   1.680   1.406  11.860
 5550TIP3   OH240844   1.750   1.116  10.367
 5550TIP3    H140845   1.834   1.161  10.392
 5550TIP3    H240846   1.737   1.059  10.444
 5551TIP3   OH240847   1.792   0.926  10.602
 5551TIP3    H140848   1.722   0.860  10.627
 5551TIP3    H240849   1.845   0.925  10.684
 5552TIP3   OH240850   1.769   1.179  11.045
 5552TIP3    H140851   1.842   1.118  11.026
 5552TIP3    H240852   1.801   1.262  11.004
 5553TIP3   OH240853   1.650   1.461  11.310
 5553TIP3    H140854   1.584   1.507  11.365
 5553TIP3    H240855   1.601   1.443  11.227
 5554TIP3   OH240856   1.858   0.920  10.203
 5554TIP3    H140857   1.783   0.937  10.143
 5554TIP3    H240858   1.842   0.989  10.270
 5555TIP3   OH240859   1.757   0.574  10.109
 5555TIP3    H140860   1.705   0.655  10.097
 5555TIP3    H240861   1.700   0.514  10.058
 5556TIP3   OH240862   1.605   0.748  10.663
 5556TIP3    H140863   1.552   0.680  10.617
 5556TIP3    H240864   1.569   0.750  10.754
 5557TIP3   OH240865   0.158   1.055  11.036
 5557TIP3    H140866   0.154   0.994  10.959
 5557TIP3    H240867   0.240   1.025  11.080
 5558TIP3   OH240868   1.713   0.942  11.605
 5558TIP3    H140869   1.758   0.856  11.626
 5558TIP3    H240870   1.785   1.004  11.581
 5559TIP3   OH240871   1.788   0.705  11.713
 5559TIP3    H140872   1.699   0.668  11.692
 5559TIP3    H240873   1.842   0.623  11.705
 5560TIP3   OH240874   1.610   0.331  10.003
 5560TIP3    H140875   1.678   0.301  10.066
 5560TIP3    H240876   1.529   0.285  10.031
 5561TIP3   OH240877   1.552   0.544  10.486
 5561TIP3    H140878   1.577   0.449  10.493
 5561TIP3    H240879   1.640   0.583  10.470
 5562TIP3   OH240880   1.645   0.590  11.057
 5562TIP3    H140881   1.743   0.608  11.057
 5562TIP3    H240882   1.631   0.591  11.154
 5563TIP3   OH240883   1.654   0.671  11.317
 5563TIP3    H140884   1.563   0.697  11.341
 5563TIP3    H240885   1.694   0.753  11.279
 5564TIP3   OH240886   0.112   0.525  11.665
 5564TIP3    H140887   0.199   0.528  11.707
 5564TIP3    H240888   0.078   0.442  11.700
 5565TIP3   OH240889   1.914   0.101  11.852
 5565TIP3    H140890   1.999   0.092  11.806
 5565TIP3    H240891   1.869   0.159  11.787
 5566TIP3   OH240892   1.647   0.290  10.504
 5566TIP3    H140893   1.665   0.247  10.590
 5566TIP3    H240894   1.570   0.237  10.473
 5567TIP3   OH240895   0.139   0.341  11.017
 5567TIP3    H140896   0.181   0.254  11.004
 5567TIP3    H240897   0.218   0.397  11.021
 5568TIP3   OH240898   0.038   0.672  11.101
 5568TIP3    H140899   0.102   0.632  11.039
 5568TIP3    H240900   0.095   0.725  11.158
 5569TIP3   OH240901   1.787   0.296  11.687
 5569TIP3    H140902   1.700   0.342  11.693
 5569TIP3    H240903   1.771   0.238  11.609
 5570TIP3   OH240904   1.826   0.259  10.145
 5570TIP3    H140905   1.871   0.211  10.073
 5570TIP3    H240906   1.856   0.349  10.124
 5571TIP3   OH240907   0.140   0.293  10.503
 5571TIP3    H140908   0.046   0.292  10.473
 5571TIP3    H240909   0.182   0.356  10.441
 5572TIP3   OH240910   1.523   1.730  10.668
 5572TIP3    H140911   1.593   1.720  10.599
 5572TIP3    H240912   1.564   1.791  10.732
 5573TIP3   OH240913   0.115   0.209  11.300
 5573TIP3    H140914   0.033   0.191  11.349
 5573TIP3    H240915   0.077   0.270  11.234
 5574TIP3   OH240916   0.242   1.421  11.715
 5574TIP3    H140917   0.207   1.384  11.633
 5574TIP3    H240918   0.270   1.339  11.760
 5575TIP3   OH240919   0.575   1.594  11.350
 5575TIP3    H140920   0.568   1.681  11.305
 5575TIP3    H240921   0.672   1.580  11.345
 5576TIP3   OH240922   0.973   1.695  11.607
 5576TIP3    H140923   0.975   1.668  11.701
 5576TIP3    H240924   1.066   1.729  11.596
 5577TIP3   OH240925   1.199   1.822  11.578
 5577TIP3    H140926   1.273   1.793  11.522
 5577TIP3    H240927   1.242   1.863  11.654
 5578TIP3   OH240928   1.732   0.145  11.457
 5578TIP3    H140929   1.650   0.157  11.407
 5578TIP3    H240930   1.728   0.048  11.473
 5579TIP3   OH240931   0.322   1.885  11.339
 5579TIP3    H140932   0.240   1.920  11.296
 5579TIP3    H240933   0.286   1.863  11.426
 5580TIP3   OH240934   0.552   1.828  11.222
 5580TIP3    H140935   0.459   1.838  11.255
 5580TIP3    H240936   0.552   1.895  11.152
 5581TIP3   OH240937   0.995   1.790  11.145
 5581TIP3    H140938   1.001   1.851  11.070
 5581TIP3    H240939   1.023   1.849  11.218
 5582TIP3   OH240940   1.211   1.661  11.302
 5582TIP3    H140941   1.141   1.685  11.239
 5582TIP3    H240942   1.283   1.722  11.276
 5583TIP3   OH240943   1.467   1.820  11.261
 5583TIP3    H140944   1.476   1.907  11.220
 5583TIP3    H240945   1.503   1.765  11.187
 5584TIP3   OH240946   0.285   1.734  11.038
 5584TIP3    H140947   0.258   1.673  11.111
 5584TIP3    H240948   0.363   1.686  11.002
 5585TIP3   OH240949   0.464   1.601  10.901
 5585TIP3    H140950   0.434   1.509  10.914
 5585TIP3    H240951   0.556   1.598  10.938
 5586TIP3   OH240952   0.705   1.598  11.020
 5586TIP3    H140953   0.746   1.510  11.013
 5586TIP3    H240954   0.733   1.624  11.110
 5587TIP3   OH240955   1.059   0.252  10.884
 5587TIP3    H140956   1.000   0.174  10.887
 5587TIP3    H240957   1.124   0.222  10.818
 5588TIP3   OH240958   1.531   0.104  10.893
 5588TIP3    H140959   1.600   0.127  10.828
 5588TIP3    H240960   1.451   0.148  10.859
 5589TIP3   OH240961   1.756   0.171  10.724
 5589TIP3    H140962   1.818   0.130  10.661
 5589TIP3    H240963   1.803   0.258  10.738
 5590TIP3   OH240964   0.284   0.141  10.664
 5590TIP3    H140965   0.220   0.187  10.605
 5590TIP3    H240966   0.270   0.047  10.638
 5591TIP3   OH240967   0.156   0.111  10.280
 5591TIP3    H140968   0.233   0.155  10.239
 5591TIP3    H240969   0.112   0.189  10.317
 5592TIP3   OH240970   0.754   0.121  10.633
 5592TIP3    H140971   0.841   0.150  10.601
 5592TIP3    H240972   0.778   0.108  10.726
 5593TIP3   OH240973   1.287   0.137  10.773
 5593TIP3    H140974   1.307   0.126  10.679
 5593TIP3    H240975   1.286   0.045  10.807
 5594TIP3   OH240976   1.430   0.169  10.408
 5594TIP3    H140977   1.343   0.204  10.382
 5594TIP3    H240978   1.423   0.076  10.381
 5595TIP3   OH240979   0.204   1.695  10.294
 5595TIP3    H140980   0.113   1.691  10.326
 5595TIP3    H240981   0.211   1.791  10.275
 5596TIP3   OH240982   0.352   0.213  10.129
 5596TIP3    H140983   0.380   0.196  10.039
 5596TIP3    H240984   0.434   0.244  10.173
 5597TIP3   OH240985   0.818   0.278  10.335
 5597TIP3    H140986   0.852   0.223  10.407
 5597TIP3    H240987   0.866   0.362  10.349
 5598TIP3   OH240988   1.044   1.774  10.158
 5598TIP3    H140989   1.141   1.791  10.152
 5598TIP3    H240990   1.033   1.722  10.077
 5599TIP3   OH240991   1.703   1.697  10.487
 5599TIP3    H140992   1.693   1.608  10.446
 5599TIP3    H240993   1.691   1.756  10.409
 5600TIP3   OH240994   0.249   0.120  11.605
 5600TIP3    H140995   0.229   0.026  11.601
 5600TIP3    H240996   0.344   0.117  11.631
 5601TIP3   OH240997   0.495   0.121  11.789
 5601TIP3    H140998   0.585   0.134  11.821
 5601TIP3    H240999   0.497   0.025  11.765
 5602TIP3   OH241000   0.458   1.811  10.107
 5602TIP3    H141001   0.390   1.772  10.163
 5602TIP3    H241002   0.541   1.768  10.138
 5603TIP3   OH241003   1.284   0.044  11.808
 5603TIP3    H141004   1.258  -0.048  11.827
 5603TIP3    H241005   1.366   0.026  11.758
 5604TIP3   OH241006   1.614   1.577  11.667
 5604TIP3    H141007   1.534   1.570  11.609
 5604TIP3    H241008   1.624   1.673  11.668
 5605TIP3   OH241009   3.097   0.993  10.664
 5605TIP3    H141010   3.085   1.084  10.697
 5605TIP3    H241011   3.028   0.990  10.596
 5606TIP3   OH241012   2.972   0.882  11.016
 5606TIP3    H141013   2.970   0.824  11.096
 5606TIP3    H241014   2.916   0.828  10.956
 5607TIP3   OH241015   2.198   0.885  11.143
 5607TIP3    H141016   2.188   0.810  11.204
 5607TIP3    H241017   2.273   0.931  11.184
 5608TIP3   OH241018   3.299   1.181  10.857
 5608TIP3    H141019   3.297   1.104  10.916
 5608TIP3    H241020   3.321   1.251  10.920
 5609TIP3   OH241021   2.303   1.343  10.981
 5609TIP3    H141022   2.264   1.255  10.960
 5609TIP3    H241023   2.397   1.318  10.968
 5610TIP3   OH241024   1.967   0.641  10.581
 5610TIP3    H141025   1.917   0.722  10.591
 5610TIP3    H241026   1.915   0.602  10.509
 5611TIP3   OH241027   2.000   0.917  10.791
 5611TIP3    H141028   2.056   0.838  10.812
 5611TIP3    H241029   2.061   0.971  10.739
 5612TIP3   OH241030   3.063   1.733  10.868
 5612TIP3    H141031   3.132   1.677  10.825
 5612TIP3    H241032   3.013   1.662  10.911
 5613TIP3   OH241033   2.798   1.158  11.094
 5613TIP3    H141034   2.825   1.100  11.021
 5613TIP3    H241035   2.886   1.187  11.126
 5614TIP3   OH241036   3.661   0.293  11.090
 5614TIP3    H141037   3.670   0.366  11.157
 5614TIP3    H241038   3.734   0.318  11.030
 5615TIP3   OH241039   3.167   0.612  11.112
 5615TIP3    H141040   3.183   0.517  11.122
 5615TIP3    H241041   3.123   0.615  11.025
 5616TIP3   OH241042   2.454   0.401  10.774
 5616TIP3    H141043   2.464   0.484  10.722
 5616TIP3    H241044   2.403   0.345  10.710
 5617TIP3   OH241045   3.215   0.408  10.635
 5617TIP3    H141046   3.253   0.394  10.726
 5617TIP3    H241047   3.278   0.474  10.600
 5618TIP3   OH241048   2.107   0.676  10.893
 5618TIP3    H141049   2.182   0.640  10.942
 5618TIP3    H241050   2.109   0.626  10.811
 5619TIP3   OH241051   2.588   0.802  10.832
 5619TIP3    H141052   2.671   0.760  10.862
 5619TIP3    H241053   2.563   0.742  10.759
 5620TIP3   OH241054   3.692   0.442  11.314
 5620TIP3    H141055   3.655   0.534  11.316
 5620TIP3    H241056   3.704   0.424  11.408
 5621TIP3   OH241057   2.346   0.314  11.212
 5621TIP3    H141058   2.316   0.370  11.137
 5621TIP3    H241059   2.268   0.315  11.272
 5622TIP3   OH241060   3.027   1.245  10.557
 5622TIP3    H141061   3.015   1.247  10.460
 5622TIP3    H241062   2.999   1.335  10.582
 5623TIP3   OH241063   2.566   1.069  11.196
 5623TIP3    H141064   2.513   1.145  11.229
 5623TIP3    H241065   2.640   1.115  11.151
 5624TIP3   OH241066   3.373   0.402  10.846
 5624TIP3    H141067   3.350   0.350  10.923
 5624TIP3    H241068   3.469   0.407  10.856
 5625TIP3   OH241069   2.319   0.496  10.996
 5625TIP3    H141070   2.385   0.561  11.032
 5625TIP3    H241071   2.363   0.469  10.912
 5626TIP3   OH241072   2.432   1.275  11.295
 5626TIP3    H141073   2.423   1.356  11.243
 5626TIP3    H241074   2.343   1.273  11.339
 5627TIP3   OH241075   2.012   1.210  10.390
 5627TIP3    H141076   2.015   1.269  10.311
 5627TIP3    H241077   2.031   1.275  10.460
 5628TIP3   OH241078   3.394   1.416  11.057
 5628TIP3    H141079   3.302   1.436  11.084
 5628TIP3    H241080   3.415   1.499  11.010
 5629TIP3   OH241081   3.411   0.209  11.205
 5629TIP3    H141082   3.344   0.233  11.138
 5629TIP3    H241083   3.492   0.206  11.153
 5630TIP3   OH241084   2.716   0.098  10.898
 5630TIP3    H141085   2.725   0.010  10.942
 5630TIP3    H241086   2.661   0.145  10.965
 5631TIP3   OH241087   3.232   1.572  10.739
 5631TIP3    H141088   3.247   1.490  10.688
 5631TIP3    H241089   3.312   1.623  10.707
 5632TIP3   OH241090   3.327   1.356  10.588
 5632TIP3    H141091   3.315   1.283  10.523
 5632TIP3    H241092   3.323   1.303  10.669
 5633TIP3   OH241093   3.494   1.245  11.450
 5633TIP3    H141094   3.510   1.170  11.388
 5633TIP3    H241095   3.513   1.319  11.389
 5634TIP3   OH241096   2.951   0.926  10.419
 5634TIP3    H141097   2.906   1.008  10.393
 5634TIP3    H241098   3.031   0.923  10.362
 5635TIP3   OH241099   3.004   0.772  10.113
 5635TIP3    H141100   3.081   0.810  10.162
 5635TIP3    H241101   3.038   0.684  10.089
 5636TIP3   OH241102   3.691   0.874  11.236
 5636TIP3    H141103   3.629   0.950  11.237
 5636TIP3    H241104   3.757   0.907  11.173
 5637TIP3   OH241105   3.310   0.903  10.522
 5637TIP3    H141106   3.238   0.932  10.584
 5637TIP3    H241107   3.378   0.868  10.583
 5638TIP3   OH241108   3.273   0.724  11.423
 5638TIP3    H141109   3.276   0.817  11.450
 5638TIP3    H241110   3.210   0.728  11.350
 5639TIP3   OH241111   2.455   0.997  10.698
 5639TIP3    H141112   2.425   0.975  10.607
 5639TIP3    H241113   2.508   0.919  10.722
 5640TIP3   OH241114   2.587   1.311  10.962
 5640TIP3    H141115   2.603   1.299  10.867
 5640TIP3    H241116   2.664   1.267  11.004
 5641TIP3   OH241117   2.467   0.864  11.073
 5641TIP3    H141118   2.503   0.863  10.981
 5641TIP3    H241119   2.517   0.938  11.114
 5642TIP3   OH241120   3.143   1.440  11.139
 5642TIP3    H141121   3.117   1.493  11.215
 5642TIP3    H241122   3.125   1.349  11.172
 5643TIP3   OH241123   2.596   1.312  11.507
 5643TIP3    H141124   2.526   1.357  11.559
 5643TIP3    H241125   2.550   1.298  11.421
 5644TIP3   OH241126   3.185   0.872  10.290
 5644TIP3    H141127   3.236   0.880  10.375
 5644TIP3    H241128   3.245   0.923  10.229
 5645TIP3   OH241129   2.298   0.931  11.413
 5645TIP3    H141130   2.317   1.022  11.442
 5645TIP3    H241131   2.220   0.910  11.468
 5646TIP3   OH241132   2.953   1.527  10.565
 5646TIP3    H141133   2.984   1.566  10.647
 5646TIP3    H241134   2.908   1.600  10.519
 5647TIP3   OH241135   2.420   1.483  11.614
 5647TIP3    H141136   2.407   1.524  11.526
 5647TIP3    H241137   2.326   1.463  11.636
 5648TIP3   OH241138   3.575   0.081  10.283
 5648TIP3    H141139   3.500   0.122  10.329
 5648TIP3    H241140   3.594   0.149  10.217
 5649TIP3   OH241141   2.346   0.904  10.465
 5649TIP3    H141142   2.306   0.975  10.411
 5649TIP3    H241143   2.300   0.825  10.433
 5650TIP3   OH241144   3.673   1.483  10.112
 5650TIP3    H141145   3.701   1.575  10.133
 5650TIP3    H241146   3.753   1.430  10.132
 5651TIP3   OH241147   1.989   1.157  11.354
 5651TIP3    H141148   1.960   1.162  11.262
 5651TIP3    H241149   2.020   1.064  11.356
 5652TIP3   OH241150   1.946   1.416  11.026
 5652TIP3    H141151   2.041   1.401  11.020
 5652TIP3    H241152   1.943   1.502  11.071
 5653TIP3   OH241153   3.725   1.498  11.608
 5653TIP3    H141154   3.721   1.401  11.594
 5653TIP3    H241155   3.636   1.516  11.645
 5654TIP3   OH241156   2.843   1.426  11.496
 5654TIP3    H141157   2.851   1.508  11.549
 5654TIP3    H241158   2.748   1.402  11.500
 5655TIP3   OH241159   2.901   1.805  10.441
 5655TIP3    H141160   2.911   1.827  10.346
 5655TIP3    H241161   2.904   1.894  10.483
 5656TIP3   OH241162   2.275   1.677  10.655
 5656TIP3    H141163   2.303   1.648  10.745
 5656TIP3    H241164   2.184   1.642  10.652
 5657TIP3   OH241165   3.179   1.781  10.186
 5657TIP3    H141166   3.226   1.704  10.146
 5657TIP3    H241167   3.216   1.784  10.275
 5658TIP3   OH241168   3.164   1.730  10.470
 5658TIP3    H141169   3.068   1.743  10.482
 5658TIP3    H241170   3.173   1.634  10.486
 5659TIP3   OH241171   3.439   0.611  11.634
 5659TIP3    H141172   3.388   0.648  11.560
 5659TIP3    H241173   3.451   0.519  11.605
 5660TIP3   OH241174   2.207   1.278  11.435
 5660TIP3    H141175   2.203   1.243  11.527
 5660TIP3    H241176   2.119   1.251  11.401
 5661TIP3   OH241177   2.500   0.197  11.032
 5661TIP3    H141178   2.426   0.224  10.974
 5661TIP3    H241179   2.477   0.249  11.112
 5662TIP3   OH241180   2.864   0.168  11.423
 5662TIP3    H141181   2.918   0.087  11.423
 5662TIP3    H241182   2.795   0.138  11.361
 5663TIP3   OH241183   3.238   0.451  11.421
 5663TIP3    H141184   3.183   0.435  11.502
 5663TIP3    H241185   3.266   0.543  11.435
 5664TIP3   OH241186   3.349   0.979  10.117
 5664TIP3    H141187   3.305   0.991  10.029
 5664TIP3    H241188   3.440   1.003  10.089
 5665TIP3   OH241189   2.863   0.352  10.107
 5665TIP3    H141190   2.832   0.305  10.186
 5665TIP3    H241191   2.823   0.302  10.035
 5666TIP3   OH241192   2.481   0.624  11.167
 5666TIP3    H141193   2.400   0.615  11.221
 5666TIP3    H241194   2.476   0.720  11.144
 5667TIP3   OH241195   2.473   0.633  10.643
 5667TIP3    H141196   2.376   0.622  10.633
 5667TIP3    H241197   2.507   0.619  10.551
 5668TIP3   OH241198   3.056   0.685  10.530
 5668TIP3    H141199   3.008   0.765  10.498
 5668TIP3    H241200   3.104   0.661  10.449
 5669TIP3   OH241201   2.910   0.722  11.652
 5669TIP3    H141202   2.870   0.637  11.681
 5669TIP3    H241203   2.991   0.720  11.706
 5670TIP3   OH241204   3.127   0.614  10.829
 5670TIP3    H141205   3.134   0.693  10.772
 5670TIP3    H241206   3.132   0.545  10.760
 5671TIP3   OH241207   2.208   0.629  11.292
 5671TIP3    H141208   2.263   0.670  11.361
 5671TIP3    H241209   2.190   0.541  11.329
 5672TIP3   OH241210   2.535   0.401  10.014
 5672TIP3    H141211   2.504   0.397  10.106
 5672TIP3    H241212   2.458   0.437   9.967
 5673TIP3   OH241213   1.918   0.389  10.728
 5673TIP3    H141214   1.988   0.382  10.795
 5673TIP3    H241215   1.955   0.340  10.653
 5674TIP3   OH241216   2.012   0.431  10.306
 5674TIP3    H141217   2.063   0.469  10.232
 5674TIP3    H241218   1.955   0.506  10.327
 5675TIP3   OH241219   3.014   0.772  11.257
 5675TIP3    H141220   3.077   0.712  11.211
 5675TIP3    H241221   2.964   0.710  11.316
 5676TIP3   OH241222   2.743   0.388  10.754
 5676TIP3    H141223   2.650   0.357  10.763
 5676TIP3    H241224   2.779   0.356  10.839
 5677TIP3   OH241225   2.210   0.552  10.638
 5677TIP3    H141226   2.119   0.574  10.609
 5677TIP3    H241227   2.226   0.465  10.596
 5678TIP3   OH241228   2.576   0.578  10.404
 5678TIP3    H141229   2.673   0.577  10.403
 5678TIP3    H241230   2.547   0.626  10.323
 5679TIP3   OH241231   3.184   0.287  11.058
 5679TIP3    H141232   3.121   0.302  11.132
 5679TIP3    H241233   3.122   0.253  10.992
 5680TIP3   OH241234   2.449   0.696  10.186
 5680TIP3    H141235   2.396   0.633  10.138
 5680TIP3    H241236   2.517   0.719  10.120
 5681TIP3   OH241237   3.472   1.883  11.723
 5681TIP3    H141238   3.507   1.935  11.649
 5681TIP3    H241239   3.548   1.885  11.784
 5682TIP3   OH241240   2.238   1.128  11.669
 5682TIP3    H141241   2.320   1.138  11.721
 5682TIP3    H241242   2.172   1.100  11.734
 5683TIP3   OH241243   2.853   0.670  10.920
 5683TIP3    H141244   2.919   0.629  10.861
 5683TIP3    H241245   2.837   0.598  10.981
 5684TIP3   OH241246   2.315   0.293  10.576
 5684TIP3    H141247   2.258   0.225  10.618
 5684TIP3    H241248   2.370   0.237  10.520
 5685TIP3   OH241249   2.709   0.486  11.175
 5685TIP3    H141250   2.634   0.551  11.176
 5685TIP3    H241251   2.780   0.537  11.216
 5686TIP3   OH241252   2.775   1.137  10.371
 5686TIP3    H141253   2.704   1.076  10.342
 5686TIP3    H241254   2.743   1.157  10.462
 5687TIP3   OH241255   3.520   1.080  11.246
 5687TIP3    H141256   3.562   1.138  11.177
 5687TIP3    H241257   3.432   1.066  11.204
 5688TIP3   OH241258   3.107   0.386  10.205
 5688TIP3    H141259   3.019   0.415  10.173
 5688TIP3    H241260   3.156   0.472  10.216
 5689TIP3   OH241261   2.875   1.156  11.460
 5689TIP3    H141262   2.879   1.115  11.546
 5689TIP3    H241263   2.865   1.251  11.482
 5690TIP3   OH241264   3.240   0.592  10.304
 5690TIP3    H141265   3.307   0.578  10.374
 5690TIP3    H241266   3.268   0.678  10.270
 5691TIP3   OH241267   2.286   1.087  10.910
 5691TIP3    H141268   2.345   1.065  10.835
 5691TIP3    H241269   2.297   1.010  10.968
 5692TIP3   OH241270   2.998   1.268  10.276
 5692TIP3    H141271   2.955   1.356  10.284
 5692TIP3    H241272   2.921   1.208  10.285
 5693TIP3   OH241273   1.998   0.878  11.447
 5693TIP3    H141274   1.988   0.832  11.532
 5693TIP3    H241275   1.935   0.831  11.389
 5694TIP3   OH241276   2.669   0.858  11.658
 5694TIP3    H141277   2.620   0.809  11.590
 5694TIP3    H241278   2.760   0.820  11.649
 5695TIP3   OH241279   3.169   1.395  11.492
 5695TIP3    H141280   3.080   1.394  11.456
 5695TIP3    H241281   3.153   1.436  11.580
 5696TIP3   OH241282   3.719   0.633  10.331
 5696TIP3    H141283   3.653   0.608  10.262
 5696TIP3    H241284   3.726   0.728  10.310
 5697TIP3   OH241285   3.735   1.219  11.590
 5697TIP3    H141286   3.643   1.223  11.557
 5697TIP3    H241287   3.785   1.201  11.508
 5698TIP3   OH241288   3.562   1.450  10.359
 5698TIP3    H141289   3.480   1.399  10.365
 5698TIP3    H241290   3.579   1.454  10.263
 5699TIP3   OH241291   3.274   0.984  11.048
 5699TIP3    H141292   3.180   0.970  11.026
 5699TIP3    H241293   3.314   0.909  11.003
 5700TIP3   OH241294   2.511   1.413  10.680
 5700TIP3    H141295   2.537   1.504  10.654
 5700TIP3    H241296   2.421   1.412  10.646
 5701TIP3   OH241297   2.115   0.901  10.085
 5701TIP3    H141298   2.175   0.952  10.143
 5701TIP3    H241299   2.033   0.905  10.137
 5702TIP3   OH241300   2.659   1.171  10.620
 5702TIP3    H141301   2.607   1.253  10.629
 5702TIP3    H241302   2.608   1.107  10.673
 5703TIP3   OH241303   2.717   1.583  11.292
 5703TIP3    H141304   2.774   1.652  11.252
 5703TIP3    H241305   2.778   1.544  11.357
 5704TIP3   OH241306   2.546   1.661  10.571
 5704TIP3    H141307   2.452   1.679  10.589
 5704TIP3    H241308   2.586   1.747  10.600
 5705TIP3   OH241309   3.030   1.186  11.226
 5705TIP3    H141310   2.972   1.159  11.301
 5705TIP3    H241311   3.073   1.101  11.205
 5706TIP3   OH241312   3.299   1.298  10.127
 5706TIP3    H141313   3.312   1.248  10.211
 5706TIP3    H241314   3.203   1.287  10.124
 5707TIP3   OH241315   3.339   1.646  11.469
 5707TIP3    H141316   3.257   1.595  11.449
 5707TIP3    H241317   3.350   1.704  11.390
 5708TIP3   OH241318   3.750   1.728  10.173
 5708TIP3    H141319   3.808   1.795  10.133
 5708TIP3    H241320   3.680   1.787  10.211
 5709TIP3   OH241321   2.151   0.347  11.393
 5709TIP3    H141322   2.063   0.384  11.380
 5709TIP3    H241323   2.131   0.255  11.417
 5710TIP3   OH241324   3.373   1.160  10.347
 5710TIP3    H141325   3.363   1.063  10.350
 5710TIP3    H241326   3.471   1.165  10.341
 5711TIP3   OH241327   2.125   1.552  11.254
 5711TIP3    H141328   2.176   1.471  11.256
 5711TIP3    H241329   2.167   1.602  11.325
 5712TIP3   OH241330   2.565   1.349  10.242
 5712TIP3    H141331   2.649   1.314  10.276
 5712TIP3    H241332   2.573   1.445  10.266
 5713TIP3   OH241333   2.226   1.077  10.273
 5713TIP3    H141334   2.151   1.119  10.321
 5713TIP3    H241335   2.273   1.155  10.236
 5714TIP3   OH241336   3.031   0.350  11.278
 5714TIP3    H141337   3.113   0.372  11.329
 5714TIP3    H241338   2.981   0.293  11.341
 5715TIP3   OH241339   3.092   0.272  10.447
 5715TIP3    H141340   3.096   0.333  10.370
 5715TIP3    H241341   3.147   0.319  10.514
 5716TIP3   OH241342   2.872   1.513  10.263
 5716TIP3    H141343   2.787   1.529  10.306
 5716TIP3    H241344   2.901   1.605  10.243
 5717TIP3   OH241345   2.843   0.501  10.494
 5717TIP3    H141346   2.928   0.547  10.508
 5717TIP3    H241347   2.814   0.485  10.587
 5718TIP3   OH241348   2.885   0.594  11.410
 5718TIP3    H141349   2.903   0.634  11.498
 5718TIP3    H241350   2.930   0.507  11.410
 5719TIP3   OH241351   2.883   0.186  10.578
 5719TIP3    H141352   2.859   0.257  10.640
 5719TIP3    H241353   2.964   0.223  10.535
 5720TIP3   OH241354   2.602   1.607  10.303
 5720TIP3    H141355   2.624   1.693  10.260
 5720TIP3    H241356   2.581   1.637  10.394
 5721TIP3   OH241357   2.469   0.372  10.271
 5721TIP3    H141358   2.482   0.435  10.345
 5721TIP3    H241359   2.550   0.319  10.284
 5722TIP3   OH241360   3.483   0.375  11.489
 5722TIP3    H141361   3.386   0.368  11.477
 5722TIP3    H241362   3.513   0.371  11.396
 5723TIP3   OH241363   3.352   0.742  10.909
 5723TIP3    H141364   3.286   0.671  10.925
 5723TIP3    H241365   3.429   0.700  10.955
 5724TIP3   OH241366   2.306   1.315  10.175
 5724TIP3    H141367   2.397   1.335  10.205
 5724TIP3    H241368   2.322   1.306  10.079
 5725TIP3   OH241369   2.117   0.624  10.124
 5725TIP3    H141370   2.138   0.719  10.118
 5725TIP3    H241371   2.045   0.615  10.058
 5726TIP3   OH241372   3.465   1.696  11.065
 5726TIP3    H141373   3.463   1.764  10.993
 5726TIP3    H241374   3.561   1.682  11.068
 5727TIP3   OH241375   2.197   0.156  10.934
 5727TIP3    H141376   2.175   0.147  10.838
 5727TIP3    H241377   2.188   0.060  10.956
 5728TIP3   OH241378   2.066   1.470  10.566
 5728TIP3    H141379   1.988   1.528  10.565
 5728TIP3    H241380   2.108   1.503  10.485
 5729TIP3   OH241381   2.011   1.749  11.694
 5729TIP3    H141382   2.087   1.735  11.754
 5729TIP3    H241383   1.982   1.657  11.677
 5730TIP3   OH241384   2.509   1.642  11.845
 5730TIP3    H141385   2.588   1.602  11.885
 5730TIP3    H241386   2.497   1.589  11.765
 5731TIP3   OH241387   2.896   1.557   9.970
 5731TIP3    H141388   2.836   1.490  10.007
 5731TIP3    H241389   2.978   1.533  10.014
 5732TIP3   OH241390   3.121   1.491  11.737
 5732TIP3    H141391   3.083   1.404  11.768
 5732TIP3    H241392   3.194   1.499  11.799
 5733TIP3   OH241393   3.285   1.555  10.073
 5733TIP3    H141394   3.315   1.463  10.090
 5733TIP3    H241395   3.352   1.593  10.013
 5734TIP3   OH241396   1.986   1.129  11.798
 5734TIP3    H141397   1.977   1.033  11.783
 5734TIP3    H241398   1.949   1.167  11.715
 5735TIP3   OH241399   2.508   1.086  10.055
 5735TIP3    H141400   2.506   1.079  10.153
 5735TIP3    H241401   2.581   1.149  10.049
 5736TIP3   OH241402   2.670   1.124  11.696
 5736TIP3    H141403   2.657   1.171  11.611
 5736TIP3    H241404   2.658   1.029  11.675
 5737TIP3   OH241405   3.257   1.095  11.474
 5737TIP3    H141406   3.333   1.156  11.484
 5737TIP3    H241407   3.186   1.162  11.470
 5738TIP3   OH241408   2.111   0.839  11.734
 5738TIP3    H141409   2.188   0.782  11.730
 5738TIP3    H241410   2.127   0.891  11.815
 5739TIP3   OH241411   2.585   0.961  10.276
 5739TIP3    H141412   2.506   0.916  10.311
 5739TIP3    H241413   2.615   0.900  10.206
 5740TIP3   OH241414   2.470   0.736  11.411
 5740TIP3    H141415   2.406   0.809  11.421
 5740TIP3    H241416   2.547   0.784  11.375
 5741TIP3   OH241417   2.705   0.789  10.079
 5741TIP3    H141418   2.734   0.784   9.987
 5741TIP3    H241419   2.792   0.788  10.124
 5742TIP3   OH241420   3.035   1.021  11.803
 5742TIP3    H141421   3.106   0.984  11.748
 5742TIP3    H241422   3.001   0.942  11.848
 5743TIP3   OH241423   3.581   1.000  19.990
 5743TIP3    H141424   3.655   0.958  19.942
 5743TIP3    H241425   3.616   1.090  19.989
 5744TIP3   OH241426   2.556   0.517  11.550
 5744TIP3    H141427   2.584   0.453  11.481
 5744TIP3    H241428   2.562   0.600  11.498
 5745TIP3   OH241429   2.580   0.336  11.352
 5745TIP3    H141430   2.634   0.372  11.278
 5745TIP3    H241431   2.489   0.345  11.316
 5746TIP3   OH241432   2.702   0.883  11.344
 5746TIP3    H141433   2.795   0.893  11.320
 5746TIP3    H241434   2.660   0.957  11.296
 5747TIP3   OH241435   3.162   0.639  11.828
 5747TIP3    H141436   3.194   0.547  11.827
 5747TIP3    H241437   3.244   0.687  11.849
 5748TIP3   OH241438   3.315   0.923  11.683
 5748TIP3    H141439   3.308   0.984  11.607
 5748TIP3    H241440   3.408   0.894  11.674
 5749TIP3   OH241441   2.375   0.588  11.749
 5749TIP3    H141442   2.291   0.536  11.740
 5749TIP3    H241443   2.425   0.554  11.671
 5750TIP3   OH241444   2.633   0.080  11.312
 5750TIP3    H141445   2.617   0.175  11.334
 5750TIP3    H241446   2.542   0.050  11.300
 5751TIP3   OH241447   2.786   0.489  11.735
 5751TIP3    H141448   2.718   0.462  11.800
 5751TIP3    H241449   2.736   0.477  11.653
 5752TIP3   OH241450   3.101   0.396  11.642
 5752TIP3    H141451   3.012   0.370  11.672
 5752TIP3    H241452   3.158   0.339  11.699
 5753TIP3   OH241453   3.258   0.284  11.831
 5753TIP3    H141454   3.270   0.190  11.859
 5753TIP3    H241455   3.211   0.321  11.909
 5754TIP3   OH241456   2.170   0.411  11.779
 5754TIP3    H141457   2.180   0.333  11.722
 5754TIP3    H241458   2.182   0.373  11.870
 5755TIP3   OH241459   2.630   0.065  11.608
 5755TIP3    H141460   2.606  -0.029  11.601
 5755TIP3    H241461   2.688   0.080  11.531
 5756TIP3   OH241462   2.685   0.108  11.885
 5756TIP3    H141463   2.693   0.073  11.794
 5756TIP3    H241464   2.681   0.203  11.870
 5757TIP3   OH241465   2.638   1.845  10.187
 5757TIP3    H141466   2.735   1.841  10.184
 5757TIP3    H241467   2.616   1.865  10.095
 5758TIP3   OH241468   2.033   1.335  10.145
 5758TIP3    H141469   2.131   1.325  10.148
 5758TIP3    H241470   2.008   1.284  10.067
 5759TIP3   OH241471   1.903   1.821  10.609
 5759TIP3    H141472   1.823   1.772  10.575
 5759TIP3    H241473   1.931   1.762  10.682
 5760TIP3   OH241474   1.997   1.649  10.800
 5760TIP3    H141475   1.938   1.577  10.829
 5760TIP3    H241476   2.049   1.667  10.881
 5761TIP3   OH241477   3.748   1.734  11.054
 5761TIP3    H141478   3.762   1.737  11.150
 5761TIP3    H241479   3.795   1.814  11.026
 5762TIP3   OH241480   3.677   1.690  11.363
 5762TIP3    H141481   3.641   1.611  11.316
 5762TIP3    H241482   3.713   1.648  11.443
 5763TIP3   OH241483   3.558   1.282  11.871
 5763TIP3    H141484   3.467   1.277  11.909
 5763TIP3    H241485   3.565   1.373  11.843
 5764TIP3   OH241486   3.638   1.119  10.360
 5764TIP3    H141487   3.721   1.164  10.388
 5764TIP3    H241488   3.617   1.071  10.442
 5765TIP3   OH241489   3.691   0.928  10.609
 5765TIP3    H141490   3.613   0.872  10.634
 5765TIP3    H241491   3.737   0.938  10.694
 5766TIP3   OH241492   3.667   1.180  11.047
 5766TIP3    H141493   3.734   1.108  11.041
 5766TIP3    H241494   3.714   1.255  11.006
 5767TIP3   OH241495   3.535   1.465  11.298
 5767TIP3    H141496   3.470   1.509  11.354
 5767TIP3    H241497   3.483   1.446  11.216
 5768TIP3   OH241498   3.743   0.900  10.200
 5768TIP3    H141499   3.662   0.908  10.146
 5768TIP3    H241500   3.734   0.981  10.254
 5769TIP3   OH241501   3.525   0.620  10.143
 5769TIP3    H141502   3.505   0.692  10.082
 5769TIP3    H241503   3.549   0.551  10.079
 5770TIP3   OH241504   3.494   0.763  10.666
 5770TIP3    H141505   3.468   0.674  10.637
 5770TIP3    H241506   3.461   0.766  10.758
 5771TIP3   OH241507   1.978   0.986  11.055
 5771TIP3    H141508   1.969   0.954  10.962
 5771TIP3    H241509   2.068   0.950  11.073
 5772TIP3   OH241510   3.601   0.956  11.612
 5772TIP3    H141511   3.641   0.869  11.638
 5772TIP3    H241512   3.682   1.002  11.582
 5773TIP3   OH241513   3.681   0.717  11.697
 5773TIP3    H141514   3.604   0.665  11.666
 5773TIP3    H241515   3.759   0.662  11.671
 5774TIP3   OH241516   3.493   0.362   9.992
 5774TIP3    H141517   3.564   0.321  10.044
 5774TIP3    H241518   3.417   0.306  10.013
 5775TIP3   OH241519   3.442   0.544  10.492
 5775TIP3    H141520   3.468   0.450  10.509
 5775TIP3    H241521   3.525   0.578  10.458
 5776TIP3   OH241522   3.525   0.593  11.045
 5776TIP3    H141523   3.621   0.618  11.050
 5776TIP3    H241524   3.508   0.558  11.133
 5777TIP3   OH241525   3.543   0.665  11.317
 5777TIP3    H141526   3.448   0.686  11.314
 5777TIP3    H241527   3.585   0.747  11.279
 5778TIP3   OH241528   1.954   0.509  11.638
 5778TIP3    H141529   2.039   0.495  11.685
 5778TIP3    H241530   1.905   0.427  11.661
 5779TIP3   OH241531   3.802   0.061  11.852
 5779TIP3    H141532   3.877   0.063  11.789
 5779TIP3    H241533   3.756   0.139  11.816
 5780TIP3   OH241534   3.527   0.295  10.515
 5780TIP3    H141535   3.554   0.241  10.593
 5780TIP3    H241536   3.457   0.237  10.476
 5781TIP3   OH241537   2.058   0.380  10.971
 5781TIP3    H141538   2.095   0.290  10.978
 5781TIP3    H241539   2.138   0.432  10.988
 5782TIP3   OH241540   1.905   0.650  11.059
 5782TIP3    H141541   1.965   0.616  10.990
 5782TIP3    H241542   1.965   0.714  11.098
 5783TIP3   OH241543   3.690   0.301  11.678
 5783TIP3    H141544   3.601   0.343  11.689
 5783TIP3    H241545   3.664   0.235  11.610
 5784TIP3   OH241546   3.714   0.274  10.139
 5784TIP3    H141547   3.758   0.225  10.068
 5784TIP3    H241548   3.779   0.346  10.153
 5785TIP3   OH241549   1.935   0.228  10.511
 5785TIP3    H141550   1.843   0.243  10.486
 5785TIP3    H241551   1.978   0.281  10.441
 5786TIP3   OH241552   3.421   1.738  10.676
 5786TIP3    H141553   3.486   1.732  10.602
 5786TIP3    H241554   3.461   1.803  10.736
 5787TIP3   OH241555   1.945   0.164  11.277
 5787TIP3    H141556   1.876   0.172  11.345
 5787TIP3    H241557   1.912   0.231  11.213
 5788TIP3   OH241558   2.159   1.437  11.689
 5788TIP3    H141559   2.073   1.465  11.655
 5788TIP3    H241560   2.136   1.397  11.773
 5789TIP3   OH241561   2.447   1.579  11.356
 5789TIP3    H141562   2.449   1.671  11.321
 5789TIP3    H241563   2.543   1.560  11.353
 5790TIP3   OH241564   2.858   1.692  11.599
 5790TIP3    H141565   2.848   1.671  11.694
 5790TIP3    H241566   2.953   1.707  11.591
 5791TIP3   OH241567   3.111   1.876  11.551
 5791TIP3    H141568   3.165   1.806  11.513
 5791TIP3    H241569   3.138   1.875  11.645
 5792TIP3   OH241570   3.623   0.144  11.456
 5792TIP3    H141571   3.539   0.173  11.419
 5792TIP3    H241572   3.607   0.048  11.457
 5793TIP3   OH241573   2.192   1.880  11.320
 5793TIP3    H141574   2.117   1.938  11.291
 5793TIP3    H241575   2.173   1.873  11.414
 5794TIP3   OH241576   2.427   1.822  11.227
 5794TIP3    H141577   2.337   1.841  11.262
 5794TIP3    H241578   2.423   1.877  11.146
 5795TIP3   OH241579   2.878   1.776  11.162
 5795TIP3    H141580   2.831   1.822  11.092
 5795TIP3    H241581   2.910   1.851  11.217
 5796TIP3   OH241582   3.100   1.673  11.306
 5796TIP3    H141583   3.039   1.699  11.234
 5796TIP3    H241584   3.180   1.720  11.275
 5797TIP3   OH241585   3.351   1.828  11.265
 5797TIP3    H141586   3.370   1.915  11.227
 5797TIP3    H241587   3.395   1.773  11.196
 5798TIP3   OH241588   2.148   1.711  11.021
 5798TIP3    H141589   2.126   1.650  11.093
 5798TIP3    H241590   2.234   1.674  10.990
 5799TIP3   OH241591   2.357   1.605  10.897
 5799TIP3    H141592   2.345   1.511  10.924
 5799TIP3    H241593   2.446   1.622  10.936
 5800TIP3   OH241594   2.591   1.608  11.017
 5800TIP3    H141595   2.621   1.517  11.003
 5800TIP3    H241596   2.603   1.617  11.113
 5801TIP3   OH241597   2.939   0.266  10.900
 5801TIP3    H141598   2.888   0.182  10.908
 5801TIP3    H241599   2.995   0.246  10.823
 5802TIP3   OH241600   3.428   0.098  10.895
 5802TIP3    H141601   3.494   0.123  10.828
 5802TIP3    H241602   3.344   0.127  10.853
 5803TIP3   OH241603   3.650   0.176  10.724
 5803TIP3    H141604   3.709   0.130  10.660
 5803TIP3    H241605   3.702   0.259  10.738
 5804TIP3   OH241606   2.152   0.122  10.676
 5804TIP3    H141607   2.093   0.140  10.599
 5804TIP3    H241608   2.162   0.024  10.670
 5805TIP3   OH241609   2.090   0.116  10.318
 5805TIP3    H141610   2.122   0.153  10.233
 5805TIP3    H241611   1.998   0.147  10.315
 5806TIP3   OH241612   2.636   0.106  10.643
 5806TIP3    H141613   2.719   0.142  10.605
 5806TIP3    H241614   2.660   0.112  10.738
 5807TIP3   OH241615   3.175   0.138  10.777
 5807TIP3    H141616   3.196   0.126  10.683
 5807TIP3    H241617   3.163   0.046  10.808
 5808TIP3   OH241618   3.334   0.170  10.389
 5808TIP3    H141619   3.242   0.203  10.378
 5808TIP3    H241620   3.322   0.076  10.368
 5809TIP3   OH241621   2.050   1.648  10.356
 5809TIP3    H141622   1.961   1.648  10.315
 5809TIP3    H241623   2.075   1.740  10.339
 5810TIP3   OH241624   2.225   0.197  10.094
 5810TIP3    H141625   2.289   0.133  10.061
 5810TIP3    H241626   2.283   0.251  10.149
 5811TIP3   OH241627   2.721   0.296  10.343
 5811TIP3    H141628   2.765   0.231  10.400
 5811TIP3    H241629   2.749   0.378  10.389
 5812TIP3   OH241630   2.920   1.767  10.158
 5812TIP3    H141631   3.018   1.787  10.160
 5812TIP3    H241632   2.917   1.723  10.071
 5813TIP3   OH241633   3.586   1.689  10.481
 5813TIP3    H141634   3.577   1.600  10.438
 5813TIP3    H241635   3.567   1.749  10.407
 5814TIP3   OH241636   2.109   0.106  11.674
 5814TIP3    H141637   2.100   0.020  11.631
 5814TIP3    H241638   2.203   0.101  11.701
 5815TIP3   OH241639   2.358   0.099  11.773
 5815TIP3    H141640   2.445   0.129  11.741
 5815TIP3    H241641   2.363   0.005  11.742
 5816TIP3   OH241642   2.255   1.773  10.110
 5816TIP3    H141643   2.192   1.793  10.181
 5816TIP3    H241644   2.296   1.691  10.140
 5817TIP3   OH241645   3.269   0.028  11.868
 5817TIP3    H141646   3.209  -0.047  11.886
 5817TIP3    H241647   3.332  -0.019  11.808
 5818TIP3   OH241648   3.495   1.605  11.679
 5818TIP3    H141649   3.427   1.599  11.606
 5818TIP3    H241650   3.497   1.702  11.688
 5819TIP3   OH241651   4.978   0.993  10.670
 5819TIP3    H141652   4.976   1.087  10.695
 5819TIP3    H241653   4.919   0.996  10.593
 5820TIP3   OH241654   4.860   0.873  11.015
 5820TIP3    H141655   4.840   0.819  11.095
 5820TIP3    H241656   4.803   0.828  10.948
 5821TIP3   OH241657   4.072   0.872  11.109
 5821TIP3    H141658   4.075   0.793  11.165
 5821TIP3    H241659   4.114   0.936  11.170
 5822TIP3   OH241660   5.188   1.182  10.862
 5822TIP3    H141661   5.174   1.106  10.922
 5822TIP3    H241662   5.206   1.252  10.926
 5823TIP3   OH241663   4.195   1.340  10.993
 5823TIP3    H141664   4.161   1.249  10.975
 5823TIP3    H241665   4.289   1.321  10.975
 5824TIP3   OH241666   3.842   0.660  10.572
 5824TIP3    H141667   3.812   0.746  10.603
 5824TIP3    H241668   3.798   0.654  10.485
 5825TIP3   OH241669   3.888   0.910  10.809
 5825TIP3    H141670   3.936   0.827  10.832
 5825TIP3    H241671   3.951   0.958  10.753
 5826TIP3   OH241672   4.963   1.738  10.878
 5826TIP3    H141673   5.029   1.682  10.830
 5826TIP3    H241674   4.911   1.666  10.918
 5827TIP3   OH241675   4.694   1.166  11.076
 5827TIP3    H141676   4.726   1.094  11.020
 5827TIP3    H241677   4.777   1.185  11.126
 5828TIP3   OH241678   5.552   0.279  11.101
 5828TIP3    H141679   5.554   0.361  11.155
 5828TIP3    H241680   5.617   0.302  11.031
 5829TIP3   OH241681   5.055   0.610  11.119
 5829TIP3    H141682   5.070   0.515  11.135
 5829TIP3    H241683   5.006   0.610  11.035
 5830TIP3   OH241684   4.332   0.400  10.772
 5830TIP3    H141685   4.349   0.478  10.716
 5830TIP3    H241686   4.288   0.340  10.707
 5831TIP3   OH241687   5.097   0.408  10.633
 5831TIP3    H141688   5.139   0.390  10.720
 5831TIP3    H241689   5.161   0.472  10.599
 5832TIP3   OH241690   3.988   0.656  10.885
 5832TIP3    H141691   4.062   0.620  10.937
 5832TIP3    H241692   4.002   0.615  10.798
 5833TIP3   OH241693   4.479   0.811  10.831
 5833TIP3    H141694   4.560   0.762  10.857
 5833TIP3    H241695   4.448   0.753  10.759
 5834TIP3   OH241696   5.583   0.448  11.322
 5834TIP3    H141697   5.536   0.533  11.307
 5834TIP3    H241698   5.572   0.437  11.418
 5835TIP3   OH241699   4.221   0.303  11.207
 5835TIP3    H141700   4.190   0.365  11.136
 5835TIP3    H241701   4.151   0.312  11.274
 5836TIP3   OH241702   4.920   1.243  10.557
 5836TIP3    H141703   4.903   1.244  10.460
 5836TIP3    H241704   4.904   1.337  10.578
 5837TIP3   OH241705   4.460   1.058  11.194
 5837TIP3    H141706   4.399   1.127  11.229
 5837TIP3    H241707   4.525   1.113  11.144
 5838TIP3   OH241708   5.268   0.414  10.830
 5838TIP3    H141709   5.240   0.370  10.913
 5838TIP3    H241710   5.361   0.430  10.850
 5839TIP3   OH241711   4.201   0.498  11.002
 5839TIP3    H141712   4.257   0.573  11.035
 5839TIP3    H241713   4.251   0.470  10.922
 5840TIP3   OH241714   4.327   1.271  11.294
 5840TIP3    H141715   4.307   1.359  11.259
 5840TIP3    H241716   4.244   1.251  11.341
 5841TIP3   OH241717   3.899   1.212  10.384
 5841TIP3    H141718   3.901   1.269  10.303
 5841TIP3    H241719   3.911   1.277  10.455
 5842TIP3   OH241720   5.275   1.396  11.061
 5842TIP3    H141721   5.185   1.421  11.087
 5842TIP3    H241722   5.302   1.480  11.019
 5843TIP3   OH241723   5.306   0.202  11.203
 5843TIP3    H141724   5.239   0.223  11.135
 5843TIP3    H241725   5.388   0.212  11.149
 5844TIP3   OH241726   4.619   0.085  10.902
 5844TIP3    H141727   4.619  -0.003  10.946
 5844TIP3    H241728   4.562   0.135  10.965
 5845TIP3   OH241729   5.122   1.566  10.749
 5845TIP3    H141730   5.132   1.487  10.694
 5845TIP3    H241731   5.197   1.620  10.713
 5846TIP3   OH241732   5.221   1.352  10.588
 5846TIP3    H141733   5.204   1.281  10.522
 5846TIP3    H241734   5.208   1.303  10.671
 5847TIP3   OH241735   5.381   1.232  11.442
 5847TIP3    H141736   5.401   1.164  11.373
 5847TIP3    H241737   5.392   1.312  11.388
 5848TIP3   OH241738   4.843   0.936  10.416
 5848TIP3    H141739   4.795   1.017  10.389
 5848TIP3    H241740   4.916   0.931  10.350
 5849TIP3   OH241741   4.891   0.769  10.116
 5849TIP3    H141742   4.970   0.804  10.163
 5849TIP3    H241743   4.927   0.683  10.085
 5850TIP3   OH241744   5.585   0.872  11.229
 5850TIP3    H141745   5.523   0.947  11.239
 5850TIP3    H241746   5.644   0.909  11.160
 5851TIP3   OH241747   5.195   0.906  10.524
 5851TIP3    H141748   5.122   0.930  10.586
 5851TIP3    H241749   5.262   0.869  10.586
 5852TIP3   OH241750   5.189   0.737  11.437
 5852TIP3    H141751   5.180   0.831  11.461
 5852TIP3    H241752   5.126   0.734  11.363
 5853TIP3   OH241753   4.321   1.001  10.704
 5853TIP3    H141754   4.287   0.974  10.616
 5853TIP3    H241755   4.386   0.931  10.723
 5854TIP3   OH241756   4.479   1.322  10.958
 5854TIP3    H141757   4.491   1.296  10.866
 5854TIP3    H241758   4.556   1.280  11.002
 5855TIP3   OH241759   4.356   0.851  11.072
 5855TIP3    H141760   4.396   0.859  10.982
 5855TIP3    H241761   4.399   0.926  11.119
 5856TIP3   OH241762   5.022   1.436  11.144
 5856TIP3    H141763   5.012   1.483  11.229
 5856TIP3    H241764   5.005   1.344  11.174
 5857TIP3   OH241765   4.470   1.304  11.526
 5857TIP3    H141766   4.397   1.357  11.566
 5857TIP3    H241767   4.436   1.293  11.434
 5858TIP3   OH241768   5.078   0.862  10.286
 5858TIP3    H141769   5.122   0.876  10.374
 5858TIP3    H241770   5.137   0.917  10.229
 5859TIP3   OH241771   4.140   0.972  11.358
 5859TIP3    H141772   4.181   1.034  11.420
 5859TIP3    H241773   4.119   0.899  11.421
 5860TIP3   OH241774   4.834   1.519  10.564
 5860TIP3    H141775   4.841   1.549  10.655
 5860TIP3    H241776   4.786   1.591  10.519
 5861TIP3   OH241777   4.293   1.476  11.609
 5861TIP3    H141778   4.287   1.511  11.517
 5861TIP3    H241779   4.200   1.474  11.636
 5862TIP3   OH241780   5.459   0.082  10.275
 5862TIP3    H141781   5.387   0.129  10.322
 5862TIP3    H241782   5.483   0.148  10.208
 5863TIP3   OH241783   4.232   0.902  10.470
 5863TIP3    H141784   4.187   0.970  10.417
 5863TIP3    H241785   4.191   0.820  10.440
 5864TIP3   OH241786   5.557   1.483  10.115
 5864TIP3    H141787   5.579   1.578  10.130
 5864TIP3    H241788   5.640   1.437  10.135
 5865TIP3   OH241789   3.856   1.171  11.348
 5865TIP3    H141790   3.797   1.155  11.272
 5865TIP3    H241791   3.881   1.078  11.369
 5866TIP3   OH241792   3.844   1.413  11.020
 5866TIP3    H141793   3.937   1.389  11.032
 5866TIP3    H241794   3.837   1.491  11.076
 5867TIP3   OH241795   5.670   1.481  11.599
 5867TIP3    H141796   5.619   1.398  11.591
 5867TIP3    H241797   5.596   1.547  11.608
 5868TIP3   OH241798   4.725   1.420  11.496
 5868TIP3    H141799   4.747   1.501  11.545
 5868TIP3    H241800   4.637   1.394  11.530
 5869TIP3   OH241801   4.762   1.807  10.439
 5869TIP3    H141802   4.796   1.822  10.349
 5869TIP3    H241803   4.786   1.892  10.482
 5870TIP3   OH241804   4.162   1.679  10.646
 5870TIP3    H141805   4.187   1.649  10.737
 5870TIP3    H241806   4.073   1.641  10.640
 5871TIP3   OH241807   5.062   1.788  10.192
 5871TIP3    H141808   5.111   1.711  10.155
 5871TIP3    H241809   5.101   1.797  10.279
 5872TIP3   OH241810   5.052   1.727  10.470
 5872TIP3    H141811   4.957   1.722  10.484
 5872TIP3    H241812   5.083   1.646  10.515
 5873TIP3   OH241813   5.327   0.614  11.651
 5873TIP3    H141814   5.286   0.659  11.574
 5873TIP3    H241815   5.337   0.523  11.616
 5874TIP3   OH241816   4.092   1.277  11.429
 5874TIP3    H141817   4.092   1.238  11.519
 5874TIP3    H241818   4.005   1.244  11.397
 5875TIP3   OH241819   4.377   0.196  11.011
 5875TIP3    H141820   4.294   0.214  10.962
 5875TIP3    H241821   4.360   0.248  11.091
 5876TIP3   OH241822   4.758   0.160  11.431
 5876TIP3    H141823   4.810   0.079  11.420
 5876TIP3    H241824   4.680   0.134  11.378
 5877TIP3   OH241825   5.116   0.472  11.446
 5877TIP3    H141826   5.055   0.450  11.520
 5877TIP3    H241827   5.138   0.565  11.464
 5878TIP3   OH241828   5.233   0.981  10.118
 5878TIP3    H141829   5.193   0.987  10.028
 5878TIP3    H241830   5.325   1.003  10.092
 5879TIP3   OH241831   4.749   0.353  10.107
 5879TIP3    H141832   4.727   0.305  10.189
 5879TIP3    H241833   4.701   0.303  10.040
 5880TIP3   OH241834   4.356   0.617  11.193
 5880TIP3    H141835   4.265   0.612  11.230
 5880TIP3    H241836   4.360   0.711  11.162
 5881TIP3   OH241837   4.355   0.634  10.636
 5881TIP3    H141838   4.258   0.622  10.628
 5881TIP3    H241839   4.388   0.615  10.545
 5882TIP3   OH241840   4.943   0.689  10.534
 5882TIP3    H141841   4.894   0.767  10.500
 5882TIP3    H241842   4.995   0.668  10.455
 5883TIP3   OH241843   4.795   0.716  11.656
 5883TIP3    H141844   4.749   0.634  11.685
 5883TIP3    H241845   4.867   0.723  11.721
 5884TIP3   OH241846   4.999   0.615  10.828
 5884TIP3    H141847   5.011   0.696  10.775
 5884TIP3    H241848   5.011   0.549  10.758
 5885TIP3   OH241849   4.100   0.616  11.286
 5885TIP3    H141850   4.111   0.667  11.369
 5885TIP3    H241851   4.065   0.535  11.329
 5886TIP3   OH241852   4.423   0.400  10.011
 5886TIP3    H141853   4.389   0.383  10.102
 5886TIP3    H241854   4.346   0.443   9.970
 5887TIP3   OH241855   3.808   0.396  10.731
 5887TIP3    H141856   3.877   0.371  10.795
 5887TIP3    H241857   3.847   0.376  10.644
 5888TIP3   OH241858   3.900   0.428  10.304
 5888TIP3    H141859   3.974   0.470  10.256
 5888TIP3    H241860   3.842   0.506  10.317
 5889TIP3   OH241861   4.903   0.775  11.263
 5889TIP3    H141862   4.967   0.717  11.217
 5889TIP3    H241863   4.850   0.710  11.316
 5890TIP3   OH241864   4.630   0.387  10.753
 5890TIP3    H141865   4.539   0.354  10.763
 5890TIP3    H241866   4.671   0.355  10.836
 5891TIP3   OH241867   4.090   0.559  10.629
 5891TIP3    H141868   3.999   0.579  10.598
 5891TIP3    H241869   4.109   0.470  10.594
 5892TIP3   OH241870   4.460   0.560  10.404
 5892TIP3    H141871   4.557   0.566  10.413
 5892TIP3    H241872   4.437   0.623  10.331
 5893TIP3   OH241873   5.075   0.297  11.064
 5893TIP3    H141874   5.007   0.299  11.134
 5893TIP3    H241875   5.025   0.261  10.990
 5894TIP3   OH241876   4.343   0.694  10.196
 5894TIP3    H141877   4.277   0.636  10.154
 5894TIP3    H241878   4.406   0.708  10.124
 5895TIP3   OH241879   5.348   1.885  11.716
 5895TIP3    H141880   5.388   1.936  11.644
 5895TIP3    H241881   5.428   1.864  11.768
 5896TIP3   OH241882   4.112   1.115  11.657
 5896TIP3    H141883   4.190   1.140  11.709
 5896TIP3    H241884   4.052   1.077  11.724
 5897TIP3   OH241885   4.731   0.666  10.919
 5897TIP3    H141886   4.805   0.628  10.868
 5897TIP3    H241887   4.719   0.598  10.986
 5898TIP3   OH241888   4.204   0.290  10.566
 5898TIP3    H141889   4.153   0.220  10.614
 5898TIP3    H241890   4.267   0.234  10.519
 5899TIP3   OH241891   4.588   0.468  11.160
 5899TIP3    H141892   4.522   0.540  11.160
 5899TIP3    H241893   4.661   0.513  11.206
 5900TIP3   OH241894   4.660   1.137  10.368
 5900TIP3    H141895   4.591   1.074  10.338
 5900TIP3    H241896   4.626   1.155  10.459
 5901TIP3   OH241897   5.414   1.078  11.233
 5901TIP3    H141898   5.457   1.129  11.160
 5901TIP3    H241899   5.331   1.054  11.188
 5902TIP3   OH241900   4.994   0.392  10.203
 5902TIP3    H141901   4.908   0.422  10.167
 5902TIP3    H241902   5.044   0.477  10.216
 5903TIP3   OH241903   4.789   1.157  11.501
 5903TIP3    H141904   4.751   1.142  11.589
 5903TIP3    H241905   4.775   1.253  11.492
 5904TIP3   OH241906   5.131   0.590  10.300
 5904TIP3    H141907   5.199   0.575  10.368
 5904TIP3    H241908   5.152   0.681  10.273
 5905TIP3   OH241909   4.180   1.081  10.916
 5905TIP3    H141910   4.224   1.058  10.831
 5905TIP3    H241911   4.190   0.999  10.968
 5906TIP3   OH241912   4.865   1.279  10.294
 5906TIP3    H141913   4.826   1.369  10.307
 5906TIP3    H241914   4.785   1.222  10.303
 5907TIP3   OH241915   3.838   0.921  11.486
 5907TIP3    H141916   3.887   0.846  11.527
 5907TIP3    H241917   3.779   0.877  11.423
 5908TIP3   OH241918   4.548   0.856  11.643
 5908TIP3    H141919   4.490   0.795  11.592
 5908TIP3    H241920   4.630   0.803  11.647
 5909TIP3   OH241921   5.063   1.383  11.473
 5909TIP3    H141922   4.972   1.411  11.486
 5909TIP3    H241923   5.110   1.407  11.556
 5910TIP3   OH241924   5.600   0.629  10.334
 5910TIP3    H141925   5.532   0.606  10.266
 5910TIP3    H241926   5.611   0.723  10.312
 5911TIP3   OH241927   5.605   1.197  11.585
 5911TIP3    H141928   5.516   1.211  11.546
 5911TIP3    H241929   5.659   1.199  11.503
 5912TIP3   OH241930   5.445   1.453  10.359
 5912TIP3    H141931   5.357   1.412  10.361
 5912TIP3    H241932   5.466   1.459  10.263
 5913TIP3   OH241933   5.155   0.973  11.045
 5913TIP3    H141934   5.063   0.956  11.021
 5913TIP3    H241935   5.201   0.903  10.997
 5914TIP3   OH241936   4.403   1.391  10.685
 5914TIP3    H141937   4.448   1.473  10.659
 5914TIP3    H241938   4.313   1.408  10.653
 5915TIP3   OH241939   3.998   0.892  10.091
 5915TIP3    H141940   4.049   0.949  10.152
 5915TIP3    H241941   3.908   0.900  10.130
 5916TIP3   OH241942   4.538   1.163  10.611
 5916TIP3    H141943   4.488   1.247  10.621
 5916TIP3    H241944   4.497   1.108  10.679
 5917TIP3   OH241945   4.596   1.587  11.317
 5917TIP3    H141946   4.656   1.651  11.275
 5917TIP3    H241947   4.656   1.540  11.378
 5918TIP3   OH241948   4.444   1.650  10.592
 5918TIP3    H141949   4.348   1.660  10.604
 5918TIP3    H241950   4.472   1.743  10.608
 5919TIP3   OH241951   4.909   1.178  11.235
 5919TIP3    H141952   4.868   1.155  11.321
 5919TIP3    H241953   4.951   1.094  11.210
 5920TIP3   OH241954   5.188   1.295  10.122
 5920TIP3    H141955   5.214   1.252  10.207
 5920TIP3    H241956   5.093   1.279  10.129
 5921TIP3   OH241957   5.224   1.672  11.479
 5921TIP3    H141958   5.158   1.601  11.469
 5921TIP3    H241959   5.233   1.709  11.388
 5922TIP3   OH241960   5.631   1.736  10.169
 5922TIP3    H141961   5.700   1.799  10.140
 5922TIP3    H241962   5.572   1.798  10.220
 5923TIP3   OH241963   4.050   0.384  11.432
 5923TIP3    H141964   3.991   0.444  11.483
 5923TIP3    H241965   4.010   0.298  11.445
 5924TIP3   OH241966   5.260   1.156  10.351
 5924TIP3    H141967   5.246   1.060  10.350
 5924TIP3    H241968   5.357   1.157  10.353
 5925TIP3   OH241969   4.006   1.544  11.253
 5925TIP3    H141970   4.063   1.466  11.258
 5925TIP3    H241971   4.047   1.599  11.321
 5926TIP3   OH241972   4.444   1.345  10.228
 5926TIP3    H141973   4.525   1.308  10.268
 5926TIP3    H241974   4.455   1.440  10.255
 5927TIP3   OH241975   4.107   1.071  10.277
 5927TIP3    H141976   4.032   1.119  10.320
 5927TIP3    H241977   4.158   1.146  10.240
 5928TIP3   OH241978   4.915   0.342  11.308
 5928TIP3    H141979   4.990   0.351  11.370
 5928TIP3    H241980   4.856   0.284  11.362
 5929TIP3   OH241981   4.982   0.274  10.443
 5929TIP3    H141982   4.982   0.339  10.369
 5929TIP3    H241983   5.035   0.318  10.513
 5930TIP3   OH241984   4.747   1.531  10.274
 5930TIP3    H141985   4.665   1.556  10.319
 5930TIP3    H241986   4.780   1.619  10.248
 5931TIP3   OH241987   4.727   0.494  10.494
 5931TIP3    H141988   4.810   0.542  10.506
 5931TIP3    H241989   4.699   0.476  10.586
 5932TIP3   OH241990   4.778   0.599  11.419
 5932TIP3    H141991   4.796   0.648  11.503
 5932TIP3    H241992   4.798   0.507  11.439
 5933TIP3   OH241993   4.770   0.193  10.575
 5933TIP3    H141994   4.752   0.259  10.644
 5933TIP3    H241995   4.852   0.229  10.533
 5934TIP3   OH241996   4.482   1.608  10.315
 5934TIP3    H141997   4.507   1.695  10.274
 5934TIP3    H241998   4.452   1.638  10.403
 5935TIP3   OH241999   4.344   0.365  10.265
 5935TIP3    H142000   4.362   0.428  10.338
 5935TIP3    H242001   4.421   0.307  10.279
 5936TIP3   OH242002   5.360   0.378  11.496
 5936TIP3    H142003   5.264   0.399  11.488
 5936TIP3    H242004   5.380   0.351  11.405
 5937TIP3   OH242005   5.237   0.722  10.915
 5937TIP3    H142006   5.174   0.651  10.934
 5937TIP3    H242007   5.315   0.686  10.962
 5938TIP3   OH242008   4.187   1.313  10.169
 5938TIP3    H142009   4.280   1.334  10.195
 5938TIP3    H242010   4.202   1.295  10.074
 5939TIP3   OH242011   4.021   0.619  10.128
 5939TIP3    H142012   4.032   0.716  10.122
 5939TIP3    H242013   3.950   0.602  10.065
 5940TIP3   OH242014   5.337   1.673  11.045
 5940TIP3    H142015   5.326   1.737  10.972
 5940TIP3    H242016   5.434   1.677  11.052
 5941TIP3   OH242017   4.101   0.150  10.949
 5941TIP3    H142018   4.082   0.130  10.855
 5941TIP3    H242019   4.084   0.060  10.983
 5942TIP3   OH242020   3.952   1.456  10.555
 5942TIP3    H142021   3.883   1.521  10.575
 5942TIP3    H242022   3.996   1.502  10.481
 5943TIP3   OH242023   3.897   1.734  11.681
 5943TIP3    H142024   3.977   1.721  11.734
 5943TIP3    H242025   3.867   1.642  11.666
 5944TIP3   OH242026   4.777   1.551   9.970
 5944TIP3    H142027   4.708   1.489   9.996
 5944TIP3    H242028   4.853   1.515  10.017
 5945TIP3   OH242029   4.994   1.504  11.743
 5945TIP3    H142030   4.963   1.412  11.760
 5945TIP3    H242031   5.092   1.490  11.749
 5946TIP3   OH242032   5.181   1.559  10.089
 5946TIP3    H142033   5.207   1.465  10.088
 5946TIP3    H242034   5.232   1.602  10.017
 5947TIP3   OH242035   3.854   1.129  11.814
 5947TIP3    H142036   3.846   1.032  11.803
 5947TIP3    H242037   3.813   1.163  11.731
 5948TIP3   OH242038   4.376   1.098  10.029
 5948TIP3    H142039   4.354   1.082  10.122
 5948TIP3    H242040   4.450   1.160  10.041
 5949TIP3   OH242041   4.556   1.120  11.696
 5949TIP3    H142042   4.532   1.181  11.622
 5949TIP3    H242043   4.549   1.030  11.654
 5950TIP3   OH242044   5.135   1.102  11.480
 5950TIP3    H142045   5.221   1.149  11.485
 5950TIP3    H242046   5.075   1.179  11.479
 5951TIP3   OH242047   3.960   0.863  11.801
 5951TIP3    H142048   4.007   0.831  11.720
 5951TIP3    H242049   4.029   0.866  11.868
 5952TIP3   OH242050   4.472   0.963  10.272
 5952TIP3    H142051   4.396   0.924  10.319
 5952TIP3    H242052   4.496   0.894  10.207
 5953TIP3   OH242053   4.414   0.727  11.459
 5953TIP3    H142054   4.320   0.751  11.470
 5953TIP3    H242055   4.443   0.772  11.377
 5954TIP3   OH242056   4.589   0.791  10.075
 5954TIP3    H142057   4.616   0.756   9.989
 5954TIP3    H242058   4.676   0.788  10.122
 5955TIP3   OH242059   4.916   1.016  11.810
 5955TIP3    H142060   4.983   0.983  11.748
 5955TIP3    H242061   4.908   0.943  11.875
 5956TIP3   OH242062   5.465   0.991  19.978
 5956TIP3    H142063   5.536   0.942  19.932
 5956TIP3    H242064   5.507   1.079  19.971
 5957TIP3   OH242065   4.443   0.483  11.557
 5957TIP3    H142066   4.451   0.417  11.484
 5957TIP3    H242067   4.462   0.567  11.508
 5958TIP3   OH242068   4.451   0.325  11.341
 5958TIP3    H142069   4.503   0.361  11.267
 5958TIP3    H242070   4.359   0.343  11.312
 5959TIP3   OH242071   4.618   0.864  11.298
 5959TIP3    H142072   4.705   0.898  11.319
 5959TIP3    H242073   4.565   0.944  11.280
 5960TIP3   OH242074   5.040   0.621  11.825
 5960TIP3    H142075   5.074   0.529  11.829
 5960TIP3    H242076   5.100   0.659  11.757
 5961TIP3   OH242077   5.204   0.929  11.679
 5961TIP3    H142078   5.167   0.989  11.610
 5961TIP3    H242079   5.299   0.943  11.666
 5962TIP3   OH242080   4.271   0.580  11.759
 5962TIP3    H142081   4.181   0.587  11.719
 5962TIP3    H242082   4.323   0.563  11.678
 5963TIP3   OH242083   4.514   0.075  11.324
 5963TIP3    H142084   4.497   0.172  11.336
 5963TIP3    H242085   4.423   0.048  11.303
 5964TIP3   OH242086   4.653   0.504  11.738
 5964TIP3    H142087   4.622   0.483  11.828
 5964TIP3    H242088   4.575   0.478  11.685
 5965TIP3   OH242089   4.949   0.399  11.643
 5965TIP3    H142090   4.855   0.395  11.667
 5965TIP3    H242091   4.989   0.341  11.710
 5966TIP3   OH242092   5.121   0.307  11.855
 5966TIP3    H142093   5.102   0.210  11.853
 5966TIP3    H242094   5.094   0.330  11.947
 5967TIP3   OH242095   4.051   0.389  11.784
 5967TIP3    H142096   4.110   0.336  11.730
 5967TIP3    H242097   4.041   0.339  11.866
 5968TIP3   OH242098   4.523   0.072  11.603
 5968TIP3    H142099   4.564  -0.014  11.623
 5968TIP3    H242100   4.532   0.076  11.506
 5969TIP3   OH242101   4.595   0.146  11.860
 5969TIP3    H142102   4.573   0.122  11.768
 5969TIP3    H242103   4.544   0.228  11.873
 5970TIP3   OH242104   4.536   1.832  10.177
 5970TIP3    H142105   4.633   1.815  10.181
 5970TIP3    H242106   4.527   1.853  10.083
 5971TIP3   OH242107   3.917   1.328  10.142
 5971TIP3    H142108   4.015   1.324  10.146
 5971TIP3    H242109   3.894   1.279  10.061
 5972TIP3   OH242110   3.775   1.822  10.614
 5972TIP3    H142111   3.703   1.766  10.576
 5972TIP3    H242112   3.807   1.763  10.686
 5973TIP3   OH242113   3.881   1.653  10.800
 5973TIP3    H142114   3.807   1.595  10.825
 5973TIP3    H242115   3.927   1.662  10.886
 5974TIP3   OH242116   5.607   1.729  11.061
 5974TIP3    H142117   5.635   1.725  11.154
 5974TIP3    H242118   5.685   1.768  11.019
 5975TIP3   OH242119   5.568   1.703  11.350
 5975TIP3    H142120   5.526   1.619  11.321
 5975TIP3    H242121   5.594   1.678  11.440
 5976TIP3   OH242122   5.535   1.105  10.378
 5976TIP3    H142123   5.618   1.153  10.398
 5976TIP3    H242124   5.529   1.050  10.459
 5977TIP3   OH242125   5.567   0.941  10.615
 5977TIP3    H142126   5.491   0.881  10.630
 5977TIP3    H242127   5.603   0.948  10.705
 5978TIP3   OH242128   5.557   1.192  11.047
 5978TIP3    H142129   5.623   1.120  11.038
 5978TIP3    H242130   5.598   1.266  10.999
 5979TIP3   OH242131   5.430   1.467  11.292
 5979TIP3    H142132   5.364   1.500  11.355
 5979TIP3    H242133   5.374   1.434  11.219
 5980TIP3   OH242134   5.634   0.905  10.198
 5980TIP3    H142135   5.556   0.931  10.146
 5980TIP3    H242136   5.631   0.976  10.265
 5981TIP3   OH242137   5.414   0.621  10.137
 5981TIP3    H142138   5.395   0.689  10.071
 5981TIP3    H242139   5.425   0.545  10.078
 5982TIP3   OH242140   5.375   0.769  10.678
 5982TIP3    H142141   5.354   0.680  10.647
 5982TIP3    H242142   5.340   0.767  10.769
 5983TIP3   OH242143   3.853   0.995  11.068
 5983TIP3    H142144   3.855   0.968  10.974
 5983TIP3    H242145   3.943   0.963  11.095
 5984TIP3   OH242146   5.484   0.945  11.591
 5984TIP3    H142147   5.526   0.877  11.648
 5984TIP3    H242148   5.542   1.023  11.601
 5985TIP3   OH242149   5.565   0.725  11.721
 5985TIP3    H142150   5.481   0.691  11.682
 5985TIP3    H242151   5.632   0.664  11.684
 5986TIP3   OH242152   5.376   0.364   9.991
 5986TIP3    H142153   5.451   0.324  10.040
 5986TIP3    H242154   5.305   0.300  10.010
 5987TIP3   OH242155   5.331   0.548  10.484
 5987TIP3    H142156   5.354   0.456  10.510
 5987TIP3    H242157   5.415   0.573  10.441
 5988TIP3   OH242158   5.423   0.581  11.059
 5988TIP3    H142159   5.520   0.605  11.063
 5988TIP3    H242160   5.399   0.588  11.153
 5989TIP3   OH242161   5.424   0.667  11.307
 5989TIP3    H142162   5.337   0.685  11.345
 5989TIP3    H242163   5.457   0.757  11.283
 5990TIP3   OH242164   3.849   0.514  11.630
 5990TIP3    H142165   3.927   0.495  11.687
 5990TIP3    H242166   3.795   0.435  11.650
 5991TIP3   OH242167   5.676   0.082  11.831
 5991TIP3    H142168   5.763   0.079  11.784
 5991TIP3    H242169   5.640   0.157  11.780
 5992TIP3   OH242170   5.405   0.294  10.532
 5992TIP3    H142171   5.439   0.235  10.603
 5992TIP3    H242172   5.340   0.236  10.488
 5993TIP3   OH242173   3.945   0.356  10.978
 5993TIP3    H142174   3.984   0.267  10.990
 5993TIP3    H242175   4.028   0.407  10.978
 5994TIP3   OH242176   3.784   0.653  11.052
 5994TIP3    H142177   3.842   0.643  10.973
 5994TIP3    H242178   3.850   0.686  11.114
 5995TIP3   OH242179   5.583   0.313  11.681
 5995TIP3    H142180   5.493   0.342  11.704
 5995TIP3    H242181   5.564   0.256  11.603
 5996TIP3   OH242182   5.596   0.276  10.136
 5996TIP3    H142183   5.643   0.233  10.062
 5996TIP3    H242184   5.657   0.349  10.157
 5997TIP3   OH242185   3.800   0.248  10.488
 5997TIP3    H142186   3.710   0.282  10.471
 5997TIP3    H242187   3.848   0.295  10.417
 5998TIP3   OH242188   5.286   1.746  10.653
 5998TIP3    H142189   5.360   1.732  10.590
 5998TIP3    H242190   5.328   1.799  10.723
 5999TIP3   OH242191   3.838   0.160  11.275
 5999TIP3    H142192   3.775   0.169  11.349
 5999TIP3    H242193   3.801   0.229  11.217
 6000TIP3   OH242194   4.036   1.422  11.720
 6000TIP3    H142195   3.994   1.422  11.633
 6000TIP3    H242196   3.965   1.384  11.774
 6001TIP3   OH242197   4.335   1.576  11.350
 6001TIP3    H142198   4.336   1.669  11.321
 6001TIP3    H242199   4.432   1.561  11.349
 6002TIP3   OH242200   4.747   1.684  11.610
 6002TIP3    H142201   4.764   1.666  11.704
 6002TIP3    H242202   4.834   1.722  11.583
 6003TIP3   OH242203   4.973   1.841  11.549
 6003TIP3    H142204   5.047   1.789  11.511
 6003TIP3    H242205   5.014   1.872  11.633
 6004TIP3   OH242206   5.517   0.145  11.456
 6004TIP3    H142207   5.432   0.175  11.421
 6004TIP3    H242208   5.499   0.049  11.462
 6005TIP3   OH242209   4.069   1.876  11.324
 6005TIP3    H142210   3.999   1.931  11.283
 6005TIP3    H242211   4.056   1.896  11.418
 6006TIP3   OH242212   4.316   1.831  11.220
 6006TIP3    H142213   4.226   1.843  11.258
 6006TIP3    H242214   4.310   1.891  11.143
 6007TIP3   OH242215   4.762   1.793  11.154
 6007TIP3    H142216   4.731   1.862  11.094
 6007TIP3    H242217   4.802   1.850  11.223
 6008TIP3   OH242218   4.981   1.671  11.295
 6008TIP3    H142219   4.928   1.698  11.217
 6008TIP3    H242220   5.062   1.722  11.277
 6009TIP3   OH242221   5.265   1.817  11.257
 6009TIP3    H142222   5.281   1.911  11.237
 6009TIP3    H242223   5.292   1.775  11.173
 6010TIP3   OH242224   4.033   1.718  11.025
 6010TIP3    H142225   4.003   1.653  11.091
 6010TIP3    H242226   4.118   1.677  10.996
 6011TIP3   OH242227   4.233   1.596  10.892
 6011TIP3    H142228   4.233   1.503  10.926
 6011TIP3    H242229   4.321   1.626  10.924
 6012TIP3   OH242230   4.471   1.619  10.997
 6012TIP3    H142231   4.504   1.529  10.979
 6012TIP3    H242232   4.479   1.620  11.094
 6013TIP3   OH242233   4.830   0.255  10.879
 6013TIP3    H142234   4.771   0.177  10.888
 6013TIP3    H242235   4.894   0.221  10.814
 6014TIP3   OH242236   5.313   0.108  10.893
 6014TIP3    H142237   5.380   0.125  10.824
 6014TIP3    H242238   5.229   0.135  10.851
 6015TIP3   OH242239   5.545   0.167  10.724
 6015TIP3    H142240   5.602   0.133  10.653
 6015TIP3    H242241   5.591   0.252  10.745
 6016TIP3   OH242242   4.058   0.112  10.683
 6016TIP3    H142243   3.996   0.143  10.614
 6016TIP3    H242244   4.055   0.014  10.667
 6017TIP3   OH242245   3.965   0.111  10.308
 6017TIP3    H142246   3.998   0.150  10.225
 6017TIP3    H242247   3.872   0.140  10.306
 6018TIP3   OH242248   4.523   0.104  10.649
 6018TIP3    H142249   4.600   0.147  10.607
 6018TIP3    H242250   4.552   0.105  10.743
 6019TIP3   OH242251   5.061   0.136  10.777
 6019TIP3    H142252   5.087   0.125  10.685
 6019TIP3    H242253   5.050   0.043  10.805
 6020TIP3   OH242254   5.221   0.167  10.390
 6020TIP3    H142255   5.129   0.200  10.382
 6020TIP3    H242256   5.211   0.072  10.372
 6021TIP3   OH242257   3.951   1.658  10.365
 6021TIP3    H142258   3.864   1.633  10.328
 6021TIP3    H242259   3.955   1.749  10.330
 6022TIP3   OH242260   4.092   0.199  10.091
 6022TIP3    H142261   4.175   0.150  10.082
 6022TIP3    H242262   4.123   0.285  10.122
 6023TIP3   OH242263   4.607   0.283  10.342
 6023TIP3    H142264   4.658   0.223  10.398
 6023TIP3    H242265   4.626   0.366  10.388
 6024TIP3   OH242266   4.804   1.766  10.154
 6024TIP3    H142267   4.900   1.791  10.163
 6024TIP3    H242268   4.810   1.717  10.070
 6025TIP3   OH242269   5.468   1.694  10.473
 6025TIP3    H142270   5.466   1.603  10.435
 6025TIP3    H242271   5.439   1.748  10.397
 6026TIP3   OH242272   4.005   0.083  11.676
 6026TIP3    H142273   4.008  -0.014  11.664
 6026TIP3    H242274   4.089   0.099  11.724
 6027TIP3   OH242275   4.259   0.106  11.795
 6027TIP3    H142276   4.337   0.147  11.755
 6027TIP3    H242277   4.267   0.013  11.762
 6028TIP3   OH242278   4.119   1.751  10.106
 6028TIP3    H142279   4.076   1.780  10.188
 6028TIP3    H242280   4.177   1.681  10.135
 6029TIP3   OH242281   5.063   0.053  11.815
 6029TIP3    H142282   5.023  -0.033  11.837
 6029TIP3    H242283   5.132   0.023  11.753
 6030TIP3   OH242284   5.464   1.647  11.637
 6030TIP3    H142285   5.412   1.569  11.667
 6030TIP3    H242286   5.388   1.703  11.612
 6031TIP3   OH242287   6.862   0.979  10.670
 6031TIP3    H142288   6.855   1.070  10.706
 6031TIP3    H242289   6.792   0.983  10.602
 6032TIP3   OH242290   6.731   0.878  11.007
 6032TIP3    H142291   6.747   0.823  11.087
 6032TIP3    H242292   6.676   0.821  10.949
 6033TIP3   OH242293   5.963   0.893  11.149
 6033TIP3    H142294   5.950   0.817  11.209
 6033TIP3    H242295   6.034   0.940  11.195
 6034TIP3   OH242296   7.101   1.197  10.871
 6034TIP3    H142297   7.109   1.122  10.931
 6034TIP3    H242298   7.094   1.271  10.933
 6035TIP3   OH242299   6.063   1.344  10.971
 6035TIP3    H142300   6.029   1.253  10.960
 6035TIP3    H242301   6.158   1.321  10.964
 6036TIP3   OH242302   5.740   0.667  10.560
 6036TIP3    H142303   5.691   0.739  10.602
 6036TIP3    H242304   5.688   0.656  10.479
 6037TIP3   OH242305   5.782   0.920  10.797
 6037TIP3    H142306   5.827   0.833  10.813
 6037TIP3    H242307   5.841   0.964  10.735
 6038TIP3   OH242308   6.827   1.732  10.848
 6038TIP3    H142309   6.895   1.682  10.795
 6038TIP3    H242310   6.795   1.657  10.900
 6039TIP3   OH242311   6.559   1.194  11.097
 6039TIP3    H142312   6.579   1.126  11.030
 6039TIP3    H242313   6.647   1.202  11.141
 6040TIP3   OH242314   7.434   0.339  11.077
 6040TIP3    H142315   7.453   0.409  11.144
 6040TIP3    H242316   7.485   0.372  11.002
 6041TIP3   OH242317   6.914   0.595  11.108
 6041TIP3    H142318   6.967   0.513  11.109
 6041TIP3    H242319   6.893   0.599  11.013
 6042TIP3   OH242320   6.223   0.400  10.775
 6042TIP3    H142321   6.232   0.482  10.720
 6042TIP3    H242322   6.177   0.341  10.711
 6043TIP3   OH242323   6.990   0.424  10.634
 6043TIP3    H142324   7.037   0.403  10.719
 6043TIP3    H242325   7.052   0.485  10.592
 6044TIP3   OH242326   5.873   0.669  10.891
 6044TIP3    H142327   5.946   0.639  10.947
 6044TIP3    H242328   5.889   0.620  10.809
 6045TIP3   OH242329   6.366   0.804  10.833
 6045TIP3    H142330   6.445   0.755  10.863
 6045TIP3    H242331   6.338   0.749  10.757
 6046TIP3   OH242332   7.491   0.451  11.320
 6046TIP3    H142333   7.423   0.522  11.330
 6046TIP3    H242334   7.499   0.423  11.412
 6047TIP3   OH242335   6.120   0.316  11.199
 6047TIP3    H142336   6.083   0.375  11.130
 6047TIP3    H242337   6.048   0.313  11.266
 6048TIP3   OH242338   6.794   1.234  10.558
 6048TIP3    H142339   6.795   1.238  10.461
 6048TIP3    H242340   6.764   1.325  10.579
 6049TIP3   OH242341   6.340   1.072  11.186
 6049TIP3    H142342   6.284   1.149  11.215
 6049TIP3    H242343   6.416   1.120  11.146
 6050TIP3   OH242344   7.145   0.380  10.846
 6050TIP3    H142345   7.096   0.336  10.917
 6050TIP3    H242346   7.237   0.372  10.877
 6051TIP3   OH242347   6.082   0.500  10.993
 6051TIP3    H142348   6.142   0.565  11.035
 6051TIP3    H242349   6.133   0.473  10.914
 6052TIP3   OH242350   6.204   1.277  11.286
 6052TIP3    H142351   6.197   1.363  11.242
 6052TIP3    H242352   6.118   1.273  11.334
 6053TIP3   OH242353   5.788   1.203  10.391
 6053TIP3    H142354   5.775   1.258  10.311
 6053TIP3    H242355   5.792   1.271  10.461
 6054TIP3   OH242356   7.146   1.407  11.058
 6054TIP3    H142357   7.055   1.422  11.091
 6054TIP3    H242358   7.166   1.496  11.026
 6055TIP3   OH242359   7.211   0.191  11.229
 6055TIP3    H142360   7.149   0.222  11.160
 6055TIP3    H242361   7.281   0.160  11.170
 6056TIP3   OH242362   6.503   0.090  10.903
 6056TIP3    H142363   6.502   0.001  10.942
 6056TIP3    H242364   6.448   0.138  10.968
 6057TIP3   OH242365   6.975   1.567  10.715
 6057TIP3    H142366   6.996   1.481  10.671
 6057TIP3    H242367   7.063   1.612  10.707
 6058TIP3   OH242368   7.072   1.357  10.585
 6058TIP3    H142369   7.070   1.282  10.523
 6058TIP3    H242370   7.117   1.319  10.662
 6059TIP3   OH242371   7.241   1.219  11.454
 6059TIP3    H142372   7.250   1.152  11.381
 6059TIP3    H242373   7.255   1.301  11.404
 6060TIP3   OH242374   6.714   0.926  10.411
 6060TIP3    H142375   6.669   1.012  10.398
 6060TIP3    H242376   6.789   0.931  10.350
 6061TIP3   OH242377   6.769   0.774  10.107
 6061TIP3    H142378   6.848   0.810  10.153
 6061TIP3    H242379   6.799   0.683  10.085
 6062TIP3   OH242380   7.413   0.864  11.225
 6062TIP3    H142381   7.351   0.940  11.217
 6062TIP3    H242382   7.481   0.886  11.156
 6063TIP3   OH242383   7.072   0.920  10.513
 6063TIP3    H142384   7.001   0.947  10.577
 6063TIP3    H242385   7.133   0.871  10.573
 6064TIP3   OH242386   7.049   0.766  11.431
 6064TIP3    H142387   7.021   0.856  11.459
 6064TIP3    H242388   6.997   0.761  11.350
 6065TIP3   OH242389   6.230   1.004  10.703
 6065TIP3    H142390   6.187   0.982  10.616
 6065TIP3    H242391   6.280   0.923  10.722
 6066TIP3   OH242392   6.359   1.324  10.966
 6066TIP3    H142393   6.373   1.308  10.872
 6066TIP3    H242394   6.438   1.282  11.008
 6067TIP3   OH242395   6.239   0.864  11.071
 6067TIP3    H142396   6.277   0.863  10.980
 6067TIP3    H242397   6.286   0.941  11.111
 6068TIP3   OH242398   6.902   1.446  11.136
 6068TIP3    H142399   6.893   1.523  11.195
 6068TIP3    H242400   6.863   1.376  11.192
 6069TIP3   OH242401   6.374   1.310  11.486
 6069TIP3    H142402   6.303   1.359  11.533
 6069TIP3    H242403   6.325   1.282  11.405
 6070TIP3   OH242404   6.953   0.868  10.273
 6070TIP3    H142405   6.990   0.875  10.363
 6070TIP3    H242406   7.012   0.930  10.224
 6071TIP3   OH242407   6.061   0.918  11.424
 6071TIP3    H142408   6.086   0.999  11.468
 6071TIP3    H242409   5.985   0.889  11.479
 6072TIP3   OH242410   6.722   1.516  10.562
 6072TIP3    H142411   6.765   1.550  10.642
 6072TIP3    H242412   6.682   1.595  10.524
 6073TIP3   OH242413   6.192   1.473  11.608
 6073TIP3    H142414   6.178   1.511  11.518
 6073TIP3    H242415   6.099   1.448  11.630
 6074TIP3   OH242416   7.294   0.114  10.215
 6074TIP3    H142417   7.252   0.134  10.300
 6074TIP3    H242418   7.349   0.193  10.203
 6075TIP3   OH242419   6.092   0.913  10.480
 6075TIP3    H142420   6.063   0.978  10.413
 6075TIP3    H242421   6.057   0.830  10.444
 6076TIP3   OH242422   7.454   1.492  10.141
 6076TIP3    H142423   7.496   1.580  10.147
 6076TIP3    H242424   7.529   1.431  10.154
 6077TIP3   OH242425   5.756   1.154  11.369
 6077TIP3    H142426   5.718   1.142  11.281
 6077TIP3    H242427   5.782   1.061  11.391
 6078TIP3   OH242428   5.733   1.421  10.982
 6078TIP3    H142429   5.827   1.403  10.999
 6078TIP3    H242430   5.713   1.486  11.050
 6079TIP3   OH242431   7.531   1.498  11.593
 6079TIP3    H142432   7.539   1.404  11.575
 6079TIP3    H242433   7.441   1.500  11.631
 6080TIP3   OH242434   6.621   1.424  11.499
 6080TIP3    H142435   6.626   1.497  11.563
 6080TIP3    H242436   6.526   1.398  11.498
 6081TIP3   OH242437   6.677   1.805  10.439
 6081TIP3    H142438   6.691   1.844  10.350
 6081TIP3    H242439   6.669   1.887  10.492
 6082TIP3   OH242440   6.038   1.677  10.658
 6082TIP3    H142441   6.070   1.649  10.747
 6082TIP3    H242442   5.949   1.635  10.656
 6083TIP3   OH242443   6.966   1.789  10.156
 6083TIP3    H142444   6.990   1.694  10.139
 6083TIP3    H242445   6.970   1.792  10.253
 6084TIP3   OH242446   6.940   1.722  10.437
 6084TIP3    H142447   6.844   1.728  10.458
 6084TIP3    H242448   6.972   1.657  10.502
 6085TIP3   OH242449   7.204   0.636  11.640
 6085TIP3    H142450   7.168   0.671  11.556
 6085TIP3    H242451   7.274   0.576  11.610
 6086TIP3   OH242452   5.981   1.273  11.434
 6086TIP3    H142453   5.976   1.241  11.528
 6086TIP3    H242454   5.893   1.247  11.403
 6087TIP3   OH242455   6.269   0.195  11.020
 6087TIP3    H142456   6.192   0.218  10.964
 6087TIP3    H242457   6.249   0.251  11.098
 6088TIP3   OH242458   6.646   0.144  11.446
 6088TIP3    H142459   6.706   0.068  11.432
 6088TIP3    H242460   6.589   0.132  11.367
 6089TIP3   OH242461   7.011   0.470  11.428
 6089TIP3    H142462   6.958   0.444  11.506
 6089TIP3    H242463   7.033   0.562  11.450
 6090TIP3   OH242464   7.108   1.001  10.103
 6090TIP3    H142465   7.062   1.008  10.016
 6090TIP3    H242466   7.200   1.000  10.067
 6091TIP3   OH242467   6.643   0.351  10.120
 6091TIP3    H142468   6.600   0.311  10.199
 6091TIP3    H242469   6.598   0.310  10.046
 6092TIP3   OH242470   6.244   0.624  11.168
 6092TIP3    H142471   6.164   0.624  11.223
 6092TIP3    H242472   6.246   0.719  11.139
 6093TIP3   OH242473   6.238   0.630  10.639
 6093TIP3    H142474   6.142   0.613  10.631
 6093TIP3    H242475   6.272   0.611  10.549
 6094TIP3   OH242476   6.826   0.690  10.523
 6094TIP3    H142477   6.785   0.771  10.486
 6094TIP3    H242478   6.883   0.661  10.449
 6095TIP3   OH242479   6.688   0.724  11.654
 6095TIP3    H142480   6.641   0.641  11.679
 6095TIP3    H242481   6.765   0.717  11.714
 6096TIP3   OH242482   6.908   0.637  10.810
 6096TIP3    H142483   6.883   0.723  10.769
 6096TIP3    H242484   6.909   0.581  10.730
 6097TIP3   OH242485   5.983   0.629  11.290
 6097TIP3    H142486   6.037   0.669  11.360
 6097TIP3    H242487   5.954   0.545  11.329
 6098TIP3   OH242488   6.315   0.399  10.020
 6098TIP3    H142489   6.276   0.386  10.108
 6098TIP3    H242490   6.243   0.447   9.973
 6099TIP3   OH242491   5.693   0.395  10.730
 6099TIP3    H142492   5.769   0.372  10.786
 6099TIP3    H242493   5.720   0.363  10.642
 6100TIP3   OH242494   5.787   0.427  10.295
 6100TIP3    H142495   5.864   0.471  10.255
 6100TIP3    H242496   5.728   0.503  10.312
 6101TIP3   OH242497   6.808   0.785  11.255
 6101TIP3    H142498   6.863   0.722  11.201
 6101TIP3    H242499   6.750   0.720  11.301
 6102TIP3   OH242500   6.513   0.378  10.751
 6102TIP3    H142501   6.420   0.350  10.756
 6102TIP3    H242502   6.543   0.359  10.842
 6103TIP3   OH242503   5.973   0.556  10.640
 6103TIP3    H142504   5.886   0.582  10.602
 6103TIP3    H242505   5.989   0.468  10.602
 6104TIP3   OH242506   6.339   0.562  10.406
 6104TIP3    H142507   6.436   0.568  10.417
 6104TIP3    H242508   6.316   0.622  10.330
 6105TIP3   OH242509   6.966   0.290  11.061
 6105TIP3    H142510   6.904   0.304  11.135
 6105TIP3    H242511   6.903   0.251  10.998
 6106TIP3   OH242512   6.220   0.696  10.208
 6106TIP3    H142513   6.135   0.666  10.172
 6106TIP3    H242514   6.277   0.703  10.129
 6107TIP3   OH242515   7.239   1.842  11.731
 6107TIP3    H142516   7.279   1.889  11.654
 6107TIP3    H242517   7.306   1.860  11.800
 6108TIP3   OH242518   5.993   1.130  11.674
 6108TIP3    H142519   6.070   1.147  11.732
 6108TIP3    H242520   5.930   1.092  11.736
 6109TIP3   OH242521   6.630   0.651  10.913
 6109TIP3    H142522   6.699   0.601  10.867
 6109TIP3    H242523   6.612   0.591  10.985
 6110TIP3   OH242524   6.089   0.289  10.576
 6110TIP3    H142525   6.039   0.218  10.622
 6110TIP3    H242526   6.134   0.241  10.504
 6111TIP3   OH242527   6.475   0.488  11.167
 6111TIP3    H142528   6.397   0.548  11.176
 6111TIP3    H242529   6.545   0.539  11.209
 6112TIP3   OH242530   6.536   1.142  10.366
 6112TIP3    H142531   6.467   1.078  10.336
 6112TIP3    H242532   6.501   1.158  10.457
 6113TIP3   OH242533   7.250   1.076  11.238
 6113TIP3    H142534   7.304   1.123  11.171
 6113TIP3    H242535   7.166   1.060  11.191
 6114TIP3   OH242536   6.891   0.385  10.219
 6114TIP3    H142537   6.807   0.416  10.178
 6114TIP3    H242538   6.939   0.469  10.232
 6115TIP3   OH242539   6.642   1.150  11.465
 6115TIP3    H142540   6.637   1.118  11.556
 6115TIP3    H242541   6.636   1.246  11.481
 6116TIP3   OH242542   7.005   0.603  10.323
 6116TIP3    H142543   7.091   0.589  10.369
 6116TIP3    H242544   7.018   0.691  10.283
 6117TIP3   OH242545   6.069   1.072  10.932
 6117TIP3    H142546   6.134   1.058  10.861
 6117TIP3    H242547   6.075   0.991  10.985
 6118TIP3   OH242548   6.762   1.268  10.264
 6118TIP3    H142549   6.723   1.358  10.272
 6118TIP3    H242550   6.681   1.214  10.274
 6119TIP3   OH242551   5.761   0.880  11.449
 6119TIP3    H142552   5.737   0.825  11.527
 6119TIP3    H242553   5.700   0.846  11.381
 6120TIP3   OH242554   6.446   0.860  11.646
 6120TIP3    H142555   6.403   0.806  11.578
 6120TIP3    H242556   6.538   0.825  11.644
 6121TIP3   OH242557   6.940   1.388  11.486
 6121TIP3    H142558   6.851   1.402  11.449
 6121TIP3    H242559   6.928   1.433  11.572
 6122TIP3   OH242560   7.464   0.626  10.326
 6122TIP3    H142561   7.415   0.594  10.247
 6122TIP3    H242562   7.477   0.718  10.297
 6123TIP3   OH242563   7.481   1.179  11.566
 6123TIP3    H142564   7.397   1.212  11.528
 6123TIP3    H242565   7.534   1.166  11.485
 6124TIP3   OH242566   7.320   1.455  10.381
 6124TIP3    H142567   7.234   1.414  10.367
 6124TIP3    H242568   7.360   1.453  10.293
 6125TIP3   OH242569   7.056   0.986  11.055
 6125TIP3    H142570   6.962   0.988  11.032
 6125TIP3    H242571   7.085   0.906  11.004
 6126TIP3   OH242572   6.276   1.405  10.678
 6126TIP3    H142573   6.306   1.494  10.648
 6126TIP3    H242574   6.181   1.413  10.663
 6127TIP3   OH242575   5.889   0.880  10.088
 6127TIP3    H142576   5.940   0.944  10.142
 6127TIP3    H242577   5.799   0.890  10.126
 6128TIP3   OH242578   6.430   1.178  10.624
 6128TIP3    H142579   6.372   1.258  10.635
 6128TIP3    H242580   6.381   1.111  10.677
 6129TIP3   OH242581   6.479   1.587  11.304
 6129TIP3    H142582   6.541   1.657  11.274
 6129TIP3    H242583   6.538   1.539  11.367
 6130TIP3   OH242584   6.303   1.656  10.569
 6130TIP3    H142585   6.210   1.679  10.590
 6130TIP3    H242586   6.348   1.739  10.597
 6131TIP3   OH242587   6.791   1.177  11.234
 6131TIP3    H142588   6.740   1.149  11.313
 6131TIP3    H242589   6.840   1.096  11.216
 6132TIP3   OH242590   7.059   1.312  10.128
 6132TIP3    H142591   7.097   1.277  10.211
 6132TIP3    H242592   6.973   1.267  10.132
 6133TIP3   OH242593   7.102   1.633  11.467
 6133TIP3    H142594   7.016   1.590  11.455
 6133TIP3    H242595   7.111   1.689  11.387
 6134TIP3   OH242596   7.540   1.746  10.133
 6134TIP3    H142597   7.612   1.810  10.137
 6134TIP3    H242598   7.468   1.791  10.183
 6135TIP3   OH242599   5.936   0.348  11.390
 6135TIP3    H142600   5.845   0.373  11.368
 6135TIP3    H242601   5.924   0.265  11.438
 6136TIP3   OH242602   7.156   1.161  10.348
 6136TIP3    H142603   7.127   1.070  10.361
 6136TIP3    H242604   7.253   1.149  10.348
 6137TIP3   OH242605   5.890   1.553  11.240
 6137TIP3    H142606   5.954   1.482  11.249
 6137TIP3    H242607   5.895   1.593  11.328
 6138TIP3   OH242608   6.328   1.348  10.235
 6138TIP3    H142609   6.412   1.317  10.271
 6138TIP3    H242610   6.335   1.444  10.258
 6139TIP3   OH242611   5.990   1.076  10.255
 6139TIP3    H142612   5.918   1.124  10.303
 6139TIP3    H242613   6.045   1.151  10.226
 6140TIP3   OH242614   6.772   0.340  11.314
 6140TIP3    H142615   6.857   0.358  11.357
 6140TIP3    H242616   6.729   0.280  11.379
 6141TIP3   OH242617   6.847   0.278  10.458
 6141TIP3    H142618   6.853   0.331  10.375
 6141TIP3    H242619   6.909   0.326  10.517
 6142TIP3   OH242620   6.637   1.519  10.257
 6142TIP3    H142621   6.570   1.531  10.326
 6142TIP3    H242622   6.664   1.611  10.246
 6143TIP3   OH242623   6.600   0.516  10.506
 6143TIP3    H142624   6.688   0.558  10.510
 6143TIP3    H242625   6.582   0.491  10.599
 6144TIP3   OH242626   6.667   0.615  11.407
 6144TIP3    H142627   6.688   0.647  11.498
 6144TIP3    H242628   6.701   0.524  11.401
 6145TIP3   OH242629   6.638   0.185  10.578
 6145TIP3    H142630   6.626   0.256  10.643
 6145TIP3    H242631   6.724   0.212  10.537
 6146TIP3   OH242632   6.364   1.604  10.308
 6146TIP3    H142633   6.393   1.689  10.267
 6146TIP3    H242634   6.335   1.633  10.397
 6147TIP3   OH242635   6.210   0.364  10.276
 6147TIP3    H142636   6.227   0.431  10.346
 6147TIP3    H242637   6.291   0.312  10.289
 6148TIP3   OH242638   7.255   0.381  11.482
 6148TIP3    H142639   7.165   0.419  11.479
 6148TIP3    H242640   7.254   0.332  11.398
 6149TIP3   OH242641   7.121   0.761  10.912
 6149TIP3    H142642   7.042   0.710  10.888
 6149TIP3    H242643   7.173   0.690  10.957
 6150TIP3   OH242644   6.066   1.322  10.174
 6150TIP3    H142645   6.158   1.340  10.207
 6150TIP3    H242646   6.085   1.312  10.079
 6151TIP3   OH242647   5.906   0.614  10.133
 6151TIP3    H142648   5.920   0.711  10.123
 6151TIP3    H242649   5.838   0.599  10.065
 6152TIP3   OH242650   7.253   1.670  11.059
 6152TIP3    H142651   7.232   1.744  10.996
 6152TIP3    H242652   7.349   1.681  11.068
 6153TIP3   OH242653   5.988   0.146  10.947
 6153TIP3    H142654   5.963   0.127  10.854
 6153TIP3    H242655   5.972   0.056  10.981
 6154TIP3   OH242656   5.841   1.473  10.569
 6154TIP3    H142657   5.762   1.529  10.572
 6154TIP3    H242658   5.878   1.506  10.485
 6155TIP3   OH242659   5.796   1.751  11.667
 6155TIP3    H142660   5.890   1.735  11.685
 6155TIP3    H242661   5.760   1.660  11.666
 6156TIP3   OH242662   6.262   1.634  11.831
 6156TIP3    H142663   6.347   1.601  11.864
 6156TIP3    H242664   6.259   1.592  11.743
 6157TIP3   OH242665   6.679   1.566   9.969
 6157TIP3    H142666   6.596   1.525   9.994
 6157TIP3    H242667   6.741   1.512  10.021
 6158TIP3   OH242668   6.889   1.507  11.733
 6158TIP3    H142669   6.854   1.419  11.764
 6158TIP3    H242670   6.977   1.505  11.775
 6159TIP3   OH242671   7.048   1.564  10.038
 6159TIP3    H142672   7.051   1.471  10.070
 6159TIP3    H242673   7.138   1.578  10.003
 6160TIP3   OH242674   5.750   1.101  11.796
 6160TIP3    H142675   5.733   1.007  11.775
 6160TIP3    H242676   5.713   1.147  11.717
 6161TIP3   OH242677   6.272   1.085  10.035
 6161TIP3    H142678   6.245   1.072  10.127
 6161TIP3    H242679   6.346   1.147  10.048
 6162TIP3   OH242680   6.435   1.127  11.680
 6162TIP3    H142681   6.421   1.178  11.597
 6162TIP3    H242682   6.421   1.033  11.652
 6163TIP3   OH242683   7.005   1.095  11.490
 6163TIP3    H142684   7.096   1.132  11.500
 6163TIP3    H242685   6.956   1.179  11.491
 6164TIP3   OH242686   5.915   0.830  11.744
 6164TIP3    H142687   5.971   0.752  11.756
 6164TIP3    H242688   5.949   0.890  11.814
 6165TIP3   OH242689   6.351   0.955  10.268
 6165TIP3    H142690   6.275   0.908  10.306
 6165TIP3    H242691   6.386   0.888  10.205
 6166TIP3   OH242692   6.242   0.732  11.416
 6166TIP3    H142693   6.180   0.806  11.432
 6166TIP3    H242694   6.312   0.782  11.370
 6167TIP3   OH242695   6.480   0.783  10.076
 6167TIP3    H142696   6.503   0.754   9.986
 6167TIP3    H242697   6.568   0.784  10.118
 6168TIP3   OH242698   6.788   1.034  11.801
 6168TIP3    H142699   6.870   0.992  11.768
 6168TIP3    H242700   6.740   0.956  11.833
 6169TIP3   OH242701   7.339   0.977  19.971
 6169TIP3    H142702   7.381   0.897  19.934
 6169TIP3    H242703   7.413   1.042  19.959
 6170TIP3   OH242704   6.334   0.512  11.544
 6170TIP3    H142705   6.343   0.447  11.471
 6170TIP3    H242706   6.326   0.595  11.491
 6171TIP3   OH242707   6.351   0.328  11.338
 6171TIP3    H142708   6.410   0.374  11.274
 6171TIP3    H242709   6.265   0.340  11.293
 6172TIP3   OH242710   6.467   0.872  11.332
 6172TIP3    H142711   6.563   0.885  11.324
 6172TIP3    H242712   6.431   0.951  11.286
 6173TIP3   OH242713   6.941   0.617  11.816
 6173TIP3    H142714   6.960   0.523  11.806
 6173TIP3    H242715   7.019   0.657  11.773
 6174TIP3   OH242716   7.069   0.947  11.709
 6174TIP3    H142717   7.043   0.993  11.626
 6174TIP3    H242718   7.161   0.920  11.686
 6175TIP3   OH242719   6.155   0.590  11.761
 6175TIP3    H142720   6.082   0.525  11.748
 6175TIP3    H242721   6.215   0.565  11.688
 6176TIP3   OH242722   6.438   0.081  11.288
 6176TIP3    H142723   6.417   0.173  11.318
 6176TIP3    H242724   6.346   0.051  11.284
 6177TIP3   OH242725   6.562   0.491  11.719
 6177TIP3    H142726   6.517   0.469  11.803
 6177TIP3    H242727   6.489   0.473  11.657
 6178TIP3   OH242728   6.846   0.399  11.636
 6178TIP3    H142729   6.750   0.395  11.655
 6178TIP3    H242730   6.881   0.338  11.705
 6179TIP3   OH242731   7.000   0.300  11.853
 6179TIP3    H142732   6.986   0.202  11.854
 6179TIP3    H242733   6.966   0.324  11.942
 6180TIP3   OH242734   5.951   0.413  11.772
 6180TIP3    H142735   5.937   0.340  11.710
 6180TIP3    H242736   5.931   0.369  11.858
 6181TIP3   OH242737   6.407   0.074  11.596
 6181TIP3    H142738   6.404  -0.023  11.613
 6181TIP3    H242739   6.484   0.086  11.538
 6182TIP3   OH242740   6.493   0.171  11.850
 6182TIP3    H142741   6.472   0.137  11.761
 6182TIP3    H242742   6.429   0.244  11.859
 6183TIP3   OH242743   6.406   1.841  10.191
 6183TIP3    H142744   6.503   1.852  10.194
 6183TIP3    H242745   6.381   1.898  10.117
 6184TIP3   OH242746   5.794   1.324  10.142
 6184TIP3    H142747   5.892   1.323  10.154
 6184TIP3    H242748   5.783   1.271  10.061
 6185TIP3   OH242749   5.665   1.822  10.602
 6185TIP3    H142750   5.590   1.769  10.568
 6185TIP3    H242751   5.697   1.767  10.676
 6186TIP3   OH242752   5.752   1.655  10.801
 6186TIP3    H142753   5.692   1.584  10.831
 6186TIP3    H242754   5.814   1.660  10.877
 6187TIP3   OH242755   7.553   1.711  11.111
 6187TIP3    H142756   7.548   1.722  11.207
 6187TIP3    H242757   7.553   1.804  11.085
 6188TIP3   OH242758   7.452   1.693  11.400
 6188TIP3    H142759   7.405   1.617  11.359
 6188TIP3    H242760   7.494   1.649  11.476
 6189TIP3   OH242761   7.313   1.253  11.880
 6189TIP3    H142762   7.224   1.267  11.919
 6189TIP3    H242763   7.350   1.343  11.885
 6190TIP3   OH242764   7.435   1.100  10.377
 6190TIP3    H142765   7.519   1.146  10.388
 6190TIP3    H242766   7.440   1.031  10.446
 6191TIP3   OH242767   7.462   0.904  10.582
 6191TIP3    H142768   7.368   0.878  10.588
 6191TIP3    H242769   7.491   0.888  10.673
 6192TIP3   OH242770   7.448   1.178  11.094
 6192TIP3    H142771   7.531   1.146  11.053
 6192TIP3    H242772   7.454   1.272  11.068
 6193TIP3   OH242773   7.307   1.465  11.311
 6193TIP3    H142774   7.229   1.507  11.350
 6193TIP3    H242775   7.279   1.451  11.218
 6194TIP3   OH242776   7.493   0.910  10.186
 6194TIP3    H142777   7.420   0.934  10.127
 6194TIP3    H242778   7.491   0.988  10.245
 6195TIP3   OH242779   7.339   0.618  10.101
 6195TIP3    H142780   7.282   0.662  10.035
 6195TIP3    H242781   7.332   0.525  10.072
 6196TIP3   OH242782   7.243   0.774  10.660
 6196TIP3    H142783   7.254   0.680  10.637
 6196TIP3    H242784   7.222   0.772  10.756
 6197TIP3   OH242785   5.746   1.000  11.058
 6197TIP3    H142786   5.757   0.973  10.964
 6197TIP3    H242787   5.836   0.980  11.093
 6198TIP3   OH242788   7.334   0.952  11.624
 6198TIP3    H142789   7.401   0.884  11.599
 6198TIP3    H242790   7.382   1.035  11.602
 6199TIP3   OH242791   7.482   0.740  11.618
 6199TIP3    H142792   7.403   0.733  11.677
 6199TIP3    H242793   7.525   0.655  11.639
 6200TIP3   OH242794   7.242   0.368   9.993
 6200TIP3    H142795   7.317   0.320  10.032
 6200TIP3    H242796   7.171   0.304  10.010
 6201TIP3   OH242797   7.247   0.541  10.459
 6201TIP3    H142798   7.277   0.454  10.492
 6201TIP3    H242799   7.331   0.571  10.417
 6202TIP3   OH242800   7.243   0.569  11.045
 6202TIP3    H142801   7.335   0.565  11.010
 6202TIP3    H242802   7.260   0.561  11.141
 6203TIP3   OH242803   7.296   0.639  11.307
 6203TIP3    H142804   7.203   0.667  11.312
 6203TIP3    H242805   7.341   0.724  11.286
 6204TIP3   OH242806   5.736   0.523  11.618
 6204TIP3    H142807   5.814   0.512  11.674
 6204TIP3    H242808   5.685   0.442  11.642
 6205TIP3   OH242809   7.573   0.052  11.850
 6205TIP3    H142810   7.660   0.062  11.808
 6205TIP3    H242811   7.520   0.111  11.792
 6206TIP3   OH242812   7.291   0.282  10.515
 6206TIP3    H142813   7.305   0.223  10.593
 6206TIP3    H242814   7.202   0.250  10.485
 6207TIP3   OH242815   5.830   0.357  10.985
 6207TIP3    H142816   5.873   0.271  10.999
 6207TIP3    H242817   5.908   0.415  10.981
 6208TIP3   OH242818   5.678   0.645  11.062
 6208TIP3    H142819   5.739   0.619  10.990
 6208TIP3    H242820   5.737   0.700  11.115
 6209TIP3   OH242821   7.459   0.237  11.693
 6209TIP3    H142822   7.382   0.292  11.722
 6209TIP3    H242823   7.432   0.216  11.601
 6210TIP3   OH242824   7.485   0.293  10.137
 6210TIP3    H142825   7.504   0.216  10.083
 6210TIP3    H242826   7.563   0.349  10.122
 6211TIP3   OH242827   5.683   0.257  10.493
 6211TIP3    H142828   5.591   0.282  10.473
 6211TIP3    H242829   5.728   0.299  10.417
 6212TIP3   OH242830   7.175   1.731  10.663
 6212TIP3    H142831   7.232   1.717  10.584
 6212TIP3    H242832   7.237   1.774  10.722
 6213TIP3   OH242833   5.729   0.153  11.278
 6213TIP3    H142834   5.667   0.166  11.352
 6213TIP3    H242835   5.687   0.209  11.209
 6214TIP3   OH242836   5.935   1.429  11.691
 6214TIP3    H142837   5.845   1.447  11.656
 6214TIP3    H242838   5.920   1.395  11.780
 6215TIP3   OH242839   6.214   1.585  11.357
 6215TIP3    H142840   6.213   1.676  11.321
 6215TIP3    H242841   6.309   1.564  11.348
 6216TIP3   OH242842   6.625   1.692  11.607
 6216TIP3    H142843   6.635   1.670  11.701
 6216TIP3    H242844   6.715   1.726  11.587
 6217TIP3   OH242845   6.851   1.839  11.573
 6217TIP3    H142846   6.932   1.806  11.533
 6217TIP3    H242847   6.883   1.876  11.659
 6218TIP3   OH242848   7.369   0.126  11.474
 6218TIP3    H142849   7.282   0.150  11.440
 6218TIP3    H242850   7.359   0.029  11.480
 6219TIP3   OH242851   5.944   1.864  11.335
 6219TIP3    H142852   5.884   1.933  11.300
 6219TIP3    H242853   5.931   1.875  11.430
 6220TIP3   OH242854   6.184   1.828  11.223
 6220TIP3    H142855   6.090   1.844  11.249
 6220TIP3    H242856   6.194   1.889  11.148
 6221TIP3   OH242857   6.673   1.793  11.152
 6221TIP3    H142858   6.608   1.835  11.094
 6221TIP3    H242859   6.684   1.863  11.220
 6222TIP3   OH242860   6.863   1.659  11.298
 6222TIP3    H142861   6.796   1.696  11.237
 6222TIP3    H242862   6.937   1.722  11.285
 6223TIP3   OH242863   7.121   1.791  11.256
 6223TIP3    H142864   7.141   1.883  11.236
 6223TIP3    H242865   7.166   1.748  11.179
 6224TIP3   OH242866   5.910   1.709  11.021
 6224TIP3    H142867   5.895   1.652  11.100
 6224TIP3    H242868   6.002   1.681  10.996
 6225TIP3   OH242869   6.132   1.614  10.907
 6225TIP3    H142870   6.121   1.518  10.924
 6225TIP3    H242871   6.221   1.626  10.946
 6226TIP3   OH242872   6.366   1.613  11.033
 6226TIP3    H142873   6.401   1.523  11.021
 6226TIP3    H242874   6.373   1.624  11.130
 6227TIP3   OH242875   6.708   0.280  10.916
 6227TIP3    H142876   6.658   0.196  10.919
 6227TIP3    H242877   6.771   0.258  10.844
 6228TIP3   OH242878   7.187   0.099  10.908
 6228TIP3    H142879   7.237   0.116  10.826
 6228TIP3    H242880   7.105   0.058  10.875
 6229TIP3   OH242881   7.368   0.097  10.697
 6229TIP3    H142882   7.440   0.040  10.667
 6229TIP3    H242883   7.415   0.163  10.753
 6230TIP3   OH242884   5.936   0.110  10.682
 6230TIP3    H142885   5.884   0.128  10.602
 6230TIP3    H242886   5.943   0.012  10.675
 6231TIP3   OH242887   5.859   0.110  10.327
 6231TIP3    H142888   5.883   0.151  10.241
 6231TIP3    H242889   5.763   0.125  10.329
 6232TIP3   OH242890   6.398   0.109  10.653
 6232TIP3    H142891   6.478   0.142  10.608
 6232TIP3    H242892   6.427   0.121  10.746
 6233TIP3   OH242893   6.921   0.149  10.761
 6233TIP3    H142894   6.977   0.163  10.682
 6233TIP3    H242895   6.929   0.053  10.775
 6234TIP3   OH242896   7.081   0.166  10.400
 6234TIP3    H142897   6.988   0.193  10.389
 6234TIP3    H242898   7.080   0.076  10.364
 6235TIP3   OH242899   5.813   1.644  10.354
 6235TIP3    H142900   5.726   1.644  10.308
 6235TIP3    H242901   5.832   1.738  10.346
 6236TIP3   OH242902   5.978   0.188  10.099
 6236TIP3    H142903   6.059   0.140  10.078
 6236TIP3    H242904   6.012   0.273  10.130
 6237TIP3   OH242905   6.493   0.298  10.357
 6237TIP3    H142906   6.535   0.231  10.412
 6237TIP3    H242907   6.524   0.377  10.406
 6238TIP3   OH242908   6.697   1.781  10.153
 6238TIP3    H142909   6.794   1.793  10.141
 6238TIP3    H242910   6.677   1.723  10.077
 6239TIP3   OH242911   7.350   1.710  10.470
 6239TIP3    H142912   7.337   1.620  10.433
 6239TIP3    H242913   7.355   1.767  10.390
 6240TIP3   OH242914   5.889   0.107  11.673
 6240TIP3    H142915   5.897   0.021  11.630
 6240TIP3    H242916   5.976   0.114  11.718
 6241TIP3   OH242917   6.125   0.091  11.797
 6241TIP3    H142918   6.215   0.128  11.799
 6241TIP3    H242919   6.146   0.003  11.755
 6242TIP3   OH242920   6.029   1.773  10.111
 6242TIP3    H142921   5.965   1.795  10.180
 6242TIP3    H242922   6.061   1.685  10.135
 6243TIP3   OH242923   6.963   0.046  11.801
 6243TIP3    H142924   6.942  -0.050  11.810
 6243TIP3    H242925   7.042   0.041  11.747
 6244TIP3   OH242926   7.280   1.557  11.645
 6244TIP3    H142927   7.215   1.568  11.573
 6244TIP3    H242928   7.285   1.650  11.675
 6245TIP3   OH242929   7.558   0.647  10.572
 6245TIP3    H142930   7.553   0.744  10.570
 6245TIP3    H242931   7.522   0.627  10.483
 6246TIP3   OH242932   7.575   1.117  11.330
 6246TIP3    H142933   7.526   1.110  11.244
 6246TIP3    H242934   7.592   1.022  11.351
 6247TIP3   OH242935   7.542   1.412  11.012
 6247TIP3    H142936   7.636   1.409  10.981
 6247TIP3    H242937   7.545   1.485  11.075
 6248TIP3   OH242938   7.528   0.328  10.740
 6248TIP3    H142939   7.614   0.371  10.762
 6248TIP3    H242940   7.530   0.340  10.643
 6249TIP3   OH242941   7.593   0.876  11.423
 6249TIP3    H142942   7.571   0.823  11.503
 6249TIP3    H242943   7.519   0.848  11.364
 6250TIP3   OH242944   7.620   1.052  11.760
 6250TIP3    H142945   7.563   1.024  11.834
 6250TIP3    H242946   7.556   1.096  11.700
 6251TIP3   OH242947   7.508   1.836  10.644
 6251TIP3    H142948   7.450   1.788  10.580
 6251TIP3    H242949   7.530   1.759  10.702
 6252TIP3   OH242950   7.554   1.614  10.797
 6252TIP3    H142951   7.520   1.524  10.810
 6252TIP3    H242952   7.595   1.628  10.884
 6253TIP3   OH242953   7.608   0.945  11.069
 6253TIP3    H142954   7.614   0.931  10.974
 6253TIP3    H242955   7.697   0.983  11.084
 6254TIP3   OH242956   7.526   0.489  11.649
 6254TIP3    H142957   7.619   0.518  11.659
 6254TIP3    H242958   7.526   0.393  11.662
 6255TIP3   OH242959   7.497   0.609  10.983
 6255TIP3    H142960   7.592   0.592  10.971
 6255TIP3    H242961   7.508   0.673  11.056
 6256TIP3   OH242962   7.552   0.300  10.456
 6256TIP3    H142963   7.455   0.292  10.466
 6256TIP3    H242964   7.560   0.301  10.359
 6257TIP3   OH242965   7.521   0.171  11.264
 6257TIP3    H142966   7.463   0.175  11.344
 6257TIP3    H242967   7.483   0.241  11.206
 6258TIP3   OH242968   1.229   2.881  10.676
 6258TIP3    H142969   1.225   2.973  10.709
 6258TIP3    H242970   1.156   2.882  10.611
 6259TIP3   OH242971   1.097   2.748  11.000
 6259TIP3    H142972   1.078   2.692  11.078
 6259TIP3    H242973   1.034   2.715  10.932
 6260TIP3   OH242974   0.336   2.760  11.143
 6260TIP3    H142975   0.332   2.677  11.192
 6260TIP3    H242976   0.391   2.813  11.203
 6261TIP3   OH242977   1.405   3.074  10.869
 6261TIP3    H142978   1.391   3.000  10.931
 6261TIP3    H242979   1.431   3.145  10.929
 6262TIP3   OH242980   0.358   3.210  10.980
 6262TIP3    H142981   0.337   3.115  10.961
 6262TIP3    H242982   0.454   3.202  10.986
 6263TIP3   OH242983   0.145   2.562  10.541
 6263TIP3    H142984   0.116   2.618  10.614
 6263TIP3    H242985   0.061   2.512  10.528
 6264TIP3   OH242986   0.111   2.771  10.802
 6264TIP3    H142987   0.163   2.694  10.834
 6264TIP3    H242988   0.177   2.816  10.747
 6265TIP3   OH242989   1.190   3.634  10.892
 6265TIP3    H142990   1.249   3.573  10.841
 6265TIP3    H242991   1.129   3.569  10.928
 6266TIP3   OH242992   0.914   3.004  11.092
 6266TIP3    H142993   0.951   2.983  11.006
 6266TIP3    H242994   0.992   3.045  11.136
 6267TIP3   OH242995   1.774   2.172  11.110
 6267TIP3    H142996   1.789   2.231  11.187
 6267TIP3    H242997   1.852   2.193  11.056
 6268TIP3   OH242998   1.286   2.470  11.110
 6268TIP3    H142999   1.291   2.374  11.125
 6268TIP3    H243000   1.263   2.467  11.015
 6269TIP3   OH243001   0.580   2.268  10.796
 6269TIP3    H143002   0.598   2.347  10.740
 6269TIP3    H243003   0.537   2.211  10.730
 6270TIP3   OH243004   1.318   2.292  10.650
 6270TIP3    H143005   1.365   2.263  10.732
 6270TIP3    H243006   1.383   2.352  10.612
 6271TIP3   OH243007   0.275   2.552  10.861
 6271TIP3    H143008   0.324   2.489  10.918
 6271TIP3    H243009   0.282   2.504  10.776
 6272TIP3   OH243010   0.660   2.679  10.825
 6272TIP3    H143011   0.749   2.650  10.851
 6272TIP3    H243012   0.638   2.607  10.761
 6273TIP3   OH243013   1.797   2.322  11.332
 6273TIP3    H143014   1.757   2.406  11.297
 6273TIP3    H243015   1.829   2.355  11.417
 6274TIP3   OH243016   0.457   2.176  11.208
 6274TIP3    H143017   0.435   2.227  11.128
 6274TIP3    H243018   0.395   2.218  11.273
 6275TIP3   OH243019   1.148   3.140  10.554
 6275TIP3    H143020   1.138   3.132  10.457
 6275TIP3    H243021   1.113   3.231  10.568
 6276TIP3   OH243022   0.687   2.950  11.225
 6276TIP3    H143023   0.631   3.027  11.248
 6276TIP3    H243024   0.761   2.992  11.176
 6277TIP3   OH243025   1.492   2.257  10.853
 6277TIP3    H143026   1.488   2.176  10.904
 6277TIP3    H243027   1.575   2.297  10.885
 6278TIP3   OH243028   0.412   2.369  11.006
 6278TIP3    H143029   0.471   2.434  11.051
 6278TIP3    H243030   0.470   2.339  10.932
 6279TIP3   OH243031   0.555   3.178  11.297
 6279TIP3    H143032   0.531   3.260  11.252
 6279TIP3    H243033   0.470   3.156  11.342
 6280TIP3   OH243034   0.098   3.103  10.386
 6280TIP3    H143035   0.110   3.143  10.297
 6280TIP3    H243036   0.138   3.168  10.447
 6281TIP3   OH243037   1.508   3.280  11.056
 6281TIP3    H143038   1.415   3.296  11.082
 6281TIP3    H243039   1.529   3.369  11.023
 6282TIP3   OH243040   1.495   2.135  11.187
 6282TIP3    H143041   1.422   2.170  11.132
 6282TIP3    H243042   1.573   2.154  11.132
 6283TIP3   OH243043   0.820   1.926  10.927
 6283TIP3    H143044   0.789   1.837  10.948
 6283TIP3    H243045   0.748   1.980  10.968
 6284TIP3   OH243046   1.336   3.463  10.741
 6284TIP3    H143047   1.349   3.380  10.692
 6284TIP3    H243048   1.419   3.509  10.713
 6285TIP3   OH243049   1.445   3.248  10.588
 6285TIP3    H143050   1.437   3.176  10.523
 6285TIP3    H243051   1.435   3.196  10.669
 6286TIP3   OH243052   1.603   3.109  11.439
 6286TIP3    H143053   1.625   3.040  11.372
 6286TIP3    H243054   1.610   3.189  11.383
 6287TIP3   OH243055   1.079   2.836  10.415
 6287TIP3    H143056   1.020   2.911  10.390
 6287TIP3    H243057   1.156   2.850  10.357
 6288TIP3   OH243058   1.106   2.667  10.126
 6288TIP3    H143059   1.174   2.711  10.183
 6288TIP3    H243060   1.154   2.583  10.110
 6289TIP3   OH243061   1.809   2.759  11.230
 6289TIP3    H143062   1.738   2.826  11.233
 6289TIP3    H243063   1.869   2.801  11.165
 6290TIP3   OH243064   1.431   2.790  10.514
 6290TIP3    H143065   1.364   2.832  10.574
 6290TIP3    H243066   1.496   2.756  10.580
 6291TIP3   OH243067   1.440   2.633  11.426
 6291TIP3    H143068   1.429   2.724  11.461
 6291TIP3    H243069   1.379   2.635  11.350
 6292TIP3   OH243070   0.561   2.898  10.706
 6292TIP3    H143071   0.515   2.862  10.627
 6292TIP3    H243072   0.586   2.816  10.754
 6293TIP3   OH243073   0.708   3.195  10.959
 6293TIP3    H143074   0.723   3.191  10.863
 6293TIP3    H243075   0.781   3.142  10.994
 6294TIP3   OH243076   0.637   2.731  11.085
 6294TIP3    H143077   0.651   2.743  10.988
 6294TIP3    H243078   0.645   2.820  11.124
 6295TIP3   OH243079   1.254   3.320  11.135
 6295TIP3    H143080   1.235   3.387  11.203
 6295TIP3    H243081   1.202   3.245  11.169
 6296TIP3   OH243082   0.703   3.208  11.520
 6296TIP3    H143083   0.624   3.248  11.562
 6296TIP3    H243084   0.670   3.195  11.428
 6297TIP3   OH243085   1.301   2.762  10.282
 6297TIP3    H143086   1.348   2.766  10.369
 6297TIP3    H243087   1.366   2.809  10.224
 6298TIP3   OH243088   0.449   2.818  11.420
 6298TIP3    H143089   0.442   2.902  11.471
 6298TIP3    H243090   0.358   2.787  11.420
 6299TIP3   OH243091   1.063   3.408  10.563
 6299TIP3    H143092   1.096   3.443  10.646
 6299TIP3    H243093   1.014   3.481  10.523
 6300TIP3   OH243094   0.517   3.381  11.609
 6300TIP3    H143095   0.504   3.401  11.514
 6300TIP3    H243096   0.423   3.368  11.636
 6301TIP3   OH243097   1.701   1.902  10.300
 6301TIP3    H143098   1.603   1.897  10.314
 6301TIP3    H243099   1.709   1.994  10.270
 6302TIP3   OH243100   0.430   2.761  10.485
 6302TIP3    H143101   0.408   2.826  10.415
 6302TIP3    H243102   0.417   2.676  10.442
 6303TIP3   OH243103   1.787   3.372  10.121
 6303TIP3    H143104   1.818   3.465  10.128
 6303TIP3    H243105   1.871   3.323  10.135
 6304TIP3   OH243106   0.170   2.995  11.359
 6304TIP3    H143107   0.076   2.999  11.330
 6304TIP3    H243108   0.179   2.903  11.389
 6305TIP3   OH243109   0.126   3.338  10.986
 6305TIP3    H143110   0.200   3.272  10.993
 6305TIP3    H243111   0.139   3.387  11.069
 6306TIP3   OH243112   1.881   3.367  11.615
 6306TIP3    H143113   1.868   3.273  11.594
 6306TIP3    H243114   1.792   3.387  11.651
 6307TIP3   OH243115   0.950   3.310  11.496
 6307TIP3    H143116   0.964   3.389  11.552
 6307TIP3    H243117   0.856   3.285  11.513
 6308TIP3   OH243118   0.998   3.686  10.438
 6308TIP3    H143119   1.024   3.705  10.346
 6308TIP3    H243120   1.015   3.772  10.482
 6309TIP3   OH243121   0.400   3.547  10.647
 6309TIP3    H143122   0.425   3.534  10.742
 6309TIP3    H243123   0.303   3.548  10.657
 6310TIP3   OH243124   1.299   3.672  10.181
 6310TIP3    H143125   1.350   3.598  10.141
 6310TIP3    H243126   1.331   3.671  10.271
 6311TIP3   OH243127   1.281   3.618  10.470
 6311TIP3    H143128   1.184   3.613  10.477
 6311TIP3    H243129   1.308   3.530  10.501
 6312TIP3   OH243130   1.553   2.497  11.655
 6312TIP3    H143131   1.522   2.548  11.577
 6312TIP3    H243132   1.571   2.411  11.612
 6313TIP3   OH243133   0.311   3.210  11.427
 6313TIP3    H143134   0.323   3.180  11.519
 6313TIP3    H243135   0.253   3.137  11.395
 6314TIP3   OH243136   0.596   2.034  11.027
 6314TIP3    H143137   0.511   2.039  10.978
 6314TIP3    H243138   0.568   2.072  11.112
 6315TIP3   OH243139   1.053   1.956  11.352
 6315TIP3    H143140   1.084   1.911  11.433
 6315TIP3    H243141   0.955   1.953  11.361
 6316TIP3   OH243142   1.342   2.387  11.469
 6316TIP3    H143143   1.306   2.362  11.557
 6316TIP3    H243144   1.372   2.479  11.480
 6317TIP3   OH243145   1.465   2.873  10.120
 6317TIP3    H143146   1.429   2.876  10.028
 6317TIP3    H243147   1.559   2.891  10.097
 6318TIP3   OH243148   1.026   2.240  10.128
 6318TIP3    H143149   0.978   2.204  10.207
 6318TIP3    H243150   0.973   2.201  10.059
 6319TIP3   OH243151   0.585   2.489  11.177
 6319TIP3    H143152   0.501   2.501  11.226
 6319TIP3    H243153   0.604   2.581  11.146
 6320TIP3   OH243154   0.605   2.486  10.645
 6320TIP3    H143155   0.506   2.488  10.634
 6320TIP3    H243156   0.634   2.468  10.554
 6321TIP3   OH243157   1.154   2.600  10.551
 6321TIP3    H143158   1.120   2.677  10.499
 6321TIP3    H243159   1.215   2.560  10.486
 6322TIP3   OH243160   1.013   2.605  11.681
 6322TIP3    H143161   0.975   2.522  11.721
 6322TIP3    H243162   1.100   2.604  11.724
 6323TIP3   OH243163   1.245   2.520  10.816
 6323TIP3    H143164   1.227   2.605  10.770
 6323TIP3    H243165   1.252   2.462  10.737
 6324TIP3   OH243166   0.344   2.498  11.301
 6324TIP3    H143167   0.317   2.542  11.382
 6324TIP3    H243168   0.316   2.406  11.319
 6325TIP3   OH243169   0.655   2.204  10.024
 6325TIP3    H143170   0.640   2.224  10.117
 6325TIP3    H243171   0.595   2.263   9.976
 6326TIP3   OH243172   0.123   2.285  10.717
 6326TIP3    H143173   0.156   2.233  10.794
 6326TIP3    H243174   0.126   2.223  10.643
 6327TIP3   OH243175   0.108   2.308  10.253
 6327TIP3    H143176   0.181   2.350  10.205
 6327TIP3    H243177   0.053   2.385  10.270
 6328TIP3   OH243178   1.121   2.618  11.257
 6328TIP3    H143179   1.196   2.578  11.209
 6328TIP3    H243180   1.091   2.544  11.313
 6329TIP3   OH243181   0.866   2.256  10.749
 6329TIP3    H143182   0.776   2.269  10.783
 6329TIP3    H243183   0.912   2.218  10.825
 6330TIP3   OH243184   0.349   2.429  10.630
 6330TIP3    H143185   0.268   2.455  10.578
 6330TIP3    H243186   0.343   2.330  10.623
 6331TIP3   OH243187   0.683   2.414  10.385
 6331TIP3    H143188   0.774   2.445  10.401
 6331TIP3    H243189   0.645   2.486  10.330
 6332TIP3   OH243190   1.270   2.197  11.071
 6332TIP3    H143191   1.210   2.184  11.147
 6332TIP3    H243192   1.231   2.141  11.002
 6333TIP3   OH243193   0.590   2.577  10.190
 6333TIP3    H143194   0.514   2.539  10.141
 6333TIP3    H243195   0.657   2.590  10.120
 6334TIP3   OH243196   1.572   3.772  11.720
 6334TIP3    H143197   1.597   3.822  11.641
 6334TIP3    H243198   1.655   3.779  11.769
 6335TIP3   OH243199   0.416   3.021  11.620
 6335TIP3    H143200   0.478   3.028  11.695
 6335TIP3    H243201   0.337   2.983  11.663
 6336TIP3   OH243202   0.935   2.532  10.905
 6336TIP3    H143203   1.023   2.520  10.865
 6336TIP3    H243204   0.922   2.445  10.945
 6337TIP3   OH243205   0.402   2.171  10.594
 6337TIP3    H143206   0.348   2.094  10.623
 6337TIP3    H243207   0.409   2.155  10.499
 6338TIP3   OH243208   0.818   2.362  11.168
 6338TIP3    H143209   0.736   2.415  11.161
 6338TIP3    H243210   0.879   2.424  11.209
 6339TIP3   OH243211   0.895   3.026  10.366
 6339TIP3    H143212   0.819   2.979  10.324
 6339TIP3    H243213   0.857   3.038  10.456
 6340TIP3   OH243214   1.619   2.951  11.234
 6340TIP3    H143215   1.673   3.006  11.171
 6340TIP3    H243216   1.540   2.937  11.179
 6341TIP3   OH243217   1.278   2.293  10.176
 6341TIP3    H143218   1.180   2.287  10.165
 6341TIP3    H243219   1.290   2.382  10.215
 6342TIP3   OH243220   1.001   3.039  11.487
 6342TIP3    H143221   0.959   3.030  11.573
 6342TIP3    H243222   0.996   3.136  11.475
 6343TIP3   OH243223   1.336   2.498  10.333
 6343TIP3    H143224   1.416   2.472  10.383
 6343TIP3    H243225   1.364   2.584  10.296
 6344TIP3   OH243226   0.410   2.957  10.922
 6344TIP3    H143227   0.451   2.951  10.834
 6344TIP3    H243228   0.442   2.876  10.966
 6345TIP3   OH243229   1.119   3.159  10.276
 6345TIP3    H143230   1.076   3.247  10.281
 6345TIP3    H243231   1.042   3.100  10.290
 6346TIP3   OH243232   0.184   2.725  11.429
 6346TIP3    H143233   0.178   2.724  11.526
 6346TIP3    H243234   0.088   2.722  11.408
 6347TIP3   OH243235   0.794   2.754  11.647
 6347TIP3    H143236   0.726   2.688  11.626
 6347TIP3    H243237   0.863   2.702  11.692
 6348TIP3   OH243238   1.293   3.277  11.504
 6348TIP3    H143239   1.212   3.285  11.454
 6348TIP3    H243240   1.265   3.317  11.590
 6349TIP3   OH243241   1.838   2.498  10.324
 6349TIP3    H143242   1.765   2.476  10.262
 6349TIP3    H243243   1.836   2.596  10.315
 6350TIP3   OH243244   1.847   3.074  11.572
 6350TIP3    H143245   1.760   3.096  11.532
 6350TIP3    H243246   1.906   3.072  11.493
 6351TIP3   OH243247   1.683   3.341  10.372
 6351TIP3    H143248   1.597   3.296  10.370
 6351TIP3    H243249   1.706   3.346  10.276
 6352TIP3   OH243250   1.372   2.866  11.044
 6352TIP3    H143251   1.281   2.842  11.020
 6352TIP3    H243252   1.419   2.790  11.004
 6353TIP3   OH243253   0.613   3.289  10.682
 6353TIP3    H143254   0.643   3.374  10.644
 6353TIP3    H243255   0.520   3.287  10.656
 6354TIP3   OH243256   0.237   2.747  10.138
 6354TIP3    H143257   0.290   2.819  10.176
 6354TIP3    H243258   0.147   2.771  10.162
 6355TIP3   OH243259   0.761   3.064  10.616
 6355TIP3    H143260   0.705   3.144  10.623
 6355TIP3    H243261   0.707   2.997  10.662
 6356TIP3   OH243262   0.839   3.460  11.290
 6356TIP3    H143263   0.893   3.535  11.256
 6356TIP3    H243264   0.899   3.420  11.356
 6357TIP3   OH243265   0.666   3.539  10.580
 6357TIP3    H143266   0.570   3.542  10.598
 6357TIP3    H243267   0.692   3.631  10.597
 6358TIP3   OH243268   1.129   3.086  11.227
 6358TIP3    H143269   1.102   3.044  11.311
 6358TIP3    H243270   1.198   3.026  11.193
 6359TIP3   OH243271   1.427   3.177  10.129
 6359TIP3    H143272   1.433   3.132  10.216
 6359TIP3    H243273   1.331   3.173  10.120
 6360TIP3   OH243274   1.467   3.522  11.458
 6360TIP3    H143275   1.381   3.477  11.460
 6360TIP3    H243276   1.463   3.580  11.379
 6361TIP3   OH243277   1.865   3.629  10.166
 6361TIP3    H143278   1.931   3.697  10.142
 6361TIP3    H243279   1.802   3.686  10.218
 6362TIP3   OH243280   0.279   2.265  11.404
 6362TIP3    H143281   0.251   2.313  11.485
 6362TIP3    H243282   0.270   2.173  11.431
 6363TIP3   OH243283   1.495   3.045  10.360
 6363TIP3    H143284   1.487   2.949  10.348
 6363TIP3    H243285   1.590   3.056  10.344
 6364TIP3   OH243286   0.243   3.450  11.222
 6364TIP3    H143287   0.305   3.377  11.238
 6364TIP3    H243288   0.217   3.471  11.312
 6365TIP3   OH243289   0.670   3.232  10.221
 6365TIP3    H143290   0.752   3.195  10.258
 6365TIP3    H243291   0.678   3.326  10.250
 6366TIP3   OH243292   0.348   2.961  10.284
 6366TIP3    H143293   0.269   3.006  10.319
 6366TIP3    H243294   0.396   3.034  10.242
 6367TIP3   OH243295   1.140   2.227  11.329
 6367TIP3    H143296   1.223   2.244  11.377
 6367TIP3    H243297   1.114   2.137  11.357
 6368TIP3   OH243298   1.229   2.154  10.438
 6368TIP3    H143299   1.252   2.218  10.368
 6368TIP3    H243300   1.276   2.193  10.516
 6369TIP3   OH243301   0.985   3.407  10.258
 6369TIP3    H143302   0.899   3.431  10.297
 6369TIP3    H243303   1.027   3.494  10.248
 6370TIP3   OH243304   0.952   2.375  10.521
 6370TIP3    H143305   1.010   2.451  10.539
 6370TIP3    H243306   0.916   2.353  10.609
 6371TIP3   OH243307   1.025   2.441  11.439
 6371TIP3    H143308   1.054   2.412  11.528
 6371TIP3    H243309   1.061   2.364  11.387
 6372TIP3   OH243310   1.011   2.048  10.563
 6372TIP3    H143311   0.971   2.128  10.603
 6372TIP3    H243312   1.093   2.089  10.524
 6373TIP3   OH243313   0.713   3.488  10.297
 6373TIP3    H143314   0.727   3.577  10.257
 6373TIP3    H243315   0.693   3.514  10.389
 6374TIP3   OH243316   0.559   2.175  10.304
 6374TIP3    H143317   0.578   2.260  10.349
 6374TIP3    H243318   0.641   2.126  10.324
 6375TIP3   OH243319   1.591   2.268  11.515
 6375TIP3    H143320   1.497   2.270  11.488
 6375TIP3    H243321   1.634   2.265  11.427
 6376TIP3   OH243322   1.476   2.624  10.910
 6376TIP3    H143323   1.397   2.568  10.895
 6376TIP3    H243324   1.537   2.562  10.955
 6377TIP3   OH243325   0.412   3.218  10.138
 6377TIP3    H143326   0.493   3.245  10.185
 6377TIP3    H243327   0.452   3.152  10.078
 6378TIP3   OH243328   0.316   2.481  10.130
 6378TIP3    H143329   0.307   2.575  10.157
 6378TIP3    H243330   0.241   2.481  10.066
 6379TIP3   OH243331   1.569   3.571  11.060
 6379TIP3    H143332   1.573   3.627  10.981
 6379TIP3    H243333   1.665   3.565  11.080
 6380TIP3   OH243334   0.334   1.977  10.957
 6380TIP3    H143335   0.326   1.955  10.861
 6380TIP3    H243336   0.307   1.890  10.996
 6381TIP3   OH243337   0.207   3.326  10.513
 6381TIP3    H143338   0.128   3.374  10.540
 6381TIP3    H243339   0.259   3.395  10.470
 6382TIP3   OH243340   0.162   3.644  11.686
 6382TIP3    H143341   0.223   3.647  11.763
 6382TIP3    H243342   0.128   3.555  11.700
 6383TIP3   OH243343   0.620   3.554  11.818
 6383TIP3    H143344   0.700   3.510  11.850
 6383TIP3    H243345   0.596   3.501  11.740
 6384TIP3   OH243346   1.007   3.449   9.964
 6384TIP3    H143347   0.946   3.387  10.005
 6384TIP3    H243348   1.090   3.424  10.007
 6385TIP3   OH243349   1.234   3.391  11.735
 6385TIP3    H143350   1.199   3.304  11.766
 6385TIP3    H243351   1.321   3.392  11.781
 6386TIP3   OH243352   1.410   3.439  10.086
 6386TIP3    H143353   1.436   3.346  10.099
 6386TIP3    H243354   1.471   3.474  10.019
 6387TIP3   OH243355   0.198   3.035  11.831
 6387TIP3    H143356   0.241   2.953  11.860
 6387TIP3    H243357   0.113   2.999  11.793
 6388TIP3   OH243358   0.606   2.998  10.064
 6388TIP3    H143359   0.616   2.960  10.154
 6388TIP3    H243360   0.694   3.035  10.052
 6389TIP3   OH243361   0.786   3.028  11.707
 6389TIP3    H143362   0.772   3.079  11.623
 6389TIP3    H243363   0.790   2.934  11.680
 6390TIP3   OH243364   1.357   2.986  11.486
 6390TIP3    H143365   1.443   3.032  11.481
 6390TIP3    H243366   1.304   3.064  11.511
 6391TIP3   OH243367   0.233   2.720  11.753
 6391TIP3    H143368   0.308   2.659  11.760
 6391TIP3    H243369   0.213   2.738  11.848
 6392TIP3   OH243370   0.699   2.862  10.270
 6392TIP3    H143371   0.636   2.804  10.316
 6392TIP3    H243372   0.741   2.799  10.207
 6393TIP3   OH243373   0.634   2.629  11.436
 6393TIP3    H143374   0.558   2.679  11.473
 6393TIP3    H243375   0.639   2.676  11.352
 6394TIP3   OH243376   0.831   2.678  10.065
 6394TIP3    H143377   0.849   2.650   9.974
 6394TIP3    H243378   0.922   2.675  10.103
 6395TIP3   OH243379   1.136   2.906  11.779
 6395TIP3    H143380   1.205   2.854  11.732
 6395TIP3    H243381   1.099   2.840  11.839
 6396TIP3   OH243382   1.702   2.890  19.999
 6396TIP3    H143383   1.762   2.853  19.933
 6396TIP3    H243384   1.737   2.981  20.002
 6397TIP3   OH243385   0.681   2.390  11.531
 6397TIP3    H143386   0.689   2.319  11.463
 6397TIP3    H243387   0.669   2.471  11.476
 6398TIP3   OH243388   0.699   2.193  11.344
 6398TIP3    H143389   0.730   2.234  11.260
 6398TIP3    H243390   0.603   2.180  11.328
 6399TIP3   OH243391   0.861   2.771  11.308
 6399TIP3    H143392   0.926   2.816  11.253
 6399TIP3    H243393   0.785   2.832  11.295
 6400TIP3   OH243394   1.308   2.498  11.851
 6400TIP3    H143395   1.319   2.402  11.857
 6400TIP3    H243396   1.394   2.526  11.813
 6401TIP3   OH243397   1.422   2.822  11.679
 6401TIP3    H143398   1.392   2.878  11.604
 6401TIP3    H243399   1.517   2.818  11.659
 6402TIP3   OH243400   0.446   2.511  11.688
 6402TIP3    H143401   0.404   2.426  11.708
 6402TIP3    H243402   0.523   2.479  11.638
 6403TIP3   OH243403   0.778   1.937  11.370
 6403TIP3    H143404   0.754   2.032  11.362
 6403TIP3    H243405   0.714   1.896  11.309
 6404TIP3   OH243406   0.881   2.382  11.754
 6404TIP3    H143407   0.829   2.341  11.826
 6404TIP3    H243408   0.823   2.361  11.678
 6405TIP3   OH243409   1.160   2.298  11.656
 6405TIP3    H143410   1.080   2.260  11.695
 6405TIP3    H243411   1.227   2.250  11.710
 6406TIP3   OH243412   1.312   2.152  11.826
 6406TIP3    H143413   1.316   2.055  11.833
 6406TIP3    H243414   1.302   2.180  11.920
 6407TIP3   OH243415   0.294   2.265  11.764
 6407TIP3    H143416   0.322   2.179  11.728
 6407TIP3    H243417   0.263   2.239  11.854
 6408TIP3   OH243418   0.777   1.881  11.662
 6408TIP3    H143419   0.861   1.832  11.657
 6408TIP3    H243420   0.760   1.891  11.567
 6409TIP3   OH243421   0.807   2.071  11.861
 6409TIP3    H143422   0.793   1.991  11.805
 6409TIP3    H243423   0.735   2.133  11.834
 6410TIP3   OH243424   0.760   3.728  10.193
 6410TIP3    H143425   0.856   3.735  10.201
 6410TIP3    H243426   0.742   3.766  10.106
 6411TIP3   OH243427   0.154   3.161  10.120
 6411TIP3    H143428   0.247   3.193  10.122
 6411TIP3    H243429   0.160   3.088  10.057
 6412TIP3   OH243430   0.086   3.697  10.578
 6412TIP3    H143431  -0.004   3.730  10.597
 6412TIP3    H243432   0.105   3.647  10.660
 6413TIP3   OH243433   0.169   3.544  10.798
 6413TIP3    H143434   0.166   3.450  10.822
 6413TIP3    H243435   0.199   3.584  10.881
 6414TIP3   OH243436   1.849   3.603  11.070
 6414TIP3    H143437   1.875   3.619  11.162
 6414TIP3    H243438   1.908   3.663  11.023
 6415TIP3   OH243439   1.788   3.571  11.365
 6415TIP3    H143440   1.747   3.495  11.317
 6415TIP3    H243441   1.814   3.525  11.447
 6416TIP3   OH243442   1.664   3.146  11.853
 6416TIP3    H143443   1.568   3.152  11.870
 6416TIP3    H243444   1.698   3.224  11.903
 6417TIP3   OH243445   1.761   3.000  10.362
 6417TIP3    H143446   1.849   3.036  10.387
 6417TIP3    H243447   1.735   2.952  10.442
 6418TIP3   OH243448   1.818   2.805  10.600
 6418TIP3    H143449   1.731   2.765  10.625
 6418TIP3    H243450   1.863   2.808  10.687
 6419TIP3   OH243451   1.778   3.079  11.064
 6419TIP3    H143452   1.844   3.011  11.041
 6419TIP3    H243453   1.815   3.158  11.022
 6420TIP3   OH243454   1.647   3.350  11.298
 6420TIP3    H143455   1.580   3.391  11.356
 6420TIP3    H243456   1.595   3.327  11.218
 6421TIP3   OH243457   1.865   2.784  10.213
 6421TIP3    H143458   1.799   2.808  10.145
 6421TIP3    H243459   1.856   2.860  10.273
 6422TIP3   OH243460   1.626   2.475  10.140
 6422TIP3    H143461   1.608   2.543  10.073
 6422TIP3    H243462   1.667   2.408  10.083
 6423TIP3   OH243463   1.602   2.661  10.675
 6423TIP3    H143464   1.590   2.568  10.652
 6423TIP3    H243465   1.573   2.660  10.768
 6424TIP3   OH243466   0.149   2.933  11.015
 6424TIP3    H143467   0.150   2.874  10.936
 6424TIP3    H243468   0.235   2.908  11.056
 6425TIP3   OH243469   1.709   2.845  11.613
 6425TIP3    H143470   1.753   2.758  11.625
 6425TIP3    H243471   1.780   2.909  11.589
 6426TIP3   OH243472   1.812   2.598  11.643
 6426TIP3    H143473   1.726   2.569  11.680
 6426TIP3    H243474   1.872   2.522  11.660
 6427TIP3   OH243475   1.606   2.246   9.971
 6427TIP3    H143476   1.662   2.204  10.038
 6427TIP3    H243477   1.518   2.222  10.000
 6428TIP3   OH243478   1.548   2.412  10.483
 6428TIP3    H143479   1.570   2.319  10.506
 6428TIP3    H243480   1.635   2.437  10.448
 6429TIP3   OH243481   1.650   2.449  11.034
 6429TIP3    H143482   1.747   2.467  11.040
 6429TIP3    H243483   1.623   2.462  11.126
 6430TIP3   OH243484   1.655   2.537  11.294
 6430TIP3    H143485   1.580   2.570  11.346
 6430TIP3    H243486   1.704   2.620  11.270
 6431TIP3   OH243487   0.114   2.361  11.591
 6431TIP3    H143488   0.186   2.383  11.653
 6431TIP3    H243489   0.115   2.263  11.595
 6432TIP3   OH243490   1.857   1.941  11.812
 6432TIP3    H143491   1.908   1.879  11.756
 6432TIP3    H243492   1.853   2.022  11.755
 6433TIP3   OH243493   1.638   2.158  10.515
 6433TIP3    H143494   1.676   2.111  10.593
 6433TIP3    H243495   1.588   2.085  10.473
 6434TIP3   OH243496   0.183   2.204  10.979
 6434TIP3    H143497   0.238   2.123  10.991
 6434TIP3    H243498   0.245   2.276  10.998
 6435TIP3   OH243499   0.085   2.510  11.059
 6435TIP3    H143500   0.155   2.510  10.992
 6435TIP3    H243501   0.101   2.592  11.107
 6436TIP3   OH243502   1.778   2.144  11.661
 6436TIP3    H143503   1.708   2.208  11.638
 6436TIP3    H243504   1.785   2.102  11.573
 6437TIP3   OH243505   1.817   2.163  10.154
 6437TIP3    H143506   1.861   2.116  10.082
 6437TIP3    H243507   1.889   2.224  10.181
 6438TIP3   OH243508   0.095   2.145  10.458
 6438TIP3    H143509  -0.002   2.149  10.459
 6438TIP3    H243510   0.108   2.191  10.372
 6439TIP3   OH243511   1.525   3.620  10.660
 6439TIP3    H143512   1.598   3.601  10.598
 6439TIP3    H243513   1.564   3.681  10.725
 6440TIP3   OH243514   0.068   1.967  11.291
 6440TIP3    H143515  -0.013   1.990  11.339
 6440TIP3    H243516   0.056   2.014  11.208
 6441TIP3   OH243517   0.264   3.323  11.694
 6441TIP3    H143518   0.179   3.312  11.649
 6441TIP3    H243519   0.258   3.269  11.774
 6442TIP3   OH243520   0.568   3.466  11.347
 6442TIP3    H143521   0.568   3.556  11.307
 6442TIP3    H243522   0.663   3.447  11.350
 6443TIP3   OH243523   0.973   3.575  11.602
 6443TIP3    H143524   0.980   3.550  11.697
 6443TIP3    H243525   1.059   3.621  11.589
 6444TIP3   OH243526   1.190   3.730  11.564
 6444TIP3    H143527   1.266   3.688  11.521
 6444TIP3    H243528   1.230   3.766  11.647
 6445TIP3   OH243529   1.718   1.945  11.451
 6445TIP3    H143530   1.634   1.970  11.409
 6445TIP3    H243531   1.730   1.855  11.414
 6446TIP3   OH243532   0.321   3.782  11.329
 6446TIP3    H143533   0.233   3.812  11.297
 6446TIP3    H243534   0.300   3.763  11.422
 6447TIP3   OH243535   0.557   3.712  11.223
 6447TIP3    H143536   0.463   3.729  11.250
 6447TIP3    H243537   0.561   3.774  11.148
 6448TIP3   OH243538   0.996   3.672  11.163
 6448TIP3    H143539   0.968   3.734  11.095
 6448TIP3    H243540   1.035   3.736  11.227
 6449TIP3   OH243541   1.220   3.546  11.291
 6449TIP3    H143542   1.154   3.582  11.228
 6449TIP3    H243543   1.295   3.604  11.268
 6450TIP3   OH243544   1.467   3.715  11.256
 6450TIP3    H143545   1.482   3.805  11.220
 6450TIP3    H243546   1.510   3.663  11.184
 6451TIP3   OH243547   0.284   3.632  11.028
 6451TIP3    H143548   0.259   3.581  11.109
 6451TIP3    H243549   0.367   3.586  11.001
 6452TIP3   OH243550   0.477   3.499  10.904
 6452TIP3    H143551   0.456   3.405  10.915
 6452TIP3    H243552   0.565   3.501  10.946
 6453TIP3   OH243553   0.707   3.474  11.051
 6453TIP3    H143554   0.746   3.387  11.034
 6453TIP3    H243555   0.725   3.478  11.148
 6454TIP3   OH243556   1.039   2.063  10.896
 6454TIP3    H143557   0.958   2.008  10.911
 6454TIP3    H243558   1.068   2.028  10.811
 6455TIP3   OH243559   1.586   1.875  10.879
 6455TIP3    H143560   1.650   1.937  10.835
 6455TIP3    H243561   1.500   1.910  10.845
 6456TIP3   OH243562   1.749   2.016  10.721
 6456TIP3    H143563   1.812   1.958  10.672
 6456TIP3    H243564   1.807   2.093  10.743
 6457TIP3   OH243565   0.325   1.929  10.677
 6457TIP3    H143566   0.241   1.916  10.627
 6457TIP3    H243567   0.371   1.845  10.657
 6458TIP3   OH243568   0.132   1.957  10.215
 6458TIP3    H143569   0.199   2.015  10.171
 6458TIP3    H243570   0.135   1.989  10.306
 6459TIP3   OH243571   0.739   1.886  10.666
 6459TIP3    H143572   0.805   1.931  10.613
 6459TIP3    H243573   0.768   1.906  10.757
 6460TIP3   OH243574   1.340   1.936  10.784
 6460TIP3    H143575   1.288   1.946  10.704
 6460TIP3    H243576   1.287   1.868  10.832
 6461TIP3   OH243577   1.463   1.930  10.398
 6461TIP3    H143578   1.386   1.986  10.385
 6461TIP3    H243579   1.425   1.860  10.454
 6462TIP3   OH243580   0.194   3.584  10.294
 6462TIP3    H143581   0.102   3.565  10.320
 6462TIP3    H243582   0.192   3.681  10.304
 6463TIP3   OH243583   0.356   2.081  10.119
 6463TIP3    H143584   0.416   2.015  10.079
 6463TIP3    H243585   0.418   2.121  10.182
 6464TIP3   OH243586   0.880   2.142  10.333
 6464TIP3    H143587   0.912   2.080  10.401
 6464TIP3    H243588   0.881   2.227  10.383
 6465TIP3   OH243589   1.040   3.655  10.159
 6465TIP3    H143590   1.137   3.675  10.157
 6465TIP3    H243591   1.032   3.614  10.072
 6466TIP3   OH243592   1.706   3.583  10.481
 6466TIP3    H143593   1.692   3.493  10.445
 6466TIP3    H243594   1.680   3.639  10.405
 6467TIP3   OH243595   0.242   2.006  11.630
 6467TIP3    H143596   0.198   1.918  11.632
 6467TIP3    H243597   0.326   1.988  11.675
 6468TIP3   OH243598   0.480   1.958  11.802
 6468TIP3    H143599   0.572   1.939  11.773
 6468TIP3    H243600   0.454   1.872  11.840
 6469TIP3   OH243601   0.455   3.677  10.120
 6469TIP3    H143602   0.384   3.641  10.176
 6469TIP3    H243603   0.524   3.610  10.128
 6470TIP3   OH243604   1.361   1.879  11.812
 6470TIP3    H143605   1.385   1.786  11.827
 6470TIP3    H243606   1.442   1.906  11.762
 6471TIP3   OH243607   1.645   3.478  11.647
 6471TIP3    H143608   1.572   3.478  11.581
 6471TIP3    H243609   1.629   3.562  11.692
 6472TIP3   OH243610   3.109   2.884  10.678
 6472TIP3    H143611   3.105   2.973  10.719
 6472TIP3    H243612   3.034   2.891  10.617
 6473TIP3   OH243613   2.995   2.758  10.993
 6473TIP3    H143614   2.994   2.722  11.085
 6473TIP3    H243615   2.924   2.708  10.949
 6474TIP3   OH243616   2.174   2.754  11.152
 6474TIP3    H143617   2.183   2.690  11.224
 6474TIP3    H243618   2.260   2.798  11.154
 6475TIP3   OH243619   3.295   3.070  10.859
 6475TIP3    H143620   3.277   2.996  10.920
 6475TIP3    H243621   3.328   3.137  10.921
 6476TIP3   OH243622   2.308   3.225  10.991
 6476TIP3    H143623   2.272   3.135  10.976
 6476TIP3    H243624   2.401   3.206  10.970
 6477TIP3   OH243625   1.965   2.555  10.563
 6477TIP3    H143626   1.930   2.645  10.579
 6477TIP3    H243627   1.940   2.543  10.469
 6478TIP3   OH243628   2.018   2.792  10.815
 6478TIP3    H143629   2.061   2.704  10.824
 6478TIP3    H243630   2.079   2.843  10.760
 6479TIP3   OH243631   3.060   3.623  10.849
 6479TIP3    H143632   3.131   3.564  10.813
 6479TIP3    H243633   3.013   3.556  10.900
 6480TIP3   OH243634   2.798   3.029  11.094
 6480TIP3    H143635   2.827   2.991  11.010
 6480TIP3    H243636   2.886   3.057  11.129
 6481TIP3   OH243637   3.652   2.171  11.100
 6481TIP3    H143638   3.654   2.226  11.181
 6481TIP3    H243639   3.734   2.202  11.058
 6482TIP3   OH243640   3.150   2.478  11.120
 6482TIP3    H143641   3.177   2.385  11.109
 6482TIP3    H243642   3.115   2.493  11.030
 6483TIP3   OH243643   2.446   2.252  10.779
 6483TIP3    H143644   2.459   2.334  10.726
 6483TIP3    H243645   2.397   2.200  10.712
 6484TIP3   OH243646   3.199   2.289  10.645
 6484TIP3    H143647   3.244   2.255  10.726
 6484TIP3    H243648   3.263   2.355  10.615
 6485TIP3   OH243649   2.086   2.537  10.875
 6485TIP3    H143650   2.146   2.488  10.933
 6485TIP3    H243651   2.117   2.505  10.788
 6486TIP3   OH243652   2.589   2.681  10.832
 6486TIP3    H143653   2.680   2.649  10.841
 6486TIP3    H243654   2.544   2.600  10.799
 6487TIP3   OH243655   3.672   2.319  11.322
 6487TIP3    H143656   3.638   2.409  11.299
 6487TIP3    H243657   3.705   2.339  11.411
 6488TIP3   OH243658   2.357   2.183  11.199
 6488TIP3    H143659   2.305   2.223  11.126
 6488TIP3    H243660   2.292   2.192  11.271
 6489TIP3   OH243661   3.034   3.139  10.557
 6489TIP3    H143662   3.025   3.128  10.461
 6489TIP3    H243663   3.014   3.235  10.567
 6490TIP3   OH243664   2.553   2.953  11.195
 6490TIP3    H143665   2.501   3.031  11.224
 6490TIP3    H243666   2.629   2.996  11.148
 6491TIP3   OH243667   3.373   2.244  10.847
 6491TIP3    H143668   3.384   2.162  10.896
 6491TIP3    H243669   3.460   2.283  10.858
 6492TIP3   OH243670   2.295   2.369  10.988
 6492TIP3    H143671   2.352   2.435  11.031
 6492TIP3    H243672   2.354   2.337  10.915
 6493TIP3   OH243673   2.434   3.173  11.297
 6493TIP3    H143674   2.424   3.252  11.242
 6493TIP3    H243675   2.344   3.169  11.337
 6494TIP3   OH243676   2.020   3.098  10.380
 6494TIP3    H143677   2.027   3.160  10.303
 6494TIP3    H243678   2.032   3.159  10.455
 6495TIP3   OH243679   3.394   3.279  11.068
 6495TIP3    H143680   3.300   3.301  11.086
 6495TIP3    H243681   3.420   3.363  11.027
 6496TIP3   OH243682   3.379   2.137  11.187
 6496TIP3    H143683   3.311   2.178  11.130
 6496TIP3    H243684   3.458   2.152  11.131
 6497TIP3   OH243685   2.703   1.929  10.946
 6497TIP3    H143686   2.676   1.836  10.937
 6497TIP3    H243687   2.614   1.969  10.965
 6498TIP3   OH243688   3.234   3.454  10.744
 6498TIP3    H143689   3.249   3.373  10.690
 6498TIP3    H243690   3.310   3.509  10.712
 6499TIP3   OH243691   3.341   3.238  10.588
 6499TIP3    H143692   3.334   3.169  10.518
 6499TIP3    H243693   3.335   3.182  10.667
 6500TIP3   OH243694   3.489   3.118  11.444
 6500TIP3    H143695   3.506   3.049  11.375
 6500TIP3    H243696   3.502   3.198  11.390
 6501TIP3   OH243697   2.944   2.805  10.409
 6501TIP3    H143698   2.896   2.887  10.384
 6501TIP3    H243699   3.029   2.812  10.359
 6502TIP3   OH243700   3.005   2.672  10.119
 6502TIP3    H143701   3.079   2.711  10.172
 6502TIP3    H243702   3.041   2.581  10.107
 6503TIP3   OH243703   3.692   2.757  11.223
 6503TIP3    H143704   3.631   2.832  11.236
 6503TIP3    H243705   3.757   2.799  11.164
 6504TIP3   OH243706   3.316   2.798  10.524
 6504TIP3    H143707   3.248   2.836  10.585
 6504TIP3    H243708   3.379   2.757  10.587
 6505TIP3   OH243709   3.321   2.650  11.417
 6505TIP3    H143710   3.294   2.735  11.455
 6505TIP3    H243711   3.261   2.649  11.341
 6506TIP3   OH243712   2.450   2.874  10.704
 6506TIP3    H143713   2.429   2.851  10.610
 6506TIP3    H243714   2.505   2.798  10.731
 6507TIP3   OH243715   2.593   3.200  10.965
 6507TIP3    H143716   2.604   3.181  10.870
 6507TIP3    H243717   2.668   3.153  11.007
 6508TIP3   OH243718   2.463   2.744  11.065
 6508TIP3    H143719   2.503   2.737  10.975
 6508TIP3    H243720   2.511   2.821  11.104
 6509TIP3   OH243721   3.141   3.323  11.137
 6509TIP3    H143722   3.116   3.377  11.213
 6509TIP3    H243723   3.121   3.233  11.169
 6510TIP3   OH243724   2.599   3.205  11.515
 6510TIP3    H143725   2.526   3.249  11.564
 6510TIP3    H243726   2.553   3.192  11.429
 6511TIP3   OH243727   3.185   2.773  10.292
 6511TIP3    H143728   3.231   2.775  10.379
 6511TIP3    H243729   3.250   2.819  10.233
 6512TIP3   OH243730   2.290   2.791  11.451
 6512TIP3    H143731   2.295   2.887  11.462
 6512TIP3    H243732   2.199   2.776  11.482
 6513TIP3   OH243733   2.952   3.404  10.563
 6513TIP3    H143734   2.958   3.429  10.656
 6513TIP3    H243735   2.902   3.477  10.524
 6514TIP3   OH243736   2.416   3.376  11.606
 6514TIP3    H143737   2.401   3.417  11.517
 6514TIP3    H243738   2.324   3.358  11.632
 6515TIP3   OH243739   3.551   1.868  10.269
 6515TIP3    H143740   3.462   1.878  10.310
 6515TIP3    H243741   3.562   1.958  10.234
 6516TIP3   OH243742   2.349   2.759  10.470
 6516TIP3    H143743   2.305   2.832  10.422
 6516TIP3    H243744   2.313   2.681  10.427
 6517TIP3   OH243745   3.673   3.373  10.114
 6517TIP3    H143746   3.699   3.466  10.126
 6517TIP3    H243747   3.756   3.326  10.133
 6518TIP3   OH243748   1.985   3.045  11.351
 6518TIP3    H143749   1.940   3.055  11.265
 6518TIP3    H243750   2.014   2.951  11.345
 6519TIP3   OH243751   1.947   3.300  11.004
 6519TIP3    H143752   2.044   3.294  10.999
 6519TIP3    H243753   1.937   3.381  11.056
 6520TIP3   OH243754   3.760   3.357  11.593
 6520TIP3    H143755   3.745   3.264  11.570
 6520TIP3    H243756   3.678   3.373  11.646
 6521TIP3   OH243757   2.850   3.313  11.495
 6521TIP3    H143758   2.857   3.402  11.535
 6521TIP3    H243759   2.759   3.284  11.516
 6522TIP3   OH243760   2.891   3.682  10.437
 6522TIP3    H143761   2.907   3.703  10.343
 6522TIP3    H243762   2.903   3.770  10.479
 6523TIP3   OH243763   2.275   3.560  10.651
 6523TIP3    H143764   2.301   3.537  10.743
 6523TIP3    H243765   2.185   3.524  10.648
 6524TIP3   OH243766   3.187   3.664  10.200
 6524TIP3    H143767   3.239   3.595  10.153
 6524TIP3    H243768   3.202   3.634  10.293
 6525TIP3   OH243769   3.165   3.613  10.469
 6525TIP3    H143770   3.068   3.620  10.481
 6525TIP3    H243771   3.183   3.524  10.502
 6526TIP3   OH243772   3.409   2.488  11.669
 6526TIP3    H143773   3.437   2.556  11.606
 6526TIP3    H243774   3.454   2.409  11.635
 6527TIP3   OH243775   2.204   3.163  11.436
 6527TIP3    H143776   2.201   3.130  11.528
 6527TIP3    H243777   2.116   3.132  11.403
 6528TIP3   OH243778   2.464   2.014  11.016
 6528TIP3    H143779   2.372   2.009  10.985
 6528TIP3    H243780   2.452   2.073  11.093
 6529TIP3   OH243781   2.947   1.962  11.340
 6529TIP3    H143782   2.973   1.896  11.407
 6529TIP3    H243783   2.850   1.965  11.354
 6530TIP3   OH243784   3.228   2.395  11.478
 6530TIP3    H143785   3.215   2.402  11.575
 6530TIP3    H243786   3.270   2.483  11.460
 6531TIP3   OH243787   3.349   2.868  10.117
 6531TIP3    H143788   3.312   2.877  10.026
 6531TIP3    H243789   3.442   2.889  10.098
 6532TIP3   OH243790   2.912   2.244  10.115
 6532TIP3    H143791   2.862   2.223  10.197
 6532TIP3    H243792   2.843   2.221  10.051
 6533TIP3   OH243793   2.484   2.499  11.172
 6533TIP3    H143794   2.397   2.493  11.217
 6533TIP3    H243795   2.474   2.587  11.130
 6534TIP3   OH243796   2.466   2.474  10.640
 6534TIP3    H143797   2.371   2.491  10.622
 6534TIP3    H243798   2.506   2.477  10.550
 6535TIP3   OH243799   3.046   2.602  10.555
 6535TIP3    H143800   3.002   2.673  10.503
 6535TIP3    H243801   3.100   2.562  10.485
 6536TIP3   OH243802   2.909   2.594  11.661
 6536TIP3    H143803   2.870   2.513  11.701
 6536TIP3    H243804   2.981   2.612  11.725
 6537TIP3   OH243805   3.117   2.521  10.824
 6537TIP3    H143806   3.118   2.608  10.779
 6537TIP3    H243807   3.118   2.464  10.745
 6538TIP3   OH243808   2.245   2.499  11.286
 6538TIP3    H143809   2.236   2.543  11.373
 6538TIP3    H243810   2.202   2.412  11.303
 6539TIP3   OH243811   2.576   2.262  10.040
 6539TIP3    H143812   2.529   2.226  10.118
 6539TIP3    H243813   2.504   2.290   9.982
 6540TIP3   OH243814   1.909   2.230  10.744
 6540TIP3    H143815   1.981   2.234  10.809
 6540TIP3    H243816   1.956   2.226  10.659
 6541TIP3   OH243817   2.027   2.299  10.269
 6541TIP3    H143818   2.108   2.343  10.234
 6541TIP3    H243819   1.970   2.378  10.274
 6542TIP3   OH243820   3.031   2.680  11.243
 6542TIP3    H143821   3.087   2.611  11.203
 6542TIP3    H243822   2.975   2.627  11.303
 6543TIP3   OH243823   2.753   2.263  10.755
 6543TIP3    H143824   2.658   2.258  10.773
 6543TIP3    H243825   2.794   2.213  10.827
 6544TIP3   OH243826   2.189   2.425  10.650
 6544TIP3    H143827   2.111   2.453  10.597
 6544TIP3    H243828   2.217   2.341  10.611
 6545TIP3   OH243829   2.591   2.438  10.400
 6545TIP3    H143830   2.687   2.450  10.402
 6545TIP3    H243831   2.557   2.500  10.332
 6546TIP3   OH243832   3.146   2.205  11.055
 6546TIP3    H143833   3.057   2.185  11.086
 6546TIP3    H243834   3.146   2.154  10.972
 6547TIP3   OH243835   2.428   2.562  10.206
 6547TIP3    H143836   2.345   2.537  10.163
 6547TIP3    H243837   2.489   2.554  10.131
 6548TIP3   OH243838   3.469   3.774  11.723
 6548TIP3    H143839   3.493   3.810  11.635
 6548TIP3    H243840   3.551   3.795  11.770
 6549TIP3   OH243841   2.221   3.019  11.673
 6549TIP3    H143842   2.298   3.021  11.732
 6549TIP3    H243843   2.145   3.003  11.734
 6550TIP3   OH243844   2.838   2.534  10.936
 6550TIP3    H143845   2.911   2.527  10.872
 6550TIP3    H243846   2.816   2.440  10.949
 6551TIP3   OH243847   2.293   2.149  10.576
 6551TIP3    H143848   2.232   2.085  10.619
 6551TIP3    H243849   2.337   2.088  10.514
 6552TIP3   OH243850   2.707   2.352  11.187
 6552TIP3    H143851   2.627   2.406  11.169
 6552TIP3    H243852   2.775   2.418  11.181
 6553TIP3   OH243853   2.776   3.023  10.370
 6553TIP3    H143854   2.703   2.969  10.332
 6553TIP3    H243855   2.739   3.040  10.459
 6554TIP3   OH243856   3.507   2.952  11.235
 6554TIP3    H143857   3.559   3.011  11.175
 6554TIP3    H243858   3.429   2.935  11.180
 6555TIP3   OH243859   3.163   2.293  10.184
 6555TIP3    H143860   3.067   2.289  10.170
 6555TIP3    H243861   3.175   2.385  10.215
 6556TIP3   OH243862   2.892   3.040  11.487
 6556TIP3    H143863   2.865   3.034  11.580
 6556TIP3    H243864   2.873   3.134  11.472
 6557TIP3   OH243865   3.220   2.508  10.334
 6557TIP3    H143866   3.300   2.480  10.382
 6557TIP3    H243867   3.246   2.595  10.298
 6558TIP3   OH243868   2.294   2.955  10.922
 6558TIP3    H143869   2.335   2.936  10.835
 6558TIP3    H243870   2.316   2.877  10.974
 6559TIP3   OH243871   2.992   3.164  10.287
 6559TIP3    H143872   2.955   3.254  10.297
 6559TIP3    H243873   2.913   3.108  10.304
 6560TIP3   OH243874   2.000   2.771  11.422
 6560TIP3    H143875   1.966   2.729  11.503
 6560TIP3    H243876   1.934   2.740  11.355
 6561TIP3   OH243877   2.674   2.754  11.628
 6561TIP3    H143878   2.601   2.691  11.615
 6561TIP3    H243879   2.754   2.699  11.641
 6562TIP3   OH243880   3.170   3.275  11.496
 6562TIP3    H143881   3.090   3.298  11.447
 6562TIP3    H243882   3.146   3.315  11.583
 6563TIP3   OH243883   3.720   2.497  10.334
 6563TIP3    H143884   3.648   2.473  10.271
 6563TIP3    H243885   3.725   2.593  10.314
 6564TIP3   OH243886   3.731   3.073  11.567
 6564TIP3    H143887   3.641   3.092  11.533
 6564TIP3    H243888   3.785   3.076  11.485
 6565TIP3   OH243889   3.563   3.340  10.358
 6565TIP3    H143890   3.478   3.296  10.363
 6565TIP3    H243891   3.583   3.340  10.262
 6566TIP3   OH243892   3.265   2.858  11.043
 6566TIP3    H143893   3.172   2.833  11.026
 6566TIP3    H243894   3.310   2.789  10.991
 6567TIP3   OH243895   2.507   3.291  10.686
 6567TIP3    H143896   2.529   3.383  10.659
 6567TIP3    H243897   2.415   3.288  10.656
 6568TIP3   OH243898   2.120   2.753  10.095
 6568TIP3    H143899   2.174   2.808  10.155
 6568TIP3    H243900   2.032   2.763  10.136
 6569TIP3   OH243901   2.650   3.051  10.617
 6569TIP3    H143902   2.605   3.137  10.629
 6569TIP3    H243903   2.602   2.994  10.680
 6570TIP3   OH243904   2.710   3.465  11.307
 6570TIP3    H143905   2.770   3.530  11.265
 6570TIP3    H243906   2.772   3.413  11.363
 6571TIP3   OH243907   2.537   3.535  10.571
 6571TIP3    H143908   2.443   3.555  10.593
 6571TIP3    H243909   2.578   3.620  10.599
 6572TIP3   OH243910   3.022   3.076  11.230
 6572TIP3    H143911   2.985   3.051  11.318
 6572TIP3    H243912   3.071   2.995  11.207
 6573TIP3   OH243913   3.307   3.181  10.133
 6573TIP3    H143914   3.303   3.139  10.221
 6573TIP3    H243915   3.213   3.176  10.110
 6574TIP3   OH243916   3.359   3.528  11.467
 6574TIP3    H143917   3.270   3.490  11.472
 6574TIP3    H243918   3.354   3.588  11.389
 6575TIP3   OH243919   3.749   3.622  10.172
 6575TIP3    H143920   3.814   3.688  10.140
 6575TIP3    H243921   3.688   3.683  10.220
 6576TIP3   OH243922   2.174   2.250  11.406
 6576TIP3    H143923   2.110   2.306  11.454
 6576TIP3    H243924   2.179   2.175  11.467
 6577TIP3   OH243925   3.373   3.062  10.368
 6577TIP3    H143926   3.359   2.967  10.359
 6577TIP3    H243927   3.468   3.066  10.345
 6578TIP3   OH243928   2.116   3.437  11.244
 6578TIP3    H143929   2.183   3.368  11.252
 6578TIP3    H243930   2.123   3.480  11.330
 6579TIP3   OH243931   2.558   3.228  10.233
 6579TIP3    H143932   2.639   3.195  10.273
 6579TIP3    H243933   2.566   3.325  10.252
 6580TIP3   OH243934   2.227   2.948  10.281
 6580TIP3    H143935   2.148   2.993  10.318
 6580TIP3    H243936   2.277   3.024  10.244
 6581TIP3   OH243937   3.033   2.232  11.345
 6581TIP3    H143938   3.117   2.274  11.318
 6581TIP3    H243939   3.018   2.161  11.281
 6582TIP3   OH243940   3.114   2.143  10.435
 6582TIP3    H143941   3.133   2.206  10.364
 6582TIP3    H243942   3.159   2.186  10.511
 6583TIP3   OH243943   2.871   3.405  10.262
 6583TIP3    H143944   2.791   3.413  10.316
 6583TIP3    H243945   2.883   3.499  10.235
 6584TIP3   OH243946   2.843   2.371  10.524
 6584TIP3    H143947   2.888   2.455  10.541
 6584TIP3    H243948   2.805   2.345  10.611
 6585TIP3   OH243949   2.925   2.481  11.396
 6585TIP3    H143950   2.976   2.498  11.478
 6585TIP3    H243951   2.961   2.392  11.374
 6586TIP3   OH243952   2.896   2.049  10.571
 6586TIP3    H143953   2.860   2.126  10.617
 6586TIP3    H243954   2.976   2.090  10.530
 6587TIP3   OH243955   2.597   3.482  10.306
 6587TIP3    H143956   2.618   3.568  10.264
 6587TIP3    H243957   2.570   3.509  10.397
 6588TIP3   OH243958   2.461   2.178  10.288
 6588TIP3    H143959   2.454   2.260  10.339
 6588TIP3    H243960   2.554   2.156  10.307
 6589TIP3   OH243961   3.471   2.263  11.509
 6589TIP3    H143962   3.382   2.291  11.480
 6589TIP3    H243963   3.520   2.253  11.424
 6590TIP3   OH243964   3.357   2.622  10.906
 6590TIP3    H143965   3.280   2.562  10.898
 6590TIP3    H243966   3.421   2.568  10.957
 6591TIP3   OH243967   2.302   3.193  10.171
 6591TIP3    H143968   2.392   3.215  10.202
 6591TIP3    H243969   2.317   3.190  10.075
 6592TIP3   OH243970   2.137   2.488  10.111
 6592TIP3    H143971   2.141   2.586  10.111
 6592TIP3    H243972   2.067   2.470  10.046
 6593TIP3   OH243973   3.462   3.557  11.058
 6593TIP3    H143974   3.459   3.616  10.979
 6593TIP3    H243975   3.560   3.558  11.069
 6594TIP3   OH243976   2.207   1.966  10.965
 6594TIP3    H143977   2.204   1.955  10.867
 6594TIP3    H243978   2.180   1.875  10.993
 6595TIP3   OH243979   2.073   3.353  10.566
 6595TIP3    H143980   1.994   3.409  10.569
 6595TIP3    H243981   2.111   3.387  10.484
 6596TIP3   OH243982   2.010   3.632  11.684
 6596TIP3    H143983   2.071   3.619  11.760
 6596TIP3    H243984   1.974   3.542  11.673
 6597TIP3   OH243985   2.497   3.523  11.837
 6597TIP3    H143986   2.581   3.481  11.863
 6597TIP3    H243987   2.480   3.482  11.751
 6598TIP3   OH243988   2.891   3.441   9.961
 6598TIP3    H143989   2.825   3.377   9.992
 6598TIP3    H243990   2.968   3.409  10.010
 6599TIP3   OH243991   3.125   3.390  11.734
 6599TIP3    H143992   3.087   3.303  11.763
 6599TIP3    H243993   3.211   3.390  11.779
 6600TIP3   OH243994   3.315   3.443  10.105
 6600TIP3    H143995   3.336   3.348  10.102
 6600TIP3    H243996   3.360   3.479  10.027
 6601TIP3   OH243997   1.976   3.018  11.802
 6601TIP3    H143998   1.938   2.929  11.811
 6601TIP3    H243999   1.933   3.047  11.718
 6602TIP3   OH244000   2.495   2.956  10.041
 6602TIP3    H144001   2.503   2.920  10.132
 6602TIP3    H244002   2.569   3.019  10.046
 6603TIP3   OH244003   2.681   3.018  11.711
 6603TIP3    H144004   2.664   3.071  11.631
 6603TIP3    H244005   2.693   2.926  11.677
 6604TIP3   OH244006   3.240   3.002  11.495
 6604TIP3    H144007   3.325   3.053  11.498
 6604TIP3    H244008   3.178   3.077  11.499
 6605TIP3   OH244009   2.119   2.707  11.771
 6605TIP3    H144010   2.196   2.647  11.774
 6605TIP3    H244011   2.136   2.766  11.847
 6606TIP3   OH244012   2.584   2.849  10.268
 6606TIP3    H144013   2.512   2.794  10.307
 6606TIP3    H244014   2.621   2.788  10.201
 6607TIP3   OH244015   2.495   2.638  11.437
 6607TIP3    H144016   2.414   2.688  11.460
 6607TIP3    H244017   2.515   2.684  11.354
 6608TIP3   OH244018   2.715   2.676  10.070
 6608TIP3    H144019   2.731   2.640   9.982
 6608TIP3    H244020   2.805   2.671  10.110
 6609TIP3   OH244021   3.027   2.869  11.794
 6609TIP3    H144022   3.110   2.839  11.754
 6609TIP3    H244023   3.009   2.797  11.858
 6610TIP3   OH244024   3.590   2.869  19.995
 6610TIP3    H144025   3.632   2.835  19.915
 6610TIP3    H244026   3.622   2.962  19.987
 6611TIP3   OH244027   2.553   2.374  11.527
 6611TIP3    H144028   2.570   2.294  11.471
 6611TIP3    H244029   2.457   2.382  11.515
 6612TIP3   OH244030   2.587   2.178  11.342
 6612TIP3    H144031   2.632   2.229  11.270
 6612TIP3    H244032   2.495   2.177  11.307
 6613TIP3   OH244033   2.723   2.758  11.312
 6613TIP3    H144034   2.800   2.814  11.292
 6613TIP3    H244035   2.654   2.827  11.306
 6614TIP3   OH244036   3.148   2.520  11.837
 6614TIP3    H144037   3.178   2.428  11.832
 6614TIP3    H244038   3.233   2.567  11.830
 6615TIP3   OH244039   3.324   2.826  11.683
 6615TIP3    H144040   3.286   2.881  11.611
 6615TIP3    H244041   3.419   2.824  11.659
 6616TIP3   OH244042   2.385   2.471  11.765
 6616TIP3    H144043   2.301   2.420  11.758
 6616TIP3    H244044   2.442   2.425  11.701
 6617TIP3   OH244045   2.674   1.926  11.344
 6617TIP3    H144046   2.638   2.016  11.350
 6617TIP3    H244047   2.600   1.880  11.302
 6618TIP3   OH244048   2.777   2.371  11.734
 6618TIP3    H144049   2.749   2.347  11.824
 6618TIP3    H244050   2.705   2.333  11.682
 6619TIP3   OH244051   3.030   2.284  11.659
 6619TIP3    H144052   2.942   2.314  11.690
 6619TIP3    H244053   3.067   2.244  11.741
 6620TIP3   OH244054   3.196   2.139  11.795
 6620TIP3    H144055   3.213   2.046  11.821
 6620TIP3    H244056   3.182   2.180  11.884
 6621TIP3   OH244057   2.190   2.282  11.760
 6621TIP3    H144058   2.182   2.193  11.718
 6621TIP3    H244059   2.194   2.260  11.856
 6622TIP3   OH244060   2.653   1.903  11.635
 6622TIP3    H144061   2.719   1.833  11.648
 6622TIP3    H244062   2.651   1.906  11.537
 6623TIP3   OH244063   2.695   2.034  11.869
 6623TIP3    H144064   2.669   1.990  11.784
 6623TIP3    H244065   2.632   2.110  11.867
 6624TIP3   OH244066   2.635   3.719  10.192
 6624TIP3    H144067   2.732   3.719  10.197
 6624TIP3    H244068   2.617   3.760  10.106
 6625TIP3   OH244069   2.030   3.226  10.136
 6625TIP3    H144070   2.127   3.208  10.142
 6625TIP3    H244071   2.001   3.170  10.062
 6626TIP3   OH244072   1.908   3.705  10.605
 6626TIP3    H144073   1.829   3.658  10.570
 6626TIP3    H244074   1.934   3.645  10.679
 6627TIP3   OH244075   1.987   3.536  10.800
 6627TIP3    H144076   1.932   3.459  10.825
 6627TIP3    H244077   2.044   3.549  10.878
 6628TIP3   OH244078   3.727   3.608  11.068
 6628TIP3    H144079   3.760   3.617  11.159
 6628TIP3    H244080   3.802   3.644  11.019
 6629TIP3   OH244081   3.681   3.567  11.375
 6629TIP3    H144082   3.639   3.497  11.320
 6629TIP3    H244083   3.702   3.514  11.454
 6630TIP3   OH244084   3.531   3.154  11.861
 6630TIP3    H144085   3.448   3.158  11.914
 6630TIP3    H244086   3.581   3.226  11.905
 6631TIP3   OH244087   3.636   2.994  10.361
 6631TIP3    H144088   3.723   3.030  10.389
 6631TIP3    H244089   3.614   2.935  10.436
 6632TIP3   OH244090   3.689   2.809  10.602
 6632TIP3    H144091   3.605   2.761  10.619
 6632TIP3    H244092   3.721   2.826  10.692
 6633TIP3   OH244093   3.661   3.084  11.064
 6633TIP3    H144094   3.723   3.014  11.035
 6633TIP3    H244095   3.697   3.162  11.019
 6634TIP3   OH244096   3.538   3.349  11.300
 6634TIP3    H144097   3.468   3.391  11.354
 6634TIP3    H244098   3.487   3.322  11.220
 6635TIP3   OH244099   3.748   2.784  10.205
 6635TIP3    H144100   3.678   2.803  10.139
 6635TIP3    H244101   3.738   2.861  10.263
 6636TIP3   OH244102   3.525   2.454  10.143
 6636TIP3    H144103   3.491   2.508  10.069
 6636TIP3    H244104   3.592   2.403  10.094
 6637TIP3   OH244105   3.489   2.652  10.673
 6637TIP3    H144106   3.466   2.561  10.648
 6637TIP3    H244107   3.455   2.653  10.765
 6638TIP3   OH244108   1.971   2.885  11.062
 6638TIP3    H144109   1.979   2.853  10.969
 6638TIP3    H244110   2.055   2.847  11.097
 6639TIP3   OH244111   3.599   2.840  11.614
 6639TIP3    H144112   3.636   2.749  11.612
 6639TIP3    H244113   3.673   2.902  11.593
 6640TIP3   OH244114   3.669   2.568  11.608
 6640TIP3    H144115   3.633   2.542  11.696
 6640TIP3    H244116   3.746   2.507  11.607
 6641TIP3   OH244117   3.501   2.231   9.960
 6641TIP3    H144118   3.556   2.200  10.035
 6641TIP3    H244119   3.412   2.225   9.998
 6642TIP3   OH244120   3.430   2.418  10.489
 6642TIP3    H144121   3.452   2.324  10.504
 6642TIP3    H244122   3.516   2.447  10.454
 6643TIP3   OH244123   3.539   2.465  11.036
 6643TIP3    H144124   3.636   2.479  11.053
 6643TIP3    H244125   3.510   2.469  11.129
 6644TIP3   OH244126   3.542   2.543  11.295
 6644TIP3    H144127   3.463   2.573  11.345
 6644TIP3    H244128   3.588   2.630  11.279
 6645TIP3   OH244129   1.965   2.371  11.649
 6645TIP3    H144130   2.048   2.370  11.701
 6645TIP3    H244131   1.916   2.297  11.689
 6646TIP3   OH244132   3.734   1.883  11.851
 6646TIP3    H144133   3.781   1.820  11.791
 6646TIP3    H244134   3.738   1.962  11.794
 6647TIP3   OH244135   3.521   2.169  10.497
 6647TIP3    H144136   3.559   2.133  10.578
 6647TIP3    H244137   3.468   2.093  10.465
 6648TIP3   OH244138   2.068   2.203  11.015
 6648TIP3    H144139   2.107   2.114  11.011
 6648TIP3    H244140   2.141   2.262  10.988
 6649TIP3   OH244141   1.911   2.518  11.073
 6649TIP3    H144142   1.963   2.489  10.996
 6649TIP3    H244143   1.960   2.598  11.096
 6650TIP3   OH244144   3.717   2.126  11.713
 6650TIP3    H144145   3.645   2.164  11.768
 6650TIP3    H244146   3.674   2.111  11.627
 6651TIP3   OH244147   3.708   2.167  10.145
 6651TIP3    H144148   3.754   2.129  10.069
 6651TIP3    H244149   3.779   2.222  10.184
 6652TIP3   OH244150   1.929   2.132  10.463
 6652TIP3    H144151   1.839   2.165  10.476
 6652TIP3    H244152   1.954   2.175  10.379
 6653TIP3   OH244153   3.409   3.631  10.668
 6653TIP3    H144154   3.482   3.616  10.604
 6653TIP3    H244155   3.443   3.698  10.729
 6654TIP3   OH244156   1.940   1.990  11.291
 6654TIP3    H144157   1.870   1.962  11.353
 6654TIP3    H244158   1.896   2.064  11.245
 6655TIP3   OH244159   2.162   3.312  11.692
 6655TIP3    H144160   2.079   3.352  11.659
 6655TIP3    H244161   2.141   3.281  11.780
 6656TIP3   OH244162   2.444   3.462  11.348
 6656TIP3    H144163   2.449   3.553  11.314
 6656TIP3    H244164   2.539   3.441  11.353
 6657TIP3   OH244165   2.856   3.584  11.613
 6657TIP3    H144166   2.876   3.554  11.703
 6657TIP3    H244167   2.946   3.617  11.588
 6658TIP3   OH244168   3.092   3.702  11.564
 6658TIP3    H144169   3.149   3.696  11.485
 6658TIP3    H244170   3.132   3.772  11.618
 6659TIP3   OH244171   3.612   1.943  11.477
 6659TIP3    H144172   3.539   1.979  11.425
 6659TIP3    H244173   3.628   1.856  11.435
 6660TIP3   OH244174   2.177   3.756  11.323
 6660TIP3    H144175   2.100   3.807  11.290
 6660TIP3    H244176   2.170   3.775  11.418
 6661TIP3   OH244177   2.418   3.709  11.228
 6661TIP3    H144178   2.326   3.726  11.260
 6661TIP3    H244179   2.422   3.771  11.153
 6662TIP3   OH244180   2.885   3.673  11.157
 6662TIP3    H144181   2.845   3.730  11.090
 6662TIP3    H244182   2.912   3.739  11.224
 6663TIP3   OH244183   3.104   3.556  11.304
 6663TIP3    H144184   3.040   3.593  11.240
 6663TIP3    H244185   3.185   3.597  11.269
 6664TIP3   OH244186   3.365   3.697  11.263
 6664TIP3    H144187   3.376   3.783  11.217
 6664TIP3    H244188   3.399   3.639  11.190
 6665TIP3   OH244189   2.139   3.596  11.023
 6665TIP3    H144190   2.112   3.544  11.103
 6665TIP3    H244191   2.229   3.559  11.005
 6666TIP3   OH244192   2.358   3.494  10.898
 6666TIP3    H144193   2.349   3.398  10.920
 6666TIP3    H244194   2.446   3.513  10.939
 6667TIP3   OH244195   2.593   3.501  11.022
 6667TIP3    H144196   2.620   3.411  10.997
 6667TIP3    H244197   2.607   3.498  11.119
 6668TIP3   OH244198   2.945   2.081  10.903
 6668TIP3    H144199   2.875   2.040  10.956
 6668TIP3    H244200   2.958   2.014  10.835
 6669TIP3   OH244201   3.462   1.894  10.884
 6669TIP3    H144202   3.526   1.950  10.835
 6669TIP3    H244203   3.376   1.923  10.847
 6670TIP3   OH244204   3.634   2.030  10.718
 6670TIP3    H144205   3.692   1.963  10.673
 6670TIP3    H244206   3.698   2.104  10.730
 6671TIP3   OH244207   2.187   1.926  10.684
 6671TIP3    H144208   2.103   1.915  10.637
 6671TIP3    H244209   2.226   1.836  10.673
 6672TIP3   OH244210   2.058   1.923  10.253
 6672TIP3    H144211   2.114   1.991  10.208
 6672TIP3    H244212   2.011   1.976  10.319
 6673TIP3   OH244213   2.622   1.892  10.670
 6673TIP3    H144214   2.707   1.922  10.636
 6673TIP3    H244215   2.602   1.957  10.738
 6674TIP3   OH244216   3.212   1.936  10.777
 6674TIP3    H144217   3.169   1.944  10.692
 6674TIP3    H244218   3.161   1.863  10.821
 6675TIP3   OH244219   3.340   1.932  10.406
 6675TIP3    H144220   3.266   1.992  10.391
 6675TIP3    H244221   3.299   1.858  10.456
 6676TIP3   OH244222   2.056   3.532  10.357
 6676TIP3    H144223   1.965   3.532  10.321
 6676TIP3    H244224   2.079   3.626  10.345
 6677TIP3   OH244225   2.218   2.074  10.101
 6677TIP3    H144226   2.287   2.006  10.106
 6677TIP3    H244227   2.259   2.149  10.147
 6678TIP3   OH244228   2.762   2.177  10.340
 6678TIP3    H144229   2.800   2.114  10.403
 6678TIP3    H244230   2.772   2.260  10.392
 6679TIP3   OH244231   2.924   3.653  10.163
 6679TIP3    H144232   3.020   3.677  10.170
 6679TIP3    H244233   2.926   3.609  10.076
 6680TIP3   OH244234   3.587   3.579  10.484
 6680TIP3    H144235   3.584   3.490  10.440
 6680TIP3    H244236   3.573   3.638  10.408
 6681TIP3   OH244237   2.159   2.021  11.636
 6681TIP3    H144238   2.113   1.935  11.638
 6681TIP3    H244239   2.239   2.002  11.691
 6682TIP3   OH244240   2.354   1.944  11.812
 6682TIP3    H144241   2.445   1.917  11.793
 6682TIP3    H244242   2.318   1.863  11.854
 6683TIP3   OH244243   2.253   3.655  10.109
 6683TIP3    H144244   2.194   3.682  10.182
 6683TIP3    H244245   2.302   3.580  10.144
 6684TIP3   OH244246   3.210   1.875  11.819
 6684TIP3    H144247   3.180   1.818  11.893
 6684TIP3    H244248   3.299   1.840  11.799
 6685TIP3   OH244249   3.541   3.501  11.651
 6685TIP3    H144250   3.483   3.503  11.572
 6685TIP3    H244251   3.507   3.579  11.698
 6686TIP3   OH244252   4.991   2.883  10.662
 6686TIP3    H144253   4.981   2.970  10.706
 6686TIP3    H244254   4.917   2.886  10.599
 6687TIP3   OH244255   4.878   2.756  11.002
 6687TIP3    H144256   4.877   2.722  11.094
 6687TIP3    H244257   4.808   2.702  10.961
 6688TIP3   OH244258   4.061   2.742  11.142
 6688TIP3    H144259   4.062   2.670  11.208
 6688TIP3    H244260   4.143   2.789  11.162
 6689TIP3   OH244261   5.184   3.081  10.868
 6689TIP3    H144262   5.166   3.005  10.926
 6689TIP3    H244263   5.204   3.150  10.934
 6690TIP3   OH244264   4.180   3.226  10.996
 6690TIP3    H144265   4.140   3.139  10.974
 6690TIP3    H244266   4.272   3.203  10.975
 6691TIP3   OH244267   3.858   2.558  10.571
 6691TIP3    H144268   3.818   2.645  10.589
 6691TIP3    H244269   3.815   2.535  10.486
 6692TIP3   OH244270   3.903   2.797  10.819
 6692TIP3    H144271   3.950   2.709  10.820
 6692TIP3    H244272   3.964   2.856  10.774
 6693TIP3   OH244273   4.940   3.630  10.850
 6693TIP3    H144274   5.011   3.571  10.813
 6693TIP3    H244275   4.888   3.562  10.896
 6694TIP3   OH244276   4.675   3.032  11.098
 6694TIP3    H144277   4.706   2.984  11.021
 6694TIP3    H244278   4.762   3.064  11.132
 6695TIP3   OH244279   5.551   2.182  11.097
 6695TIP3    H144280   5.557   2.240  11.176
 6695TIP3    H244281   5.635   2.206  11.053
 6696TIP3   OH244282   5.054   2.484  11.107
 6696TIP3    H144283   5.072   2.390  11.122
 6696TIP3    H244284   5.028   2.480  11.013
 6697TIP3   OH244285   4.314   2.263  10.783
 6697TIP3    H144286   4.328   2.341  10.725
 6697TIP3    H244287   4.298   2.192  10.717
 6698TIP3   OH244288   5.089   2.293  10.660
 6698TIP3    H144289   5.139   2.256  10.738
 6698TIP3    H244290   5.155   2.354  10.624
 6699TIP3   OH244291   3.977   2.536  10.874
 6699TIP3    H144292   4.039   2.518  10.947
 6699TIP3    H244293   4.001   2.467  10.810
 6700TIP3   OH244294   4.491   2.689  10.833
 6700TIP3    H144295   4.582   2.663  10.859
 6700TIP3    H244296   4.456   2.601  10.809
 6701TIP3   OH244297   5.571   2.328  11.333
 6701TIP3    H144298   5.530   2.413  11.305
 6701TIP3    H244299   5.574   2.343  11.429
 6702TIP3   OH244300   4.217   2.168  11.215
 6702TIP3    H144301   4.191   2.225  11.142
 6702TIP3    H244302   4.158   2.199  11.286
 6703TIP3   OH244303   4.909   3.146  10.546
 6703TIP3    H144304   4.894   3.151  10.450
 6703TIP3    H244305   4.893   3.239  10.572
 6704TIP3   OH244306   4.439   2.944  11.188
 6704TIP3    H144307   4.389   3.021  11.222
 6704TIP3    H244308   4.518   2.988  11.148
 6705TIP3   OH244309   5.265   2.242  10.860
 6705TIP3    H144310   5.274   2.158  10.906
 6705TIP3    H244311   5.352   2.281  10.875
 6706TIP3   OH244312   4.183   2.374  11.003
 6706TIP3    H144313   4.255   2.426  11.046
 6706TIP3    H244314   4.230   2.340  10.924
 6707TIP3   OH244315   4.321   3.167  11.297
 6707TIP3    H144316   4.306   3.243  11.239
 6707TIP3    H244317   4.231   3.160  11.340
 6708TIP3   OH244318   3.895   3.093  10.392
 6708TIP3    H144319   3.893   3.147  10.310
 6708TIP3    H244320   3.902   3.162  10.461
 6709TIP3   OH244321   5.280   3.281  11.064
 6709TIP3    H144322   5.189   3.307  11.090
 6709TIP3    H244323   5.307   3.364  11.022
 6710TIP3   OH244324   5.273   2.110  11.191
 6710TIP3    H144325   5.196   2.121  11.131
 6710TIP3    H244326   5.344   2.141  11.132
 6711TIP3   OH244327   4.579   1.925  10.928
 6711TIP3    H144328   4.551   1.835  10.952
 6711TIP3    H244329   4.495   1.973  10.953
 6712TIP3   OH244330   5.114   3.457  10.740
 6712TIP3    H144331   5.131   3.369  10.701
 6712TIP3    H244332   5.194   3.506  10.709
 6713TIP3   OH244333   5.213   3.243  10.595
 6713TIP3    H144334   5.199   3.181  10.521
 6713TIP3    H244335   5.207   3.181  10.671
 6714TIP3   OH244336   5.370   3.108  11.451
 6714TIP3    H144337   5.396   3.040  11.384
 6714TIP3    H244338   5.382   3.188  11.395
 6715TIP3   OH244339   4.838   2.823  10.407
 6715TIP3    H144340   4.784   2.905  10.398
 6715TIP3    H244341   4.912   2.835  10.344
 6716TIP3   OH244342   4.895   2.626  10.122
 6716TIP3    H144343   4.956   2.683  10.173
 6716TIP3    H244344   4.954   2.553  10.095
 6717TIP3   OH244345   5.575   2.753  11.226
 6717TIP3    H144346   5.519   2.832  11.236
 6717TIP3    H244347   5.638   2.787  11.159
 6718TIP3   OH244348   5.198   2.790  10.520
 6718TIP3    H144349   5.128   2.828  10.577
 6718TIP3    H244350   5.263   2.756  10.586
 6719TIP3   OH244351   5.174   2.657  11.415
 6719TIP3    H144352   5.170   2.750  11.444
 6719TIP3    H244353   5.115   2.660  11.338
 6720TIP3   OH244354   4.340   2.872  10.706
 6720TIP3    H144355   4.314   2.845  10.615
 6720TIP3    H244356   4.404   2.801  10.731
 6721TIP3   OH244357   4.474   3.198  10.958
 6721TIP3    H144358   4.489   3.184  10.863
 6721TIP3    H244359   4.551   3.155  11.000
 6722TIP3   OH244360   4.356   2.730  11.061
 6722TIP3    H144361   4.403   2.736  10.975
 6722TIP3    H244362   4.397   2.805  11.111
 6723TIP3   OH244363   5.029   3.326  11.132
 6723TIP3    H144364   4.999   3.379  11.208
 6723TIP3    H244365   5.010   3.235  11.161
 6724TIP3   OH244366   4.474   3.200  11.516
 6724TIP3    H144367   4.409   3.255  11.564
 6724TIP3    H244368   4.430   3.193  11.428
 6725TIP3   OH244369   5.075   2.752  10.285
 6725TIP3    H144370   5.119   2.764  10.373
 6725TIP3    H244371   5.138   2.799  10.225
 6726TIP3   OH244372   4.187   2.796  11.427
 6726TIP3    H144373   4.200   2.885  11.460
 6726TIP3    H244374   4.100   2.774  11.466
 6727TIP3   OH244375   4.834   3.422  10.560
 6727TIP3    H144376   4.861   3.450  10.649
 6727TIP3    H244377   4.793   3.502  10.522
 6728TIP3   OH244378   4.307   3.387  11.609
 6728TIP3    H144379   4.291   3.420  11.518
 6728TIP3    H244380   4.215   3.361  11.632
 6729TIP3   OH244381   5.472   1.906  10.289
 6729TIP3    H144382   5.378   1.906  10.316
 6729TIP3    H244383   5.484   2.000  10.270
 6730TIP3   OH244384   4.241   2.764  10.464
 6730TIP3    H144385   4.204   2.844  10.423
 6730TIP3    H244386   4.200   2.693  10.411
 6731TIP3   OH244387   5.555   3.379  10.126
 6731TIP3    H144388   5.588   3.471  10.133
 6731TIP3    H244389   5.636   3.326  10.131
 6732TIP3   OH244390   3.871   3.038  11.353
 6732TIP3    H144391   3.837   3.031  11.262
 6732TIP3    H244392   3.900   2.945  11.366
 6733TIP3   OH244393   3.837   3.302  10.998
 6733TIP3    H144394   3.931   3.297  11.025
 6733TIP3    H244395   3.805   3.375  11.053
 6734TIP3   OH244396   5.648   3.374  11.601
 6734TIP3    H144397   5.639   3.280  11.579
 6734TIP3    H244398   5.561   3.392  11.642
 6735TIP3   OH244399   4.726   3.310  11.491
 6735TIP3    H144400   4.739   3.393  11.538
 6735TIP3    H244401   4.631   3.287  11.508
 6736TIP3   OH244402   4.779   3.683  10.431
 6736TIP3    H144403   4.804   3.704  10.339
 6736TIP3    H244404   4.791   3.771  10.474
 6737TIP3   OH244405   4.159   3.564  10.655
 6737TIP3    H144406   4.186   3.538  10.746
 6737TIP3    H244407   4.069   3.527  10.653
 6738TIP3   OH244408   5.080   3.660  10.189
 6738TIP3    H144409   5.136   3.590  10.147
 6738TIP3    H244410   5.101   3.643  10.283
 6739TIP3   OH244411   5.053   3.617  10.466
 6739TIP3    H144412   4.956   3.623  10.474
 6739TIP3    H244413   5.068   3.526  10.496
 6740TIP3   OH244414   5.328   2.502  11.646
 6740TIP3    H144415   5.276   2.533  11.570
 6740TIP3    H244416   5.351   2.411  11.618
 6741TIP3   OH244417   4.091   3.154  11.431
 6741TIP3    H144418   4.092   3.117  11.523
 6741TIP3    H244419   4.003   3.125  11.401
 6742TIP3   OH244420   4.351   2.032  11.019
 6742TIP3    H144421   4.261   2.023  10.982
 6742TIP3    H244422   4.328   2.077  11.102
 6743TIP3   OH244423   4.834   1.970  11.341
 6743TIP3    H144424   4.873   1.918  11.414
 6743TIP3    H244425   4.738   1.964  11.363
 6744TIP3   OH244426   5.119   2.385  11.471
 6744TIP3    H144427   5.051   2.359  11.539
 6744TIP3    H244428   5.083   2.470  11.440
 6745TIP3   OH244429   5.235   2.873  10.122
 6745TIP3    H144430   5.194   2.879  10.031
 6745TIP3    H244431   5.329   2.891  10.100
 6746TIP3   OH244432   4.800   2.230  10.133
 6746TIP3    H144433   4.754   2.189  10.210
 6746TIP3    H244434   4.727   2.226  10.070
 6747TIP3   OH244435   4.361   2.487  11.163
 6747TIP3    H144436   4.283   2.489  11.222
 6747TIP3    H244437   4.363   2.583  11.139
 6748TIP3   OH244438   4.332   2.513  10.660
 6748TIP3    H144439   4.324   2.609  10.646
 6748TIP3    H244440   4.385   2.487  10.581
 6749TIP3   OH244441   4.919   2.603  10.537
 6749TIP3    H144442   4.890   2.684  10.487
 6749TIP3    H244443   4.983   2.566  10.473
 6750TIP3   OH244444   4.795   2.608  11.664
 6750TIP3    H144445   4.752   2.522  11.684
 6750TIP3    H244446   4.872   2.603  11.724
 6751TIP3   OH244447   5.020   2.526  10.819
 6751TIP3    H144448   5.005   2.611  10.775
 6751TIP3    H244449   5.014   2.467  10.741
 6752TIP3   OH244450   4.119   2.501  11.298
 6752TIP3    H144451   4.145   2.532  11.386
 6752TIP3    H244452   4.080   2.414  11.318
 6753TIP3   OH244453   4.462   2.245  10.006
 6753TIP3    H144454   4.415   2.244  10.091
 6753TIP3    H244455   4.412   2.307   9.952
 6754TIP3   OH244456   3.797   2.252  10.739
 6754TIP3    H144457   3.849   2.240  10.821
 6754TIP3    H244458   3.805   2.349  10.729
 6755TIP3   OH244459   3.922   2.294  10.269
 6755TIP3    H144460   4.000   2.338  10.230
 6755TIP3    H244461   3.867   2.373  10.280
 6756TIP3   OH244462   4.923   2.668  11.250
 6756TIP3    H144463   4.975   2.601  11.201
 6756TIP3    H244464   4.862   2.611  11.304
 6757TIP3   OH244465   4.640   2.267  10.760
 6757TIP3    H144466   4.559   2.283  10.811
 6757TIP3    H244467   4.698   2.219  10.822
 6758TIP3   OH244468   4.052   2.362  10.623
 6758TIP3    H144469   4.001   2.441  10.595
 6758TIP3    H244470   4.143   2.395  10.633
 6759TIP3   OH244471   4.437   2.427  10.420
 6759TIP3    H144472   4.534   2.427  10.420
 6759TIP3    H244473   4.414   2.485  10.343
 6760TIP3   OH244474   5.054   2.186  11.063
 6760TIP3    H144475   4.982   2.192  11.127
 6760TIP3    H244476   5.013   2.142  10.986
 6761TIP3   OH244477   4.329   2.557  10.200
 6761TIP3    H144478   4.239   2.548  10.164
 6761TIP3    H244479   4.384   2.547  10.120
 6762TIP3   OH244480   5.363   3.755  11.722
 6762TIP3    H144481   5.405   3.784  11.638
 6762TIP3    H244482   5.431   3.783  11.784
 6763TIP3   OH244483   4.111   3.019  11.664
 6763TIP3    H144484   4.190   3.025  11.721
 6763TIP3    H244485   4.042   2.990  11.726
 6764TIP3   OH244486   4.720   2.541  10.924
 6764TIP3    H144487   4.800   2.511  10.878
 6764TIP3    H244488   4.696   2.464  10.977
 6765TIP3   OH244489   4.250   2.085  10.591
 6765TIP3    H144490   4.277   1.993  10.607
 6765TIP3    H244491   4.308   2.103  10.514
 6766TIP3   OH244492   4.593   2.359  11.175
 6766TIP3    H144493   4.514   2.416  11.178
 6766TIP3    H244494   4.658   2.414  11.221
 6767TIP3   OH244495   4.663   3.038  10.372
 6767TIP3    H144496   4.597   2.977  10.332
 6767TIP3    H244497   4.623   3.049  10.461
 6768TIP3   OH244498   5.398   2.961  11.239
 6768TIP3    H144499   5.447   3.014  11.172
 6768TIP3    H244500   5.311   2.954  11.196
 6769TIP3   OH244501   5.053   2.302  10.173
 6769TIP3    H144502   4.955   2.299  10.171
 6769TIP3    H244503   5.071   2.389  10.216
 6770TIP3   OH244504   4.759   3.040  11.464
 6770TIP3    H144505   4.763   3.012  11.556
 6770TIP3    H244506   4.751   3.137  11.475
 6771TIP3   OH244507   5.099   2.496  10.346
 6771TIP3    H144508   5.186   2.469  10.380
 6771TIP3    H244509   5.116   2.587  10.314
 6772TIP3   OH244510   4.176   2.961  10.917
 6772TIP3    H144511   4.229   2.946  10.835
 6772TIP3    H244512   4.200   2.885  10.971
 6773TIP3   OH244513   4.883   3.164  10.265
 6773TIP3    H144514   4.848   3.255  10.274
 6773TIP3    H244515   4.802   3.111  10.284
 6774TIP3   OH244516   3.894   2.758  11.439
 6774TIP3    H144517   3.872   2.724  11.528
 6774TIP3    H244518   3.825   2.717  11.385
 6775TIP3   OH244519   4.550   2.743  11.654
 6775TIP3    H144520   4.508   2.689  11.585
 6775TIP3    H244521   4.641   2.706  11.653
 6776TIP3   OH244522   5.059   3.279  11.489
 6776TIP3    H144523   4.975   3.301  11.446
 6776TIP3    H244524   5.040   3.315  11.578
 6777TIP3   OH244525   5.616   2.496  10.308
 6777TIP3    H144526   5.538   2.480  10.250
 6777TIP3    H244527   5.614   2.594  10.309
 6778TIP3   OH244528   5.617   3.084  11.574
 6778TIP3    H144529   5.526   3.093  11.538
 6778TIP3    H244530   5.672   3.079  11.492
 6779TIP3   OH244531   5.448   3.337  10.369
 6779TIP3    H144532   5.357   3.305  10.368
 6779TIP3    H244533   5.470   3.351  10.275
 6780TIP3   OH244534   5.149   2.857  11.046
 6780TIP3    H144535   5.058   2.830  11.021
 6780TIP3    H244536   5.200   2.785  11.004
 6781TIP3   OH244537   4.393   3.292  10.681
 6781TIP3    H144538   4.423   3.380  10.649
 6781TIP3    H244539   4.301   3.295  10.649
 6782TIP3   OH244540   4.005   2.748  10.098
 6782TIP3    H144541   4.058   2.815  10.144
 6782TIP3    H244542   3.917   2.758  10.139
 6783TIP3   OH244543   4.536   3.059  10.622
 6783TIP3    H144544   4.489   3.144  10.632
 6783TIP3    H244545   4.484   2.998  10.678
 6784TIP3   OH244546   4.600   3.473  11.294
 6784TIP3    H144547   4.663   3.536  11.255
 6784TIP3    H244548   4.658   3.424  11.356
 6785TIP3   OH244549   4.422   3.541  10.580
 6785TIP3    H144550   4.327   3.559  10.598
 6785TIP3    H244551   4.463   3.627  10.604
 6786TIP3   OH244552   4.907   3.067  11.224
 6786TIP3    H144553   4.863   3.041  11.308
 6786TIP3    H244554   4.955   2.985  11.204
 6787TIP3   OH244555   5.167   3.171  10.101
 6787TIP3    H144556   5.201   3.147  10.190
 6787TIP3    H244557   5.074   3.154  10.122
 6788TIP3   OH244558   5.240   3.515  11.447
 6788TIP3    H144559   5.147   3.486  11.437
 6788TIP3    H244560   5.249   3.582  11.374
 6789TIP3   OH244561   5.640   3.626  10.168
 6789TIP3    H144562   5.704   3.698  10.150
 6789TIP3    H244563   5.574   3.679  10.220
 6790TIP3   OH244564   4.058   2.254  11.428
 6790TIP3    H144565   4.017   2.308  11.498
 6790TIP3    H244566   4.027   2.165  11.453
 6791TIP3   OH244567   5.257   3.073  10.336
 6791TIP3    H144568   5.232   2.980  10.322
 6791TIP3    H244569   5.354   3.062  10.346
 6792TIP3   OH244570   4.003   3.440  11.240
 6792TIP3    H144571   4.071   3.372  11.248
 6792TIP3    H244572   4.004   3.478  11.328
 6793TIP3   OH244573   4.437   3.233  10.234
 6793TIP3    H144574   4.525   3.201  10.262
 6793TIP3    H244575   4.444   3.328  10.260
 6794TIP3   OH244576   4.113   2.950  10.277
 6794TIP3    H144577   4.041   3.000  10.319
 6794TIP3    H244578   4.164   3.024  10.238
 6795TIP3   OH244579   4.892   2.248  11.332
 6795TIP3    H144580   4.982   2.260  11.365
 6795TIP3    H244581   4.874   2.154  11.353
 6796TIP3   OH244582   5.040   2.132  10.449
 6796TIP3    H144583   5.043   2.197  10.376
 6796TIP3    H244584   5.054   2.187  10.530
 6797TIP3   OH244585   4.750   3.413  10.263
 6797TIP3    H144586   4.679   3.432  10.327
 6797TIP3    H244587   4.772   3.504  10.235
 6798TIP3   OH244588   4.717   2.371  10.520
 6798TIP3    H144589   4.777   2.447  10.528
 6798TIP3    H244590   4.692   2.351  10.612
 6799TIP3   OH244591   4.789   2.498  11.406
 6799TIP3    H144592   4.791   2.528  11.499
 6799TIP3    H244593   4.819   2.405  11.409
 6800TIP3   OH244594   4.777   2.051  10.568
 6800TIP3    H144595   4.734   2.125  10.614
 6800TIP3    H244596   4.862   2.092  10.539
 6801TIP3   OH244597   4.472   3.493  10.315
 6801TIP3    H144598   4.503   3.577  10.273
 6801TIP3    H244599   4.450   3.525  10.405
 6802TIP3   OH244600   4.340   2.189  10.301
 6802TIP3    H144601   4.362   2.272  10.347
 6802TIP3    H244602   4.428   2.149  10.290
 6803TIP3   OH244603   5.372   2.270  11.517
 6803TIP3    H144604   5.276   2.291  11.505
 6803TIP3    H244605   5.403   2.269  11.425
 6804TIP3   OH244606   5.258   2.625  10.908
 6804TIP3    H144607   5.181   2.566  10.895
 6804TIP3    H244608   5.324   2.567  10.952
 6805TIP3   OH244609   4.181   3.199  10.178
 6805TIP3    H144610   4.271   3.222  10.212
 6805TIP3    H244611   4.200   3.189  10.083
 6806TIP3   OH244612   4.043   2.484  10.139
 6806TIP3    H144613   4.037   2.582  10.136
 6806TIP3    H244614   3.979   2.459  10.070
 6807TIP3   OH244615   5.359   3.556  11.056
 6807TIP3    H144616   5.354   3.626  10.987
 6807TIP3    H244617   5.457   3.561  11.071
 6808TIP3   OH244618   4.099   1.969  10.965
 6808TIP3    H144619   4.077   1.947  10.872
 6808TIP3    H244620   4.075   1.884  11.009
 6809TIP3   OH244621   3.948   3.350  10.570
 6809TIP3    H144622   3.873   3.410  10.569
 6809TIP3    H244623   3.993   3.383  10.491
 6810TIP3   OH244624   3.905   3.633  11.693
 6810TIP3    H144625   3.984   3.617  11.748
 6810TIP3    H244626   3.878   3.542  11.669
 6811TIP3   OH244627   4.387   3.523  11.839
 6811TIP3    H144628   4.472   3.481  11.862
 6811TIP3    H244629   4.372   3.489  11.748
 6812TIP3   OH244630   4.790   3.429   9.964
 6812TIP3    H144631   4.718   3.370   9.989
 6812TIP3    H244632   4.858   3.395  10.025
 6813TIP3   OH244633   5.002   3.384  11.729
 6813TIP3    H144634   4.973   3.295  11.764
 6813TIP3    H244635   5.089   3.389  11.773
 6814TIP3   OH244636   5.212   3.439  10.097
 6814TIP3    H144637   5.213   3.343  10.081
 6814TIP3    H244638   5.258   3.478  10.019
 6815TIP3   OH244639   3.874   3.021  11.790
 6815TIP3    H144640   3.847   2.929  11.804
 6815TIP3    H244641   3.819   3.043  11.710
 6816TIP3   OH244642   4.352   2.993  10.019
 6816TIP3    H144643   4.356   2.960  10.110
 6816TIP3    H244644   4.413   3.068  10.027
 6817TIP3   OH244645   4.561   3.016  11.686
 6817TIP3    H144646   4.540   3.073  11.608
 6817TIP3    H244647   4.552   2.925  11.651
 6818TIP3   OH244648   5.131   2.986  11.484
 6818TIP3    H144649   5.220   3.029  11.489
 6818TIP3    H244650   5.079   3.067  11.496
 6819TIP3   OH244651   3.977   2.712  11.747
 6819TIP3    H144652   4.049   2.650  11.729
 6819TIP3    H244653   4.019   2.769  11.814
 6820TIP3   OH244654   4.486   2.864  10.262
 6820TIP3    H144655   4.433   2.802  10.316
 6820TIP3    H244656   4.529   2.800  10.200
 6821TIP3   OH244657   4.372   2.611  11.442
 6821TIP3    H144658   4.305   2.681  11.450
 6821TIP3    H244659   4.441   2.656  11.391
 6822TIP3   OH244660   4.599   2.677  10.066
 6822TIP3    H144661   4.606   2.661   9.971
 6822TIP3    H244662   4.690   2.658  10.096
 6823TIP3   OH244663   4.917   2.906  11.794
 6823TIP3    H144664   4.971   2.851  11.735
 6823TIP3    H244665   4.854   2.841  11.829
 6824TIP3   OH244666   5.475   2.876  20.014
 6824TIP3    H144667   5.489   2.837  19.927
 6824TIP3    H244668   5.505   2.969  20.000
 6825TIP3   OH244669   4.437   2.371  11.547
 6825TIP3    H144670   4.447   2.300  11.479
 6825TIP3    H244671   4.412   2.449  11.493
 6826TIP3   OH244672   4.465   2.186  11.336
 6826TIP3    H144673   4.511   2.233  11.264
 6826TIP3    H244674   4.372   2.180  11.305
 6827TIP3   OH244675   4.590   2.769  11.338
 6827TIP3    H144676   4.679   2.806  11.322
 6827TIP3    H244677   4.533   2.839  11.301
 6828TIP3   OH244678   5.042   2.517  11.850
 6828TIP3    H144679   5.067   2.426  11.833
 6828TIP3    H244680   5.126   2.563  11.833
 6829TIP3   OH244681   5.200   2.831  11.689
 6829TIP3    H144682   5.164   2.884  11.614
 6829TIP3    H244683   5.293   2.820  11.662
 6830TIP3   OH244684   4.239   2.492  11.738
 6830TIP3    H144685   4.175   2.420  11.755
 6830TIP3    H244686   4.309   2.443  11.691
 6831TIP3   OH244687   4.565   1.941  11.356
 6831TIP3    H144688   4.526   2.031  11.349
 6831TIP3    H244689   4.498   1.889  11.310
 6832TIP3   OH244690   4.664   2.381  11.725
 6832TIP3    H144691   4.637   2.351  11.814
 6832TIP3    H244692   4.585   2.361  11.669
 6833TIP3   OH244693   4.937   2.307  11.648
 6833TIP3    H144694   4.843   2.303  11.674
 6833TIP3    H244695   4.981   2.249  11.714
 6834TIP3   OH244696   5.073   2.146  11.814
 6834TIP3    H144697   5.075   2.047  11.816
 6834TIP3    H244698   5.065   2.170  11.908
 6835TIP3   OH244699   4.071   2.264  11.768
 6835TIP3    H144700   4.055   2.185  11.712
 6835TIP3    H244701   4.036   2.236  11.854
 6836TIP3   OH244702   4.551   1.906  11.640
 6836TIP3    H144703   4.611   1.830  11.635
 6836TIP3    H244704   4.556   1.936  11.547
 6837TIP3   OH244705   4.559   2.009  11.886
 6837TIP3    H144706   4.564   1.959  11.801
 6837TIP3    H244707   4.520   2.091  11.856
 6838TIP3   OH244708   4.526   3.723  10.186
 6838TIP3    H144709   4.623   3.725  10.184
 6838TIP3    H244710   4.501   3.780  10.112
 6839TIP3   OH244711   3.913   3.210  10.142
 6839TIP3    H144712   4.011   3.204  10.152
 6839TIP3    H244713   3.899   3.148  10.069
 6840TIP3   OH244714   3.793   3.705  10.599
 6840TIP3    H144715   3.712   3.660  10.567
 6840TIP3    H244716   3.815   3.649  10.676
 6841TIP3   OH244717   3.866   3.538  10.804
 6841TIP3    H144718   3.820   3.456  10.829
 6841TIP3    H244719   3.929   3.551  10.879
 6842TIP3   OH244720   5.622   3.623  11.065
 6842TIP3    H144721   5.640   3.633  11.160
 6842TIP3    H244722   5.710   3.641  11.028
 6843TIP3   OH244723   5.555   3.588  11.355
 6843TIP3    H144724   5.525   3.500  11.323
 6843TIP3    H244725   5.599   3.561  11.438
 6844TIP3   OH244726   5.432   3.130  11.866
 6844TIP3    H144727   5.340   3.143  11.892
 6844TIP3    H244728   5.467   3.222  11.871
 6845TIP3   OH244729   5.519   2.996  10.379
 6845TIP3    H144730   5.607   3.036  10.399
 6845TIP3    H244731   5.506   2.936  10.454
 6846TIP3   OH244732   5.580   2.799  10.600
 6846TIP3    H144733   5.497   2.751  10.617
 6846TIP3    H244734   5.621   2.798  10.689
 6847TIP3   OH244735   5.547   3.071  11.054
 6847TIP3    H144736   5.617   3.003  11.041
 6847TIP3    H244737   5.590   3.152  11.019
 6848TIP3   OH244738   5.423   3.346  11.303
 6848TIP3    H144739   5.355   3.398  11.351
 6848TIP3    H244740   5.377   3.320  11.220
 6849TIP3   OH244741   5.635   2.782  10.214
 6849TIP3    H144742   5.563   2.805  10.152
 6849TIP3    H244743   5.631   2.858  10.275
 6850TIP3   OH244744   5.407   2.480  10.126
 6850TIP3    H144745   5.377   2.529  10.047
 6850TIP3    H244746   5.448   2.405  10.081
 6851TIP3   OH244747   5.375   2.652  10.670
 6851TIP3    H144748   5.354   2.560  10.647
 6851TIP3    H244749   5.349   2.656  10.765
 6852TIP3   OH244750   3.862   2.893  11.068
 6852TIP3    H144751   3.863   2.862  10.975
 6852TIP3    H244752   3.947   2.852  11.094
 6853TIP3   OH244753   5.478   2.843  11.606
 6853TIP3    H144754   5.515   2.752  11.603
 6853TIP3    H244755   5.552   2.897  11.574
 6854TIP3   OH244756   5.578   2.591  11.622
 6854TIP3    H144757   5.485   2.567  11.645
 6854TIP3    H244758   5.627   2.510  11.647
 6855TIP3   OH244759   5.387   2.238   9.969
 6855TIP3    H144760   5.444   2.197  10.037
 6855TIP3    H244761   5.299   2.231  10.008
 6856TIP3   OH244762   5.316   2.406  10.488
 6856TIP3    H144763   5.338   2.313  10.510
 6856TIP3    H244764   5.402   2.433  10.452
 6857TIP3   OH244765   5.432   2.459  11.038
 6857TIP3    H144766   5.530   2.472  11.048
 6857TIP3    H244767   5.407   2.462  11.131
 6858TIP3   OH244768   5.416   2.538  11.295
 6858TIP3    H144769   5.323   2.568  11.305
 6858TIP3    H244770   5.462   2.622  11.274
 6859TIP3   OH244771   3.846   2.358  11.638
 6859TIP3    H144772   3.927   2.363  11.692
 6859TIP3    H244773   3.794   2.291  11.687
 6860TIP3   OH244774   5.624   1.893  11.842
 6860TIP3    H144775   5.661   1.842  11.767
 6860TIP3    H244776   5.605   1.977  11.795
 6861TIP3   OH244777   5.412   2.156  10.520
 6861TIP3    H144778   5.454   2.106  10.594
 6861TIP3    H244779   5.359   2.086  10.480
 6862TIP3   OH244780   3.961   2.215  10.952
 6862TIP3    H144781   3.999   2.127  10.970
 6862TIP3    H244782   4.038   2.272  10.970
 6863TIP3   OH244783   3.798   2.516  11.064
 6863TIP3    H144784   3.857   2.497  10.988
 6863TIP3    H244785   3.837   2.600  11.095
 6864TIP3   OH244786   5.538   2.113  11.702
 6864TIP3    H144787   5.466   2.178  11.691
 6864TIP3    H244788   5.554   2.096  11.607
 6865TIP3   OH244789   5.584   2.161  10.159
 6865TIP3    H144790   5.633   2.109  10.094
 6865TIP3    H244791   5.654   2.225  10.186
 6866TIP3   OH244792   3.818   2.133  10.459
 6866TIP3    H144793   3.725   2.157  10.473
 6866TIP3    H244794   3.834   2.181  10.376
 6867TIP3   OH244795   5.293   3.633  10.663
 6867TIP3    H144796   5.365   3.615  10.600
 6867TIP3    H244797   5.336   3.685  10.734
 6868TIP3   OH244798   3.817   1.995  11.289
 6868TIP3    H144799   3.760   1.966  11.363
 6868TIP3    H244800   3.761   2.061  11.245
 6869TIP3   OH244801   4.058   3.311  11.684
 6869TIP3    H144802   3.971   3.334  11.646
 6869TIP3    H244803   4.039   3.240  11.747
 6870TIP3   OH244804   4.337   3.470  11.354
 6870TIP3    H144805   4.334   3.559  11.314
 6870TIP3    H244806   4.434   3.453  11.350
 6871TIP3   OH244807   4.745   3.588  11.596
 6871TIP3    H144808   4.759   3.556  11.687
 6871TIP3    H244809   4.837   3.613  11.571
 6872TIP3   OH244810   4.976   3.724  11.542
 6872TIP3    H144811   5.058   3.692  11.504
 6872TIP3    H244812   5.005   3.763  11.628
 6873TIP3   OH244813   5.493   1.937  11.478
 6873TIP3    H144814   5.433   1.982  11.418
 6873TIP3    H244815   5.489   1.846  11.443
 6874TIP3   OH244816   4.067   3.761  11.329
 6874TIP3    H144817   3.999   3.824  11.296
 6874TIP3    H244818   4.061   3.774  11.424
 6875TIP3   OH244819   4.300   3.706  11.226
 6875TIP3    H144820   4.210   3.733  11.257
 6875TIP3    H244821   4.311   3.764  11.149
 6876TIP3   OH244822   4.776   3.680  11.149
 6876TIP3    H144823   4.718   3.739  11.098
 6876TIP3    H244824   4.804   3.742  11.220
 6877TIP3   OH244825   4.988   3.546  11.294
 6877TIP3    H144826   4.925   3.585  11.230
 6877TIP3    H244827   5.066   3.599  11.269
 6878TIP3   OH244828   5.260   3.701  11.258
 6878TIP3    H144829   5.272   3.792  11.225
 6878TIP3    H244830   5.299   3.651  11.182
 6879TIP3   OH244831   4.021   3.594  11.020
 6879TIP3    H144832   4.001   3.539  11.100
 6879TIP3    H244833   4.112   3.563  10.998
 6880TIP3   OH244834   4.242   3.495  10.900
 6880TIP3    H144835   4.229   3.401  10.922
 6880TIP3    H244836   4.331   3.510  10.939
 6881TIP3   OH244837   4.474   3.493  11.034
 6881TIP3    H144838   4.502   3.401  11.021
 6881TIP3    H244839   4.493   3.504  11.129
 6882TIP3   OH244840   4.826   2.081  10.901
 6882TIP3    H144841   4.749   2.051  10.951
 6882TIP3    H244842   4.839   2.006  10.842
 6883TIP3   OH244843   5.355   1.884  10.877
 6883TIP3    H144844   5.422   1.941  10.834
 6883TIP3    H244845   5.272   1.921  10.839
 6884TIP3   OH244846   5.524   2.017  10.724
 6884TIP3    H144847   5.589   1.962  10.674
 6884TIP3    H244848   5.579   2.097  10.743
 6885TIP3   OH244849   4.027   1.914  10.701
 6885TIP3    H144850   3.949   1.884  10.650
 6885TIP3    H244851   4.092   1.845  10.674
 6886TIP3   OH244852   3.939   1.906  10.264
 6886TIP3    H144853   3.993   1.969  10.210
 6886TIP3    H244854   3.883   1.964  10.317
 6887TIP3   OH244855   4.482   1.910  10.647
 6887TIP3    H144856   4.565   1.901  10.598
 6887TIP3    H244857   4.514   1.921  10.738
 6888TIP3   OH244858   5.104   1.946  10.776
 6888TIP3    H144859   5.058   1.960  10.692
 6888TIP3    H244860   5.053   1.874  10.820
 6889TIP3   OH244861   5.238   1.926  10.404
 6889TIP3    H144862   5.165   1.991  10.407
 6889TIP3    H244863   5.201   1.856  10.462
 6890TIP3   OH244864   3.931   3.528  10.361
 6890TIP3    H144865   3.843   3.530  10.320
 6890TIP3    H244866   3.953   3.622  10.351
 6891TIP3   OH244867   4.098   2.045  10.116
 6891TIP3    H144868   4.176   1.991  10.094
 6891TIP3    H244869   4.137   2.129  10.145
 6892TIP3   OH244870   4.643   2.138  10.333
 6892TIP3    H144871   4.689   2.080  10.396
 6892TIP3    H244872   4.645   2.222  10.383
 6893TIP3   OH244873   4.818   3.655  10.162
 6893TIP3    H144874   4.915   3.673  10.163
 6893TIP3    H244875   4.812   3.616  10.073
 6894TIP3   OH244876   5.474   3.577  10.479
 6894TIP3    H144877   5.468   3.488  10.435
 6894TIP3    H244878   5.447   3.639  10.409
 6895TIP3   OH244879   4.031   2.014  11.625
 6895TIP3    H144880   3.987   1.928  11.624
 6895TIP3    H244881   4.111   1.999  11.679
 6896TIP3   OH244882   4.246   1.955  11.802
 6896TIP3    H144883   4.340   1.935  11.790
 6896TIP3    H244884   4.209   1.868  11.832
 6897TIP3   OH244885   4.148   3.666  10.107
 6897TIP3    H144886   4.085   3.692  10.176
 6897TIP3    H244887   4.176   3.578  10.134
 6898TIP3   OH244888   5.092   1.878  11.796
 6898TIP3    H144889   5.092   1.846  11.889
 6898TIP3    H244890   5.185   1.856  11.769
 6899TIP3   OH244891   5.412   3.491  11.650
 6899TIP3    H144892   5.345   3.486  11.579
 6899TIP3    H244893   5.396   3.581  11.685
 6900TIP3   OH244894   6.874   2.875  10.674
 6900TIP3    H144895   6.870   2.962  10.718
 6900TIP3    H244896   6.799   2.885  10.612
 6901TIP3   OH244897   6.730   2.773  11.001
 6901TIP3    H144898   6.751   2.725  11.084
 6901TIP3    H244899   6.663   2.716  10.958
 6902TIP3   OH244900   5.954   2.755  11.151
 6902TIP3    H144901   5.964   2.679  11.211
 6902TIP3    H244902   6.032   2.807  11.173
 6903TIP3   OH244903   7.123   3.095  10.874
 6903TIP3    H144904   7.108   3.017  10.930
 6903TIP3    H244905   7.115   3.167  10.939
 6904TIP3   OH244906   6.062   3.229  10.976
 6904TIP3    H144907   6.029   3.137  10.967
 6904TIP3    H244908   6.157   3.207  10.972
 6905TIP3   OH244909   5.736   2.552  10.554
 6905TIP3    H144910   5.701   2.641  10.570
 6905TIP3    H244911   5.703   2.533  10.464
 6906TIP3   OH244912   5.779   2.795  10.812
 6906TIP3    H144913   5.830   2.711  10.827
 6906TIP3    H244914   5.843   2.852  10.766
 6907TIP3   OH244915   6.814   3.611  10.877
 6907TIP3    H144916   6.877   3.554  10.828
 6907TIP3    H244917   6.760   3.543  10.918
 6908TIP3   OH244918   6.569   3.033  11.099
 6908TIP3    H144919   6.589   2.980  11.022
 6908TIP3    H244920   6.659   3.061  11.126
 6909TIP3   OH244921   7.451   2.217  11.089
 6909TIP3    H144922   7.449   2.274  11.167
 6909TIP3    H244923   7.521   2.258  11.036
 6910TIP3   OH244924   6.919   2.482  11.124
 6910TIP3    H144925   6.959   2.395  11.140
 6910TIP3    H244926   6.894   2.475  11.030
 6911TIP3   OH244927   6.211   2.261  10.776
 6911TIP3    H144928   6.225   2.344  10.725
 6911TIP3    H244929   6.168   2.207  10.707
 6912TIP3   OH244930   6.999   2.287  10.638
 6912TIP3    H144931   7.050   2.279  10.722
 6912TIP3    H244932   7.038   2.363  10.595
 6913TIP3   OH244933   5.871   2.550  10.867
 6913TIP3    H144934   5.932   2.503  10.926
 6913TIP3    H244935   5.894   2.507  10.782
 6914TIP3   OH244936   6.370   2.679  10.830
 6914TIP3    H144937   6.445   2.629  10.869
 6914TIP3    H244938   6.323   2.608  10.783
 6915TIP3   OH244939   7.437   2.296  11.373
 6915TIP3    H144940   7.394   2.376  11.335
 6915TIP3    H244941   7.511   2.336  11.421
 6916TIP3   OH244942   6.119   2.181  11.206
 6916TIP3    H144943   6.080   2.229  11.131
 6916TIP3    H244944   6.054   2.206  11.276
 6917TIP3   OH244945   6.793   3.130  10.563
 6917TIP3    H144946   6.784   3.129  10.465
 6917TIP3    H244947   6.762   3.221  10.580
 6918TIP3   OH244948   6.329   2.949  11.187
 6918TIP3    H144949   6.274   3.026  11.217
 6918TIP3    H244950   6.405   2.997  11.146
 6919TIP3   OH244951   7.129   2.250  10.866
 6919TIP3    H144952   7.109   2.176  10.926
 6919TIP3    H244953   7.225   2.247  10.858
 6920TIP3   OH244954   6.069   2.376  11.000
 6920TIP3    H144955   6.134   2.435  11.047
 6920TIP3    H244956   6.122   2.349  10.922
 6921TIP3   OH244957   6.204   3.169  11.287
 6921TIP3    H144958   6.198   3.262  11.258
 6921TIP3    H244959   6.113   3.163  11.326
 6922TIP3   OH244960   5.784   3.092  10.392
 6922TIP3    H144961   5.784   3.154  10.316
 6922TIP3    H244962   5.796   3.154  10.466
 6923TIP3   OH244963   7.149   3.298  11.061
 6923TIP3    H144964   7.057   3.313  11.091
 6923TIP3    H244965   7.168   3.387  11.027
 6924TIP3   OH244966   7.182   2.156  11.181
 6924TIP3    H144967   7.105   2.199  11.137
 6924TIP3    H244968   7.257   2.188  11.128
 6925TIP3   OH244969   6.465   1.918  10.932
 6925TIP3    H144970   6.443   1.824  10.940
 6925TIP3    H244971   6.377   1.957  10.958
 6926TIP3   OH244972   6.974   3.448  10.731
 6926TIP3    H144973   6.990   3.363  10.684
 6926TIP3    H244974   7.064   3.486  10.719
 6927TIP3   OH244975   7.088   3.248  10.586
 6927TIP3    H144976   7.077   3.181  10.517
 6927TIP3    H244977   7.125   3.196  10.660
 6928TIP3   OH244978   7.247   3.104  11.443
 6928TIP3    H144979   7.240   3.040  11.368
 6928TIP3    H244980   7.263   3.186  11.394
 6929TIP3   OH244981   6.718   2.813  10.403
 6929TIP3    H144982   6.672   2.900  10.397
 6929TIP3    H244983   6.795   2.825  10.346
 6930TIP3   OH244984   6.763   2.677  10.108
 6930TIP3    H144985   6.838   2.701  10.169
 6930TIP3    H244986   6.789   2.587  10.083
 6931TIP3   OH244987   7.410   2.737  11.237
 6931TIP3    H144988   7.352   2.814  11.220
 6931TIP3    H244989   7.481   2.753  11.171
 6932TIP3   OH244990   7.079   2.815  10.515
 6932TIP3    H144991   7.006   2.848  10.573
 6932TIP3    H244992   7.139   2.778  10.584
 6933TIP3   OH244993   7.054   2.641  11.423
 6933TIP3    H144994   7.036   2.731  11.456
 6933TIP3    H244995   6.988   2.642  11.350
 6934TIP3   OH244996   6.221   2.871  10.701
 6934TIP3    H144997   6.190   2.844  10.611
 6934TIP3    H244998   6.284   2.799  10.720
 6935TIP3   OH244999   6.353   3.209  10.955
 6935TIP3    H145000   6.364   3.193  10.860
 6935TIP3    H245001   6.433   3.168  10.995
 6936TIP3   OH245002   6.248   2.731  11.067
 6936TIP3    H145003   6.282   2.734  10.975
 6936TIP3    H245004   6.292   2.810  11.108
 6937TIP3   OH245005   6.900   3.326  11.139
 6937TIP3    H145006   6.883   3.379  11.218
 6937TIP3    H245007   6.878   3.235  11.170
 6938TIP3   OH245008   6.366   3.199  11.509
 6938TIP3    H145009   6.299   3.255  11.556
 6938TIP3    H245010   6.319   3.189  11.423
 6939TIP3   OH245011   6.953   2.750  10.278
 6939TIP3    H145012   6.997   2.759  10.366
 6939TIP3    H245013   7.008   2.814  10.224
 6940TIP3   OH245014   6.056   2.790  11.442
 6940TIP3    H145015   6.079   2.877  11.477
 6940TIP3    H245016   5.970   2.777  11.485
 6941TIP3   OH245017   6.724   3.407  10.557
 6941TIP3    H145018   6.767   3.428  10.641
 6941TIP3    H245019   6.669   3.485  10.540
 6942TIP3   OH245020   6.199   3.373  11.617
 6942TIP3    H145021   6.165   3.451  11.567
 6942TIP3    H245022   6.112   3.336  11.643
 6943TIP3   OH245023   7.326   1.873  10.252
 6943TIP3    H145024   7.231   1.890  10.275
 6943TIP3    H245025   7.364   1.961  10.268
 6944TIP3   OH245026   6.122   2.764  10.459
 6944TIP3    H145027   6.074   2.836  10.413
 6944TIP3    H245028   6.079   2.685  10.426
 6945TIP3   OH245029   7.469   3.358  10.135
 6945TIP3    H145030   7.479   3.456  10.139
 6945TIP3    H245031   7.560   3.328  10.147
 6946TIP3   OH245032   5.748   3.037  11.351
 6946TIP3    H145033   5.692   3.029  11.273
 6946TIP3    H245034   5.791   2.949  11.354
 6947TIP3   OH245035   5.727   3.290  11.012
 6947TIP3    H145036   5.822   3.276  11.004
 6947TIP3    H245037   5.725   3.367  11.070
 6948TIP3   OH245038   7.523   3.379  11.595
 6948TIP3    H145039   7.515   3.286  11.572
 6948TIP3    H245040   7.445   3.388  11.655
 6949TIP3   OH245041   6.622   3.308  11.482
 6949TIP3    H145042   6.638   3.376  11.549
 6949TIP3    H245043   6.527   3.283  11.496
 6950TIP3   OH245044   6.669   3.684  10.436
 6950TIP3    H145045   6.682   3.703  10.342
 6950TIP3    H245046   6.675   3.774  10.474
 6951TIP3   OH245047   6.042   3.550  10.664
 6951TIP3    H145048   6.070   3.534  10.758
 6951TIP3    H245049   5.954   3.509  10.663
 6952TIP3   OH245050   6.955   3.667  10.170
 6952TIP3    H145051   6.997   3.583  10.137
 6952TIP3    H245052   6.973   3.664  10.266
 6953TIP3   OH245053   6.936   3.610  10.449
 6953TIP3    H145054   6.840   3.611  10.469
 6953TIP3    H245055   6.967   3.536  10.503
 6954TIP3   OH245056   7.206   2.539  11.640
 6954TIP3    H145057   7.156   2.573  11.562
 6954TIP3    H245058   7.219   2.447  11.613
 6955TIP3   OH245059   5.970   3.159  11.415
 6955TIP3    H145060   5.969   3.145  11.512
 6955TIP3    H245061   5.880   3.131  11.391
 6956TIP3   OH245062   6.243   2.023  11.024
 6956TIP3    H145063   6.156   2.019  10.983
 6956TIP3    H245064   6.222   2.076  11.104
 6957TIP3   OH245065   6.714   1.964  11.371
 6957TIP3    H145066   6.751   1.923  11.452
 6957TIP3    H245067   6.617   1.958  11.385
 6958TIP3   OH245068   7.004   2.348  11.445
 6958TIP3    H145069   6.949   2.314  11.519
 6958TIP3    H245070   6.992   2.444  11.454
 6959TIP3   OH245071   7.098   2.884  10.110
 6959TIP3    H145072   7.056   2.897  10.022
 6959TIP3    H245073   7.191   2.885  10.084
 6960TIP3   OH245074   6.673   2.248  10.110
 6960TIP3    H145075   6.625   2.210  10.188
 6960TIP3    H245076   6.615   2.218  10.039
 6961TIP3   OH245077   6.253   2.488  11.166
 6961TIP3    H145078   6.176   2.495  11.226
 6961TIP3    H245079   6.255   2.580  11.131
 6962TIP3   OH245080   6.228   2.493  10.652
 6962TIP3    H145081   6.132   2.490  10.630
 6962TIP3    H245082   6.269   2.476  10.563
 6963TIP3   OH245083   6.813   2.599  10.548
 6963TIP3    H145084   6.774   2.675  10.499
 6963TIP3    H245085   6.868   2.559  10.478
 6964TIP3   OH245086   6.669   2.594  11.656
 6964TIP3    H145087   6.627   2.510  11.686
 6964TIP3    H245088   6.736   2.607  11.725
 6965TIP3   OH245089   6.891   2.545  10.831
 6965TIP3    H145090   6.877   2.626  10.778
 6965TIP3    H245091   6.891   2.481  10.759
 6966TIP3   OH245092   6.014   2.511  11.287
 6966TIP3    H145093   6.034   2.561  11.367
 6966TIP3    H245094   5.988   2.424  11.324
 6967TIP3   OH245095   6.333   2.280  10.034
 6967TIP3    H145096   6.295   2.229  10.108
 6967TIP3    H245097   6.263   2.281   9.967
 6968TIP3   OH245098   5.685   2.230  10.747
 6968TIP3    H145099   5.753   2.230  10.816
 6968TIP3    H245100   5.736   2.228  10.665
 6969TIP3   OH245101   5.796   2.300  10.266
 6969TIP3    H145102   5.877   2.343  10.234
 6969TIP3    H245103   5.737   2.378  10.269
 6970TIP3   OH245104   6.813   2.683  11.262
 6970TIP3    H145105   6.863   2.616  11.209
 6970TIP3    H245106   6.752   2.626  11.312
 6971TIP3   OH245107   6.503   2.276  10.755
 6971TIP3    H145108   6.409   2.265  10.780
 6971TIP3    H245109   6.551   2.214  10.814
 6972TIP3   OH245110   5.956   2.418  10.647
 6972TIP3    H145111   5.880   2.445  10.590
 6972TIP3    H245112   5.985   2.332  10.610
 6973TIP3   OH245113   6.326   2.434  10.410
 6973TIP3    H145114   6.421   2.452  10.407
 6973TIP3    H245115   6.289   2.502  10.349
 6974TIP3   OH245116   6.931   2.193  11.073
 6974TIP3    H145117   6.862   2.181  11.142
 6974TIP3    H245118   6.888   2.162  10.992
 6975TIP3   OH245119   6.201   2.563  10.186
 6975TIP3    H145120   6.115   2.538  10.148
 6975TIP3    H245121   6.263   2.513  10.129
 6976TIP3   OH245122   7.251   3.740  11.727
 6976TIP3    H145123   7.295   3.770  11.645
 6976TIP3    H245124   7.324   3.744  11.790
 6977TIP3   OH245125   5.993   3.029  11.678
 6977TIP3    H145126   6.057   3.066  11.741
 6977TIP3    H245127   5.916   3.010  11.736
 6978TIP3   OH245128   6.607   2.542  10.927
 6978TIP3    H145129   6.685   2.517  10.874
 6978TIP3    H245130   6.588   2.459  10.973
 6979TIP3   OH245131   6.063   2.147  10.577
 6979TIP3    H145132   6.001   2.083  10.619
 6979TIP3    H245133   6.109   2.085  10.519
 6980TIP3   OH245134   6.491   2.368  11.173
 6980TIP3    H145135   6.409   2.423  11.176
 6980TIP3    H245136   6.553   2.420  11.225
 6981TIP3   OH245137   6.538   3.030  10.373
 6981TIP3    H145138   6.467   2.973  10.337
 6981TIP3    H245139   6.502   3.043  10.464
 6982TIP3   OH245140   7.260   2.967  11.212
 6982TIP3    H145141   7.319   3.003  11.143
 6982TIP3    H245142   7.179   2.945  11.160
 6983TIP3   OH245143   6.927   2.301  10.157
 6983TIP3    H145144   6.831   2.292  10.168
 6983TIP3    H245145   6.945   2.376  10.218
 6984TIP3   OH245146   6.684   3.042  11.494
 6984TIP3    H145147   6.623   3.017  11.566
 6984TIP3    H245148   6.671   3.138  11.492
 6985TIP3   OH245149   6.993   2.491  10.331
 6985TIP3    H145150   7.082   2.478  10.369
 6985TIP3    H245151   6.998   2.582  10.297
 6986TIP3   OH245152   6.061   2.964  10.911
 6986TIP3    H145153   6.116   2.944  10.832
 6986TIP3    H245154   6.073   2.885  10.965
 6987TIP3   OH245155   6.750   3.169  10.295
 6987TIP3    H145156   6.706   3.256  10.295
 6987TIP3    H245157   6.672   3.110  10.304
 6988TIP3   OH245158   5.753   2.779  11.459
 6988TIP3    H145159   5.735   2.723  11.538
 6988TIP3    H245160   5.697   2.735  11.392
 6989TIP3   OH245161   6.445   2.744  11.641
 6989TIP3    H145162   6.401   2.696  11.570
 6989TIP3    H245163   6.534   2.702  11.642
 6990TIP3   OH245164   6.950   3.280  11.487
 6990TIP3    H145165   6.867   3.266  11.439
 6990TIP3    H245166   6.915   3.309  11.573
 6991TIP3   OH245167   7.485   2.478  10.322
 6991TIP3    H145168   7.419   2.448  10.256
 6991TIP3    H245169   7.490   2.571  10.294
 6992TIP3   OH245170   7.478   3.068  11.573
 6992TIP3    H145171   7.390   3.095  11.541
 6992TIP3    H245172   7.531   3.062  11.490
 6993TIP3   OH245173   7.329   3.340  10.364
 6993TIP3    H145174   7.241   3.302  10.353
 6993TIP3    H245175   7.373   3.324  10.278
 6994TIP3   OH245176   7.049   2.879  11.045
 6994TIP3    H145177   6.957   2.875  11.017
 6994TIP3    H245178   7.083   2.802  10.994
 6995TIP3   OH245179   6.278   3.289  10.696
 6995TIP3    H145180   6.303   3.383  10.683
 6995TIP3    H245181   6.190   3.288  10.655
 6996TIP3   OH245182   5.886   2.750  10.090
 6996TIP3    H145183   5.943   2.808  10.143
 6996TIP3    H245184   5.799   2.756  10.137
 6997TIP3   OH245185   6.429   3.059  10.631
 6997TIP3    H145186   6.372   3.139  10.638
 6997TIP3    H245187   6.379   2.993  10.682
 6998TIP3   OH245188   6.480   3.472  11.305
 6998TIP3    H145189   6.535   3.540  11.264
 6998TIP3    H245190   6.541   3.431  11.369
 6999TIP3   OH245191   6.302   3.542  10.569
 6999TIP3    H145192   6.208   3.553  10.594
 6999TIP3    H245193   6.335   3.632  10.587
 7000TIP3   OH245194   6.798   3.066  11.233
 7000TIP3    H145195   6.751   3.042  11.317
 7000TIP3    H245196   6.843   2.982  11.212
 7001TIP3   OH245197   7.063   3.193  10.133
 7001TIP3    H145198   7.101   3.143  10.208
 7001TIP3    H245199   6.973   3.160  10.137
 7002TIP3   OH245200   7.102   3.526  11.476
 7002TIP3    H145201   7.024   3.467  11.471
 7002TIP3    H245202   7.100   3.576  11.391
 7003TIP3   OH245203   7.531   3.626  10.132
 7003TIP3    H145204   7.598   3.697  10.133
 7003TIP3    H245205   7.453   3.674  10.168
 7004TIP3   OH245206   5.942   2.265  11.391
 7004TIP3    H145207   5.860   2.318  11.398
 7004TIP3    H245208   5.914   2.182  11.433
 7005TIP3   OH245209   7.151   3.054  10.347
 7005TIP3    H145210   7.120   2.966  10.374
 7005TIP3    H245211   7.248   3.042  10.352
 7006TIP3   OH245212   5.883   3.443  11.250
 7006TIP3    H145213   5.953   3.376  11.251
 7006TIP3    H245214   5.903   3.486  11.336
 7007TIP3   OH245215   6.327   3.232  10.237
 7007TIP3    H145216   6.410   3.197  10.271
 7007TIP3    H245217   6.334   3.327  10.266
 7008TIP3   OH245218   5.998   2.953  10.285
 7008TIP3    H145219   5.909   2.987  10.307
 7008TIP3    H245220   6.040   3.035  10.253
 7009TIP3   OH245221   6.787   2.232  11.336
 7009TIP3    H145222   6.880   2.244  11.361
 7009TIP3    H245223   6.769   2.139  11.362
 7010TIP3   OH245224   6.864   2.175  10.445
 7010TIP3    H145225   6.888   2.235  10.374
 7010TIP3    H245226   6.926   2.202  10.517
 7011TIP3   OH245227   6.626   3.410  10.243
 7011TIP3    H145228   6.555   3.417  10.309
 7011TIP3    H245229   6.664   3.499  10.245
 7012TIP3   OH245230   6.630   2.375  10.532
 7012TIP3    H145231   6.667   2.463  10.548
 7012TIP3    H245232   6.588   2.350  10.617
 7013TIP3   OH245233   6.676   2.485  11.406
 7013TIP3    H145234   6.680   2.520  11.498
 7013TIP3    H245235   6.717   2.396  11.413
 7014TIP3   OH245236   6.655   2.051  10.564
 7014TIP3    H145237   6.620   2.118  10.625
 7014TIP3    H245238   6.740   2.095  10.536
 7015TIP3   OH245239   6.365   3.483  10.315
 7015TIP3    H145240   6.390   3.565  10.266
 7015TIP3    H245241   6.338   3.519  10.402
 7016TIP3   OH245242   6.237   2.180  10.283
 7016TIP3    H145243   6.231   2.259  10.339
 7016TIP3    H245244   6.326   2.151  10.306
 7017TIP3   OH245245   7.230   2.259  11.546
 7017TIP3    H145246   7.147   2.275  11.494
 7017TIP3    H245247   7.299   2.273  11.478
 7018TIP3   OH245248   7.123   2.667  10.897
 7018TIP3    H145249   7.042   2.613  10.889
 7018TIP3    H245250   7.175   2.603  10.953
 7019TIP3   OH245251   6.072   3.189  10.177
 7019TIP3    H145252   6.158   3.208  10.223
 7019TIP3    H245253   6.109   3.163  10.091
 7020TIP3   OH245254   5.919   2.487  10.114
 7020TIP3    H145255   5.912   2.584  10.117
 7020TIP3    H245256   5.848   2.463  10.051
 7021TIP3   OH245257   7.265   3.563  11.064
 7021TIP3    H145258   7.247   3.635  11.000
 7021TIP3    H245259   7.361   3.567  11.075
 7022TIP3   OH245260   5.979   1.967  10.966
 7022TIP3    H145261   5.980   1.956  10.868
 7022TIP3    H245262   5.951   1.878  10.993
 7023TIP3   OH245263   5.838   3.351  10.572
 7023TIP3    H145264   5.762   3.412  10.572
 7023TIP3    H245265   5.879   3.381  10.490
 7024TIP3   OH245266   5.764   3.641  11.686
 7024TIP3    H145267   5.857   3.637  11.656
 7024TIP3    H245268   5.739   3.547  11.671
 7025TIP3   OH245269   6.263   3.518  11.845
 7025TIP3    H145270   6.346   3.469  11.853
 7025TIP3    H245271   6.228   3.477  11.763
 7026TIP3   OH245272   6.677   3.440   9.957
 7026TIP3    H145273   6.622   3.384  10.013
 7026TIP3    H245274   6.764   3.424   9.998
 7027TIP3   OH245275   6.889   3.394  11.732
 7027TIP3    H145276   6.860   3.303  11.758
 7027TIP3    H245277   6.979   3.394  11.771
 7028TIP3   OH245278   7.040   3.443  10.048
 7028TIP3    H145279   7.062   3.353  10.081
 7028TIP3    H245280   7.123   3.477  10.006
 7029TIP3   OH245281   5.752   3.007  11.800
 7029TIP3    H145282   5.717   2.917  11.804
 7029TIP3    H245283   5.709   3.039  11.717
 7030TIP3   OH245284   6.241   3.010  10.022
 7030TIP3    H145285   6.213   2.969  10.105
 7030TIP3    H245286   6.334   3.027  10.043
 7031TIP3   OH245287   6.456   3.012  11.679
 7031TIP3    H145288   6.415   3.065  11.606
 7031TIP3    H245289   6.444   2.917  11.651
 7032TIP3   OH245290   7.025   2.971  11.484
 7032TIP3    H145291   7.113   3.014  11.496
 7032TIP3    H245292   6.969   3.048  11.500
 7033TIP3   OH245293   5.842   2.711  11.765
 7033TIP3    H145294   5.923   2.662  11.783
 7033TIP3    H245295   5.799   2.718  11.852
 7034TIP3   OH245296   6.346   2.851  10.272
 7034TIP3    H145297   6.282   2.792  10.318
 7034TIP3    H245298   6.387   2.790  10.208
 7035TIP3   OH245299   6.261   2.626  11.411
 7035TIP3    H145300   6.192   2.694  11.427
 7035TIP3    H245301   6.331   2.678  11.367
 7036TIP3   OH245302   6.487   2.682  10.068
 7036TIP3    H145303   6.509   2.653   9.977
 7036TIP3    H245304   6.577   2.677  10.110
 7037TIP3   OH245305   6.772   2.893  11.826
 7037TIP3    H145306   6.852   2.867  11.778
 7037TIP3    H245307   6.756   2.811  11.878
 7038TIP3   OH245308   7.339   2.863  19.985
 7038TIP3    H145309   7.398   2.790  19.962
 7038TIP3    H245310   7.393   2.936  19.948
 7039TIP3   OH245311   6.313   2.402  11.541
 7039TIP3    H145312   6.331   2.333  11.475
 7039TIP3    H245313   6.304   2.482  11.483
 7040TIP3   OH245314   6.358   2.192  11.337
 7040TIP3    H145315   6.410   2.243  11.271
 7040TIP3    H245316   6.268   2.192  11.296
 7041TIP3   OH245317   6.476   2.779  11.333
 7041TIP3    H145318   6.565   2.810  11.311
 7041TIP3    H245319   6.422   2.848  11.289
 7042TIP3   OH245320   6.980   2.502  11.814
 7042TIP3    H145321   7.003   2.413  11.784
 7042TIP3    H245322   7.064   2.547  11.792
 7043TIP3   OH245323   7.054   2.819  11.700
 7043TIP3    H145324   7.015   2.857  11.618
 7043TIP3    H245325   7.147   2.804  11.671
 7044TIP3   OH245326   6.161   2.458  11.758
 7044TIP3    H145327   6.077   2.411  11.740
 7044TIP3    H245328   6.218   2.433  11.682
 7045TIP3   OH245329   6.442   1.935  11.346
 7045TIP3    H145330   6.417   2.030  11.353
 7045TIP3    H245331   6.364   1.901  11.300
 7046TIP3   OH245332   6.553   2.364  11.736
 7046TIP3    H145333   6.506   2.350  11.820
 7046TIP3    H245334   6.480   2.355  11.673
 7047TIP3   OH245335   6.829   2.266  11.661
 7047TIP3    H145336   6.736   2.286  11.680
 7047TIP3    H245337   6.861   2.237  11.749
 7048TIP3   OH245338   7.001   2.163  11.845
 7048TIP3    H145339   6.985   2.066  11.840
 7048TIP3    H245340   6.981   2.184  11.939
 7049TIP3   OH245341   5.945   2.280  11.765
 7049TIP3    H145342   5.938   2.199  11.710
 7049TIP3    H245343   5.938   2.241  11.855
 7050TIP3   OH245344   6.399   1.856  11.626
 7050TIP3    H145345   6.470   1.791  11.643
 7050TIP3    H245346   6.406   1.864  11.529
 7051TIP3   OH245347   6.467   2.008  11.875
 7051TIP3    H145348   6.447   1.965  11.789
 7051TIP3    H245349   6.440   2.099  11.855
 7052TIP3   OH245350   6.401   3.705  10.176
 7052TIP3    H145351   6.497   3.714  10.188
 7052TIP3    H245352   6.379   3.775  10.114
 7053TIP3   OH245353   5.805   3.212  10.135
 7053TIP3    H145354   5.902   3.201  10.153
 7053TIP3    H245355   5.789   3.146  10.066
 7054TIP3   OH245356   5.667   3.705  10.607
 7054TIP3    H145357   5.589   3.653  10.576
 7054TIP3    H245358   5.700   3.647  10.679
 7055TIP3   OH245359   5.755   3.538  10.792
 7055TIP3    H145360   5.690   3.474  10.824
 7055TIP3    H245361   5.814   3.548  10.870
 7056TIP3   OH245362   7.556   3.579  11.094
 7056TIP3    H145363   7.565   3.587  11.191
 7056TIP3    H245364   7.552   3.673  11.070
 7057TIP3   OH245365   7.465   3.559  11.383
 7057TIP3    H145366   7.411   3.493  11.334
 7057TIP3    H245367   7.490   3.503  11.460
 7058TIP3   OH245368   7.312   3.154  11.869
 7058TIP3    H145369   7.225   3.162  11.913
 7058TIP3    H245370   7.354   3.237  11.895
 7059TIP3   OH245371   7.434   2.981  10.367
 7059TIP3    H145372   7.522   3.020  10.375
 7059TIP3    H245373   7.438   2.912  10.437
 7060TIP3   OH245374   7.476   2.777  10.567
 7060TIP3    H145375   7.381   2.761  10.587
 7060TIP3    H245376   7.513   2.775  10.657
 7061TIP3   OH245377   7.487   3.038  11.087
 7061TIP3    H145378   7.566   3.018  11.034
 7061TIP3    H245379   7.493   3.137  11.082
 7062TIP3   OH245380   7.308   3.351  11.305
 7062TIP3    H145381   7.228   3.383  11.350
 7062TIP3    H245382   7.277   3.334  11.214
 7063TIP3   OH245383   7.492   2.781  10.192
 7063TIP3    H145384   7.422   2.815  10.135
 7063TIP3    H245385   7.495   2.854  10.257
 7064TIP3   OH245386   7.338   2.443  10.112
 7064TIP3    H145387   7.374   2.521  10.066
 7064TIP3    H245388   7.349   2.375  10.045
 7065TIP3   OH245389   7.249   2.677  10.664
 7065TIP3    H145390   7.225   2.587  10.636
 7065TIP3    H245391   7.218   2.679  10.757
 7066TIP3   OH245392   5.745   2.887  11.071
 7066TIP3    H145393   5.753   2.855  10.978
 7066TIP3    H245394   5.832   2.855  11.105
 7067TIP3   OH245395   7.331   2.832  11.607
 7067TIP3    H145396   7.405   2.771  11.587
 7067TIP3    H245397   7.377   2.917  11.595
 7068TIP3   OH245398   7.478   2.609  11.633
 7068TIP3    H145399   7.380   2.610  11.639
 7068TIP3    H245400   7.498   2.519  11.670
 7069TIP3   OH245401   7.250   2.181   9.969
 7069TIP3    H145402   7.321   2.150  10.029
 7069TIP3    H245403   7.183   2.215  10.030
 7070TIP3   OH245404   7.230   2.432  10.484
 7070TIP3    H145405   7.228   2.335  10.497
 7070TIP3    H245406   7.326   2.447  10.486
 7071TIP3   OH245407   7.245   2.486  11.043
 7071TIP3    H145408   7.342   2.471  11.026
 7071TIP3    H245409   7.242   2.471  11.140
 7072TIP3   OH245410   7.281   2.522  11.326
 7072TIP3    H145411   7.194   2.563  11.343
 7072TIP3    H245412   7.335   2.601  11.306
 7073TIP3   OH245413   5.711   2.350  11.650
 7073TIP3    H145414   5.801   2.338  11.688
 7073TIP3    H245415   5.658   2.290  11.706
 7074TIP3   OH245416   7.505   1.894  11.825
 7074TIP3    H145417   7.555   1.844  11.759
 7074TIP3    H245418   7.492   1.977  11.773
 7075TIP3   OH245419   7.257   2.167  10.491
 7075TIP3    H145420   7.290   2.130  10.576
 7075TIP3    H245421   7.212   2.088  10.457
 7076TIP3   OH245422   5.841   2.206  11.018
 7076TIP3    H145423   5.884   2.119  11.012
 7076TIP3    H245424   5.910   2.270  10.996
 7077TIP3   OH245425   5.689   2.515  11.058
 7077TIP3    H145426   5.744   2.496  10.979
 7077TIP3    H245427   5.733   2.596  11.087
 7078TIP3   OH245428   7.452   2.119  11.690
 7078TIP3    H145429   7.372   2.167  11.724
 7078TIP3    H245430   7.418   2.090  11.604
 7079TIP3   OH245431   7.497   2.119  10.127
 7079TIP3    H145432   7.555   2.044  10.106
 7079TIP3    H245433   7.544   2.192  10.084
 7080TIP3   OH245434   5.704   2.137  10.463
 7080TIP3    H145435   5.612   2.166  10.469
 7080TIP3    H245436   5.729   2.178  10.378
 7081TIP3   OH245437   7.176   3.605  10.655
 7081TIP3    H145438   7.235   3.591  10.578
 7081TIP3    H245439   7.231   3.658  10.713
 7082TIP3   OH245440   5.713   1.996  11.294
 7082TIP3    H145441   5.639   1.945  11.331
 7082TIP3    H245442   5.668   2.062  11.237
 7083TIP3   OH245443   5.943   3.315  11.701
 7083TIP3    H145444   5.886   3.378  11.656
 7083TIP3    H245445   5.907   3.317  11.790
 7084TIP3   OH245446   6.209   3.453  11.331
 7084TIP3    H145447   6.199   3.550  11.340
 7084TIP3    H245448   6.305   3.445  11.351
 7085TIP3   OH245449   6.632   3.587  11.650
 7085TIP3    H145450   6.652   3.572  11.745
 7085TIP3    H245451   6.723   3.606  11.616
 7086TIP3   OH245452   6.859   3.710  11.568
 7086TIP3    H145453   6.935   3.677  11.520
 7086TIP3    H245454   6.896   3.777  11.627
 7087TIP3   OH245455   7.340   1.951  11.497
 7087TIP3    H145456   7.264   1.990  11.451
 7087TIP3    H245457   7.349   1.865  11.451
 7088TIP3   OH245458   5.960   3.768  11.272
 7088TIP3    H145459   5.882   3.826  11.270
 7088TIP3    H245460   5.961   3.732  11.363
 7089TIP3   OH245461   6.218   3.718  11.235
 7089TIP3    H145462   6.122   3.730  11.259
 7089TIP3    H245463   6.217   3.774  11.156
 7090TIP3   OH245464   6.673   3.676  11.152
 7090TIP3    H145465   6.609   3.721  11.095
 7090TIP3    H245466   6.691   3.745  11.219
 7091TIP3   OH245467   6.861   3.549  11.308
 7091TIP3    H145468   6.797   3.577  11.239
 7091TIP3    H245469   6.935   3.610  11.286
 7092TIP3   OH245470   7.117   3.679  11.261
 7092TIP3    H145471   7.126   3.769  11.228
 7092TIP3    H245472   7.173   3.629  11.198
 7093TIP3   OH245473   5.907   3.591  11.015
 7093TIP3    H145474   5.889   3.542  11.099
 7093TIP3    H245475   6.000   3.562  11.000
 7094TIP3   OH245476   6.131   3.497  10.911
 7094TIP3    H145477   6.124   3.400  10.923
 7094TIP3    H245478   6.222   3.513  10.944
 7095TIP3   OH245479   6.363   3.508  11.031
 7095TIP3    H145480   6.403   3.421  11.016
 7095TIP3    H245481   6.346   3.504  11.127
 7096TIP3   OH245482   6.686   2.082  10.848
 7096TIP3    H145483   6.621   2.042  10.908
 7096TIP3    H245484   6.746   2.007  10.835
 7097TIP3   OH245485   7.216   1.906  10.914
 7097TIP3    H145486   7.262   1.963  10.849
 7097TIP3    H245487   7.124   1.928  10.890
 7098TIP3   OH245488   7.350   2.035  10.714
 7098TIP3    H145489   7.419   1.969  10.690
 7098TIP3    H245490   7.409   2.106  10.748
 7099TIP3   OH245491   5.961   1.925  10.688
 7099TIP3    H145492   5.877   1.913  10.641
 7099TIP3    H245493   5.998   1.834  10.680
 7100TIP3   OH245494   5.817   1.923  10.245
 7100TIP3    H145495   5.877   1.988  10.202
 7100TIP3    H245496   5.776   1.975  10.317
 7101TIP3   OH245497   6.391   1.883  10.666
 7101TIP3    H145498   6.463   1.925  10.619
 7101TIP3    H245499   6.403   1.916  10.756
 7102TIP3   OH245500   6.957   1.962  10.828
 7102TIP3    H145501   6.943   1.969  10.733
 7102TIP3    H245502   6.915   1.873  10.847
 7103TIP3   OH245503   7.104   1.937  10.393
 7103TIP3    H145504   7.029   1.992  10.424
 7103TIP3    H245505   7.073   1.847  10.415
 7104TIP3   OH245506   5.817   3.525  10.359
 7104TIP3    H145507   5.732   3.527  10.312
 7104TIP3    H245508   5.838   3.619  10.356
 7105TIP3   OH245509   6.004   2.060  10.105
 7105TIP3    H145510   6.076   1.996  10.117
 7105TIP3    H245511   6.034   2.136  10.155
 7106TIP3   OH245512   6.551   2.170  10.350
 7106TIP3    H145513   6.603   2.120  10.417
 7106TIP3    H245514   6.568   2.259  10.386
 7107TIP3   OH245515   6.693   3.664  10.155
 7107TIP3    H145516   6.791   3.678  10.146
 7107TIP3    H245517   6.677   3.615  10.073
 7108TIP3   OH245518   7.359   3.599  10.455
 7108TIP3    H145519   7.355   3.505  10.426
 7108TIP3    H245520   7.348   3.645  10.371
 7109TIP3   OH245521   5.930   2.019  11.642
 7109TIP3    H145522   5.878   1.936  11.638
 7109TIP3    H245523   6.010   1.991  11.692
 7110TIP3   OH245524   6.143   1.929  11.801
 7110TIP3    H145525   6.235   1.933  11.769
 7110TIP3    H245526   6.148   1.842  11.843
 7111TIP3   OH245527   6.032   3.647  10.113
 7111TIP3    H145528   5.968   3.674  10.182
 7111TIP3    H245529   6.076   3.569  10.150
 7112TIP3   OH245530   6.969   1.886  11.825
 7112TIP3    H145531   6.976   1.832  11.907
 7112TIP3    H245532   7.055   1.864  11.784
 7113TIP3   OH245533   7.288   3.470  11.658
 7113TIP3    H145534   7.237   3.479  11.574
 7113TIP3    H245535   7.273   3.559  11.694
 7114TIP3   OH245536   7.568   2.518  10.561
 7114TIP3    H145537   7.547   2.614  10.559
 7114TIP3    H245538   7.549   2.494  10.467
 7115TIP3   OH245539   7.584   3.003  11.336
 7115TIP3    H145540   7.536   2.999  11.251
 7115TIP3    H245541   7.579   2.911  11.369
 7116TIP3   OH245542   7.543   3.291  11.013
 7116TIP3    H145543   7.632   3.289  10.971
 7116TIP3    H245544   7.555   3.368  11.071
 7117TIP3   OH245545   7.535   2.226  10.717
 7117TIP3    H145546   7.623   2.264  10.734
 7117TIP3    H245547   7.533   2.233  10.620
 7118TIP3   OH245548   7.595   2.744  11.434
 7118TIP3    H145549   7.573   2.684  11.509
 7118TIP3    H245550   7.520   2.724  11.374
 7119TIP3   OH245551   7.641   2.939  11.747
 7119TIP3    H145552   7.585   2.869  11.785
 7119TIP3    H245553   7.576   2.991  11.694
 7120TIP3   OH245554   7.507   3.721  10.645
 7120TIP3    H145555   7.450   3.683  10.575
 7120TIP3    H245556   7.525   3.639  10.697
 7121TIP3   OH245557   7.555   3.498  10.787
 7121TIP3    H145558   7.504   3.419  10.808
 7121TIP3    H245559   7.596   3.517  10.874
 7122TIP3   OH245560   7.624   2.784  11.080
 7122TIP3    H145561   7.602   2.811  10.990
 7122TIP3    H245562   7.702   2.842  11.096
 7123TIP3   OH245563   7.547   2.364  11.698
 7123TIP3    H145564   7.644   2.369  11.685
 7123TIP3    H245565   7.531   2.267  11.698
 7124TIP3   OH245566   7.507   2.505  11.010
 7124TIP3    H145567   7.603   2.482  11.020
 7124TIP3    H245568   7.518   2.600  11.015
 7125TIP3   OH245569   7.511   2.168  10.409
 7125TIP3    H145570   7.415   2.185  10.423
 7125TIP3    H245571   7.517   2.171  10.312
 7126TIP3   OH245572   7.466   1.973  11.253
 7126TIP3    H145573   7.456   1.986  11.349
 7126TIP3    H245574   7.430   2.055  11.215
 7127TIP3   OH245575   1.225   4.762  10.669
 7127TIP3    H145576   1.219   4.851  10.709
 7127TIP3    H245577   1.155   4.769  10.602
 7128TIP3   OH245578   1.103   4.656  11.014
 7128TIP3    H145579   1.110   4.611  11.102
 7128TIP3    H245580   1.040   4.598  10.968
 7129TIP3   OH245581   0.335   4.649  11.175
 7129TIP3    H145582   0.321   4.562  11.216
 7129TIP3    H245583   0.393   4.687  11.245
 7130TIP3   OH245584   1.413   4.955  10.859
 7130TIP3    H145585   1.393   4.883  10.921
 7130TIP3    H245586   1.430   5.029  10.920
 7131TIP3   OH245587   0.344   5.094  10.960
 7131TIP3    H145588   0.324   5.000  10.939
 7131TIP3    H245589   0.438   5.092  10.980
 7132TIP3   OH245590   0.136   4.426  10.496
 7132TIP3    H145591   0.133   4.500  10.557
 7132TIP3    H245592   0.039   4.406  10.495
 7133TIP3   OH245593   0.137   4.676  10.798
 7133TIP3    H145594   0.156   4.585  10.829
 7133TIP3    H245595   0.065   4.667  10.735
 7134TIP3   OH245596   1.180   5.508  10.885
 7134TIP3    H145597   1.246   5.454  10.835
 7134TIP3    H245598   1.130   5.434  10.923
 7135TIP3   OH245599   0.920   4.955  11.077
 7135TIP3    H145600   0.944   4.881  11.019
 7135TIP3    H245601   1.006   4.972  11.122
 7136TIP3   OH245602   1.778   4.070  11.099
 7136TIP3    H145603   1.784   4.127  11.178
 7136TIP3    H245604   1.861   4.093  11.054
 7137TIP3   OH245605   1.298   4.370  11.119
 7137TIP3    H145606   1.309   4.273  11.133
 7137TIP3    H245607   1.262   4.369  11.029
 7138TIP3   OH245608   0.582   4.156  10.796
 7138TIP3    H145609   0.585   4.239  10.744
 7138TIP3    H245610   0.538   4.097  10.731
 7139TIP3   OH245611   1.319   4.169  10.647
 7139TIP3    H145612   1.369   4.145  10.728
 7139TIP3    H245613   1.373   4.242  10.614
 7140TIP3   OH245614   0.294   4.457  10.838
 7140TIP3    H145615   0.339   4.395  10.900
 7140TIP3    H245616   0.275   4.394  10.768
 7141TIP3   OH245617   0.722   4.573  10.829
 7141TIP3    H145618   0.805   4.529  10.856
 7141TIP3    H245619   0.675   4.497  10.790
 7142TIP3   OH245620   1.795   4.209  11.340
 7142TIP3    H145621   1.761   4.295  11.304
 7142TIP3    H245622   1.802   4.234  11.434
 7143TIP3   OH245623   0.466   4.076  11.203
 7143TIP3    H145624   0.436   4.117  11.119
 7143TIP3    H245625   0.406   4.119  11.266
 7144TIP3   OH245626   1.133   5.009  10.553
 7144TIP3    H145627   1.132   5.011  10.455
 7144TIP3    H245628   1.106   5.102  10.572
 7145TIP3   OH245629   0.710   4.840  11.204
 7145TIP3    H145630   0.647   4.908  11.234
 7145TIP3    H245631   0.776   4.896  11.157
 7146TIP3   OH245632   1.494   4.151  10.849
 7146TIP3    H145633   1.479   4.068  10.893
 7146TIP3    H245634   1.583   4.174  10.881
 7147TIP3   OH245635   0.404   4.266  10.988
 7147TIP3    H145636   0.464   4.320  11.045
 7147TIP3    H245637   0.468   4.233  10.922
 7148TIP3   OH245638   0.553   5.051  11.283
 7148TIP3    H145639   0.548   5.128  11.226
 7148TIP3    H245640   0.464   5.050  11.323
 7149TIP3   OH245641   0.116   4.972  10.401
 7149TIP3    H145642   0.108   5.013  10.312
 7149TIP3    H245643   0.142   5.047  10.457
 7150TIP3   OH245644   1.508   5.161  11.063
 7150TIP3    H145645   1.414   5.181  11.081
 7150TIP3    H245646   1.534   5.247  11.025
 7151TIP3   OH245647   1.489   4.014  11.180
 7151TIP3    H145648   1.411   4.048  11.130
 7151TIP3    H245649   1.562   4.039  11.121
 7152TIP3   OH245650   0.815   3.815  10.930
 7152TIP3    H145651   0.783   3.724  10.935
 7152TIP3    H245652   0.733   3.862  10.962
 7153TIP3   OH245653   1.338   5.343  10.735
 7153TIP3    H145654   1.351   5.260  10.684
 7153TIP3    H245655   1.423   5.387  10.713
 7154TIP3   OH245656   1.436   5.126  10.586
 7154TIP3    H145657   1.431   5.058  10.517
 7154TIP3    H245658   1.419   5.072  10.665
 7155TIP3   OH245659   1.602   4.994  11.454
 7155TIP3    H145660   1.627   4.921  11.392
 7155TIP3    H245661   1.604   5.069  11.392
 7156TIP3   OH245662   1.079   4.710  10.418
 7156TIP3    H145663   1.035   4.796  10.400
 7156TIP3    H245664   1.160   4.714  10.361
 7157TIP3   OH245665   1.103   4.557  10.122
 7157TIP3    H145666   1.174   4.600  10.175
 7157TIP3    H245667   1.145   4.469  10.108
 7158TIP3   OH245668   1.818   4.646  11.234
 7158TIP3    H145669   1.748   4.714  11.234
 7158TIP3    H245670   1.875   4.682  11.162
 7159TIP3   OH245671   1.432   4.680  10.515
 7159TIP3    H145672   1.360   4.713  10.573
 7159TIP3    H245673   1.496   4.645  10.582
 7160TIP3   OH245674   1.436   4.545  11.408
 7160TIP3    H145675   1.400   4.626  11.447
 7160TIP3    H245676   1.369   4.530  11.339
 7161TIP3   OH245677   0.597   4.742  10.673
 7161TIP3    H145678   0.617   4.744  10.578
 7161TIP3    H245679   0.668   4.684  10.712
 7162TIP3   OH245680   0.693   5.072  10.954
 7162TIP3    H145681   0.715   5.086  10.860
 7162TIP3    H245682   0.777   5.040  10.993
 7163TIP3   OH245683   0.615   4.631  11.065
 7163TIP3    H145684   0.666   4.635  10.981
 7163TIP3    H245685   0.653   4.703  11.120
 7164TIP3   OH245686   1.250   5.214  11.128
 7164TIP3    H145687   1.242   5.279  11.200
 7164TIP3    H245688   1.207   5.136  11.170
 7165TIP3   OH245689   0.699   5.097  11.518
 7165TIP3    H145690   0.621   5.130  11.567
 7165TIP3    H245691   0.659   5.079  11.431
 7166TIP3   OH245692   1.303   4.645  10.284
 7166TIP3    H145693   1.356   4.654  10.368
 7166TIP3    H245694   1.361   4.692  10.219
 7167TIP3   OH245695   0.438   4.710  11.412
 7167TIP3    H145696   0.434   4.785  11.476
 7167TIP3    H245697   0.353   4.669  11.434
 7168TIP3   OH245698   1.067   5.292  10.562
 7168TIP3    H145699   1.101   5.338  10.639
 7168TIP3    H245700   1.027   5.362  10.509
 7169TIP3   OH245701   0.511   5.260  11.622
 7169TIP3    H145702   0.502   5.296  11.531
 7169TIP3    H245703   0.418   5.251  11.650
 7170TIP3   OH245704   1.695   3.782  10.291
 7170TIP3    H145705   1.600   3.782  10.320
 7170TIP3    H245706   1.707   3.876  10.274
 7171TIP3   OH245707   0.408   4.646  10.492
 7171TIP3    H145708   0.408   4.713  10.419
 7171TIP3    H245709   0.415   4.562  10.445
 7172TIP3   OH245710   1.779   5.256  10.111
 7172TIP3    H145711   1.807   5.350  10.124
 7172TIP3    H245712   1.861   5.206  10.131
 7173TIP3   OH245713   0.160   4.890  11.358
 7173TIP3    H145714   0.063   4.893  11.345
 7173TIP3    H245715   0.179   4.795  11.347
 7174TIP3   OH245716   0.117   5.238  10.987
 7174TIP3    H145717   0.196   5.181  10.990
 7174TIP3    H245718   0.124   5.280  11.075
 7175TIP3   OH245719   1.882   5.250  11.609
 7175TIP3    H145720   1.864   5.159  11.582
 7175TIP3    H245721   1.793   5.273  11.645
 7176TIP3   OH245722   0.949   5.197  11.498
 7176TIP3    H145723   0.964   5.272  11.559
 7176TIP3    H245724   0.852   5.176  11.508
 7177TIP3   OH245725   1.001   5.559  10.437
 7177TIP3    H145726   1.026   5.589  10.349
 7177TIP3    H245727   1.011   5.643  10.488
 7178TIP3   OH245728   0.402   5.432  10.653
 7178TIP3    H145729   0.416   5.414  10.748
 7178TIP3    H245730   0.305   5.424  10.647
 7179TIP3   OH245731   1.297   5.558  10.191
 7179TIP3    H145732   1.349   5.481  10.158
 7179TIP3    H245733   1.320   5.557  10.286
 7180TIP3   OH245734   1.276   5.495  10.466
 7180TIP3    H145735   1.180   5.489  10.471
 7180TIP3    H245736   1.302   5.408  10.502
 7181TIP3   OH245737   1.557   4.388  11.644
 7181TIP3    H145738   1.502   4.431  11.574
 7181TIP3    H245739   1.562   4.297  11.608
 7182TIP3   OH245740   0.327   5.075  11.437
 7182TIP3    H145741   0.343   5.019  11.516
 7182TIP3    H245742   0.253   5.023  11.397
 7183TIP3   OH245743   0.588   3.920  11.022
 7183TIP3    H145744   0.495   3.921  10.990
 7183TIP3    H245745   0.575   3.967  11.107
 7184TIP3   OH245746   1.071   3.851  11.343
 7184TIP3    H145747   1.101   3.789  11.412
 7184TIP3    H245748   0.973   3.852  11.355
 7185TIP3   OH245749   1.313   4.265  11.482
 7185TIP3    H145750   1.265   4.218  11.555
 7185TIP3    H245751   1.255   4.342  11.469
 7186TIP3   OH245752   1.468   4.759  10.120
 7186TIP3    H145753   1.428   4.762  10.029
 7186TIP3    H245754   1.560   4.781  10.093
 7187TIP3   OH245755   1.013   4.132  10.127
 7187TIP3    H145756   0.959   4.100  10.203
 7187TIP3    H245757   0.966   4.090  10.054
 7188TIP3   OH245758   0.582   4.383  11.153
 7188TIP3    H145759   0.510   4.391  11.219
 7188TIP3    H245760   0.599   4.478  11.132
 7189TIP3   OH245761   0.577   4.396  10.681
 7189TIP3    H145762   0.489   4.360  10.651
 7189TIP3    H245763   0.619   4.405  10.593
 7190TIP3   OH245764   1.152   4.484  10.548
 7190TIP3    H145765   1.116   4.564  10.503
 7190TIP3    H245766   1.208   4.448  10.477
 7191TIP3   OH245767   1.023   4.487  11.654
 7191TIP3    H145768   0.976   4.408  11.686
 7191TIP3    H245769   1.099   4.489  11.714
 7192TIP3   OH245770   1.237   4.412  10.814
 7192TIP3    H145771   1.230   4.498  10.768
 7192TIP3    H245772   1.233   4.354  10.736
 7193TIP3   OH245773   0.342   4.384  11.296
 7193TIP3    H145774   0.365   4.424  11.381
 7193TIP3    H245775   0.303   4.298  11.325
 7194TIP3   OH245776   0.687   4.130  10.009
 7194TIP3    H145777   0.659   4.110  10.099
 7194TIP3    H245778   0.624   4.199   9.984
 7195TIP3   OH245779   0.114   4.194  10.739
 7195TIP3    H145780   0.149   4.135  10.808
 7195TIP3    H245781   0.097   4.135  10.664
 7196TIP3   OH245782   0.108   4.193  10.252
 7196TIP3    H145783   0.180   4.243  10.211
 7196TIP3    H245784   0.041   4.262  10.262
 7197TIP3   OH245785   1.147   4.541  11.252
 7197TIP3    H145786   1.210   4.475  11.215
 7197TIP3    H245787   1.087   4.483  11.305
 7198TIP3   OH245788   0.861   4.168  10.764
 7198TIP3    H145789   0.767   4.168  10.788
 7198TIP3    H245790   0.901   4.114  10.835
 7199TIP3   OH245791   0.342   4.312  10.604
 7199TIP3    H145792   0.263   4.332  10.548
 7199TIP3    H245793   0.342   4.213  10.605
 7200TIP3   OH245794   0.665   4.355  10.418
 7200TIP3    H145795   0.761   4.337  10.418
 7200TIP3    H245796   0.649   4.381  10.324
 7201TIP3   OH245797   1.266   4.097  11.072
 7201TIP3    H145798   1.205   4.082  11.147
 7201TIP3    H245799   1.234   4.032  11.007
 7202TIP3   OH245800   0.625   4.407  10.144
 7202TIP3    H145801   0.531   4.414  10.123
 7202TIP3    H245802   0.668   4.474  10.088
 7203TIP3   OH245803   1.582   5.651  11.715
 7203TIP3    H145804   1.617   5.677  11.628
 7203TIP3    H245805   1.658   5.675  11.770
 7204TIP3   OH245806   0.424   4.899  11.608
 7204TIP3    H145807   0.494   4.911  11.675
 7204TIP3    H245808   0.346   4.887  11.664
 7205TIP3   OH245809   0.948   4.442  10.933
 7205TIP3    H145810   1.028   4.415  10.885
 7205TIP3    H245811   0.919   4.359  10.971
 7206TIP3   OH245812   0.404   4.056  10.600
 7206TIP3    H145813   0.352   3.982  10.639
 7206TIP3    H245814   0.414   4.026  10.508
 7207TIP3   OH245815   0.814   4.249  11.173
 7207TIP3    H145816   0.733   4.305  11.167
 7207TIP3    H245817   0.878   4.311  11.211
 7208TIP3   OH245818   0.893   4.907  10.362
 7208TIP3    H145819   0.817   4.854  10.332
 7208TIP3    H245820   0.859   4.931  10.452
 7209TIP3   OH245821   1.635   4.853  11.234
 7209TIP3    H145822   1.681   4.909  11.166
 7209TIP3    H245823   1.551   4.837  11.189
 7210TIP3   OH245824   1.265   4.173  10.178
 7210TIP3    H145825   1.167   4.177  10.167
 7210TIP3    H245826   1.286   4.262  10.215
 7211TIP3   OH245827   0.984   4.925  11.477
 7211TIP3    H145828   0.939   4.896  11.558
 7211TIP3    H245829   0.978   5.022  11.488
 7212TIP3   OH245830   1.339   4.385  10.322
 7212TIP3    H145831   1.418   4.367  10.376
 7212TIP3    H245832   1.353   4.477  10.293
 7213TIP3   OH245833   0.425   4.825  10.904
 7213TIP3    H145834   0.503   4.881  10.890
 7213TIP3    H245835   0.449   4.777  10.986
 7214TIP3   OH245836   1.121   5.052  10.271
 7214TIP3    H145837   1.080   5.142  10.274
 7214TIP3    H245838   1.042   4.997  10.286
 7215TIP3   OH245839   0.175   4.604  11.408
 7215TIP3    H145840   0.173   4.576  11.502
 7215TIP3    H245841   0.078   4.612  11.395
 7216TIP3   OH245842   0.784   4.641  11.640
 7216TIP3    H145843   0.729   4.580  11.586
 7216TIP3    H245844   0.868   4.591  11.650
 7217TIP3   OH245845   1.287   5.158  11.506
 7217TIP3    H145846   1.206   5.174  11.455
 7217TIP3    H245847   1.262   5.201  11.590
 7218TIP3   OH245848   1.831   4.365  10.336
 7218TIP3    H145849   1.760   4.351  10.270
 7218TIP3    H245850   1.845   4.461  10.319
 7219TIP3   OH245851   1.849   4.965  11.571
 7219TIP3    H145852   1.756   4.973  11.539
 7219TIP3    H245853   1.900   4.965  11.487
 7220TIP3   OH245854   1.693   5.221  10.362
 7220TIP3    H145855   1.607   5.177  10.369
 7220TIP3    H245856   1.703   5.230  10.265
 7221TIP3   OH245857   1.373   4.743  11.041
 7221TIP3    H145858   1.280   4.717  11.025
 7221TIP3    H245859   1.420   4.674  10.991
 7222TIP3   OH245860   0.613   5.165  10.699
 7222TIP3    H145861   0.649   5.254  10.679
 7222TIP3    H245862   0.523   5.173  10.664
 7223TIP3   OH245863   0.236   4.648  10.119
 7223TIP3    H145864   0.286   4.723  10.155
 7223TIP3    H245865   0.150   4.658  10.163
 7224TIP3   OH245866   0.769   4.948  10.608
 7224TIP3    H145867   0.720   5.033  10.617
 7224TIP3    H245868   0.741   4.899  10.687
 7225TIP3   OH245869   0.837   5.341  11.280
 7225TIP3    H145870   0.890   5.417  11.247
 7225TIP3    H245871   0.897   5.302  11.347
 7226TIP3   OH245872   0.665   5.415  10.582
 7226TIP3    H145873   0.570   5.433  10.598
 7226TIP3    H245874   0.703   5.503  10.605
 7227TIP3   OH245875   1.141   4.965  11.228
 7227TIP3    H145876   1.094   4.928  11.305
 7227TIP3    H245877   1.192   4.887  11.201
 7228TIP3   OH245878   1.418   5.064  10.118
 7228TIP3    H145879   1.430   5.016  10.203
 7228TIP3    H245880   1.321   5.057  10.116
 7229TIP3   OH245881   1.468   5.403  11.460
 7229TIP3    H145882   1.377   5.366  11.463
 7229TIP3    H245883   1.465   5.462  11.381
 7230TIP3   OH245884   1.854   5.514  10.161
 7230TIP3    H145885   1.929   5.573  10.143
 7230TIP3    H245886   1.795   5.575  10.212
 7231TIP3   OH245887   0.266   4.157  11.402
 7231TIP3    H145888   0.235   4.188  11.489
 7231TIP3    H245889   0.241   4.063  11.407
 7232TIP3   OH245890   1.490   4.935  10.344
 7232TIP3    H145891   1.481   4.839  10.344
 7232TIP3    H245892   1.588   4.942  10.342
 7233TIP3   OH245893   0.225   5.323  11.230
 7233TIP3    H145894   0.303   5.269  11.252
 7233TIP3    H245895   0.201   5.357  11.317
 7234TIP3   OH245896   0.668   5.116  10.217
 7234TIP3    H145897   0.754   5.084  10.245
 7234TIP3    H245898   0.676   5.211  10.242
 7235TIP3   OH245899   0.351   4.854  10.292
 7235TIP3    H145900   0.266   4.896  10.320
 7235TIP3    H245901   0.395   4.927  10.245
 7236TIP3   OH245902   1.137   4.109  11.320
 7236TIP3    H145903   1.220   4.131  11.362
 7236TIP3    H245904   1.119   4.016  11.350
 7237TIP3   OH245905   1.230   4.050  10.430
 7237TIP3    H145906   1.257   4.107  10.355
 7237TIP3    H245907   1.275   4.093  10.507
 7238TIP3   OH245908   0.982   5.293  10.255
 7238TIP3    H145909   0.897   5.321  10.294
 7238TIP3    H245910   1.025   5.380  10.244
 7239TIP3   OH245911   0.948   4.245  10.524
 7239TIP3    H145912   1.010   4.320  10.536
 7239TIP3    H245913   0.914   4.228  10.615
 7240TIP3   OH245914   1.037   4.359  11.406
 7240TIP3    H145915   1.050   4.382  11.499
 7240TIP3    H245916   1.057   4.263  11.400
 7241TIP3   OH245917   1.015   3.935  10.559
 7241TIP3    H145918   0.976   4.014  10.601
 7241TIP3    H245919   1.094   3.977  10.516
 7242TIP3   OH245920   0.713   5.371  10.297
 7242TIP3    H145921   0.727   5.461  10.260
 7242TIP3    H245922   0.699   5.393  10.391
 7243TIP3   OH245923   0.578   4.067  10.290
 7243TIP3    H145924   0.574   4.152  10.336
 7243TIP3    H245925   0.669   4.035  10.308
 7244TIP3   OH245926   1.578   4.162  11.501
 7244TIP3    H145927   1.483   4.176  11.483
 7244TIP3    H245928   1.614   4.153  11.411
 7245TIP3   OH245929   1.476   4.506  10.899
 7245TIP3    H145930   1.402   4.444  10.891
 7245TIP3    H245931   1.540   4.455  10.952
 7246TIP3   OH245932   0.409   5.095  10.142
 7246TIP3    H145933   0.488   5.123  10.192
 7246TIP3    H245934   0.453   5.037  10.078
 7247TIP3   OH245935   0.326   4.377  10.138
 7247TIP3    H145936   0.309   4.468  10.168
 7247TIP3    H245937   0.252   4.372  10.072
 7248TIP3   OH245938   1.573   5.441  11.060
 7248TIP3    H145939   1.583   5.506  10.987
 7248TIP3    H245940   1.669   5.432  11.080
 7249TIP3   OH245941   0.331   3.872  10.953
 7249TIP3    H145942   0.329   3.839  10.861
 7249TIP3    H245943   0.302   3.788  10.998
 7250TIP3   OH245944   0.211   5.208  10.532
 7250TIP3    H145945   0.127   5.255  10.541
 7250TIP3    H245946   0.265   5.270  10.481
 7251TIP3   OH245947   0.160   5.524  11.682
 7251TIP3    H145948   0.225   5.524  11.755
 7251TIP3    H245949   0.122   5.437  11.699
 7252TIP3   OH245950   0.615   5.433  11.829
 7252TIP3    H145951   0.688   5.382  11.868
 7252TIP3    H245952   0.595   5.385  11.747
 7253TIP3   OH245953   1.010   5.333   9.967
 7253TIP3    H145954   0.953   5.278  10.024
 7253TIP3    H245955   1.096   5.308  10.004
 7254TIP3   OH245956   1.230   5.276  11.735
 7254TIP3    H145957   1.198   5.188  11.769
 7254TIP3    H245958   1.319   5.280  11.777
 7255TIP3   OH245959   1.421   5.327  10.104
 7255TIP3    H145960   1.439   5.231  10.093
 7255TIP3    H245961   1.460   5.367  10.024
 7256TIP3   OH245962   0.199   4.926  11.774
 7256TIP3    H145963   0.212   4.851  11.834
 7256TIP3    H245964   0.102   4.913  11.762
 7257TIP3   OH245965   0.609   4.867  10.065
 7257TIP3    H145966   0.617   4.832  10.156
 7257TIP3    H245967   0.693   4.914  10.055
 7258TIP3   OH245968   0.777   4.914  11.700
 7258TIP3    H145969   0.748   4.963  11.621
 7258TIP3    H245970   0.762   4.818  11.679
 7259TIP3   OH245971   1.354   4.878  11.489
 7259TIP3    H145972   1.439   4.929  11.488
 7259TIP3    H245973   1.295   4.955  11.499
 7260TIP3   OH245974   0.201   4.569  11.739
 7260TIP3    H145975   0.298   4.572  11.751
 7260TIP3    H245976   0.172   4.618  11.818
 7261TIP3   OH245977   0.677   4.710  10.271
 7261TIP3    H145978   0.619   4.634  10.286
 7261TIP3    H245979   0.741   4.673  10.207
 7262TIP3   OH245980   0.620   4.516  11.446
 7262TIP3    H145981   0.558   4.593  11.448
 7262TIP3    H245982   0.691   4.551  11.387
 7263TIP3   OH245983   0.829   4.569  10.069
 7263TIP3    H145984   0.844   4.515   9.989
 7263TIP3    H245985   0.920   4.564  10.109
 7264TIP3   OH245986   1.143   4.796  11.788
 7264TIP3    H145987   1.202   4.744  11.731
 7264TIP3    H245988   1.096   4.726  11.835
 7265TIP3   OH245989   1.699   4.770  19.985
 7265TIP3    H145990   1.769   4.721  19.938
 7265TIP3    H245991   1.737   4.858  19.979
 7266TIP3   OH245992   0.674   4.266  11.522
 7266TIP3    H145993   0.677   4.202  11.447
 7266TIP3    H245994   0.661   4.353  11.479
 7267TIP3   OH245995   0.701   4.069  11.334
 7267TIP3    H145996   0.755   4.123  11.271
 7267TIP3    H245997   0.616   4.066  11.286
 7268TIP3   OH245998   0.841   4.632  11.322
 7268TIP3    H145999   0.932   4.660  11.331
 7268TIP3    H246000   0.796   4.713  11.291
 7269TIP3   OH246001   1.276   4.391  11.829
 7269TIP3    H146002   1.302   4.298  11.829
 7269TIP3    H246003   1.360   4.437  11.814
 7270TIP3   OH246004   1.433   4.714  11.687
 7270TIP3    H146005   1.398   4.766  11.611
 7270TIP3    H246006   1.527   4.708  11.660
 7271TIP3   OH246007   0.537   4.308  11.753
 7271TIP3    H146008   0.441   4.287  11.752
 7271TIP3    H246009   0.568   4.288  11.662
 7272TIP3   OH246010   0.798   3.823  11.326
 7272TIP3    H146011   0.763   3.914  11.341
 7272TIP3    H246012   0.715   3.777  11.306
 7273TIP3   OH246013   0.878   4.262  11.735
 7273TIP3    H146014   0.822   4.235  11.811
 7273TIP3    H246015   0.814   4.249  11.662
 7274TIP3   OH246016   1.145   4.181  11.667
 7274TIP3    H146017   1.052   4.185  11.696
 7274TIP3    H246018   1.188   4.136  11.743
 7275TIP3   OH246019   1.316   4.037  11.830
 7275TIP3    H146020   1.319   3.939  11.825
 7275TIP3    H246021   1.313   4.051  11.927
 7276TIP3   OH246022   0.299   4.154  11.770
 7276TIP3    H146023   0.321   4.072  11.722
 7276TIP3    H246024   0.281   4.116  11.859
 7277TIP3   OH246025   0.786   3.796  11.605
 7277TIP3    H146026   0.862   3.738  11.624
 7277TIP3    H246027   0.781   3.788  11.507
 7278TIP3   OH246028   0.809   3.888  11.865
 7278TIP3    H146029   0.792   3.856  11.773
 7278TIP3    H246030   0.778   3.981  11.858
 7279TIP3   OH246031   0.750   5.615  10.189
 7279TIP3    H146032   0.846   5.617  10.205
 7279TIP3    H246033   0.745   5.645  10.098
 7280TIP3   OH246034   0.152   5.052  10.136
 7280TIP3    H146035   0.246   5.080  10.140
 7280TIP3    H246036   0.154   4.992  10.059
 7281TIP3   OH246037   0.081   5.568  10.577
 7281TIP3    H146038  -0.005   5.612  10.598
 7281TIP3    H246039   0.102   5.529  10.665
 7282TIP3   OH246040   0.166   5.439  10.798
 7282TIP3    H146041   0.141   5.345  10.803
 7282TIP3    H246042   0.208   5.453  10.885
 7283TIP3   OH246043   1.840   5.498  11.065
 7283TIP3    H146044   1.877   5.499  11.154
 7283TIP3    H246045   1.918   5.515  11.009
 7284TIP3   OH246046   1.775   5.458  11.362
 7284TIP3    H146047   1.741   5.377  11.317
 7284TIP3    H246048   1.805   5.419  11.446
 7285TIP3   OH246049   1.661   5.024  11.855
 7285TIP3    H146050   1.569   5.028  11.888
 7285TIP3    H246051   1.697   5.107  11.892
 7286TIP3   OH246052   1.753   4.881  10.368
 7286TIP3    H146053   1.839   4.922  10.390
 7286TIP3    H246054   1.736   4.826  10.447
 7287TIP3   OH246055   1.817   4.687  10.603
 7287TIP3    H146056   1.734   4.641  10.631
 7287TIP3    H246057   1.866   4.694  10.688
 7288TIP3   OH246058   1.785   4.959  11.045
 7288TIP3    H146059   1.852   4.888  11.031
 7288TIP3    H246060   1.827   5.037  11.003
 7289TIP3   OH246061   1.651   5.231  11.293
 7289TIP3    H146062   1.579   5.272  11.344
 7289TIP3    H246063   1.603   5.195  11.214
 7290TIP3   OH246064   1.857   4.663  10.200
 7290TIP3    H146065   1.788   4.681  10.134
 7290TIP3    H246066   1.838   4.733  10.265
 7291TIP3   OH246067   1.629   4.360  10.138
 7291TIP3    H146068   1.603   4.426  10.071
 7291TIP3    H246069   1.685   4.304  10.082
 7292TIP3   OH246070   1.605   4.542  10.670
 7292TIP3    H146071   1.586   4.450  10.646
 7292TIP3    H246072   1.576   4.541  10.764
 7293TIP3   OH246073   0.160   4.813  11.033
 7293TIP3    H146074   0.166   4.763  10.949
 7293TIP3    H246075   0.239   4.782  11.082
 7294TIP3   OH246076   1.713   4.734  11.613
 7294TIP3    H146077   1.762   4.650  11.627
 7294TIP3    H246078   1.783   4.801  11.598
 7295TIP3   OH246079   1.811   4.467  11.652
 7295TIP3    H146080   1.718   4.435  11.646
 7295TIP3    H246081   1.863   4.384  11.667
 7296TIP3   OH246082   1.611   4.133   9.966
 7296TIP3    H146083   1.668   4.095  10.035
 7296TIP3    H246084   1.523   4.111   9.999
 7297TIP3   OH246085   1.543   4.303  10.476
 7297TIP3    H146086   1.562   4.211  10.506
 7297TIP3    H246087   1.632   4.324  10.445
 7298TIP3   OH246088   1.650   4.341  11.038
 7298TIP3    H146089   1.746   4.362  11.046
 7298TIP3    H246090   1.622   4.354  11.130
 7299TIP3   OH246091   1.656   4.427  11.294
 7299TIP3    H146092   1.575   4.456  11.341
 7299TIP3    H246093   1.699   4.514  11.275
 7300TIP3   OH246094   0.114   4.242  11.606
 7300TIP3    H146095   0.185   4.271  11.668
 7300TIP3    H246096   0.120   4.146  11.614
 7301TIP3   OH246097   1.877   3.849  11.823
 7301TIP3    H146098   1.905   3.774  11.768
 7301TIP3    H246099   1.864   3.919  11.755
 7302TIP3   OH246100   1.640   4.047  10.517
 7302TIP3    H146101   1.677   3.998  10.594
 7302TIP3    H246102   1.591   3.975  10.474
 7303TIP3   OH246103   0.163   4.099  11.009
 7303TIP3    H146104   0.223   4.022  11.013
 7303TIP3    H246105   0.222   4.175  11.019
 7304TIP3   OH246106   0.087   4.404  11.027
 7304TIP3    H146107   0.166   4.398  10.971
 7304TIP3    H246108   0.107   4.474  11.090
 7305TIP3   OH246109   1.806   4.054  11.666
 7305TIP3    H146110   1.735   4.097  11.721
 7305TIP3    H246111   1.756   4.031  11.586
 7306TIP3   OH246112   1.818   4.053  10.154
 7306TIP3    H146113   1.861   3.996  10.088
 7306TIP3    H246114   1.894   4.109  10.180
 7307TIP3   OH246115   0.098   4.033  10.464
 7307TIP3    H146116   0.001   4.024  10.460
 7307TIP3    H246117   0.112   4.079  10.378
 7308TIP3   OH246118   1.525   5.512  10.667
 7308TIP3    H146119   1.590   5.504  10.594
 7308TIP3    H246120   1.564   5.577  10.727
 7309TIP3   OH246121   0.066   3.856  11.299
 7309TIP3    H146122  -0.027   3.835  11.321
 7309TIP3    H246123   0.051   3.913  11.222
 7310TIP3   OH246124   0.243   5.178  11.712
 7310TIP3    H146125   0.192   5.169  11.632
 7310TIP3    H246126   0.259   5.082  11.731
 7311TIP3   OH246127   0.567   5.359  11.350
 7311TIP3    H146128   0.562   5.448  11.310
 7311TIP3    H246129   0.663   5.340  11.343
 7312TIP3   OH246130   0.979   5.475  11.596
 7312TIP3    H146131   0.984   5.449  11.690
 7312TIP3    H246132   1.070   5.507  11.579
 7313TIP3   OH246133   1.204   5.620  11.551
 7313TIP3    H146134   1.285   5.590  11.509
 7313TIP3    H246135   1.236   5.643  11.642
 7314TIP3   OH246136   1.720   3.830  11.466
 7314TIP3    H146137   1.643   3.866  11.420
 7314TIP3    H246138   1.726   3.739  11.428
 7315TIP3   OH246139   0.316   5.649  11.340
 7315TIP3    H146140   0.236   5.694  11.303
 7315TIP3    H246141   0.294   5.645  11.434
 7316TIP3   OH246142   0.545   5.597  11.224
 7316TIP3    H146143   0.452   5.612  11.253
 7316TIP3    H246144   0.548   5.655  11.147
 7317TIP3   OH246145   0.990   5.549  11.162
 7317TIP3    H146146   0.959   5.604  11.089
 7317TIP3    H246147   1.021   5.618  11.224
 7318TIP3   OH246148   1.216   5.429  11.294
 7318TIP3    H146149   1.151   5.465  11.231
 7318TIP3    H246150   1.292   5.487  11.275
 7319TIP3   OH246151   1.467   5.584  11.260
 7319TIP3    H146152   1.485   5.677  11.237
 7319TIP3    H246153   1.512   5.540  11.184
 7320TIP3   OH246154   0.289   5.515  11.042
 7320TIP3    H146155   0.257   5.465  11.121
 7320TIP3    H246156   0.365   5.461  11.011
 7321TIP3   OH246157   0.467   5.370  10.909
 7321TIP3    H146158   0.437   5.280  10.924
 7321TIP3    H246159   0.562   5.367  10.938
 7322TIP3   OH246160   0.712   5.365  11.015
 7322TIP3    H146161   0.760   5.281  11.011
 7322TIP3    H246162   0.726   5.389  11.108
 7323TIP3   OH246163   1.043   3.958  10.907
 7323TIP3    H146164   0.963   3.922  10.948
 7323TIP3    H246165   1.060   3.891  10.840
 7324TIP3   OH246166   1.586   3.768  10.877
 7324TIP3    H146167   1.652   3.827  10.834
 7324TIP3    H246168   1.502   3.801  10.837
 7325TIP3   OH246169   1.751   3.898  10.715
 7325TIP3    H146170   1.815   3.839  10.670
 7325TIP3    H246171   1.809   3.975  10.737
 7326TIP3   OH246172   0.333   3.813  10.683
 7326TIP3    H146173   0.256   3.807  10.623
 7326TIP3    H246174   0.378   3.728  10.664
 7327TIP3   OH246175   0.104   3.846  10.219
 7327TIP3    H146176   0.167   3.897  10.163
 7327TIP3    H246177   0.121   3.889  10.304
 7328TIP3   OH246178   0.740   3.802  10.659
 7328TIP3    H146179   0.824   3.838  10.627
 7328TIP3    H246180   0.749   3.820  10.754
 7329TIP3   OH246181   1.343   3.821  10.775
 7329TIP3    H146182   1.285   3.831  10.699
 7329TIP3    H246183   1.295   3.756  10.830
 7330TIP3   OH246184   1.461   3.816  10.396
 7330TIP3    H146185   1.387   3.878  10.386
 7330TIP3    H246186   1.422   3.749  10.455
 7331TIP3   OH246187   0.191   5.464  10.296
 7331TIP3    H146188   0.101   5.463  10.329
 7331TIP3    H246189   0.201   5.561  10.281
 7332TIP3   OH246190   0.345   3.965  10.105
 7332TIP3    H146191   0.400   3.905  10.054
 7332TIP3    H246192   0.408   3.998  10.170
 7333TIP3   OH246193   0.868   4.049  10.341
 7333TIP3    H146194   0.900   3.983  10.403
 7333TIP3    H246195   0.892   4.130  10.390
 7334TIP3   OH246196   1.037   5.536  10.158
 7334TIP3    H146197   1.134   5.560  10.162
 7334TIP3    H246198   1.035   5.494  10.070
 7335TIP3   OH246199   1.697   5.464  10.481
 7335TIP3    H146200   1.692   5.373  10.443
 7335TIP3    H246201   1.684   5.520  10.402
 7336TIP3   OH246202   0.264   3.893  11.637
 7336TIP3    H146203   0.213   3.809  11.639
 7336TIP3    H246204   0.351   3.864  11.671
 7337TIP3   OH246205   0.494   3.824  11.812
 7337TIP3    H146206   0.587   3.809  11.790
 7337TIP3    H246207   0.472   3.734  11.844
 7338TIP3   OH246208   0.456   5.545  10.110
 7338TIP3    H146209   0.382   5.522  10.168
 7338TIP3    H246210   0.525   5.484  10.142
 7339TIP3   OH246211   1.311   3.765  11.811
 7339TIP3    H146212   1.307   3.700  11.885
 7339TIP3    H246213   1.403   3.747  11.783
 7340TIP3   OH246214   1.649   5.375  11.651
 7340TIP3    H146215   1.587   5.377  11.574
 7340TIP3    H246216   1.632   5.464  11.687
 7341TIP3   OH246217   3.112   4.767  10.670
 7341TIP3    H146218   3.102   4.853  10.715
 7341TIP3    H246219   3.033   4.766  10.614
 7342TIP3   OH246220   2.979   4.644  11.003
 7342TIP3    H146221   2.980   4.605  11.093
 7342TIP3    H246222   2.921   4.583  10.953
 7343TIP3   OH246223   2.189   4.647  11.148
 7343TIP3    H146224   2.184   4.574  11.213
 7343TIP3    H246225   2.264   4.696  11.184
 7344TIP3   OH246226   3.298   4.960  10.861
 7344TIP3    H146227   3.284   4.887  10.924
 7344TIP3    H246228   3.328   5.029  10.922
 7345TIP3   OH246229   2.290   5.112  10.982
 7345TIP3    H146230   2.256   5.022  10.965
 7345TIP3    H246231   2.385   5.090  10.977
 7346TIP3   OH246232   1.966   4.440  10.563
 7346TIP3    H146233   1.923   4.526  10.574
 7346TIP3    H246234   1.911   4.401  10.493
 7347TIP3   OH246235   2.019   4.685  10.805
 7347TIP3    H146236   2.065   4.599  10.819
 7347TIP3    H246237   2.086   4.740  10.761
 7348TIP3   OH246238   3.057   5.510  10.842
 7348TIP3    H146239   3.122   5.450  10.797
 7348TIP3    H246240   3.029   5.451  10.913
 7349TIP3   OH246241   2.791   4.920  11.097
 7349TIP3    H146242   2.821   4.872  11.020
 7349TIP3    H246243   2.878   4.948  11.134
 7350TIP3   OH246244   3.664   4.064  11.106
 7350TIP3    H146245   3.662   4.130  11.178
 7350TIP3    H246246   3.746   4.091  11.062
 7351TIP3   OH246247   3.168   4.372  11.120
 7351TIP3    H146248   3.179   4.276  11.132
 7351TIP3    H246249   3.124   4.376  11.033
 7352TIP3   OH246250   2.441   4.144  10.780
 7352TIP3    H146251   2.455   4.225  10.726
 7352TIP3    H246252   2.400   4.087  10.711
 7353TIP3   OH246253   3.197   4.181  10.659
 7353TIP3    H146254   3.259   4.139  10.724
 7353TIP3    H246255   3.257   4.242  10.613
 7354TIP3   OH246256   2.100   4.432  10.879
 7354TIP3    H146257   2.161   4.375  10.929
 7354TIP3    H246258   2.114   4.396  10.789
 7355TIP3   OH246259   2.587   4.559  10.833
 7355TIP3    H146260   2.670   4.516  10.860
 7355TIP3    H246261   2.542   4.487  10.786
 7356TIP3   OH246262   3.673   4.206  11.346
 7356TIP3    H146263   3.642   4.293  11.308
 7356TIP3    H246264   3.692   4.237  11.436
 7357TIP3   OH246265   2.347   4.071  11.203
 7357TIP3    H146266   2.303   4.116  11.127
 7357TIP3    H246267   2.284   4.093  11.275
 7358TIP3   OH246268   3.032   5.018  10.559
 7358TIP3    H146269   3.031   5.012  10.463
 7358TIP3    H246270   3.003   5.110  10.574
 7359TIP3   OH246271   2.556   4.831  11.180
 7359TIP3    H146272   2.504   4.906  11.217
 7359TIP3    H246273   2.634   4.879  11.144
 7360TIP3   OH246274   3.401   4.106  10.823
 7360TIP3    H146275   3.366   4.045  10.889
 7360TIP3    H246276   3.477   4.143  10.869
 7361TIP3   OH246277   2.291   4.253  10.993
 7361TIP3    H146278   2.354   4.312  11.041
 7361TIP3    H246279   2.346   4.224  10.917
 7362TIP3   OH246280   2.436   5.054  11.295
 7362TIP3    H146281   2.419   5.130  11.238
 7362TIP3    H246282   2.350   5.046  11.342
 7363TIP3   OH246283   2.020   4.987  10.381
 7363TIP3    H146284   2.019   5.041  10.298
 7363TIP3    H246285   2.029   5.056  10.450
 7364TIP3   OH246286   3.394   5.168  11.066
 7364TIP3    H146287   3.300   5.188  11.088
 7364TIP3    H246288   3.416   5.253  11.024
 7365TIP3   OH246289   3.385   4.011  11.173
 7365TIP3    H146290   3.323   4.025  11.098
 7365TIP3    H246291   3.468   4.037  11.130
 7366TIP3   OH246292   2.690   3.809  10.930
 7366TIP3    H146293   2.667   3.718  10.951
 7366TIP3    H246294   2.603   3.853  10.955
 7367TIP3   OH246295   3.227   5.343  10.726
 7367TIP3    H146296   3.246   5.260  10.677
 7367TIP3    H246297   3.309   5.394  10.704
 7368TIP3   OH246298   3.322   5.125  10.589
 7368TIP3    H146299   3.317   5.058  10.518
 7368TIP3    H246300   3.316   5.068  10.667
 7369TIP3   OH246301   3.489   4.996  11.448
 7369TIP3    H146302   3.514   4.922  11.386
 7369TIP3    H246303   3.499   5.071  11.386
 7370TIP3   OH246304   2.949   4.696  10.408
 7370TIP3    H146305   2.905   4.781  10.388
 7370TIP3    H246306   3.034   4.702  10.359
 7371TIP3   OH246307   3.001   4.553  10.120
 7371TIP3    H146308   3.075   4.590  10.174
 7371TIP3    H246309   3.034   4.462  10.104
 7372TIP3   OH246310   3.700   4.641  11.237
 7372TIP3    H146311   3.631   4.710  11.234
 7372TIP3    H246312   3.762   4.676  11.171
 7373TIP3   OH246313   3.318   4.678  10.521
 7373TIP3    H146314   3.248   4.717  10.579
 7373TIP3    H246315   3.382   4.641  10.585
 7374TIP3   OH246316   3.298   4.517  11.425
 7374TIP3    H146317   3.294   4.607  11.461
 7374TIP3    H246318   3.234   4.526  11.353
 7375TIP3   OH246319   2.453   4.755  10.705
 7375TIP3    H146320   2.424   4.729  10.615
 7375TIP3    H246321   2.516   4.682  10.725
 7376TIP3   OH246322   2.592   5.095  10.960
 7376TIP3    H146323   2.597   5.081  10.864
 7376TIP3    H246324   2.667   5.044  10.993
 7377TIP3   OH246325   2.468   4.608  11.073
 7377TIP3    H146326   2.503   4.613  10.981
 7377TIP3    H246327   2.512   4.686  11.114
 7378TIP3   OH246328   3.137   5.207  11.139
 7378TIP3    H146329   3.114   5.262  11.216
 7378TIP3    H246330   3.119   5.117  11.171
 7379TIP3   OH246331   2.601   5.097  11.507
 7379TIP3    H146332   2.529   5.143  11.556
 7379TIP3    H246333   2.555   5.082  11.422
 7380TIP3   OH246334   3.188   4.653  10.291
 7380TIP3    H146335   3.238   4.659  10.377
 7380TIP3    H246336   3.251   4.696  10.227
 7381TIP3   OH246337   2.288   4.700  11.421
 7381TIP3    H146338   2.308   4.773  11.481
 7381TIP3    H246339   2.211   4.661  11.466
 7382TIP3   OH246340   2.939   5.314  10.556
 7382TIP3    H146341   2.958   5.337  10.647
 7382TIP3    H246342   2.910   5.397  10.515
 7383TIP3   OH246343   2.416   5.255  11.616
 7383TIP3    H146344   2.400   5.305  11.533
 7383TIP3    H246345   2.324   5.227  11.634
 7384TIP3   OH246346   3.587   3.783  10.299
 7384TIP3    H146347   3.491   3.783  10.318
 7384TIP3    H246348   3.600   3.877  10.277
 7385TIP3   OH246349   2.356   4.644  10.468
 7385TIP3    H146350   2.310   4.718  10.425
 7385TIP3    H246351   2.313   4.567  10.429
 7386TIP3   OH246352   3.662   5.259  10.121
 7386TIP3    H146353   3.682   5.355  10.132
 7386TIP3    H246354   3.749   5.218  10.132
 7387TIP3   OH246355   1.990   4.923  11.352
 7387TIP3    H146356   1.950   4.914  11.264
 7387TIP3    H246357   2.028   4.833  11.362
 7388TIP3   OH246358   1.958   5.184  10.997
 7388TIP3    H146359   2.054   5.173  10.994
 7388TIP3    H246360   1.950   5.253  11.064
 7389TIP3   OH246361   3.762   5.259  11.612
 7389TIP3    H146362   3.751   5.166  11.587
 7389TIP3    H246363   3.670   5.279  11.645
 7390TIP3   OH246364   2.846   5.205  11.495
 7390TIP3    H146365   2.852   5.287  11.546
 7390TIP3    H246366   2.751   5.179  11.505
 7391TIP3   OH246367   2.893   5.572  10.448
 7391TIP3    H146368   2.938   5.605  10.369
 7391TIP3    H246369   2.895   5.655  10.500
 7392TIP3   OH246370   2.271   5.456  10.660
 7392TIP3    H146371   2.302   5.431  10.750
 7392TIP3    H246372   2.184   5.411  10.660
 7393TIP3   OH246373   3.187   5.550  10.185
 7393TIP3    H146374   3.235   5.471  10.151
 7393TIP3    H246375   3.219   5.550  10.277
 7394TIP3   OH246376   3.161   5.481  10.456
 7394TIP3    H146377   3.070   5.498  10.483
 7394TIP3    H246378   3.175   5.390  10.489
 7395TIP3   OH246379   3.453   4.388  11.640
 7395TIP3    H146380   3.402   4.422  11.564
 7395TIP3    H246381   3.463   4.293  11.617
 7396TIP3   OH246382   2.208   5.053  11.439
 7396TIP3    H146383   2.209   5.013  11.530
 7396TIP3    H246384   2.123   5.016  11.406
 7397TIP3   OH246385   2.468   3.910  11.030
 7397TIP3    H146386   2.379   3.905  10.989
 7397TIP3    H246387   2.444   3.956  11.113
 7398TIP3   OH246388   2.955   3.855  11.345
 7398TIP3    H146389   2.980   3.815  11.430
 7398TIP3    H246390   2.856   3.858  11.349
 7399TIP3   OH246391   3.228   4.254  11.459
 7399TIP3    H146392   3.171   4.245  11.539
 7399TIP3    H246393   3.254   4.348  11.461
 7400TIP3   OH246394   3.349   4.753  10.120
 7400TIP3    H146395   3.312   4.761  10.027
 7400TIP3    H246396   3.443   4.771  10.095
 7401TIP3   OH246397   2.911   4.133  10.123
 7401TIP3    H146398   2.866   4.107  10.206
 7401TIP3    H246399   2.849   4.097  10.058
 7402TIP3   OH246400   2.475   4.362  11.166
 7402TIP3    H146401   2.395   4.376  11.221
 7402TIP3    H246402   2.486   4.453  11.129
 7403TIP3   OH246403   2.461   4.366  10.641
 7403TIP3    H146404   2.365   4.371  10.623
 7403TIP3    H246405   2.499   4.359  10.550
 7404TIP3   OH246406   3.038   4.481  10.554
 7404TIP3    H146407   3.001   4.559  10.506
 7404TIP3    H246408   3.096   4.444  10.486
 7405TIP3   OH246409   2.919   4.482  11.670
 7405TIP3    H146410   2.881   4.402  11.712
 7405TIP3    H246411   2.995   4.495  11.729
 7406TIP3   OH246412   3.117   4.413  10.833
 7406TIP3    H146413   3.123   4.487  10.770
 7406TIP3    H246414   3.121   4.337  10.772
 7407TIP3   OH246415   2.232   4.395  11.284
 7407TIP3    H146416   2.258   4.432  11.370
 7407TIP3    H246417   2.198   4.308  11.309
 7408TIP3   OH246418   2.568   4.144  10.037
 7408TIP3    H146419   2.520   4.114  10.117
 7408TIP3    H246420   2.498   4.167   9.975
 7409TIP3   OH246421   1.908   4.111  10.745
 7409TIP3    H146422   1.978   4.117  10.811
 7409TIP3    H246423   1.957   4.111  10.661
 7410TIP3   OH246424   2.028   4.185  10.266
 7410TIP3    H146425   2.097   4.241  10.224
 7410TIP3    H246426   1.963   4.256  10.288
 7411TIP3   OH246427   3.026   4.559  11.257
 7411TIP3    H146428   3.084   4.490  11.217
 7411TIP3    H246429   2.973   4.502  11.319
 7412TIP3   OH246430   2.748   4.146  10.760
 7412TIP3    H146431   2.653   4.147  10.776
 7412TIP3    H246432   2.784   4.123  10.847
 7413TIP3   OH246433   2.181   4.304  10.647
 7413TIP3    H146434   2.109   4.336  10.589
 7413TIP3    H246435   2.208   4.218  10.610
 7414TIP3   OH246436   2.583   4.327  10.404
 7414TIP3    H146437   2.678   4.337  10.396
 7414TIP3    H246438   2.546   4.384  10.333
 7415TIP3   OH246439   3.167   4.079  11.038
 7415TIP3    H146440   3.114   4.080  11.120
 7415TIP3    H246441   3.113   4.021  10.980
 7416TIP3   OH246442   2.440   4.449  10.208
 7416TIP3    H146443   2.357   4.427  10.163
 7416TIP3    H246444   2.504   4.460  10.134
 7417TIP3   OH246445   3.469   5.653  11.722
 7417TIP3    H146446   3.499   5.688  11.637
 7417TIP3    H246447   3.546   5.677  11.776
 7418TIP3   OH246448   2.226   4.903  11.667
 7418TIP3    H146449   2.303   4.917  11.726
 7418TIP3    H246450   2.154   4.885  11.731
 7419TIP3   OH246451   2.844   4.418  10.926
 7419TIP3    H146452   2.922   4.397  10.873
 7419TIP3    H246453   2.830   4.338  10.977
 7420TIP3   OH246454   2.293   4.031  10.579
 7420TIP3    H146455   2.240   3.964  10.627
 7420TIP3    H246456   2.338   3.974  10.515
 7421TIP3   OH246457   2.715   4.247  11.171
 7421TIP3    H146458   2.633   4.301  11.172
 7421TIP3    H246459   2.777   4.302  11.222
 7422TIP3   OH246460   2.778   4.916  10.370
 7422TIP3    H146461   2.710   4.856  10.330
 7422TIP3    H246462   2.736   4.927  10.459
 7423TIP3   OH246463   3.514   4.843  11.237
 7423TIP3    H146464   3.559   4.893  11.165
 7423TIP3    H246465   3.424   4.841  11.202
 7424TIP3   OH246466   3.165   4.181  10.176
 7424TIP3    H146467   3.068   4.182  10.171
 7424TIP3    H246468   3.185   4.269  10.213
 7425TIP3   OH246469   2.881   4.936  11.466
 7425TIP3    H146470   2.874   4.904  11.557
 7425TIP3    H246471   2.872   5.033  11.480
 7426TIP3   OH246472   3.219   4.388  10.330
 7426TIP3    H146473   3.303   4.363  10.375
 7426TIP3    H246474   3.238   4.479  10.301
 7427TIP3   OH246475   2.297   4.841  10.927
 7427TIP3    H146476   2.362   4.820  10.856
 7427TIP3    H246477   2.295   4.758  10.977
 7428TIP3   OH246478   2.976   5.071  10.253
 7428TIP3    H146479   2.928   5.157  10.262
 7428TIP3    H246480   2.910   5.011  10.293
 7429TIP3   OH246481   2.003   4.643  11.457
 7429TIP3    H146482   1.977   4.595  11.538
 7429TIP3    H246483   1.942   4.606  11.390
 7430TIP3   OH246484   2.670   4.639  11.646
 7430TIP3    H146485   2.622   4.573  11.593
 7430TIP3    H246486   2.762   4.607  11.638
 7431TIP3   OH246487   3.172   5.164  11.494
 7431TIP3    H146488   3.085   5.170  11.453
 7431TIP3    H246489   3.152   5.204  11.581
 7432TIP3   OH246490   3.719   4.375  10.335
 7432TIP3    H146491   3.648   4.360  10.270
 7432TIP3    H246492   3.731   4.471  10.322
 7433TIP3   OH246493   3.732   4.968  11.570
 7433TIP3    H146494   3.641   4.983  11.536
 7433TIP3    H246495   3.782   4.956  11.486
 7434TIP3   OH246496   3.559   5.219  10.367
 7434TIP3    H146497   3.468   5.185  10.367
 7434TIP3    H246498   3.579   5.229  10.272
 7435TIP3   OH246499   3.261   4.740  11.045
 7435TIP3    H146500   3.168   4.713  11.034
 7435TIP3    H246501   3.305   4.671  10.992
 7436TIP3   OH246502   2.510   5.171  10.683
 7436TIP3    H146503   2.545   5.260  10.664
 7436TIP3    H246504   2.419   5.181  10.652
 7437TIP3   OH246505   2.119   4.645  10.087
 7437TIP3    H146506   2.172   4.704  10.143
 7437TIP3    H246507   2.032   4.650  10.130
 7438TIP3   OH246508   2.649   4.945  10.613
 7438TIP3    H146509   2.602   5.029  10.631
 7438TIP3    H246510   2.605   4.882  10.673
 7439TIP3   OH246511   2.712   5.356  11.299
 7439TIP3    H146512   2.773   5.419  11.256
 7439TIP3    H246513   2.771   5.310  11.362
 7440TIP3   OH246514   2.531   5.433  10.564
 7440TIP3    H146515   2.439   5.443  10.598
 7440TIP3    H246516   2.572   5.515  10.600
 7441TIP3   OH246517   3.024   4.947  11.233
 7441TIP3    H146518   2.973   4.923  11.314
 7441TIP3    H246519   3.072   4.864  11.215
 7442TIP3   OH246520   3.303   5.067  10.124
 7442TIP3    H146521   3.314   5.022  10.211
 7442TIP3    H246522   3.207   5.057  10.118
 7443TIP3   OH246523   3.350   5.402  11.456
 7443TIP3    H146524   3.260   5.364  11.444
 7443TIP3    H246525   3.357   5.466  11.382
 7444TIP3   OH246526   3.744   5.509  10.167
 7444TIP3    H146527   3.812   5.573  10.137
 7444TIP3    H246528   3.684   5.570  10.218
 7445TIP3   OH246529   2.173   4.141  11.408
 7445TIP3    H146530   2.111   4.188  11.466
 7445TIP3    H246531   2.186   4.058  11.458
 7446TIP3   OH246532   3.375   4.932  10.345
 7446TIP3    H146533   3.376   4.835  10.339
 7446TIP3    H246534   3.471   4.947  10.341
 7447TIP3   OH246535   2.117   5.325  11.241
 7447TIP3    H146536   2.177   5.251  11.254
 7447TIP3    H246537   2.119   5.365  11.329
 7448TIP3   OH246538   2.559   5.120  10.242
 7448TIP3    H146539   2.641   5.092  10.286
 7448TIP3    H246540   2.562   5.218  10.257
 7449TIP3   OH246541   2.222   4.847  10.263
 7449TIP3    H146542   2.152   4.893  10.315
 7449TIP3    H246543   2.281   4.920  10.239
 7450TIP3   OH246544   3.025   4.151  11.289
 7450TIP3    H146545   3.093   4.179  11.354
 7450TIP3    H246546   2.997   4.064  11.321
 7451TIP3   OH246547   3.111   4.041  10.439
 7451TIP3    H146548   3.137   4.106  10.371
 7451TIP3    H246549   3.161   4.071  10.518
 7452TIP3   OH246550   2.852   5.310  10.264
 7452TIP3    H146551   2.787   5.339  10.329
 7452TIP3    H246552   2.904   5.392  10.253
 7453TIP3   OH246553   2.847   4.254  10.531
 7453TIP3    H146554   2.899   4.336  10.543
 7453TIP3    H246555   2.817   4.231  10.621
 7454TIP3   OH246556   2.905   4.381  11.414
 7454TIP3    H146557   2.912   4.402  11.510
 7454TIP3    H246558   2.947   4.294  11.403
 7455TIP3   OH246559   2.886   3.933  10.566
 7455TIP3    H146560   2.838   4.001  10.616
 7455TIP3    H246561   2.967   3.983  10.536
 7456TIP3   OH246562   2.578   5.393  10.285
 7456TIP3    H146563   2.629   5.470  10.258
 7456TIP3    H246564   2.552   5.416  10.376
 7457TIP3   OH246565   2.459   4.059  10.288
 7457TIP3    H146566   2.455   4.139  10.342
 7457TIP3    H246567   2.554   4.037  10.298
 7458TIP3   OH246568   3.470   4.142  11.531
 7458TIP3    H146569   3.375   4.142  11.503
 7458TIP3    H246570   3.514   4.157  11.446
 7459TIP3   OH246571   3.363   4.499  10.904
 7459TIP3    H146572   3.283   4.444  10.914
 7459TIP3    H246573   3.429   4.450  10.958
 7460TIP3   OH246574   2.303   5.117  10.154
 7460TIP3    H146575   2.395   5.116  10.190
 7460TIP3    H246576   2.318   5.078  10.067
 7461TIP3   OH246577   2.136   4.378  10.120
 7461TIP3    H146578   2.143   4.476  10.115
 7461TIP3    H246579   2.074   4.361  10.047
 7462TIP3   OH246580   3.455   5.445  11.053
 7462TIP3    H146581   3.453   5.515  10.984
 7462TIP3    H246582   3.552   5.437  11.059
 7463TIP3   OH246583   2.209   3.849  10.965
 7463TIP3    H146584   2.206   3.838  10.868
 7463TIP3    H246585   2.179   3.760  10.994
 7464TIP3   OH246586   2.075   5.252  10.571
 7464TIP3    H146587   1.991   5.300  10.565
 7464TIP3    H246588   2.116   5.282  10.489
 7465TIP3   OH246589   2.007   5.504  11.693
 7465TIP3    H146590   2.071   5.494  11.766
 7465TIP3    H246591   1.978   5.413  11.676
 7466TIP3   OH246592   2.503   5.410  11.845
 7466TIP3    H146593   2.587   5.371  11.872
 7466TIP3    H246594   2.486   5.368  11.759
 7467TIP3   OH246595   2.891   5.335   9.971
 7467TIP3    H146596   2.832   5.268  10.010
 7467TIP3    H246597   2.974   5.309  10.016
 7468TIP3   OH246598   3.128   5.272  11.736
 7468TIP3    H146599   3.093   5.184  11.767
 7468TIP3    H246600   3.213   5.276  11.786
 7469TIP3   OH246601   3.314   5.326  10.101
 7469TIP3    H146602   3.327   5.229  10.094
 7469TIP3    H246603   3.358   5.362  10.021
 7470TIP3   OH246604   1.981   4.900  11.805
 7470TIP3    H146605   1.935   4.814  11.811
 7470TIP3    H246606   1.947   4.935  11.719
 7471TIP3   OH246607   2.499   4.850  10.044
 7471TIP3    H146608   2.503   4.819  10.137
 7471TIP3    H246609   2.576   4.910  10.048
 7472TIP3   OH246610   2.668   4.904  11.690
 7472TIP3    H146611   2.653   4.949  11.604
 7472TIP3    H246612   2.660   4.808  11.667
 7473TIP3   OH246613   3.238   4.873  11.492
 7473TIP3    H146614   3.324   4.921  11.492
 7473TIP3    H246615   3.178   4.949  11.497
 7474TIP3   OH246616   2.132   4.596  11.756
 7474TIP3    H146617   2.186   4.522  11.788
 7474TIP3    H246618   2.148   4.662  11.827
 7475TIP3   OH246619   2.590   4.736  10.271
 7475TIP3    H146620   2.517   4.686  10.310
 7475TIP3    H246621   2.625   4.675  10.203
 7476TIP3   OH246622   2.476   4.516  11.430
 7476TIP3    H146623   2.416   4.591  11.410
 7476TIP3    H246624   2.554   4.546  11.379
 7477TIP3   OH246625   2.710   4.560  10.078
 7477TIP3    H146626   2.726   4.526   9.988
 7477TIP3    H246627   2.801   4.562  10.115
 7478TIP3   OH246628   3.032   4.792  11.810
 7478TIP3    H146629   3.104   4.749  11.761
 7478TIP3    H246630   3.006   4.722  11.872
 7479TIP3   OH246631   3.580   4.756  19.991
 7479TIP3    H146632   3.638   4.718  19.925
 7479TIP3    H246633   3.615   4.848  19.989
 7480TIP3   OH246634   2.560   4.271  11.521
 7480TIP3    H146635   2.557   4.203  11.448
 7480TIP3    H246636   2.543   4.355  11.472
 7481TIP3   OH246637   2.580   4.071  11.330
 7481TIP3    H146638   2.634   4.120  11.263
 7481TIP3    H246639   2.492   4.074  11.286
 7482TIP3   OH246640   2.701   4.657  11.331
 7482TIP3    H146641   2.788   4.694  11.310
 7482TIP3    H246642   2.644   4.726  11.291
 7483TIP3   OH246643   3.156   4.392  11.828
 7483TIP3    H146644   3.198   4.305  11.816
 7483TIP3    H246645   3.229   4.446  11.863
 7484TIP3   OH246646   3.324   4.707  11.692
 7484TIP3    H146647   3.284   4.760  11.620
 7484TIP3    H246648   3.418   4.705  11.666
 7485TIP3   OH246649   2.414   4.331  11.748
 7485TIP3    H146650   2.328   4.288  11.728
 7485TIP3    H246651   2.470   4.298  11.673
 7486TIP3   OH246652   2.685   3.828  11.329
 7486TIP3    H146653   2.643   3.917  11.338
 7486TIP3    H246654   2.609   3.779  11.296
 7487TIP3   OH246655   2.782   4.241  11.757
 7487TIP3    H146656   2.712   4.217  11.822
 7487TIP3    H246657   2.733   4.230  11.674
 7488TIP3   OH246658   3.045   4.173  11.641
 7488TIP3    H146659   2.959   4.185  11.685
 7488TIP3    H246660   3.090   4.117  11.708
 7489TIP3   OH246661   3.193   4.035  11.820
 7489TIP3    H146662   3.208   3.940  11.833
 7489TIP3    H246663   3.181   4.066  11.912
 7490TIP3   OH246664   2.190   4.159  11.757
 7490TIP3    H146665   2.169   4.080  11.704
 7490TIP3    H246666   2.165   4.130  11.849
 7491TIP3   OH246667   2.657   3.800  11.617
 7491TIP3    H146668   2.727   3.735  11.639
 7491TIP3    H246669   2.655   3.790  11.519
 7492TIP3   OH246670   2.679   3.913  11.886
 7492TIP3    H146671   2.665   3.879  11.795
 7492TIP3    H246672   2.627   3.996  11.886
 7493TIP3   OH246673   2.675   5.662  10.142
 7493TIP3    H146674   2.764   5.622  10.157
 7493TIP3    H246675   2.688   5.747  10.191
 7494TIP3   OH246676   2.020   5.116  10.143
 7494TIP3    H146677   2.118   5.118  10.133
 7494TIP3    H246678   1.992   5.055  10.071
 7495TIP3   OH246679   1.902   5.584  10.599
 7495TIP3    H146680   1.818   5.540  10.571
 7495TIP3    H246681   1.926   5.533  10.679
 7496TIP3   OH246682   1.985   5.418  10.804
 7496TIP3    H146683   1.936   5.338  10.830
 7496TIP3    H246684   2.047   5.434  10.878
 7497TIP3   OH246685   3.727   5.500  11.070
 7497TIP3    H146686   3.761   5.508  11.161
 7497TIP3    H246687   3.788   5.559  11.024
 7498TIP3   OH246688   3.675   5.463  11.365
 7498TIP3    H146689   3.639   5.386  11.315
 7498TIP3    H246690   3.689   5.420  11.451
 7499TIP3   OH246691   3.547   5.032  11.877
 7499TIP3    H146692   3.456   5.046  11.911
 7499TIP3    H246693   3.585   5.122  11.886
 7500TIP3   OH246694   3.642   4.887  10.362
 7500TIP3    H146695   3.730   4.925  10.383
 7500TIP3    H246696   3.625   4.834  10.441
 7501TIP3   OH246697   3.701   4.688  10.602
 7501TIP3    H146698   3.619   4.641  10.627
 7501TIP3    H246699   3.751   4.690  10.686
 7502TIP3   OH246700   3.660   4.952  11.051
 7502TIP3    H146701   3.726   4.879  11.047
 7502TIP3    H246702   3.709   5.028  11.014
 7503TIP3   OH246703   3.543   5.234  11.303
 7503TIP3    H146704   3.473   5.274  11.357
 7503TIP3    H246705   3.494   5.208  11.221
 7504TIP3   OH246706   3.743   4.669  10.210
 7504TIP3    H146707   3.670   4.687  10.148
 7504TIP3    H246708   3.738   4.748  10.266
 7505TIP3   OH246709   3.522   4.355  10.137
 7505TIP3    H146710   3.499   4.417  10.065
 7505TIP3    H246711   3.588   4.303  10.089
 7506TIP3   OH246712   3.495   4.532  10.668
 7506TIP3    H146713   3.478   4.440  10.645
 7506TIP3    H246714   3.463   4.535  10.760
 7507TIP3   OH246715   1.975   4.767  11.063
 7507TIP3    H146716   1.986   4.738  10.969
 7507TIP3    H246717   2.062   4.736  11.097
 7508TIP3   OH246718   3.594   4.736  11.608
 7508TIP3    H146719   3.640   4.649  11.621
 7508TIP3    H246720   3.667   4.798  11.587
 7509TIP3   OH246721   3.692   4.495  11.647
 7509TIP3    H146722   3.603   4.453  11.654
 7509TIP3    H246723   3.752   4.418  11.661
 7510TIP3   OH246724   3.498   4.121   9.968
 7510TIP3    H146725   3.551   4.084  10.040
 7510TIP3    H246726   3.409   4.110  10.002
 7511TIP3   OH246727   3.429   4.298  10.473
 7511TIP3    H146728   3.456   4.210  10.508
 7511TIP3    H246729   3.511   4.320  10.428
 7512TIP3   OH246730   3.541   4.348  11.048
 7512TIP3    H146731   3.639   4.365  11.059
 7512TIP3    H246732   3.514   4.354  11.141
 7513TIP3   OH246733   3.541   4.428  11.309
 7513TIP3    H146734   3.453   4.454  11.342
 7513TIP3    H246735   3.583   4.515  11.289
 7514TIP3   OH246736   1.973   4.253  11.646
 7514TIP3    H146737   2.058   4.244  11.695
 7514TIP3    H246738   1.932   4.165  11.663
 7515TIP3   OH246739   3.760   3.849  11.831
 7515TIP3    H146740   3.796   3.776  11.775
 7515TIP3    H246741   3.745   3.920  11.763
 7516TIP3   OH246742   3.531   4.050  10.517
 7516TIP3    H146743   3.565   3.999  10.593
 7516TIP3    H246744   3.476   3.981  10.475
 7517TIP3   OH246745   2.065   4.090  11.012
 7517TIP3    H146746   2.106   4.001  11.007
 7517TIP3    H246747   2.139   4.150  10.989
 7518TIP3   OH246748   1.909   4.405  11.061
 7518TIP3    H146749   1.966   4.377  10.987
 7518TIP3    H246750   1.961   4.480  11.091
 7519TIP3   OH246751   3.679   4.026  11.656
 7519TIP3    H146752   3.592   4.071  11.643
 7519TIP3    H246753   3.675   3.964  11.581
 7520TIP3   OH246754   3.707   4.050  10.159
 7520TIP3    H146755   3.750   3.999  10.090
 7520TIP3    H246756   3.782   4.109  10.185
 7521TIP3   OH246757   1.933   4.020  10.463
 7521TIP3    H146758   1.842   4.049  10.472
 7521TIP3    H246759   1.957   4.061  10.377
 7522TIP3   OH246760   3.414   5.512  10.667
 7522TIP3    H146761   3.480   5.498  10.597
 7522TIP3    H246762   3.458   5.574  10.728
 7523TIP3   OH246763   1.933   3.877  11.292
 7523TIP3    H146764   1.866   3.852  11.359
 7523TIP3    H246765   1.888   3.948  11.245
 7524TIP3   OH246766   2.158   5.202  11.688
 7524TIP3    H146767   2.070   5.232  11.659
 7524TIP3    H246768   2.141   5.157  11.771
 7525TIP3   OH246769   2.450   5.356  11.360
 7525TIP3    H146770   2.454   5.445  11.319
 7525TIP3    H246771   2.545   5.332  11.354
 7526TIP3   OH246772   2.859   5.468  11.602
 7526TIP3    H146773   2.867   5.454  11.699
 7526TIP3    H246774   2.947   5.506  11.582
 7527TIP3   OH246775   3.071   5.631  11.565
 7527TIP3    H146776   3.144   5.597  11.511
 7527TIP3    H246777   3.116   5.651  11.651
 7528TIP3   OH246778   3.614   3.819  11.485
 7528TIP3    H146779   3.553   3.853  11.419
 7528TIP3    H246780   3.622   3.725  11.456
 7529TIP3   OH246781   2.177   5.643  11.333
 7529TIP3    H146782   2.100   5.703  11.316
 7529TIP3    H246783   2.180   5.642  11.430
 7530TIP3   OH246784   2.410   5.597  11.226
 7530TIP3    H146785   2.317   5.610  11.257
 7530TIP3    H246786   2.412   5.652  11.146
 7531TIP3   OH246787   2.872   5.556  11.152
 7531TIP3    H146788   2.803   5.612  11.113
 7531TIP3    H246789   2.911   5.618  11.217
 7532TIP3   OH246790   3.106   5.432  11.299
 7532TIP3    H146791   3.042   5.466  11.236
 7532TIP3    H246792   3.185   5.487  11.278
 7533TIP3   OH246793   3.369   5.585  11.258
 7533TIP3    H146794   3.394   5.673  11.226
 7533TIP3    H246795   3.400   5.533  11.180
 7534TIP3   OH246796   2.134   5.477  11.021
 7534TIP3    H146797   2.117   5.421  11.101
 7534TIP3    H246798   2.224   5.446  10.998
 7535TIP3   OH246799   2.357   5.383  10.898
 7535TIP3    H146800   2.345   5.288  10.917
 7535TIP3    H246801   2.443   5.397  10.942
 7536TIP3   OH246802   2.576   5.365  11.039
 7536TIP3    H146803   2.607   5.276  11.014
 7536TIP3    H246804   2.611   5.375  11.130
 7537TIP3   OH246805   2.959   3.964  10.907
 7537TIP3    H146806   2.874   3.943  10.948
 7537TIP3    H246807   2.967   3.893  10.842
 7538TIP3   OH246808   3.468   3.777  10.884
 7538TIP3    H146809   3.530   3.836  10.836
 7538TIP3    H246810   3.381   3.801  10.843
 7539TIP3   OH246811   3.637   3.898  10.713
 7539TIP3    H146812   3.704   3.841  10.667
 7539TIP3    H246813   3.691   3.978  10.736
 7540TIP3   OH246814   2.190   3.812  10.687
 7540TIP3    H146815   2.103   3.804  10.643
 7540TIP3    H246816   2.228   3.723  10.669
 7541TIP3   OH246817   2.059   3.809  10.255
 7541TIP3    H146818   2.116   3.875  10.207
 7541TIP3    H246819   2.019   3.862  10.326
 7542TIP3   OH246820   2.621   3.763  10.669
 7542TIP3    H146821   2.695   3.801  10.621
 7542TIP3    H246822   2.639   3.791  10.761
 7543TIP3   OH246823   3.220   3.826  10.780
 7543TIP3    H146824   3.172   3.836  10.697
 7543TIP3    H246825   3.167   3.758  10.827
 7544TIP3   OH246826   3.352   3.821  10.408
 7544TIP3    H146827   3.270   3.871  10.393
 7544TIP3    H246828   3.316   3.743  10.455
 7545TIP3   OH246829   2.047   5.414  10.340
 7545TIP3    H146830   1.957   5.414  10.304
 7545TIP3    H246831   2.048   5.504  10.374
 7546TIP3   OH246832   2.223   3.956  10.106
 7546TIP3    H146833   2.300   3.897  10.101
 7546TIP3    H246834   2.257   4.034  10.150
 7547TIP3   OH246835   2.765   4.058  10.344
 7547TIP3    H146836   2.807   4.000  10.411
 7547TIP3    H246837   2.778   4.143  10.391
 7548TIP3   OH246838   2.927   5.546  10.160
 7548TIP3    H146839   3.026   5.563  10.164
 7548TIP3    H246840   2.928   5.496  10.076
 7549TIP3   OH246841   3.583   5.463  10.479
 7549TIP3    H146842   3.574   5.372  10.442
 7549TIP3    H246843   3.567   5.518  10.400
 7550TIP3   OH246844   2.146   3.906  11.618
 7550TIP3    H146845   2.097   3.821  11.622
 7550TIP3    H246846   2.216   3.892  11.685
 7551TIP3   OH246847   2.346   3.833  11.809
 7551TIP3    H146848   2.439   3.822  11.780
 7551TIP3    H246849   2.326   3.740  11.830
 7552TIP3   OH246850   2.271   5.502  10.140
 7552TIP3    H146851   2.208   5.564  10.184
 7552TIP3    H246852   2.245   5.420  10.185
 7553TIP3   OH246853   3.214   3.752  11.843
 7553TIP3    H146854   3.214   3.657  11.861
 7553TIP3    H246855   3.291   3.754  11.782
 7554TIP3   OH246856   3.529   5.370  11.643
 7554TIP3    H146857   3.458   5.363  11.577
 7554TIP3    H246858   3.510   5.457  11.681
 7555TIP3   OH246859   4.985   4.773  10.668
 7555TIP3    H146860   4.976   4.864  10.701
 7555TIP3    H246861   4.926   4.777  10.591
 7556TIP3   OH246862   4.887   4.637  11.007
 7556TIP3    H146863   4.874   4.604  11.099
 7556TIP3    H246864   4.815   4.592  10.958
 7557TIP3   OH246865   4.060   4.634  11.160
 7557TIP3    H146866   4.074   4.565  11.228
 7557TIP3    H246867   4.144   4.682  11.163
 7558TIP3   OH246868   5.179   4.959  10.857
 7558TIP3    H146869   5.165   4.887  10.922
 7558TIP3    H246870   5.209   5.029  10.917
 7559TIP3   OH246871   4.185   5.110  10.977
 7559TIP3    H146872   4.155   5.017  10.967
 7559TIP3    H246873   4.280   5.094  10.963
 7560TIP3   OH246874   3.857   4.436  10.563
 7560TIP3    H146875   3.816   4.524  10.573
 7560TIP3    H246876   3.802   4.400  10.491
 7561TIP3   OH246877   3.908   4.684  10.810
 7561TIP3    H146878   3.951   4.596  10.821
 7561TIP3    H246879   3.969   4.731  10.752
 7562TIP3   OH246880   4.949   5.513  10.842
 7562TIP3    H146881   5.018   5.452  10.807
 7562TIP3    H246882   4.903   5.452  10.900
 7563TIP3   OH246883   4.680   4.917  11.101
 7563TIP3    H146884   4.705   4.873  11.019
 7563TIP3    H246885   4.769   4.944  11.134
 7564TIP3   OH246886   5.555   4.069  11.098
 7564TIP3    H146887   5.562   4.126  11.177
 7564TIP3    H246888   5.637   4.093  11.052
 7565TIP3   OH246889   5.052   4.377  11.118
 7565TIP3    H146890   5.073   4.283  11.126
 7565TIP3    H246891   5.019   4.379  11.025
 7566TIP3   OH246892   4.329   4.137  10.778
 7566TIP3    H146893   4.346   4.217  10.724
 7566TIP3    H246894   4.280   4.084  10.713
 7567TIP3   OH246895   5.084   4.181  10.657
 7567TIP3    H146896   5.139   4.142  10.730
 7567TIP3    H246897   5.148   4.243  10.617
 7568TIP3   OH246898   3.973   4.425  10.875
 7568TIP3    H146899   4.035   4.374  10.929
 7568TIP3    H246900   3.996   4.390  10.787
 7569TIP3   OH246901   4.480   4.569  10.843
 7569TIP3    H146902   4.571   4.538  10.862
 7569TIP3    H246903   4.445   4.490  10.798
 7570TIP3   OH246904   5.563   4.211  11.341
 7570TIP3    H146905   5.523   4.294  11.306
 7570TIP3    H246906   5.586   4.241  11.431
 7571TIP3   OH246907   4.243   4.065  11.196
 7571TIP3    H146908   4.191   4.111  11.127
 7571TIP3    H246909   4.184   4.082  11.272
 7572TIP3   OH246910   4.917   5.032  10.568
 7572TIP3    H146911   4.911   5.022  10.470
 7572TIP3    H246912   4.889   5.124  10.576
 7573TIP3   OH246913   4.439   4.836  11.174
 7573TIP3    H146914   4.393   4.911  11.218
 7573TIP3    H246915   4.524   4.879  11.147
 7574TIP3   OH246916   5.260   4.114  10.850
 7574TIP3    H146917   5.257   4.035  10.906
 7574TIP3    H246918   5.349   4.146  10.870
 7575TIP3   OH246919   4.183   4.255  10.999
 7575TIP3    H146920   4.245   4.318  11.043
 7575TIP3    H246921   4.233   4.231  10.918
 7576TIP3   OH246922   4.324   5.049  11.301
 7576TIP3    H146923   4.299   5.120  11.239
 7576TIP3    H246924   4.238   5.036  11.349
 7577TIP3   OH246925   3.908   4.982  10.386
 7577TIP3    H146926   3.905   5.046  10.311
 7577TIP3    H246927   3.915   5.042  10.462
 7578TIP3   OH246928   5.273   5.159  11.061
 7578TIP3    H146929   5.177   5.172  11.079
 7578TIP3    H246930   5.294   5.247  11.027
 7579TIP3   OH246931   5.291   3.986  11.181
 7579TIP3    H146932   5.217   3.993  11.117
 7579TIP3    H246933   5.363   4.031  11.134
 7580TIP3   OH246934   4.578   3.804  10.942
 7580TIP3    H146935   4.553   3.711  10.950
 7580TIP3    H246936   4.490   3.845  10.962
 7581TIP3   OH246937   5.121   5.336  10.747
 7581TIP3    H146938   5.128   5.261  10.684
 7581TIP3    H246939   5.203   5.386  10.723
 7582TIP3   OH246940   5.199   5.131  10.590
 7582TIP3    H146941   5.193   5.068  10.513
 7582TIP3    H246942   5.185   5.067  10.662
 7583TIP3   OH246943   5.371   4.993  11.451
 7583TIP3    H146944   5.398   4.918  11.393
 7583TIP3    H246945   5.382   5.067  11.387
 7584TIP3   OH246946   4.837   4.712  10.407
 7584TIP3    H146947   4.783   4.794  10.393
 7584TIP3    H246948   4.903   4.723  10.337
 7585TIP3   OH246949   4.886   4.541  10.125
 7585TIP3    H146950   4.954   4.591  10.177
 7585TIP3    H246951   4.937   4.460  10.105
 7586TIP3   OH246952   5.586   4.643  11.229
 7586TIP3    H146953   5.516   4.711  11.234
 7586TIP3    H246954   5.643   4.685  11.162
 7587TIP3   OH246955   5.194   4.664  10.534
 7587TIP3    H146956   5.125   4.713  10.586
 7587TIP3    H246957   5.264   4.647  10.600
 7588TIP3   OH246958   5.182   4.527  11.423
 7588TIP3    H146959   5.162   4.605  11.477
 7588TIP3    H246960   5.114   4.537  11.355
 7589TIP3   OH246961   4.340   4.758  10.710
 7589TIP3    H146962   4.317   4.734  10.617
 7589TIP3    H246963   4.401   4.684  10.732
 7590TIP3   OH246964   4.467   5.091  10.953
 7590TIP3    H146965   4.482   5.074  10.859
 7590TIP3    H246966   4.540   5.044  10.998
 7591TIP3   OH246967   4.342   4.616  11.074
 7591TIP3    H146968   4.385   4.612  10.985
 7591TIP3    H246969   4.393   4.690  11.115
 7592TIP3   OH246970   5.019   5.201  11.143
 7592TIP3    H146971   5.004   5.268  11.212
 7592TIP3    H246972   4.991   5.119  11.188
 7593TIP3   OH246973   4.492   5.096  11.510
 7593TIP3    H146974   4.419   5.141  11.559
 7593TIP3    H246975   4.443   5.075  11.427
 7594TIP3   OH246976   5.081   4.626  10.288
 7594TIP3    H146977   5.127   4.650  10.372
 7594TIP3    H246978   5.115   4.693  10.225
 7595TIP3   OH246979   4.167   4.680  11.439
 7595TIP3    H146980   4.189   4.749  11.505
 7595TIP3    H246981   4.082   4.652  11.476
 7596TIP3   OH246982   4.848   5.358  10.556
 7596TIP3    H146983   4.854   5.358  10.652
 7596TIP3    H246984   4.790   5.434  10.533
 7597TIP3   OH246985   4.302   5.254  11.609
 7597TIP3    H146986   4.285   5.298  11.522
 7597TIP3    H246987   4.210   5.233  11.634
 7598TIP3   OH246988   5.470   3.782  10.292
 7598TIP3    H146989   5.372   3.782  10.305
 7598TIP3    H246990   5.482   3.876  10.272
 7599TIP3   OH246991   4.241   4.643  10.469
 7599TIP3    H146992   4.211   4.725  10.426
 7599TIP3    H246993   4.189   4.576  10.422
 7600TIP3   OH246994   5.548   5.257  10.117
 7600TIP3    H146995   5.568   5.352  10.135
 7600TIP3    H246996   5.633   5.213  10.132
 7601TIP3   OH246997   3.876   4.919  11.357
 7601TIP3    H146998   3.826   4.912  11.275
 7601TIP3    H246999   3.922   4.832  11.356
 7602TIP3   OH247000   3.836   5.185  11.020
 7602TIP3    H147001   3.930   5.161  11.017
 7602TIP3    H247002   3.838   5.263  11.077
 7603TIP3   OH247003   5.654   5.253  11.605
 7603TIP3    H147004   5.640   5.160  11.585
 7603TIP3    H247005   5.565   5.274  11.643
 7604TIP3   OH247006   4.736   5.204  11.477
 7604TIP3    H147007   4.739   5.288  11.527
 7604TIP3    H247008   4.643   5.173  11.489
 7605TIP3   OH247009   4.754   5.593  10.430
 7605TIP3    H147010   4.797   5.602  10.344
 7605TIP3    H247011   4.790   5.673  10.476
 7606TIP3   OH247012   4.152   5.447  10.656
 7606TIP3    H147013   4.179   5.423  10.748
 7606TIP3    H247014   4.061   5.410  10.654
 7607TIP3   OH247015   5.058   5.548  10.200
 7607TIP3    H147016   5.112   5.477  10.158
 7607TIP3    H247017   5.076   5.536  10.296
 7608TIP3   OH247018   5.056   5.502  10.470
 7608TIP3    H147019   4.962   5.476  10.473
 7608TIP3    H247020   5.092   5.430  10.525
 7609TIP3   OH247021   5.365   4.397  11.631
 7609TIP3    H147022   5.302   4.428  11.563
 7609TIP3    H247023   5.358   4.300  11.621
 7610TIP3   OH247024   4.094   5.043  11.442
 7610TIP3    H147025   4.095   5.004  11.532
 7610TIP3    H247026   4.007   5.012  11.408
 7611TIP3   OH247027   4.347   3.892  11.021
 7611TIP3    H147028   4.259   3.894  10.980
 7611TIP3    H247029   4.333   3.954  11.095
 7612TIP3   OH247030   4.839   3.857  11.341
 7612TIP3    H147031   4.870   3.818  11.426
 7612TIP3    H247032   4.741   3.851  11.346
 7613TIP3   OH247033   5.127   4.249  11.477
 7613TIP3    H147034   5.059   4.215  11.541
 7613TIP3    H247035   5.090   4.334  11.447
 7614TIP3   OH247036   5.247   4.751  10.128
 7614TIP3    H147037   5.197   4.764  10.043
 7614TIP3    H247038   5.339   4.769  10.097
 7615TIP3   OH247039   4.785   4.131  10.122
 7615TIP3    H147040   4.730   4.106  10.200
 7615TIP3    H247041   4.741   4.080  10.053
 7616TIP3   OH247042   4.367   4.372  11.168
 7616TIP3    H147043   4.283   4.369  11.219
 7616TIP3    H247044   4.363   4.464  11.134
 7617TIP3   OH247045   4.349   4.352  10.635
 7617TIP3    H147046   4.253   4.365  10.622
 7617TIP3    H247047   4.384   4.347  10.544
 7618TIP3   OH247048   4.918   4.486  10.547
 7618TIP3    H147049   4.886   4.569  10.505
 7618TIP3    H247050   4.981   4.458  10.478
 7619TIP3   OH247051   4.809   4.479  11.655
 7619TIP3    H147052   4.748   4.410  11.689
 7619TIP3    H247053   4.877   4.477  11.723
 7620TIP3   OH247054   5.007   4.413  10.829
 7620TIP3    H147055   5.006   4.496  10.777
 7620TIP3    H247056   5.004   4.349  10.756
 7621TIP3   OH247057   4.131   4.380  11.291
 7621TIP3    H147058   4.154   4.419  11.376
 7621TIP3    H247059   4.091   4.295  11.319
 7622TIP3   OH247060   4.452   4.171  10.027
 7622TIP3    H147061   4.412   4.136  10.109
 7622TIP3    H247062   4.381   4.160   9.963
 7623TIP3   OH247063   3.793   4.113  10.746
 7623TIP3    H147064   3.861   4.119  10.814
 7623TIP3    H247065   3.843   4.111  10.663
 7624TIP3   OH247066   3.909   4.189  10.263
 7624TIP3    H147067   3.989   4.232  10.228
 7624TIP3    H247068   3.852   4.268  10.275
 7625TIP3   OH247069   4.915   4.569  11.265
 7625TIP3    H147070   4.970   4.503  11.218
 7625TIP3    H247071   4.850   4.509  11.308
 7626TIP3   OH247072   4.646   4.143  10.757
 7626TIP3    H147073   4.549   4.148  10.771
 7626TIP3    H247074   4.680   4.098  10.836
 7627TIP3   OH247075   4.076   4.300  10.648
 7627TIP3    H147076   4.002   4.334  10.594
 7627TIP3    H247077   4.096   4.212  10.609
 7628TIP3   OH247078   4.478   4.304  10.388
 7628TIP3    H147079   4.569   4.333  10.405
 7628TIP3    H247080   4.440   4.374  10.330
 7629TIP3   OH247081   5.055   4.065  11.056
 7629TIP3    H147082   4.986   4.069  11.124
 7629TIP3    H247083   5.011   4.026  10.979
 7630TIP3   OH247084   4.331   4.446  10.197
 7630TIP3    H147085   4.250   4.418  10.151
 7630TIP3    H247086   4.395   4.449  10.124
 7631TIP3   OH247087   5.345   5.660  11.725
 7631TIP3    H147088   5.369   5.715  11.649
 7631TIP3    H247089   5.428   5.665  11.775
 7632TIP3   OH247090   4.137   4.872  11.670
 7632TIP3    H147091   4.197   4.910  11.738
 7632TIP3    H247092   4.053   4.864  11.720
 7633TIP3   OH247093   4.718   4.455  10.913
 7633TIP3    H147094   4.796   4.412  10.875
 7633TIP3    H247095   4.698   4.401  10.990
 7634TIP3   OH247096   4.170   4.032  10.583
 7634TIP3    H147097   4.110   3.970  10.631
 7634TIP3    H247098   4.209   3.972  10.518
 7635TIP3   OH247099   4.612   4.254  11.173
 7635TIP3    H147100   4.528   4.306  11.180
 7635TIP3    H247101   4.670   4.306  11.231
 7636TIP3   OH247102   4.654   4.904  10.373
 7636TIP3    H147103   4.583   4.848  10.337
 7636TIP3    H247104   4.617   4.928  10.460
 7637TIP3   OH247105   5.403   4.850  11.233
 7637TIP3    H147106   5.450   4.903  11.164
 7637TIP3    H247107   5.319   4.837  11.187
 7638TIP3   OH247108   5.040   4.178  10.166
 7638TIP3    H147109   4.942   4.186  10.165
 7638TIP3    H247110   5.067   4.260  10.213
 7639TIP3   OH247111   4.767   4.913  11.463
 7639TIP3    H147112   4.742   4.848  11.529
 7639TIP3    H247113   4.749   4.999  11.504
 7640TIP3   OH247114   5.105   4.372  10.331
 7640TIP3    H147115   5.188   4.348  10.377
 7640TIP3    H247116   5.122   4.465  10.303
 7641TIP3   OH247117   4.181   4.843  10.927
 7641TIP3    H147118   4.241   4.828  10.851
 7641TIP3    H247119   4.189   4.760  10.977
 7642TIP3   OH247120   4.871   5.076  10.311
 7642TIP3    H147121   4.795   5.135  10.297
 7642TIP3    H247122   4.873   5.021  10.230
 7643TIP3   OH247123   3.881   4.656  11.460
 7643TIP3    H147124   3.859   4.619  11.547
 7643TIP3    H247125   3.819   4.609  11.401
 7644TIP3   OH247126   4.571   4.649  11.626
 7644TIP3    H147127   4.506   4.594  11.578
 7644TIP3    H247128   4.598   4.584  11.695
 7645TIP3   OH247129   5.058   5.171  11.492
 7645TIP3    H147130   4.972   5.181  11.447
 7645TIP3    H247131   5.037   5.211  11.579
 7646TIP3   OH247132   5.622   4.367  10.318
 7646TIP3    H147133   5.542   4.360  10.261
 7646TIP3    H247134   5.645   4.460  10.301
 7647TIP3   OH247135   5.608   4.951  11.577
 7647TIP3    H147136   5.513   4.971  11.555
 7647TIP3    H247137   5.650   4.946  11.489
 7648TIP3   OH247138   5.447   5.222  10.360
 7648TIP3    H147139   5.355   5.189  10.362
 7648TIP3    H247140   5.465   5.227  10.263
 7649TIP3   OH247141   5.148   4.735  11.037
 7649TIP3    H147142   5.053   4.718  11.026
 7649TIP3    H247143   5.185   4.659  10.986
 7650TIP3   OH247144   4.397   5.177  10.671
 7650TIP3    H147145   4.437   5.256  10.627
 7650TIP3    H247146   4.303   5.198  10.660
 7651TIP3   OH247147   4.005   4.641  10.089
 7651TIP3    H147148   4.055   4.699  10.150
 7651TIP3    H247149   3.916   4.646  10.129
 7652TIP3   OH247150   4.536   4.943  10.616
 7652TIP3    H147151   4.488   5.027  10.632
 7652TIP3    H247152   4.491   4.881  10.676
 7653TIP3   OH247153   4.603   5.365  11.297
 7653TIP3    H147154   4.664   5.425  11.250
 7653TIP3    H247155   4.664   5.314  11.353
 7654TIP3   OH247156   4.425   5.433  10.577
 7654TIP3    H147157   4.331   5.443  10.600
 7654TIP3    H247158   4.457   5.522  10.606
 7655TIP3   OH247159   4.912   4.947  11.235
 7655TIP3    H147160   4.858   4.920  11.314
 7655TIP3    H247161   4.963   4.865  11.218
 7656TIP3   OH247162   5.191   5.060  10.130
 7656TIP3    H147163   5.167   5.064  10.224
 7656TIP3    H247164   5.124   4.991  10.108
 7657TIP3   OH247165   5.232   5.401  11.460
 7657TIP3    H147166   5.144   5.363  11.440
 7657TIP3    H247167   5.245   5.467  11.387
 7658TIP3   OH247168   5.631   5.505  10.170
 7658TIP3    H147169   5.698   5.568  10.138
 7658TIP3    H247170   5.573   5.568  10.221
 7659TIP3   OH247171   4.054   4.133  11.393
 7659TIP3    H147172   3.972   4.178  11.419
 7659TIP3    H247173   4.055   4.059  11.456
 7660TIP3   OH247174   5.252   4.950  10.380
 7660TIP3    H147175   5.220   4.872  10.332
 7660TIP3    H247176   5.346   4.945  10.353
 7661TIP3   OH247177   4.006   5.329  11.249
 7661TIP3    H147178   4.077   5.264  11.261
 7661TIP3    H247179   4.017   5.382  11.330
 7662TIP3   OH247180   4.434   5.122  10.238
 7662TIP3    H147181   4.520   5.085  10.267
 7662TIP3    H247182   4.446   5.217  10.263
 7663TIP3   OH247183   4.103   4.836  10.264
 7663TIP3    H147184   4.033   4.883  10.315
 7663TIP3    H247185   4.158   4.912  10.235
 7664TIP3   OH247186   4.911   4.130  11.346
 7664TIP3    H147187   5.005   4.134  11.369
 7664TIP3    H247188   4.889   4.036  11.362
 7665TIP3   OH247189   5.015   4.022  10.448
 7665TIP3    H147190   5.018   4.095  10.383
 7665TIP3    H247191   5.048   4.068  10.529
 7666TIP3   OH247192   4.724   5.312  10.262
 7666TIP3    H147193   4.656   5.349  10.320
 7666TIP3    H247194   4.765   5.393  10.227
 7667TIP3   OH247195   4.735   4.247  10.521
 7667TIP3    H147196   4.785   4.330  10.527
 7667TIP3    H247197   4.712   4.225  10.614
 7668TIP3   OH247198   4.787   4.381  11.400
 7668TIP3    H147199   4.782   4.413  11.493
 7668TIP3    H247200   4.819   4.289  11.412
 7669TIP3   OH247201   4.766   3.934  10.560
 7669TIP3    H147202   4.733   4.012  10.609
 7669TIP3    H247203   4.854   3.968  10.532
 7670TIP3   OH247204   4.457   5.391  10.304
 7670TIP3    H147205   4.486   5.477  10.267
 7670TIP3    H247206   4.442   5.414  10.398
 7671TIP3   OH247207   4.353   4.076  10.284
 7671TIP3    H147208   4.358   4.158  10.336
 7671TIP3    H247209   4.444   4.044  10.300
 7672TIP3   OH247210   5.362   4.134  11.513
 7672TIP3    H147211   5.271   4.166  11.490
 7672TIP3    H247212   5.407   4.140  11.426
 7673TIP3   OH247213   5.246   4.502  10.909
 7673TIP3    H147214   5.171   4.441  10.900
 7673TIP3    H247215   5.312   4.447  10.957
 7674TIP3   OH247216   4.176   5.085  10.174
 7674TIP3    H147217   4.266   5.112  10.206
 7674TIP3    H247218   4.195   5.077  10.079
 7675TIP3   OH247219   4.028   4.374  10.112
 7675TIP3    H147220   4.026   4.472  10.117
 7675TIP3    H247221   3.958   4.356  10.047
 7676TIP3   OH247222   5.337   5.442  11.055
 7676TIP3    H147223   5.330   5.509  10.984
 7676TIP3    H247224   5.435   5.435  11.058
 7677TIP3   OH247225   4.080   3.852  10.970
 7677TIP3    H147226   4.076   3.841  10.872
 7677TIP3    H247227   4.060   3.761  10.999
 7678TIP3   OH247228   3.946   5.235  10.571
 7678TIP3    H147229   3.870   5.294  10.570
 7678TIP3    H247230   3.991   5.270  10.493
 7679TIP3   OH247231   3.890   5.530  11.692
 7679TIP3    H147232   3.963   5.511  11.754
 7679TIP3    H247233   3.857   5.440  11.675
 7680TIP3   OH247234   4.374   5.406  11.820
 7680TIP3    H147235   4.460   5.370  11.850
 7680TIP3    H247236   4.362   5.359  11.735
 7681TIP3   OH247237   4.783   5.322   9.961
 7681TIP3    H147238   4.722   5.247   9.959
 7681TIP3    H247239   4.847   5.285  10.025
 7682TIP3   OH247240   5.016   5.263  11.740
 7682TIP3    H147241   4.987   5.176  11.779
 7682TIP3    H247242   5.102   5.274  11.785
 7683TIP3   OH247243   5.182   5.322  10.104
 7683TIP3    H147244   5.184   5.223  10.099
 7683TIP3    H247245   5.224   5.350  10.020
 7684TIP3   OH247246   3.872   4.900  11.785
 7684TIP3    H147247   3.831   4.812  11.791
 7684TIP3    H247248   3.829   4.935  11.704
 7685TIP3   OH247249   4.385   4.856  10.031
 7685TIP3    H147250   4.348   4.817  10.111
 7685TIP3    H247251   4.460   4.906  10.068
 7686TIP3   OH247252   4.559   4.909  11.702
 7686TIP3    H147253   4.552   4.970  11.624
 7686TIP3    H247254   4.568   4.820  11.660
 7687TIP3   OH247255   5.114   4.873  11.504
 7687TIP3    H147256   5.193   4.931  11.496
 7687TIP3    H247257   5.044   4.940  11.497
 7688TIP3   OH247258   3.997   4.612  11.756
 7688TIP3    H147259   4.070   4.553  11.729
 7688TIP3    H247260   4.041   4.662  11.828
 7689TIP3   OH247261   4.464   4.719  10.270
 7689TIP3    H147262   4.408   4.652  10.313
 7689TIP3    H247263   4.511   4.666  10.202
 7690TIP3   OH247264   4.356   4.504  11.451
 7690TIP3    H147265   4.295   4.578  11.431
 7690TIP3    H247266   4.429   4.525  11.391
 7691TIP3   OH247267   4.598   4.572  10.076
 7691TIP3    H147268   4.611   4.553   9.983
 7691TIP3    H247269   4.692   4.569  10.109
 7692TIP3   OH247270   4.896   4.772  11.814
 7692TIP3    H147271   4.967   4.764  11.748
 7692TIP3    H247272   4.835   4.702  11.790
 7693TIP3   OH247273   5.484   4.747  20.014
 7693TIP3    H147274   5.498   4.702  19.929
 7693TIP3    H247275   5.516   4.837  19.992
 7694TIP3   OH247276   4.390   4.216  11.538
 7694TIP3    H147277   4.438   4.165  11.468
 7694TIP3    H247278   4.382   4.304  11.499
 7695TIP3   OH247279   4.485   4.082  11.330
 7695TIP3    H147280   4.543   4.122  11.262
 7695TIP3    H247281   4.398   4.093  11.286
 7696TIP3   OH247282   4.589   4.643  11.318
 7696TIP3    H147283   4.670   4.677  11.357
 7696TIP3    H247284   4.540   4.722  11.290
 7697TIP3   OH247285   5.069   4.375  11.871
 7697TIP3    H147286   5.060   4.302  11.808
 7697TIP3    H247287   5.139   4.432  11.836
 7698TIP3   OH247288   5.201   4.695  11.686
 7698TIP3    H147289   5.171   4.755  11.613
 7698TIP3    H247290   5.297   4.694  11.665
 7699TIP3   OH247291   4.220   4.422  11.748
 7699TIP3    H147292   4.208   4.336  11.704
 7699TIP3    H247293   4.317   4.431  11.744
 7700TIP3   OH247294   4.569   3.828  11.315
 7700TIP3    H147295   4.534   3.918  11.336
 7700TIP3    H247296   4.487   3.781  11.297
 7701TIP3   OH247297   4.696   4.214  11.708
 7701TIP3    H147298   4.667   4.249  11.795
 7701TIP3    H247299   4.610   4.214  11.665
 7702TIP3   OH247300   4.958   4.145  11.657
 7702TIP3    H147301   4.860   4.151  11.663
 7702TIP3    H247302   4.978   4.098  11.741
 7703TIP3   OH247303   5.075   4.014  11.869
 7703TIP3    H147304   5.091   3.927  11.825
 7703TIP3    H247305   5.087   3.993  11.962
 7704TIP3   OH247306   4.048   4.172  11.766
 7704TIP3    H147307   4.069   4.096  11.710
 7704TIP3    H247308   4.062   4.136  11.857
 7705TIP3   OH247309   4.533   3.786  11.609
 7705TIP3    H147310   4.606   3.730  11.644
 7705TIP3    H247311   4.548   3.775  11.514
 7706TIP3   OH247312   4.571   3.905  11.866
 7706TIP3    H147313   4.552   3.877  11.774
 7706TIP3    H247314   4.541   3.999  11.868
 7707TIP3   OH247315   4.533   5.623  10.191
 7707TIP3    H147316   4.630   5.616  10.192
 7707TIP3    H247317   4.516   5.659  10.104
 7708TIP3   OH247318   3.911   5.115  10.145
 7708TIP3    H147319   4.008   5.103  10.157
 7708TIP3    H247320   3.893   5.057  10.070
 7709TIP3   OH247321   3.789   5.587  10.604
 7709TIP3    H147322   3.710   5.539  10.573
 7709TIP3    H247323   3.816   5.533  10.682
 7710TIP3   OH247324   3.873   5.422  10.804
 7710TIP3    H147325   3.817   5.345  10.828
 7710TIP3    H247326   3.929   5.434  10.884
 7711TIP3   OH247327   5.613   5.496  11.067
 7711TIP3    H147328   5.644   5.507  11.158
 7711TIP3    H247329   5.683   5.542  11.018
 7712TIP3   OH247330   5.555   5.460  11.371
 7712TIP3    H147331   5.518   5.385  11.319
 7712TIP3    H247332   5.583   5.411  11.451
 7713TIP3   OH247333   5.435   5.030  11.859
 7713TIP3    H147334   5.340   5.035  11.876
 7713TIP3    H247335   5.467   5.110  11.905
 7714TIP3   OH247336   5.523   4.881  10.368
 7714TIP3    H147337   5.609   4.920  10.395
 7714TIP3    H247338   5.505   4.822  10.443
 7715TIP3   OH247339   5.583   4.693  10.609
 7715TIP3    H147340   5.503   4.643  10.637
 7715TIP3    H247341   5.634   4.693  10.693
 7716TIP3   OH247342   5.555   4.958  11.044
 7716TIP3    H147343   5.621   4.888  11.029
 7716TIP3    H247344   5.603   5.039  11.019
 7717TIP3   OH247345   5.418   5.236  11.295
 7717TIP3    H147346   5.350   5.275  11.352
 7717TIP3    H247347   5.367   5.210  11.215
 7718TIP3   OH247348   5.646   4.670  10.216
 7718TIP3    H147349   5.572   4.690  10.154
 7718TIP3    H247350   5.637   4.747  10.276
 7719TIP3   OH247351   5.401   4.363  10.141
 7719TIP3    H147352   5.384   4.429  10.071
 7719TIP3    H247353   5.440   4.295  10.083
 7720TIP3   OH247354   5.382   4.536  10.679
 7720TIP3    H147355   5.353   4.447  10.654
 7720TIP3    H247356   5.350   4.540  10.772
 7721TIP3   OH247357   3.860   4.775  11.071
 7721TIP3    H147358   3.871   4.740  10.980
 7721TIP3    H247359   3.943   4.737  11.110
 7722TIP3   OH247360   5.466   4.725  11.607
 7722TIP3    H147361   5.521   4.644  11.620
 7722TIP3    H247362   5.534   4.794  11.596
 7723TIP3   OH247363   5.613   4.497  11.648
 7723TIP3    H147364   5.522   4.461  11.643
 7723TIP3    H247365   5.663   4.413  11.661
 7724TIP3   OH247366   5.379   4.131   9.977
 7724TIP3    H147367   5.434   4.080  10.039
 7724TIP3    H247368   5.289   4.107  10.003
 7725TIP3   OH247369   5.316   4.287  10.480
 7725TIP3    H147370   5.349   4.198  10.506
 7725TIP3    H247371   5.399   4.325  10.449
 7726TIP3   OH247372   5.428   4.347  11.037
 7726TIP3    H147373   5.526   4.361  11.047
 7726TIP3    H247374   5.403   4.352  11.131
 7727TIP3   OH247375   5.423   4.430  11.293
 7727TIP3    H147376   5.331   4.458  11.304
 7727TIP3    H247377   5.469   4.516  11.282
 7728TIP3   OH247378   3.812   4.260  11.658
 7728TIP3    H147379   3.895   4.252  11.709
 7728TIP3    H247380   3.775   4.170  11.660
 7729TIP3   OH247381   5.678   3.834  11.850
 7729TIP3    H147382   5.719   3.770  11.787
 7729TIP3    H247383   5.650   3.899  11.782
 7730TIP3   OH247384   5.445   4.043  10.510
 7730TIP3    H147385   5.467   3.992  10.592
 7730TIP3    H247386   5.382   3.983  10.469
 7731TIP3   OH247387   3.957   4.093  11.014
 7731TIP3    H147388   3.996   4.003  11.009
 7731TIP3    H247389   4.031   4.152  10.990
 7732TIP3   OH247390   3.796   4.401  11.066
 7732TIP3    H147391   3.845   4.375  10.986
 7732TIP3    H247392   3.848   4.480  11.089
 7733TIP3   OH247393   5.596   4.016  11.676
 7733TIP3    H147394   5.522   4.073  11.705
 7733TIP3    H247395   5.559   3.985  11.592
 7734TIP3   OH247396   5.586   4.036  10.147
 7734TIP3    H147397   5.634   3.973  10.091
 7734TIP3    H247398   5.656   4.102  10.165
 7735TIP3   OH247399   3.818   4.021  10.461
 7735TIP3    H147400   3.728   4.052  10.475
 7735TIP3    H247401   3.839   4.062  10.374
 7736TIP3   OH247402   5.293   5.516  10.665
 7736TIP3    H147403   5.358   5.497  10.595
 7736TIP3    H247404   5.337   5.580  10.724
 7737TIP3   OH247405   3.821   3.878  11.295
 7737TIP3    H147406   3.760   3.831  11.354
 7737TIP3    H247407   3.763   3.938  11.245
 7738TIP3   OH247408   4.046   5.209  11.694
 7738TIP3    H147409   3.958   5.237  11.662
 7738TIP3    H247410   4.028   5.169  11.779
 7739TIP3   OH247411   4.333   5.351  11.356
 7739TIP3    H147412   4.335   5.442  11.319
 7739TIP3    H247413   4.428   5.331  11.354
 7740TIP3   OH247414   4.742   5.474  11.608
 7740TIP3    H147415   4.758   5.436  11.697
 7740TIP3    H247416   4.833   5.502  11.584
 7741TIP3   OH247417   4.970   5.598  11.542
 7741TIP3    H147418   5.046   5.546  11.511
 7741TIP3    H247419   5.003   5.632  11.628
 7742TIP3   OH247420   5.481   3.826  11.479
 7742TIP3    H147421   5.409   3.872  11.433
 7742TIP3    H247422   5.495   3.747  11.423
 7743TIP3   OH247423   4.069   5.645  11.325
 7743TIP3    H147424   3.991   5.694  11.293
 7743TIP3    H247425   4.060   5.659  11.421
 7744TIP3   OH247426   4.305   5.598  11.229
 7744TIP3    H147427   4.211   5.612  11.256
 7744TIP3    H247428   4.311   5.661  11.155
 7745TIP3   OH247429   4.778   5.554  11.140
 7745TIP3    H147430   4.724   5.604  11.077
 7745TIP3    H247431   4.805   5.626  11.203
 7746TIP3   OH247432   4.988   5.427  11.296
 7746TIP3    H147433   4.921   5.468  11.237
 7746TIP3    H247434   5.064   5.483  11.271
 7747TIP3   OH247435   5.253   5.590  11.264
 7747TIP3    H147436   5.260   5.681  11.231
 7747TIP3    H247437   5.292   5.541  11.188
 7748TIP3   OH247438   4.030   5.486  11.027
 7748TIP3    H147439   4.008   5.424  11.101
 7748TIP3    H247440   4.118   5.452  10.998
 7749TIP3   OH247441   4.238   5.379  10.899
 7749TIP3    H147442   4.228   5.285  10.924
 7749TIP3    H247443   4.327   5.397  10.938
 7750TIP3   OH247444   4.470   5.374  11.025
 7750TIP3    H147445   4.499   5.282  11.008
 7750TIP3    H247446   4.494   5.385  11.119
 7751TIP3   OH247447   4.825   3.963  10.904
 7751TIP3    H147448   4.749   3.928  10.953
 7751TIP3    H247449   4.842   3.891  10.841
 7752TIP3   OH247450   5.352   3.772  10.882
 7752TIP3    H147451   5.420   3.829  10.838
 7752TIP3    H247452   5.268   3.807  10.845
 7753TIP3   OH247453   5.526   3.895  10.722
 7753TIP3    H147454   5.589   3.836  10.673
 7753TIP3    H247455   5.582   3.975  10.737
 7754TIP3   OH247456   4.054   3.811  10.689
 7754TIP3    H147457   3.972   3.797  10.638
 7754TIP3    H247458   4.102   3.728  10.671
 7755TIP3   OH247459   3.934   3.806  10.249
 7755TIP3    H147460   3.991   3.875  10.208
 7755TIP3    H247461   3.891   3.854  10.321
 7756TIP3   OH247462   4.510   3.775  10.667
 7756TIP3    H147463   4.584   3.816  10.621
 7756TIP3    H247464   4.521   3.805  10.758
 7757TIP3   OH247465   5.100   3.837  10.788
 7757TIP3    H147466   5.064   3.839  10.699
 7757TIP3    H247467   5.048   3.765  10.831
 7758TIP3   OH247468   5.240   3.812  10.407
 7758TIP3    H147469   5.165   3.872  10.400
 7758TIP3    H247470   5.200   3.738  10.456
 7759TIP3   OH247471   3.926   5.419  10.357
 7759TIP3    H147472   3.840   5.418  10.311
 7759TIP3    H247473   3.944   5.514  10.348
 7760TIP3   OH247474   4.102   3.956  10.104
 7760TIP3    H147475   4.178   3.895  10.099
 7760TIP3    H247476   4.138   4.031  10.154
 7761TIP3   OH247477   4.642   4.034  10.340
 7761TIP3    H147478   4.684   3.972  10.404
 7761TIP3    H247479   4.647   4.115  10.393
 7762TIP3   OH247480   4.803   5.553  10.157
 7762TIP3    H147481   4.900   5.571  10.169
 7762TIP3    H247482   4.808   5.509  10.071
 7763TIP3   OH247483   5.468   5.461  10.482
 7763TIP3    H147484   5.461   5.373  10.436
 7763TIP3    H247485   5.464   5.523  10.406
 7764TIP3   OH247486   4.027   3.897  11.627
 7764TIP3    H147487   3.983   3.811  11.637
 7764TIP3    H247488   4.105   3.885  11.685
 7765TIP3   OH247489   4.238   3.835  11.808
 7765TIP3    H147490   4.328   3.807  11.786
 7765TIP3    H247491   4.205   3.753  11.851
 7766TIP3   OH247492   4.145   5.535  10.123
 7766TIP3    H147493   4.084   5.557  10.196
 7766TIP3    H247494   4.193   5.458  10.156
 7767TIP3   OH247495   5.087   3.757  11.788
 7767TIP3    H147496   5.085   3.701  11.870
 7767TIP3    H247497   5.180   3.745  11.763
 7768TIP3   OH247498   5.420   5.367  11.646
 7768TIP3    H147499   5.344   5.359  11.584
 7768TIP3    H247500   5.399   5.453  11.686
 7769TIP3   OH247501   6.875   4.769  10.673
 7769TIP3    H147502   6.868   4.856  10.717
 7769TIP3    H247503   6.798   4.776  10.614
 7770TIP3   OH247504   6.734   4.646  10.991
 7770TIP3    H147505   6.754   4.604  11.077
 7770TIP3    H247506   6.664   4.590  10.951
 7771TIP3   OH247507   5.962   4.648  11.143
 7771TIP3    H147508   5.949   4.583  11.215
 7771TIP3    H247509   6.039   4.694  11.178
 7772TIP3   OH247510   7.115   4.982  10.870
 7772TIP3    H147511   7.110   4.905  10.929
 7772TIP3    H247512   7.103   5.056  10.932
 7773TIP3   OH247513   6.074   5.116  10.997
 7773TIP3    H147514   6.039   5.026  10.981
 7773TIP3    H247515   6.168   5.096  10.978
 7774TIP3   OH247516   5.727   4.437  10.562
 7774TIP3    H147517   5.684   4.524  10.569
 7774TIP3    H247518   5.684   4.399  10.484
 7775TIP3   OH247519   5.786   4.677  10.810
 7775TIP3    H147520   5.833   4.591  10.821
 7775TIP3    H247521   5.845   4.729  10.753
 7776TIP3   OH247522   6.824   5.507  10.878
 7776TIP3    H147523   6.883   5.448  10.825
 7776TIP3    H247524   6.788   5.442  10.939
 7777TIP3   OH247525   6.563   4.916  11.109
 7777TIP3    H147526   6.593   4.870  11.030
 7777TIP3    H247527   6.649   4.943  11.148
 7778TIP3   OH247528   7.457   4.099  11.094
 7778TIP3    H147529   7.456   4.164  11.166
 7778TIP3    H247530   7.519   4.140  11.031
 7779TIP3   OH247531   6.917   4.361  11.110
 7779TIP3    H147532   6.963   4.281  11.138
 7779TIP3    H247533   6.912   4.345  11.014
 7780TIP3   OH247534   6.203   4.148  10.784
 7780TIP3    H147535   6.221   4.227  10.729
 7780TIP3    H247536   6.170   4.087  10.714
 7781TIP3   OH247537   6.985   4.173  10.652
 7781TIP3    H147538   7.039   4.158  10.733
 7781TIP3    H247539   7.038   4.239  10.606
 7782TIP3   OH247540   5.870   4.436  10.877
 7782TIP3    H147541   5.934   4.397  10.940
 7782TIP3    H247542   5.891   4.387  10.795
 7783TIP3   OH247543   6.367   4.563  10.825
 7783TIP3    H147544   6.443   4.517  10.865
 7783TIP3    H247545   6.330   4.491  10.772
 7784TIP3   OH247546   7.450   4.201  11.372
 7784TIP3    H147547   7.389   4.268  11.334
 7784TIP3    H247548   7.525   4.258  11.394
 7785TIP3   OH247549   6.125   4.075  11.197
 7785TIP3    H147550   6.084   4.124  11.124
 7785TIP3    H247551   6.056   4.088  11.265
 7786TIP3   OH247552   6.791   5.021  10.554
 7786TIP3    H147553   6.782   5.015  10.457
 7786TIP3    H247554   6.769   5.116  10.568
 7787TIP3   OH247555   6.324   4.838  11.182
 7787TIP3    H147556   6.277   4.919  11.214
 7787TIP3    H247557   6.406   4.879  11.147
 7788TIP3   OH247558   7.142   4.148  10.869
 7788TIP3    H147559   7.109   4.078  10.929
 7788TIP3    H247560   7.227   4.175  10.911
 7789TIP3   OH247561   6.066   4.261  11.000
 7789TIP3    H147562   6.133   4.321  11.042
 7789TIP3    H247563   6.116   4.229  10.922
 7790TIP3   OH247564   6.214   5.063  11.295
 7790TIP3    H147565   6.200   5.133  11.230
 7790TIP3    H247566   6.122   5.055  11.332
 7791TIP3   OH247567   5.787   4.978  10.392
 7791TIP3    H147568   5.779   5.030  10.309
 7791TIP3    H247569   5.789   5.049  10.459
 7792TIP3   OH247570   7.155   5.185  11.055
 7792TIP3    H147571   7.063   5.195  11.085
 7792TIP3    H247572   7.174   5.276  11.028
 7793TIP3   OH247573   7.200   4.048  11.196
 7793TIP3    H147574   7.121   4.072  11.143
 7793TIP3    H247575   7.276   4.074  11.140
 7794TIP3   OH247576   6.459   3.814  10.925
 7794TIP3    H147577   6.427   3.729  10.958
 7794TIP3    H247578   6.380   3.868  10.953
 7795TIP3   OH247579   6.974   5.332  10.736
 7795TIP3    H147580   6.994   5.247  10.692
 7795TIP3    H247581   7.060   5.377  10.718
 7796TIP3   OH247582   7.081   5.133  10.587
 7796TIP3    H147583   7.072   5.062  10.522
 7796TIP3    H247584   7.120   5.087  10.663
 7797TIP3   OH247585   7.254   4.985  11.441
 7797TIP3    H147586   7.239   4.925  11.365
 7797TIP3    H247587   7.277   5.067  11.394
 7798TIP3   OH247588   6.716   4.696  10.401
 7798TIP3    H147589   6.675   4.785  10.395
 7798TIP3    H247590   6.791   4.704  10.341
 7799TIP3   OH247591   6.761   4.562  10.116
 7799TIP3    H147592   6.840   4.590  10.169
 7799TIP3    H247593   6.788   4.471  10.093
 7800TIP3   OH247594   7.417   4.618  11.237
 7800TIP3    H147595   7.358   4.693  11.212
 7800TIP3    H247596   7.493   4.634  11.178
 7801TIP3   OH247597   7.076   4.698  10.508
 7801TIP3    H147598   7.005   4.733  10.567
 7801TIP3    H247599   7.137   4.660  10.576
 7802TIP3   OH247600   7.063   4.530  11.422
 7802TIP3    H147601   7.041   4.615  11.463
 7802TIP3    H247602   7.001   4.537  11.347
 7803TIP3   OH247603   6.220   4.756  10.700
 7803TIP3    H147604   6.188   4.736  10.609
 7803TIP3    H247605   6.280   4.679  10.716
 7804TIP3   OH247606   6.355   5.088  10.964
 7804TIP3    H147607   6.368   5.077  10.869
 7804TIP3    H247608   6.434   5.046  11.002
 7805TIP3   OH247609   6.251   4.616  11.064
 7805TIP3    H147610   6.282   4.620  10.970
 7805TIP3    H247611   6.294   4.696  11.102
 7806TIP3   OH247612   6.908   5.201  11.140
 7806TIP3    H147613   6.896   5.275  11.202
 7806TIP3    H247614   6.871   5.126  11.191
 7807TIP3   OH247615   6.370   5.095  11.518
 7807TIP3    H147616   6.298   5.140  11.569
 7807TIP3    H247617   6.322   5.083  11.433
 7808TIP3   OH247618   6.955   4.640  10.275
 7808TIP3    H147619   6.991   4.652  10.366
 7808TIP3    H247620   7.015   4.698  10.223
 7809TIP3   OH247621   6.057   4.692  11.419
 7809TIP3    H147622   6.058   4.782  11.452
 7809TIP3    H247623   6.003   4.650  11.488
 7810TIP3   OH247624   6.730   5.295  10.562
 7810TIP3    H147625   6.764   5.318  10.651
 7810TIP3    H247626   6.677   5.372  10.537
 7811TIP3   OH247627   6.187   5.252  11.620
 7811TIP3    H147628   6.177   5.299  11.535
 7811TIP3    H247629   6.093   5.230  11.639
 7812TIP3   OH247630   7.325   3.770  10.231
 7812TIP3    H147631   7.227   3.776  10.240
 7812TIP3    H247632   7.351   3.854  10.271
 7813TIP3   OH247633   6.122   4.648  10.463
 7813TIP3    H147634   6.074   4.719  10.417
 7813TIP3    H247635   6.089   4.568  10.421
 7814TIP3   OH247636   7.470   5.254  10.139
 7814TIP3    H147637   7.487   5.351  10.147
 7814TIP3    H247638   7.558   5.217  10.154
 7815TIP3   OH247639   5.761   4.918  11.359
 7815TIP3    H147640   5.716   4.911  11.274
 7815TIP3    H247641   5.799   4.827  11.363
 7816TIP3   OH247642   5.730   5.185  11.010
 7816TIP3    H147643   5.825   5.166  11.012
 7816TIP3    H247644   5.726   5.261  11.068
 7817TIP3   OH247645   7.520   5.261  11.580
 7817TIP3    H147646   7.516   5.165  11.570
 7817TIP3    H247647   7.447   5.273  11.644
 7818TIP3   OH247648   6.620   5.190  11.496
 7818TIP3    H147649   6.639   5.273  11.544
 7818TIP3    H247650   6.524   5.174  11.512
 7819TIP3   OH247651   6.670   5.571  10.435
 7819TIP3    H147652   6.683   5.592  10.341
 7819TIP3    H247653   6.670   5.661  10.475
 7820TIP3   OH247654   6.043   5.447  10.655
 7820TIP3    H147655   6.071   5.423  10.746
 7820TIP3    H247656   5.952   5.410  10.654
 7821TIP3   OH247657   6.951   5.558  10.177
 7821TIP3    H147658   6.992   5.476  10.142
 7821TIP3    H247659   6.970   5.554  10.271
 7822TIP3   OH247660   6.937   5.484  10.446
 7822TIP3    H147661   6.842   5.489  10.468
 7822TIP3    H247662   6.970   5.414  10.505
 7823TIP3   OH247663   7.222   4.418  11.637
 7823TIP3    H147664   7.151   4.436  11.571
 7823TIP3    H247665   7.233   4.322  11.629
 7824TIP3   OH247666   5.976   5.054  11.427
 7824TIP3    H147667   5.981   5.023  11.520
 7824TIP3    H247668   5.890   5.015  11.400
 7825TIP3   OH247669   6.234   3.907  11.027
 7825TIP3    H147670   6.146   3.906  10.986
 7825TIP3    H247671   6.214   3.960  11.107
 7826TIP3   OH247672   6.726   3.856  11.364
 7826TIP3    H147673   6.746   3.789  11.431
 7826TIP3    H247674   6.628   3.852  11.355
 7827TIP3   OH247675   7.004   4.237  11.450
 7827TIP3    H147676   6.946   4.207  11.524
 7827TIP3    H247677   6.980   4.331  11.445
 7828TIP3   OH247678   7.110   4.772  10.114
 7828TIP3    H147679   7.064   4.780  10.026
 7828TIP3    H247680   7.202   4.774  10.081
 7829TIP3   OH247681   6.683   4.128  10.120
 7829TIP3    H147682   6.637   4.097  10.201
 7829TIP3    H247683   6.621   4.095  10.053
 7830TIP3   OH247684   6.246   4.380  11.170
 7830TIP3    H147685   6.165   4.380  11.226
 7830TIP3    H247686   6.242   4.472  11.133
 7831TIP3   OH247687   6.239   4.362  10.636
 7831TIP3    H147688   6.143   4.371  10.625
 7831TIP3    H247689   6.270   4.341  10.545
 7832TIP3   OH247690   6.818   4.490  10.555
 7832TIP3    H147691   6.772   4.559  10.502
 7832TIP3    H247692   6.874   4.449  10.486
 7833TIP3   OH247693   6.655   4.468  11.680
 7833TIP3    H147694   6.623   4.381  11.711
 7833TIP3    H247695   6.740   4.474  11.727
 7834TIP3   OH247696   6.893   4.431  10.820
 7834TIP3    H147697   6.877   4.515  10.775
 7834TIP3    H247698   6.897   4.373  10.743
 7835TIP3   OH247699   6.001   4.387  11.297
 7835TIP3    H147700   6.025   4.426  11.382
 7835TIP3    H247701   5.969   4.298  11.321
 7836TIP3   OH247702   6.338   4.132  10.032
 7836TIP3    H147703   6.291   4.120  10.117
 7836TIP3    H247704   6.267   4.161   9.973
 7837TIP3   OH247705   5.678   4.121  10.737
 7837TIP3    H147706   5.746   4.118  10.807
 7837TIP3    H247707   5.729   4.112  10.656
 7838TIP3   OH247708   5.803   4.178  10.266
 7838TIP3    H147709   5.878   4.232  10.232
 7838TIP3    H247710   5.739   4.251  10.280
 7839TIP3   OH247711   6.816   4.567  11.255
 7839TIP3    H147712   6.860   4.497  11.201
 7839TIP3    H247713   6.760   4.511  11.314
 7840TIP3   OH247714   6.523   4.132  10.753
 7840TIP3    H147715   6.428   4.144  10.769
 7840TIP3    H247716   6.556   4.099  10.837
 7841TIP3   OH247717   5.954   4.298  10.656
 7841TIP3    H147718   5.884   4.330  10.595
 7841TIP3    H247719   5.986   4.215  10.616
 7842TIP3   OH247720   6.348   4.321  10.394
 7842TIP3    H147721   6.441   4.345  10.397
 7842TIP3    H247722   6.310   4.388  10.333
 7843TIP3   OH247723   6.955   4.070  11.059
 7843TIP3    H147724   6.889   4.070  11.130
 7843TIP3    H247725   6.896   4.038  10.987
 7844TIP3   OH247726   6.204   4.454  10.202
 7844TIP3    H147727   6.128   4.420  10.152
 7844TIP3    H247728   6.272   4.462  10.132
 7845TIP3   OH247729   7.245   5.616  11.723
 7845TIP3    H147730   7.279   5.663  11.644
 7845TIP3    H247731   7.319   5.629  11.786
 7846TIP3   OH247732   5.988   4.917  11.667
 7846TIP3    H147733   6.066   4.940  11.721
 7846TIP3    H247734   5.923   4.887  11.733
 7847TIP3   OH247735   6.604   4.415  10.922
 7847TIP3    H147736   6.691   4.399  10.883
 7847TIP3    H247737   6.590   4.336  10.976
 7848TIP3   OH247738   6.074   4.024  10.578
 7848TIP3    H147739   6.009   3.961  10.618
 7848TIP3    H247740   6.123   3.963  10.520
 7849TIP3   OH247741   6.477   4.244  11.175
 7849TIP3    H147742   6.396   4.300  11.174
 7849TIP3    H247743   6.540   4.302  11.219
 7850TIP3   OH247744   6.541   4.918  10.367
 7850TIP3    H147745   6.468   4.863  10.331
 7850TIP3    H247746   6.504   4.933  10.457
 7851TIP3   OH247747   7.258   4.844  11.209
 7851TIP3    H147748   7.316   4.882  11.140
 7851TIP3    H247749   7.175   4.831  11.157
 7852TIP3   OH247750   6.935   4.183  10.182
 7852TIP3    H147751   6.838   4.176  10.169
 7852TIP3    H247752   6.942   4.274  10.218
 7853TIP3   OH247753   6.662   4.920  11.517
 7853TIP3    H147754   6.619   4.910  11.604
 7853TIP3    H247755   6.652   5.017  11.507
 7854TIP3   OH247756   6.992   4.384  10.341
 7854TIP3    H147757   7.084   4.367  10.369
 7854TIP3    H247758   6.999   4.472  10.300
 7855TIP3   OH247759   6.069   4.844  10.932
 7855TIP3    H147760   6.121   4.820  10.853
 7855TIP3    H247761   6.067   4.761  10.983
 7856TIP3   OH247762   6.766   5.024  10.269
 7856TIP3    H147763   6.755   5.119  10.281
 7856TIP3    H247764   6.675   4.993  10.291
 7857TIP3   OH247765   5.774   4.654  11.426
 7857TIP3    H147766   5.751   4.617  11.513
 7857TIP3    H247767   5.711   4.612  11.365
 7858TIP3   OH247768   6.439   4.635  11.638
 7858TIP3    H147769   6.406   4.598  11.555
 7858TIP3    H247770   6.527   4.591  11.645
 7859TIP3   OH247771   6.947   5.152  11.496
 7859TIP3    H147772   6.866   5.162  11.445
 7859TIP3    H247773   6.918   5.187  11.583
 7860TIP3   OH247774   7.455   4.393  10.330
 7860TIP3    H147775   7.405   4.349  10.257
 7860TIP3    H247776   7.462   4.481  10.288
 7861TIP3   OH247777   7.481   4.956  11.575
 7861TIP3    H147778   7.390   4.975  11.542
 7861TIP3    H247779   7.531   4.946  11.491
 7862TIP3   OH247780   7.318   5.227  10.362
 7862TIP3    H147781   7.243   5.168  10.363
 7862TIP3    H247782   7.358   5.214  10.274
 7863TIP3   OH247783   7.057   4.772  11.026
 7863TIP3    H147784   6.967   4.771  10.991
 7863TIP3    H247785   7.086   4.685  10.989
 7864TIP3   OH247786   6.275   5.182  10.685
 7864TIP3    H147787   6.300   5.271  10.652
 7864TIP3    H247788   6.181   5.182  10.660
 7865TIP3   OH247789   5.889   4.625  10.097
 7865TIP3    H147790   5.941   4.691  10.146
 7865TIP3    H247791   5.799   4.638  10.137
 7866TIP3   OH247792   6.425   4.943  10.621
 7866TIP3    H147793   6.373   5.025  10.635
 7866TIP3    H247794   6.383   4.877  10.680
 7867TIP3   OH247795   6.489   5.357  11.298
 7867TIP3    H147796   6.552   5.426  11.270
 7867TIP3    H247797   6.544   5.309  11.363
 7868TIP3   OH247798   6.303   5.428  10.573
 7868TIP3    H147799   6.208   5.444  10.593
 7868TIP3    H247800   6.338   5.517  10.596
 7869TIP3   OH247801   6.789   4.946  11.244
 7869TIP3    H147802   6.742   4.919  11.326
 7869TIP3    H247803   6.834   4.863  11.221
 7870TIP3   OH247804   7.064   5.077  10.128
 7870TIP3    H147805   7.103   5.027  10.203
 7870TIP3    H247806   6.973   5.044  10.133
 7871TIP3   OH247807   7.113   5.402  11.461
 7871TIP3    H147808   7.031   5.349  11.458
 7871TIP3    H247809   7.113   5.454  11.377
 7872TIP3   OH247810   7.530   5.514  10.130
 7872TIP3    H147811   7.591   5.588  10.126
 7872TIP3    H247812   7.448   5.558  10.164
 7873TIP3   OH247813   5.934   4.137  11.400
 7873TIP3    H147814   5.878   4.191  11.459
 7873TIP3    H247815   5.935   4.053  11.450
 7874TIP3   OH247816   7.160   4.938  10.352
 7874TIP3    H147817   7.130   4.846  10.352
 7874TIP3    H247818   7.257   4.926  10.354
 7875TIP3   OH247819   5.895   5.330  11.241
 7875TIP3    H147820   5.945   5.249  11.258
 7875TIP3    H247821   5.900   5.372  11.328
 7876TIP3   OH247822   6.322   5.119  10.235
 7876TIP3    H147823   6.407   5.087  10.270
 7876TIP3    H247824   6.328   5.215  10.261
 7877TIP3   OH247825   5.997   4.844  10.274
 7877TIP3    H147826   5.919   4.888  10.315
 7877TIP3    H247827   6.043   4.922  10.236
 7878TIP3   OH247828   6.771   4.138  11.327
 7878TIP3    H147829   6.860   4.147  11.365
 7878TIP3    H247830   6.750   4.045  11.349
 7879TIP3   OH247831   6.878   4.044  10.434
 7879TIP3    H147832   6.895   4.110  10.364
 7879TIP3    H247833   6.932   4.079  10.509
 7880TIP3   OH247834   6.634   5.292  10.252
 7880TIP3    H147835   6.559   5.313  10.310
 7880TIP3    H247836   6.674   5.381  10.243
 7881TIP3   OH247837   6.632   4.255  10.534
 7881TIP3    H147838   6.672   4.343  10.550
 7881TIP3    H247839   6.603   4.224  10.622
 7882TIP3   OH247840   6.687   4.380  11.405
 7882TIP3    H147841   6.683   4.390  11.503
 7882TIP3    H247842   6.720   4.289  11.390
 7883TIP3   OH247843   6.667   3.933  10.573
 7883TIP3    H147844   6.613   4.001  10.616
 7883TIP3    H247845   6.749   3.981  10.547
 7884TIP3   OH247846   6.361   5.369  10.311
 7884TIP3    H147847   6.383   5.455  10.267
 7884TIP3    H247848   6.334   5.400  10.400
 7885TIP3   OH247849   6.238   4.066  10.279
 7885TIP3    H147850   6.228   4.147  10.331
 7885TIP3    H247851   6.330   4.044  10.300
 7886TIP3   OH247852   7.246   4.124  11.533
 7886TIP3    H147853   7.160   4.145  11.492
 7886TIP3    H247854   7.309   4.143  11.460
 7887TIP3   OH247855   7.117   4.542  10.906
 7887TIP3    H147856   7.036   4.488  10.893
 7887TIP3    H247857   7.173   4.478  10.957
 7888TIP3   OH247858   6.069   5.086  10.164
 7888TIP3    H147859   6.159   5.107  10.201
 7888TIP3    H247860   6.092   5.077  10.070
 7889TIP3   OH247861   5.923   4.361  10.118
 7889TIP3    H147862   5.923   4.459  10.118
 7889TIP3    H247863   5.850   4.344  10.055
 7890TIP3   OH247864   7.256   5.439  11.064
 7890TIP3    H147865   7.240   5.510  10.997
 7890TIP3    H247866   7.352   5.443  11.077
 7891TIP3   OH247867   5.974   3.853  10.968
 7891TIP3    H147868   5.974   3.825  10.874
 7891TIP3    H247869   5.950   3.770  11.015
 7892TIP3   OH247870   5.838   5.240  10.572
 7892TIP3    H147871   5.762   5.300  10.572
 7892TIP3    H247872   5.881   5.269  10.491
 7893TIP3   OH247873   5.777   5.518  11.677
 7893TIP3    H147874   5.842   5.508  11.750
 7893TIP3    H247875   5.744   5.426  11.671
 7894TIP3   OH247876   6.280   5.422  11.836
 7894TIP3    H147877   6.358   5.384  11.881
 7894TIP3    H247878   6.267   5.363  11.760
 7895TIP3   OH247879   6.671   5.334   9.966
 7895TIP3    H147880   6.603   5.284  10.015
 7895TIP3    H247881   6.751   5.308  10.014
 7896TIP3   OH247882   6.895   5.293  11.735
 7896TIP3    H147883   6.864   5.205  11.768
 7896TIP3    H247884   6.980   5.302  11.783
 7897TIP3   OH247885   7.052   5.336  10.057
 7897TIP3    H147886   7.075   5.245  10.084
 7897TIP3    H247887   7.131   5.370  10.010
 7898TIP3   OH247888   5.745   4.888  11.801
 7898TIP3    H147889   5.704   4.801  11.814
 7898TIP3    H247890   5.705   4.916  11.715
 7899TIP3   OH247891   6.246   4.854  10.031
 7899TIP3    H147892   6.226   4.847  10.126
 7899TIP3    H247893   6.333   4.894  10.038
 7900TIP3   OH247894   6.444   4.905  11.701
 7900TIP3    H147895   6.427   4.961  11.622
 7900TIP3    H247896   6.431   4.814  11.667
 7901TIP3   OH247897   7.023   4.866  11.494
 7901TIP3    H147898   7.118   4.892  11.500
 7901TIP3    H247899   6.985   4.955  11.507
 7902TIP3   OH247900   5.917   4.604  11.732
 7902TIP3    H147901   5.921   4.518  11.778
 7902TIP3    H247902   5.905   4.663  11.809
 7903TIP3   OH247903   6.353   4.742  10.272
 7903TIP3    H147904   6.283   4.690  10.315
 7903TIP3    H247905   6.392   4.679  10.209
 7904TIP3   OH247906   6.241   4.510  11.428
 7904TIP3    H147907   6.178   4.584  11.416
 7904TIP3    H247908   6.315   4.545  11.375
 7905TIP3   OH247909   6.485   4.566  10.082
 7905TIP3    H147910   6.502   4.537   9.991
 7905TIP3    H247911   6.577   4.569  10.119
 7906TIP3   OH247912   6.773   4.764  11.835
 7906TIP3    H147913   6.834   4.754  11.760
 7906TIP3    H247914   6.798   4.689  11.891
 7907TIP3   OH247915   7.350   4.733  19.989
 7907TIP3    H147916   7.391   4.656  19.946
 7907TIP3    H247917   7.411   4.804  19.958
 7908TIP3   OH247918   6.333   4.273  11.536
 7908TIP3    H147919   6.342   4.211  11.461
 7908TIP3    H247920   6.296   4.353  11.493
 7909TIP3   OH247921   6.350   4.071  11.340
 7909TIP3    H147922   6.403   4.118  11.271
 7909TIP3    H247923   6.260   4.075  11.301
 7910TIP3   OH247924   6.462   4.658  11.348
 7910TIP3    H147925   6.553   4.681  11.325
 7910TIP3    H247926   6.412   4.726  11.300
 7911TIP3   OH247927   6.916   4.404  11.844
 7911TIP3    H147928   6.919   4.310  11.863
 7911TIP3    H247929   7.004   4.436  11.869
 7912TIP3   OH247930   7.054   4.713  11.709
 7912TIP3    H147931   7.028   4.759  11.627
 7912TIP3    H247932   7.145   4.686  11.688
 7913TIP3   OH247933   6.180   4.336  11.766
 7913TIP3    H147934   6.090   4.299  11.756
 7913TIP3    H247935   6.222   4.305  11.684
 7914TIP3   OH247936   6.465   3.833  11.312
 7914TIP3    H147937   6.426   3.921  11.333
 7914TIP3    H247938   6.384   3.784  11.291
 7915TIP3   OH247939   6.566   4.204  11.742
 7915TIP3    H147940   6.497   4.206  11.812
 7915TIP3    H247941   6.511   4.215  11.662
 7916TIP3   OH247942   6.843   4.160  11.646
 7916TIP3    H147943   6.752   4.148  11.680
 7916TIP3    H247944   6.894   4.114  11.717
 7917TIP3   OH247945   6.956   4.023  11.841
 7917TIP3    H147946   6.987   3.931  11.849
 7917TIP3    H247947   6.956   4.053  11.936
 7918TIP3   OH247948   5.965   4.167  11.720
 7918TIP3    H147949   5.945   4.080  11.679
 7918TIP3    H247950   5.954   4.144  11.816
 7919TIP3   OH247951   6.422   3.775  11.654
 7919TIP3    H147952   6.481   3.697  11.654
 7919TIP3    H247953   6.420   3.798  11.560
 7920TIP3   OH247954   6.425   3.893  11.898
 7920TIP3    H147955   6.422   3.846  11.811
 7920TIP3    H247956   6.411   3.984  11.870
 7921TIP3   OH247957   6.407   5.605  10.188
 7921TIP3    H147958   6.504   5.607  10.196
 7921TIP3    H247959   6.389   5.665  10.114
 7922TIP3   OH247960   5.794   5.097  10.149
 7922TIP3    H147961   5.893   5.088  10.156
 7922TIP3    H247962   5.776   5.048  10.068
 7923TIP3   OH247963   5.668   5.590  10.601
 7923TIP3    H147964   5.591   5.537  10.570
 7923TIP3    H247965   5.696   5.538  10.680
 7924TIP3   OH247966   5.750   5.426  10.801
 7924TIP3    H147967   5.687   5.359  10.833
 7924TIP3    H247968   5.811   5.437  10.878
 7925TIP3   OH247969   7.539   5.477  11.123
 7925TIP3    H147970   7.543   5.479  11.221
 7925TIP3    H247971   7.532   5.572  11.106
 7926TIP3   OH247972   7.453   5.457  11.394
 7926TIP3    H147973   7.407   5.388  11.341
 7926TIP3    H247974   7.484   5.403  11.470
 7927TIP3   OH247975   7.312   5.022  11.867
 7927TIP3    H147976   7.230   5.043  11.917
 7927TIP3    H247977   7.345   5.110  11.845
 7928TIP3   OH247978   7.438   4.879  10.375
 7928TIP3    H147979   7.526   4.920  10.384
 7928TIP3    H247980   7.444   4.807  10.440
 7929TIP3   OH247981   7.469   4.682  10.585
 7929TIP3    H147982   7.375   4.654  10.579
 7929TIP3    H247983   7.482   4.663  10.679
 7930TIP3   OH247984   7.489   4.920  11.075
 7930TIP3    H147985   7.582   4.918  11.048
 7930TIP3    H247986   7.474   5.016  11.056
 7931TIP3   OH247987   7.313   5.231  11.308
 7931TIP3    H147988   7.233   5.261  11.355
 7931TIP3    H247989   7.281   5.219  11.217
 7932TIP3   OH247990   7.498   4.676  10.204
 7932TIP3    H147991   7.433   4.699  10.135
 7932TIP3    H247992   7.497   4.760  10.252
 7933TIP3   OH247993   7.323   4.356  10.107
 7933TIP3    H147994   7.284   4.415  10.042
 7933TIP3    H247995   7.326   4.272  10.057
 7934TIP3   OH247996   7.246   4.562  10.663
 7934TIP3    H147997   7.218   4.474  10.629
 7934TIP3    H247998   7.206   4.563  10.752
 7935TIP3   OH247999   5.747   4.767  11.063
 7935TIP3    H148000   5.752   4.733  10.970
 7935TIP3    H248001   5.837   4.740  11.093
 7936TIP3   OH248002   7.333   4.717  11.618
 7936TIP3    H148003   7.399   4.645  11.609
 7936TIP3    H248004   7.385   4.798  11.599
 7937TIP3   OH248005   7.476   4.497  11.630
 7937TIP3    H148006   7.378   4.483  11.638
 7937TIP3    H248007   7.508   4.410  11.664
 7938TIP3   OH248008   7.265   4.139   9.970
 7938TIP3    H148009   7.317   4.073  10.018
 7938TIP3    H248010   7.176   4.123  10.005
 7939TIP3   OH248011   7.227   4.318  10.489
 7939TIP3    H148012   7.221   4.220  10.493
 7939TIP3    H248013   7.322   4.330  10.479
 7940TIP3   OH248014   7.244   4.358  11.041
 7940TIP3    H148015   7.342   4.351  11.030
 7940TIP3    H248016   7.240   4.358  11.139
 7941TIP3   OH248017   7.282   4.402  11.313
 7941TIP3    H148018   7.200   4.439  11.351
 7941TIP3    H248019   7.332   4.485  11.294
 7942TIP3   OH248020   5.714   4.252  11.650
 7942TIP3    H148021   5.805   4.247  11.686
 7942TIP3    H248022   5.681   4.161  11.665
 7943TIP3   OH248023   7.509   3.785  11.833
 7943TIP3    H148024   7.551   3.726  11.768
 7943TIP3    H248025   7.500   3.866  11.779
 7944TIP3   OH248026   7.261   4.041  10.486
 7944TIP3    H148027   7.284   4.013  10.577
 7944TIP3    H248028   7.213   3.962  10.455
 7945TIP3   OH248029   5.845   4.096  10.980
 7945TIP3    H148030   5.884   4.006  10.991
 7945TIP3    H248031   5.925   4.153  10.975
 7946TIP3   OH248032   5.686   4.402  11.061
 7946TIP3    H148033   5.740   4.375  10.984
 7946TIP3    H248034   5.728   4.486  11.083
 7947TIP3   OH248035   7.447   4.006  11.699
 7947TIP3    H148036   7.360   4.054  11.711
 7947TIP3    H248037   7.438   3.986  11.604
 7948TIP3   OH248038   7.520   4.032  10.134
 7948TIP3    H148039   7.548   3.946  10.100
 7948TIP3    H248040   7.582   4.095  10.090
 7949TIP3   OH248041   5.711   4.017  10.465
 7949TIP3    H148042   5.618   4.043  10.470
 7949TIP3    H248043   5.736   4.061  10.381
 7950TIP3   OH248044   7.173   5.481  10.651
 7950TIP3    H148045   7.230   5.472  10.572
 7950TIP3    H248046   7.236   5.523  10.710
 7951TIP3   OH248047   5.692   3.875  11.281
 7951TIP3    H148048   5.637   3.843  11.355
 7951TIP3    H248049   5.636   3.940  11.236
 7952TIP3   OH248050   5.930   5.203  11.681
 7952TIP3    H148051   5.841   5.231  11.655
 7952TIP3    H248052   5.918   5.154  11.763
 7953TIP3   OH248053   6.227   5.368  11.366
 7953TIP3    H148054   6.222   5.455  11.319
 7953TIP3    H248055   6.321   5.347  11.356
 7954TIP3   OH248056   6.636   5.465  11.605
 7954TIP3    H148057   6.645   5.438  11.699
 7954TIP3    H248058   6.726   5.500  11.586
 7955TIP3   OH248059   6.860   5.608  11.564
 7955TIP3    H148060   6.936   5.563  11.526
 7955TIP3    H248061   6.896   5.645  11.646
 7956TIP3   OH248062   7.366   3.830  11.484
 7956TIP3    H148063   7.284   3.870  11.450
 7956TIP3    H248064   7.366   3.741  11.445
 7957TIP3   OH248065   5.956   5.645  11.322
 7957TIP3    H148066   5.880   5.701  11.294
 7957TIP3    H248067   5.948   5.647  11.418
 7958TIP3   OH248068   6.195   5.604  11.227
 7958TIP3    H148069   6.103   5.620  11.260
 7958TIP3    H248070   6.196   5.660  11.148
 7959TIP3   OH248071   6.672   5.560  11.153
 7959TIP3    H148072   6.622   5.608  11.087
 7959TIP3    H248073   6.686   5.630  11.221
 7960TIP3   OH248074   6.857   5.421  11.302
 7960TIP3    H148075   6.789   5.461  11.243
 7960TIP3    H248076   6.928   5.486  11.291
 7961TIP3   OH248077   7.125   5.571  11.253
 7961TIP3    H148078   7.134   5.662  11.221
 7961TIP3    H248079   7.176   5.524  11.183
 7962TIP3   OH248080   5.907   5.487  11.020
 7962TIP3    H148081   5.878   5.439  11.102
 7962TIP3    H248082   5.995   5.446  11.005
 7963TIP3   OH248083   6.127   5.381  10.903
 7963TIP3    H148084   6.116   5.287  10.926
 7963TIP3    H248085   6.215   5.398  10.943
 7964TIP3   OH248086   6.360   5.386  11.021
 7964TIP3    H148087   6.392   5.296  11.000
 7964TIP3    H248088   6.378   5.388  11.116
 7965TIP3   OH248089   6.719   3.984  10.931
 7965TIP3    H148090   6.639   3.931  10.947
 7965TIP3    H248091   6.768   3.927  10.869
 7966TIP3   OH248092   7.211   3.779  10.896
 7966TIP3    H148093   7.255   3.848  10.840
 7966TIP3    H248094   7.118   3.803  10.876
 7967TIP3   OH248095   7.351   3.923  10.716
 7967TIP3    H148096   7.423   3.858  10.696
 7967TIP3    H248097   7.407   3.999  10.746
 7968TIP3   OH248098   5.968   3.805  10.686
 7968TIP3    H148099   5.879   3.795  10.646
 7968TIP3    H248100   6.006   3.716  10.670
 7969TIP3   OH248101   5.825   3.806  10.247
 7969TIP3    H148102   5.886   3.869  10.203
 7969TIP3    H248103   5.784   3.862  10.315
 7970TIP3   OH248104   6.370   3.779  10.656
 7970TIP3    H148105   6.447   3.815  10.611
 7970TIP3    H248106   6.396   3.788  10.750
 7971TIP3   OH248107   6.947   3.837  10.807
 7971TIP3    H148108   6.935   3.822  10.712
 7971TIP3    H248109   6.903   3.758  10.846
 7972TIP3   OH248110   7.108   3.815  10.403
 7972TIP3    H148111   7.030   3.871  10.405
 7972TIP3    H248112   7.070   3.730  10.437
 7973TIP3   OH248113   5.819   5.420  10.357
 7973TIP3    H148114   5.730   5.418  10.319
 7973TIP3    H248115   5.841   5.514  10.345
 7974TIP3   OH248116   6.007   3.941  10.102
 7974TIP3    H148117   6.085   3.887  10.117
 7974TIP3    H248118   6.029   4.024  10.145
 7975TIP3   OH248119   6.545   4.054  10.349
 7975TIP3    H148120   6.600   4.005  10.413
 7975TIP3    H248121   6.550   4.142  10.392
 7976TIP3   OH248122   6.690   5.543  10.162
 7976TIP3    H148123   6.787   5.563  10.147
 7976TIP3    H248124   6.672   5.496  10.078
 7977TIP3   OH248125   7.359   5.476  10.457
 7977TIP3    H148126   7.343   5.383  10.429
 7977TIP3    H248127   7.355   5.523  10.372
 7978TIP3   OH248128   5.931   3.909  11.599
 7978TIP3    H148129   5.900   3.818  11.584
 7978TIP3    H248130   6.012   3.888  11.650
 7979TIP3   OH248131   6.114   3.833  11.810
 7979TIP3    H148132   6.200   3.810  11.771
 7979TIP3    H248133   6.075   3.744  11.819
 7980TIP3   OH248134   6.037   5.545  10.114
 7980TIP3    H148135   5.974   5.566  10.184
 7980TIP3    H248136   6.067   5.456  10.138
 7981TIP3   OH248137   7.009   3.753  11.851
 7981TIP3    H148138   7.021   3.660  11.877
 7981TIP3    H248139   7.084   3.759  11.787
 7982TIP3   OH248140   7.284   5.350  11.657
 7982TIP3    H148141   7.229   5.359  11.576
 7982TIP3    H248142   7.273   5.441  11.690
 7983TIP3   OH248143   7.568   4.435  10.559
 7983TIP3    H148144   7.541   4.528  10.558
 7983TIP3    H248145   7.530   4.406  10.473
 7984TIP3   OH248146   7.576   4.885  11.331
 7984TIP3    H148147   7.527   4.882  11.246
 7984TIP3    H248148   7.575   4.793  11.363
 7985TIP3   OH248149   7.542   5.175  11.019
 7985TIP3    H148150   7.635   5.183  10.986
 7985TIP3    H248151   7.540   5.250  11.080
 7986TIP3   OH248152   7.539   4.111  10.721
 7986TIP3    H148153   7.621   4.162  10.742
 7986TIP3    H248154   7.544   4.109  10.624
 7987TIP3   OH248155   7.591   4.638  11.441
 7987TIP3    H148156   7.572   4.583  11.521
 7987TIP3    H248157   7.519   4.609  11.382
 7988TIP3   OH248158   7.636   4.840  11.756
 7988TIP3    H148159   7.600   4.754  11.783
 7988TIP3    H248160   7.565   4.880  11.701
 7989TIP3   OH248161   7.505   5.604  10.644
 7989TIP3    H148162   7.448   5.563  10.575
 7989TIP3    H248163   7.530   5.522  10.693
 7990TIP3   OH248164   7.552   5.388  10.798
 7990TIP3    H148165   7.519   5.297  10.810
 7990TIP3    H248166   7.587   5.406  10.887
 7991TIP3   OH248167   7.627   4.664  11.081
 7991TIP3    H148168   7.588   4.713  11.006
 7991TIP3    H248169   7.705   4.721  11.098
 7992TIP3   OH248170   7.548   4.257  11.699
 7992TIP3    H148171   7.643   4.252  11.673
 7992TIP3    H248172   7.518   4.164  11.697
 7993TIP3   OH248173   7.505   4.380  11.022
 7993TIP3    H148174   7.602   4.367  11.008
 7993TIP3    H248175   7.507   4.471  11.053
 7994TIP3   OH248176   7.513   4.050  10.409
 7994TIP3    H148177   7.417   4.059  10.429
 7994TIP3    H248178   7.512   4.050  10.310
 7995TIP3   OH248179   7.487   3.861  11.253
 7995TIP3    H148180   7.468   3.868  11.348
 7995TIP3    H248181   7.437   3.936  11.215
 7996TIP3   OH248182   1.218   6.651  10.671
 7996TIP3    H148183   1.197   6.739  10.703
 7996TIP3    H248184   1.148   6.639  10.604
 7997TIP3   OH248185   1.109   6.525  11.010
 7997TIP3    H148186   1.099   6.485  11.100
 7997TIP3    H248187   1.047   6.472  10.956
 7998TIP3   OH248188   0.305   6.531  11.147
 7998TIP3    H148189   0.290   6.447  11.194
 7998TIP3    H248190   0.378   6.566  11.200
 7999TIP3   OH248191   1.432   6.817  10.862
 7999TIP3    H148192   1.425   6.748  10.930
 7999TIP3    H248193   1.426   6.898  10.915
 8000TIP3   OH248194   0.370   6.962  11.044
 8000TIP3    H148195   0.371   6.875  10.994
 8000TIP3    H248196   0.459   6.992  11.017
 8001TIP3   OH248197   0.147   6.359  10.527
 8001TIP3    H148198   0.128   6.388  10.617
 8001TIP3    H248199   0.064   6.311  10.509
 8002TIP3   OH248200   0.098   6.531  10.816
 8002TIP3    H148201   0.154   6.455  10.844
 8002TIP3    H248202   0.160   6.584  10.765
 8003TIP3   OH248203   1.150   7.327  10.819
 8003TIP3    H148204   1.242   7.294  10.805
 8003TIP3    H248205   1.123   7.268  10.891
 8004TIP3   OH248206   0.941   6.817  11.053
 8004TIP3    H148207   0.971   6.740  11.003
 8004TIP3    H248208   1.020   6.837  11.106
 8005TIP3   OH248209   1.783   5.973  11.063
 8005TIP3    H148210   1.782   6.021  11.149
 8005TIP3    H248211   1.873   5.994  11.034
 8006TIP3   OH248212   1.266   6.261  11.126
 8006TIP3    H148213   1.286   6.166  11.134
 8006TIP3    H248214   1.249   6.269  11.031
 8007TIP3   OH248215   0.579   6.036  10.787
 8007TIP3    H148216   0.586   6.115  10.729
 8007TIP3    H248217   0.539   5.973  10.724
 8008TIP3   OH248218   1.306   6.065  10.657
 8008TIP3    H148219   1.363   6.019  10.724
 8008TIP3    H248220   1.370   6.129  10.621
 8009TIP3   OH248221   0.272   6.320  10.858
 8009TIP3    H148222   0.326   6.263  10.917
 8009TIP3    H248223   0.286   6.274  10.773
 8010TIP3   OH248224   0.692   6.447  10.826
 8010TIP3    H148225   0.780   6.408  10.844
 8010TIP3    H248226   0.654   6.375  10.770
 8011TIP3   OH248227   1.790   6.087  11.313
 8011TIP3    H148228   1.748   6.177  11.319
 8011TIP3    H248229   1.863   6.101  11.376
 8012TIP3   OH248230   0.464   5.953  11.200
 8012TIP3    H148231   0.432   6.003  11.122
 8012TIP3    H248232   0.406   5.990  11.269
 8013TIP3   OH248233   1.142   6.907  10.572
 8013TIP3    H148234   1.138   6.893  10.475
 8013TIP3    H248235   1.120   7.001  10.577
 8014TIP3   OH248236   0.728   6.715  11.184
 8014TIP3    H148237   0.676   6.787  11.224
 8014TIP3    H248238   0.794   6.767  11.134
 8015TIP3   OH248239   1.506   5.994  10.821
 8015TIP3    H148240   1.495   5.931  10.894
 8015TIP3    H248241   1.590   6.035  10.845
 8016TIP3   OH248242   0.410   6.142  11.008
 8016TIP3    H148243   0.468   6.208  11.054
 8016TIP3    H248244   0.471   6.112  10.936
 8017TIP3   OH248245   0.593   6.935  11.301
 8017TIP3    H148246   0.594   7.031  11.319
 8017TIP3    H248247   0.529   6.898  11.366
 8018TIP3   OH248248   0.128   6.827  10.391
 8018TIP3    H148249   0.116   6.873  10.304
 8018TIP3    H248250   0.151   6.900  10.452
 8019TIP3   OH248251   1.506   7.090  11.104
 8019TIP3    H148252   1.409   7.084  11.110
 8019TIP3    H248253   1.514   7.152  11.030
 8020TIP3   OH248254   1.523   5.899  11.185
 8020TIP3    H148255   1.449   5.915  11.121
 8020TIP3    H248256   1.599   5.936  11.135
 8021TIP3   OH248257   0.819   5.697  10.929
 8021TIP3    H148258   0.792   5.605  10.939
 8021TIP3    H248259   0.735   5.742  10.957
 8022TIP3   OH248260   1.386   7.215  10.773
 8022TIP3    H148261   1.381   7.134  10.719
 8022TIP3    H248262   1.450   7.265  10.717
 8023TIP3   OH248263   1.466   6.990  10.612
 8023TIP3    H148264   1.428   6.959  10.528
 8023TIP3    H248265   1.458   6.910  10.667
 8024TIP3   OH248266   1.612   6.880  11.440
 8024TIP3    H148267   1.631   6.808  11.376
 8024TIP3    H248268   1.632   6.957  11.383
 8025TIP3   OH248269   1.078   6.599  10.429
 8025TIP3    H148270   1.022   6.675  10.400
 8025TIP3    H248271   1.153   6.600  10.367
 8026TIP3   OH248272   1.098   6.442  10.123
 8026TIP3    H148273   1.167   6.485  10.179
 8026TIP3    H248274   1.139   6.354  10.108
 8027TIP3   OH248275   1.814   6.515  11.232
 8027TIP3    H148276   1.755   6.592  11.238
 8027TIP3    H248277   1.876   6.545  11.163
 8028TIP3   OH248278   1.428   6.558  10.523
 8028TIP3    H148279   1.359   6.595  10.583
 8028TIP3    H248280   1.495   6.526  10.588
 8029TIP3   OH248281   1.418   6.421  11.420
 8029TIP3    H148282   1.400   6.506  11.463
 8029TIP3    H248283   1.358   6.424  11.344
 8030TIP3   OH248284   0.578   6.664  10.705
 8030TIP3    H148285   0.518   6.636  10.633
 8030TIP3    H248286   0.615   6.578  10.732
 8031TIP3   OH248287   0.702   6.983  10.966
 8031TIP3    H148288   0.730   6.980  10.872
 8031TIP3    H248289   0.777   6.943  11.011
 8032TIP3   OH248290   0.612   6.502  11.070
 8032TIP3    H148291   0.643   6.511  10.977
 8032TIP3    H248292   0.656   6.579  11.113
 8033TIP3   OH248293   1.240   7.087  11.136
 8033TIP3    H148294   1.203   7.157  11.193
 8033TIP3    H248295   1.217   7.006  11.186
 8034TIP3   OH248296   0.695   6.980  11.567
 8034TIP3    H148297   0.625   7.042  11.599
 8034TIP3    H248298   0.668   6.966  11.475
 8035TIP3   OH248299   1.300   6.535  10.288
 8035TIP3    H148300   1.349   6.539  10.374
 8035TIP3    H248301   1.364   6.580  10.227
 8036TIP3   OH248302   0.432   6.596  11.413
 8036TIP3    H148303   0.440   6.649  11.495
 8036TIP3    H248304   0.340   6.566  11.419
 8037TIP3   OH248305   1.081   7.191  10.567
 8037TIP3    H148306   1.098   7.217  10.660
 8037TIP3    H248307   1.020   7.260  10.540
 8038TIP3   OH248308   0.500   7.164  11.611
 8038TIP3    H148309   0.486   7.171  11.515
 8038TIP3    H248310   0.411   7.138  11.643
 8039TIP3   OH248311   1.704   5.673  10.301
 8039TIP3    H148312   1.606   5.674  10.308
 8039TIP3    H248313   1.719   5.766  10.278
 8040TIP3   OH248314   0.420   6.539  10.501
 8040TIP3    H148315   0.390   6.606  10.435
 8040TIP3    H248316   0.405   6.457  10.453
 8041TIP3   OH248317   1.799   7.134  10.133
 8041TIP3    H148318   1.851   7.215  10.113
 8041TIP3    H248319   1.866   7.063  10.128
 8042TIP3   OH248320   0.158   6.781  11.358
 8042TIP3    H148321   0.060   6.775  11.356
 8042TIP3    H248322   0.179   6.688  11.341
 8043TIP3   OH248323   0.112   7.098  10.972
 8043TIP3    H148324   0.184   7.033  10.989
 8043TIP3    H248325   0.094   7.130  11.061
 8044TIP3   OH248326   1.858   7.140  11.616
 8044TIP3    H148327   1.839   7.045  11.624
 8044TIP3    H248328   1.768   7.176  11.637
 8045TIP3   OH248329   0.969   7.069  11.488
 8045TIP3    H148330   0.975   7.163  11.515
 8045TIP3    H248331   0.879   7.044  11.518
 8046TIP3   OH248332   1.067   7.501  10.469
 8046TIP3    H148333   1.063   7.485  10.373
 8046TIP3    H248334   1.032   7.590  10.479
 8047TIP3   OH248335   0.402   7.318  10.649
 8047TIP3    H148336   0.424   7.312  10.744
 8047TIP3    H248337   0.313   7.279  10.650
 8048TIP3   OH248338   1.321   7.403  10.208
 8048TIP3    H148339   1.369   7.340  10.149
 8048TIP3    H248340   1.329   7.356  10.294
 8049TIP3   OH248341   1.284   7.350  10.462
 8049TIP3    H148342   1.207   7.403  10.489
 8049TIP3    H248343   1.252   7.260  10.481
 8050TIP3   OH248344   1.549   6.284  11.644
 8050TIP3    H148345   1.513   6.311  11.558
 8050TIP3    H248346   1.574   6.192  11.626
 8051TIP3   OH248347   0.376   6.890  11.453
 8051TIP3    H148348   0.366   6.873  11.548
 8051TIP3    H248349   0.307   6.828  11.418
 8052TIP3   OH248350   0.592   5.796  11.025
 8052TIP3    H148351   0.504   5.802  10.982
 8052TIP3    H248352   0.572   5.841  11.109
 8053TIP3   OH248353   1.058   5.736  11.345
 8053TIP3    H148354   1.096   5.680  11.417
 8053TIP3    H248355   0.961   5.731  11.361
 8054TIP3   OH248356   1.345   6.141  11.467
 8054TIP3    H148357   1.306   6.104  11.549
 8054TIP3    H248358   1.308   6.231  11.464
 8055TIP3   OH248359   1.463   6.644  10.121
 8055TIP3    H148360   1.424   6.655  10.031
 8055TIP3    H248361   1.556   6.662  10.098
 8056TIP3   OH248362   1.019   6.021  10.127
 8056TIP3    H148363   0.972   5.982  10.205
 8056TIP3    H248364   0.972   5.976  10.055
 8057TIP3   OH248365   0.594   6.257  11.162
 8057TIP3    H148366   0.514   6.269  11.217
 8057TIP3    H248367   0.608   6.351  11.132
 8058TIP3   OH248368   0.607   6.261  10.647
 8058TIP3    H148369   0.511   6.270  10.624
 8058TIP3    H248370   0.643   6.236  10.560
 8059TIP3   OH248371   1.162   6.366  10.552
 8059TIP3    H148372   1.125   6.445  10.508
 8059TIP3    H248373   1.214   6.327  10.479
 8060TIP3   OH248374   1.042   6.360  11.670
 8060TIP3    H148375   0.995   6.283  11.710
 8060TIP3    H248376   1.122   6.364  11.724
 8061TIP3   OH248377   1.235   6.289  10.833
 8061TIP3    H148378   1.233   6.366  10.772
 8061TIP3    H248379   1.224   6.216  10.769
 8062TIP3   OH248380   0.350   6.272  11.286
 8062TIP3    H148381   0.379   6.304  11.373
 8062TIP3    H248382   0.321   6.180  11.309
 8063TIP3   OH248383   0.661   6.050  10.034
 8063TIP3    H148384   0.632   6.006  10.115
 8063TIP3    H248385   0.592   6.114  10.015
 8064TIP3   OH248386   0.133   6.052  10.712
 8064TIP3    H148387   0.154   5.991  10.786
 8064TIP3    H248388   0.121   5.994  10.635
 8065TIP3   OH248389   0.110   6.074  10.257
 8065TIP3    H148390   0.180   6.117  10.205
 8065TIP3    H248391   0.044   6.144  10.263
 8066TIP3   OH248392   1.115   6.434  11.260
 8066TIP3    H148393   1.187   6.380  11.219
 8066TIP3    H248394   1.078   6.367  11.322
 8067TIP3   OH248395   0.865   6.037  10.762
 8067TIP3    H148396   0.770   6.048  10.782
 8067TIP3    H248397   0.900   5.995  10.843
 8068TIP3   OH248398   0.354   6.217  10.609
 8068TIP3    H148399   0.283   6.247  10.548
 8068TIP3    H248400   0.337   6.121  10.613
 8069TIP3   OH248401   0.683   6.188  10.391
 8069TIP3    H148402   0.776   6.217  10.401
 8069TIP3    H248403   0.644   6.260  10.337
 8070TIP3   OH248404   1.296   5.956  11.060
 8070TIP3    H148405   1.232   5.961  11.135
 8070TIP3    H248406   1.248   5.906  10.991
 8071TIP3   OH248407   0.586   6.355  10.194
 8071TIP3    H148408   0.511   6.308  10.151
 8071TIP3    H248409   0.658   6.352  10.128
 8072TIP3   OH248410   1.560   7.525  11.696
 8072TIP3    H148411   1.578   7.558  11.606
 8072TIP3    H248412   1.647   7.546  11.740
 8073TIP3   OH248413   0.405   6.745  11.679
 8073TIP3    H148414   0.479   6.776  11.735
 8073TIP3    H248415   0.333   6.784  11.732
 8074TIP3   OH248416   0.953   6.318  10.908
 8074TIP3    H148417   1.036   6.286  10.870
 8074TIP3    H248418   0.935   6.251  10.976
 8075TIP3   OH248419   0.403   5.947  10.589
 8075TIP3    H148420   0.352   5.872  10.627
 8075TIP3    H248421   0.407   5.923  10.495
 8076TIP3   OH248422   0.832   6.127  11.170
 8076TIP3    H148423   0.751   6.182  11.159
 8076TIP3    H248424   0.888   6.188  11.220
 8077TIP3   OH248425   0.893   6.787  10.367
 8077TIP3    H148426   0.815   6.738  10.332
 8077TIP3    H248427   0.858   6.811  10.456
 8078TIP3   OH248428   1.632   6.722  11.235
 8078TIP3    H148429   1.677   6.775  11.165
 8078TIP3    H248430   1.544   6.714  11.194
 8079TIP3   OH248431   1.271   6.063  10.175
 8079TIP3    H148432   1.173   6.066  10.159
 8079TIP3    H248433   1.288   6.151  10.214
 8080TIP3   OH248434   0.984   6.795  11.474
 8080TIP3    H148435   1.005   6.764  11.562
 8080TIP3    H248436   0.988   6.892  11.485
 8081TIP3   OH248437   1.329   6.272  10.325
 8081TIP3    H148438   1.410   6.249  10.376
 8081TIP3    H248439   1.348   6.362  10.296
 8082TIP3   OH248440   0.416   6.734  10.910
 8082TIP3    H148441   0.462   6.721  10.822
 8082TIP3    H248442   0.452   6.659  10.959
 8083TIP3   OH248443   1.103   6.934  10.312
 8083TIP3    H148444   1.066   7.026  10.312
 8083TIP3    H248445   1.021   6.878  10.321
 8084TIP3   OH248446   0.174   6.511  11.414
 8084TIP3    H148447   0.174   6.501  11.512
 8084TIP3    H248448   0.078   6.498  11.398
 8085TIP3   OH248449   0.805   6.515  11.644
 8085TIP3    H148450   0.742   6.460  11.592
 8085TIP3    H248451   0.887   6.460  11.647
 8086TIP3   OH248452   1.284   7.029  11.493
 8086TIP3    H148453   1.202   7.050  11.447
 8086TIP3    H248454   1.269   7.081  11.575
 8087TIP3   OH248455   1.835   6.261  10.332
 8087TIP3    H148456   1.763   6.245  10.268
 8087TIP3    H248457   1.843   6.358  10.323
 8088TIP3   OH248458   1.844   6.855  11.577
 8088TIP3    H148459   1.755   6.866  11.537
 8088TIP3    H248460   1.898   6.841  11.496
 8089TIP3   OH248461   1.669   7.100  10.365
 8089TIP3    H148462   1.596   7.037  10.362
 8089TIP3    H248463   1.704   7.100  10.273
 8090TIP3   OH248464   1.391   6.622  11.043
 8090TIP3    H148465   1.299   6.622  11.011
 8090TIP3    H248466   1.432   6.560  10.979
 8091TIP3   OH248467   0.631   7.055  10.693
 8091TIP3    H148468   0.660   7.136  10.645
 8091TIP3    H248469   0.536   7.054  10.675
 8092TIP3   OH248470   0.223   6.535  10.110
 8092TIP3    H148471   0.284   6.599  10.152
 8092TIP3    H248472   0.145   6.540  10.167
 8093TIP3   OH248473   0.777   6.837  10.618
 8093TIP3    H148474   0.722   6.917  10.635
 8093TIP3    H248475   0.729   6.769  10.668
 8094TIP3   OH248476   0.824   7.241  11.314
 8094TIP3    H148477   0.856   7.333  11.310
 8094TIP3    H248478   0.906   7.190  11.327
 8095TIP3   OH248479   0.658   7.297  10.579
 8095TIP3    H148480   0.562   7.319  10.582
 8095TIP3    H248481   0.699   7.375  10.622
 8096TIP3   OH248482   1.144   6.834  11.237
 8096TIP3    H148483   1.094   6.794  11.311
 8096TIP3    H248484   1.207   6.762  11.220
 8097TIP3   OH248485   1.414   6.948  10.110
 8097TIP3    H148486   1.444   6.905  10.193
 8097TIP3    H248487   1.319   6.943  10.126
 8098TIP3   OH248488   1.448   7.299  11.474
 8098TIP3    H148489   1.374   7.243  11.442
 8098TIP3    H248490   1.459   7.369  11.407
 8099TIP3   OH248491   1.896   7.381  10.113
 8099TIP3    H148492   1.958   7.454  10.129
 8099TIP3    H248493   1.814   7.416  10.157
 8100TIP3   OH248494   0.288   6.040  11.406
 8100TIP3    H148495   0.250   6.079  11.488
 8100TIP3    H248496   0.260   5.948  11.416
 8101TIP3   OH248497   1.490   6.819  10.337
 8101TIP3    H148498   1.476   6.724  10.343
 8101TIP3    H248499   1.588   6.822  10.339
 8102TIP3   OH248500   0.227   7.216  11.282
 8102TIP3    H148501   0.193   7.256  11.200
 8102TIP3    H248502   0.235   7.300  11.332
 8103TIP3   OH248503   0.673   7.004  10.219
 8103TIP3    H148504   0.750   6.957  10.254
 8103TIP3    H248505   0.685   7.096  10.250
 8104TIP3   OH248506   0.350   6.712  10.300
 8104TIP3    H148507   0.272   6.756  10.341
 8104TIP3    H248508   0.398   6.787  10.260
 8105TIP3   OH248509   1.164   5.994  11.312
 8105TIP3    H148510   1.238   6.015  11.371
 8105TIP3    H248511   1.133   5.907  11.344
 8106TIP3   OH248512   1.231   5.926  10.445
 8106TIP3    H148513   1.243   5.989  10.371
 8106TIP3    H248514   1.276   5.973  10.520
 8107TIP3   OH248515   1.013   7.181  10.265
 8107TIP3    H148516   0.930   7.191  10.312
 8107TIP3    H248517   1.027   7.272  10.232
 8108TIP3   OH248518   0.944   6.138  10.520
 8108TIP3    H148519   1.008   6.210  10.533
 8108TIP3    H248520   0.916   6.115  10.611
 8109TIP3   OH248521   1.028   6.246  11.425
 8109TIP3    H148522   1.027   6.281  11.517
 8109TIP3    H248523   1.061   6.154  11.434
 8110TIP3   OH248524   1.008   5.818  10.555
 8110TIP3    H148525   0.975   5.899  10.597
 8110TIP3    H248526   1.092   5.854  10.516
 8111TIP3   OH248527   0.716   7.277  10.296
 8111TIP3    H148528   0.727   7.361  10.247
 8111TIP3    H248529   0.671   7.307  10.378
 8112TIP3   OH248530   0.565   5.944  10.308
 8112TIP3    H148531   0.578   6.031  10.351
 8112TIP3    H248532   0.655   5.906  10.317
 8113TIP3   OH248533   1.590   6.027  11.513
 8113TIP3    H148534   1.500   6.056  11.486
 8113TIP3    H248535   1.639   6.033  11.429
 8114TIP3   OH248536   1.480   6.384  10.894
 8114TIP3    H148537   1.400   6.328  10.896
 8114TIP3    H248538   1.541   6.337  10.955
 8115TIP3   OH248539   0.406   6.962  10.163
 8115TIP3    H148540   0.480   7.015  10.198
 8115TIP3    H248541   0.456   6.911  10.097
 8116TIP3   OH248542   0.323   6.267  10.123
 8116TIP3    H148543   0.301   6.359  10.148
 8116TIP3    H248544   0.240   6.248  10.072
 8117TIP3   OH248545   1.590   7.395  11.092
 8117TIP3    H148546   1.581   7.423  10.998
 8117TIP3    H248547   1.688   7.379  11.094
 8118TIP3   OH248548   0.335   5.751  10.952
 8118TIP3    H148549   0.321   5.726  10.858
 8118TIP3    H248550   0.307   5.667  10.996
 8119TIP3   OH248551   0.206   7.096  10.515
 8119TIP3    H148552   0.120   7.128  10.542
 8119TIP3    H248553   0.226   7.160  10.443
 8120TIP3   OH248554   0.142   7.403  11.658
 8120TIP3    H148555   0.222   7.396  11.713
 8120TIP3    H248556   0.087   7.331  11.691
 8121TIP3   OH248557   0.602   7.240  11.863
 8121TIP3    H148558   0.694   7.271  11.861
 8121TIP3    H248559   0.581   7.225  11.769
 8122TIP3   OH248560   1.035   7.212  19.960
 8122TIP3    H148561   0.961   7.150  19.953
 8122TIP3    H248562   1.095   7.169  20.022
 8123TIP3   OH248563   1.245   7.142  11.743
 8123TIP3    H148564   1.203   7.057  11.770
 8123TIP3    H248565   1.321   7.142  11.803
 8124TIP3   OH248566   1.422   7.211  10.062
 8124TIP3    H148567   1.460   7.122  10.074
 8124TIP3    H248568   1.489   7.260  10.008
 8125TIP3   OH248569   0.172   6.824  11.809
 8125TIP3    H148570   0.182   6.730  11.791
 8125TIP3    H248571   0.077   6.827  11.785
 8126TIP3   OH248572   0.607   6.789  10.030
 8126TIP3    H148573   0.636   6.762  10.119
 8126TIP3    H248574   0.678   6.755   9.973
 8127TIP3   OH248575   0.791   6.778  11.723
 8127TIP3    H148576   0.766   6.832  11.645
 8127TIP3    H248577   0.798   6.687  11.685
 8128TIP3   OH248578   1.361   6.748  11.475
 8128TIP3    H148579   1.447   6.797  11.474
 8128TIP3    H248580   1.303   6.826  11.482
 8129TIP3   OH248581   0.216   6.478  11.751
 8129TIP3    H148582   0.306   6.443  11.758
 8129TIP3    H248583   0.200   6.518  11.839
 8130TIP3   OH248584   0.696   6.620  10.272
 8130TIP3    H148585   0.627   6.566  10.315
 8130TIP3    H248586   0.733   6.556  10.208
 8131TIP3   OH248587   0.624   6.405  11.461
 8131TIP3    H148588   0.559   6.475  11.441
 8131TIP3    H248589   0.693   6.428  11.395
 8132TIP3   OH248590   0.822   6.447  10.067
 8132TIP3    H148591   0.845   6.403   9.983
 8132TIP3    H248592   0.911   6.448  10.109
 8133TIP3   OH248593   1.144   6.655  11.802
 8133TIP3    H148594   1.222   6.613  11.762
 8133TIP3    H248595   1.110   6.582  11.859
 8134TIP3   OH248596   1.688   6.630  19.987
 8134TIP3    H148597   1.746   6.601  19.915
 8134TIP3    H248598   1.712   6.726  19.987
 8135TIP3   OH248599   0.668   6.152  11.536
 8135TIP3    H148600   0.688   6.093  11.460
 8135TIP3    H248601   0.662   6.241  11.494
 8136TIP3   OH248602   0.706   5.972  11.334
 8136TIP3    H148603   0.768   6.010  11.268
 8136TIP3    H248604   0.623   5.979  11.282
 8137TIP3   OH248605   0.832   6.494  11.311
 8137TIP3    H148606   0.929   6.497  11.306
 8137TIP3    H248607   0.805   6.582  11.278
 8138TIP3   OH248608   1.335   6.265  11.830
 8138TIP3    H148609   1.349   6.172  11.809
 8138TIP3    H248610   1.424   6.300  11.808
 8139TIP3   OH248611   1.440   6.589  11.694
 8139TIP3    H148612   1.413   6.642  11.616
 8139TIP3    H248613   1.531   6.561  11.670
 8140TIP3   OH248614   0.486   6.261  11.752
 8140TIP3    H148615   0.416   6.194  11.756
 8140TIP3    H248616   0.534   6.234  11.672
 8141TIP3   OH248617   0.784   5.716  11.347
 8141TIP3    H148618   0.749   5.808  11.349
 8141TIP3    H248619   0.707   5.667  11.314
 8142TIP3   OH248620   0.899   6.141  11.743
 8142TIP3    H148621   0.837   6.107  11.811
 8142TIP3    H248622   0.843   6.133  11.664
 8143TIP3   OH248623   1.170   6.051  11.662
 8143TIP3    H148624   1.075   6.051  11.683
 8143TIP3    H248625   1.205   6.000  11.738
 8144TIP3   OH248626   1.327   5.908  11.837
 8144TIP3    H148627   1.320   5.811  11.832
 8144TIP3    H248628   1.313   5.928  11.932
 8145TIP3   OH248629   0.306   6.059  11.762
 8145TIP3    H148630   0.342   5.981  11.717
 8145TIP3    H248631   0.279   6.019  11.849
 8146TIP3   OH248632   0.782   5.685  11.631
 8146TIP3    H148633   0.860   5.627  11.630
 8146TIP3    H248634   0.771   5.695  11.534
 8147TIP3   OH248635   0.783   5.781  11.886
 8147TIP3    H148636   0.776   5.745  11.794
 8147TIP3    H248637   0.744   5.870  11.876
 8148TIP3   OH248638   0.779   7.505  10.155
 8148TIP3    H148639   0.864   7.520  10.198
 8148TIP3    H248640   0.802   7.514  10.060
 8149TIP3   OH248641   0.141   6.933  10.144
 8149TIP3    H148642   0.237   6.953  10.162
 8149TIP3    H248643   0.149   6.897  10.055
 8150TIP3   OH248644   0.052   7.500  10.520
 8150TIP3    H148645  -0.045   7.514  10.520
 8150TIP3    H248646   0.056   7.446  10.600
 8151TIP3   OH248647   0.158   7.307  10.758
 8151TIP3    H148648   0.140   7.212  10.752
 8151TIP3    H248649   0.160   7.321  10.853
 8152TIP3   OH248650   1.862   7.396  11.080
 8152TIP3    H148651   1.879   7.445  11.163
 8152TIP3    H248652   1.931   7.433  11.023
 8153TIP3   OH248653   1.803   7.313  11.406
 8153TIP3    H148654   1.773   7.247  11.341
 8153TIP3    H248655   1.843   7.253  11.472
 8154TIP3   OH248656   1.662   6.932  11.852
 8154TIP3    H148657   1.578   6.929  11.904
 8154TIP3    H248658   1.698   7.019  11.883
 8155TIP3   OH248659   1.754   6.768  10.357
 8155TIP3    H148660   1.842   6.806  10.376
 8155TIP3    H248661   1.737   6.717  10.438
 8156TIP3   OH248662   1.804   6.568  10.607
 8156TIP3    H148663   1.726   6.510  10.623
 8156TIP3    H248664   1.829   6.593  10.698
 8157TIP3   OH248665   1.782   6.829  11.048
 8157TIP3    H148666   1.840   6.749  11.045
 8157TIP3    H248667   1.843   6.899  11.019
 8158TIP3   OH248668   1.660   7.108  11.310
 8158TIP3    H148669   1.589   7.157  11.354
 8158TIP3    H248670   1.618   7.093  11.222
 8159TIP3   OH248671   1.860   6.555  10.204
 8159TIP3    H148672   1.795   6.581  10.136
 8159TIP3    H248673   1.854   6.633  10.263
 8160TIP3   OH248674   1.627   6.242  10.141
 8160TIP3    H148675   1.601   6.324  10.094
 8160TIP3    H248676   1.682   6.200  10.072
 8161TIP3   OH248677   1.609   6.406  10.661
 8161TIP3    H148678   1.587   6.315  10.637
 8161TIP3    H248679   1.581   6.409  10.755
 8162TIP3   OH248680   0.154   6.713  11.015
 8162TIP3    H148681   0.154   6.652  10.938
 8162TIP3    H248682   0.228   6.674  11.066
 8163TIP3   OH248683   1.707   6.602  11.599
 8163TIP3    H148684   1.752   6.514  11.603
 8163TIP3    H248685   1.780   6.665  11.596
 8164TIP3   OH248686   1.818   6.352  11.625
 8164TIP3    H148687   1.729   6.324  11.654
 8164TIP3    H248688   1.873   6.320  11.700
 8165TIP3   OH248689   1.617   6.010   9.965
 8165TIP3    H148690   1.674   5.969  10.032
 8165TIP3    H248691   1.529   5.996  10.002
 8166TIP3   OH248692   1.536   6.185  10.479
 8166TIP3    H148693   1.569   6.098  10.509
 8166TIP3    H248694   1.613   6.211  10.427
 8167TIP3   OH248695   1.651   6.245  11.059
 8167TIP3    H148696   1.750   6.255  11.059
 8167TIP3    H248697   1.637   6.252  11.155
 8168TIP3   OH248698   1.645   6.311  11.319
 8168TIP3    H148699   1.552   6.339  11.334
 8168TIP3    H248700   1.688   6.399  11.310
 8169TIP3   OH248701   0.115   6.120  11.592
 8169TIP3    H148702   0.182   6.150  11.656
 8169TIP3    H248703   0.105   6.027  11.618
 8170TIP3   OH248704   1.898   5.717  11.857
 8170TIP3    H148705   1.928   5.647  11.796
 8170TIP3    H248706   1.879   5.787  11.790
 8171TIP3   OH248707   1.656   5.938  10.501
 8171TIP3    H148708   1.686   5.895  10.584
 8171TIP3    H248709   1.595   5.868  10.470
 8172TIP3   OH248710   0.177   5.969  10.986
 8172TIP3    H148711   0.239   5.893  10.997
 8172TIP3    H248712   0.232   6.047  11.003
 8173TIP3   OH248713   0.071   6.280  11.049
 8173TIP3    H148714   0.144   6.279  10.984
 8173TIP3    H248715   0.096   6.353  11.107
 8174TIP3   OH248716   1.794   5.897  11.695
 8174TIP3    H148717   1.735   5.959  11.742
 8174TIP3    H248718   1.758   5.903  11.605
 8175TIP3   OH248719   1.829   5.924  10.148
 8175TIP3    H148720   1.876   5.882  10.074
 8175TIP3    H248721   1.897   5.988  10.177
 8176TIP3   OH248722   0.097   5.907  10.460
 8176TIP3    H148723   0.000   5.900  10.462
 8176TIP3    H248724   0.107   5.958  10.376
 8177TIP3   OH248725   1.519   7.390  10.625
 8177TIP3    H148726   1.605   7.383  10.579
 8177TIP3    H248727   1.543   7.442  10.704
 8178TIP3   OH248728   0.065   5.745  11.304
 8178TIP3    H148729  -0.023   5.733  11.342
 8178TIP3    H248730   0.044   5.805  11.230
 8179TIP3   OH248731   0.259   7.087  11.701
 8179TIP3    H148732   0.175   7.093  11.655
 8179TIP3    H248733   0.233   7.109  11.792
 8180TIP3   OH248734   0.555   7.191  11.343
 8180TIP3    H148735   0.532   7.279  11.304
 8180TIP3    H248736   0.652   7.207  11.353
 8181TIP3   OH248737   1.003   7.318  11.601
 8181TIP3    H148738   0.991   7.291  11.693
 8181TIP3    H248739   1.088   7.366  11.603
 8182TIP3   OH248740   1.241   7.495  11.561
 8182TIP3    H148741   1.307   7.431  11.531
 8182TIP3    H248742   1.271   7.506  11.654
 8183TIP3   OH248743   1.713   5.707  11.468
 8183TIP3    H148744   1.645   5.750  11.414
 8183TIP3    H248745   1.726   5.622  11.422
 8184TIP3   OH248746   0.278   7.482  11.328
 8184TIP3    H148747   0.209   7.535  11.277
 8184TIP3    H248748   0.261   7.520  11.415
 8185TIP3   OH248749   0.533   7.429  11.238
 8185TIP3    H148750   0.450   7.471  11.271
 8185TIP3    H248751   0.553   7.482  11.158
 8186TIP3   OH248752   1.027   7.446  11.167
 8186TIP3    H148753   0.952   7.463  11.105
 8186TIP3    H248754   1.034   7.533  11.208
 8187TIP3   OH248755   1.210   7.305  11.308
 8187TIP3    H148756   1.136   7.353  11.264
 8187TIP3    H248757   1.284   7.359  11.276
 8188TIP3   OH248758   1.464   7.524  11.281
 8188TIP3    H148759   1.431   7.611  11.253
 8188TIP3    H248760   1.498   7.486  11.196
 8189TIP3   OH248761   0.272   7.363  11.059
 8189TIP3    H148762   0.327   7.391  11.134
 8189TIP3    H248763   0.342   7.333  10.996
 8190TIP3   OH248764   0.467   7.269  10.897
 8190TIP3    H148765   0.494   7.178  10.876
 8190TIP3    H248766   0.544   7.293  10.954
 8191TIP3   OH248767   0.691   7.260  11.036
 8191TIP3    H148768   0.739   7.182  11.001
 8191TIP3    H248769   0.722   7.261  11.128
 8192TIP3   OH248770   1.051   5.843  10.903
 8192TIP3    H148771   0.971   5.805  10.945
 8192TIP3    H248772   1.061   5.785  10.827
 8193TIP3   OH248773   1.583   5.667  10.885
 8193TIP3    H148774   1.649   5.723  10.837
 8193TIP3    H248775   1.500   5.687  10.835
 8194TIP3   OH248776   1.751   5.782  10.706
 8194TIP3    H148777   1.815   5.724  10.658
 8194TIP3    H248778   1.810   5.857  10.733
 8195TIP3   OH248779   0.335   5.699  10.673
 8195TIP3    H148780   0.250   5.686  10.627
 8195TIP3    H248781   0.381   5.614  10.655
 8196TIP3   OH248782   0.140   5.720  10.213
 8196TIP3    H148783   0.198   5.781  10.163
 8196TIP3    H248784   0.123   5.775  10.290
 8197TIP3   OH248785   0.742   5.652  10.669
 8197TIP3    H148786   0.798   5.716  10.625
 8197TIP3    H248787   0.754   5.677  10.763
 8198TIP3   OH248788   1.333   5.701  10.771
 8198TIP3    H148789   1.276   5.705  10.693
 8198TIP3    H248790   1.284   5.636  10.827
 8199TIP3   OH248791   1.462   5.699  10.392
 8199TIP3    H148792   1.396   5.767  10.375
 8199TIP3    H248793   1.418   5.635  10.451
 8200TIP3   OH248794   0.196   7.300  10.342
 8200TIP3    H148795   0.104   7.278  10.320
 8200TIP3    H248796   0.190   7.397  10.333
 8201TIP3   OH248797   0.347   5.863  10.116
 8201TIP3    H148798   0.404   5.809  10.061
 8201TIP3    H248799   0.411   5.892  10.183
 8202TIP3   OH248800   0.874   5.918  10.335
 8202TIP3    H148801   0.910   5.857  10.402
 8202TIP3    H248802   0.879   6.002  10.385
 8203TIP3   OH248803   1.065   7.430  10.174
 8203TIP3    H148804   1.163   7.434  10.185
 8203TIP3    H248805   1.059   7.388  10.086
 8204TIP3   OH248806   1.720   7.350  10.472
 8204TIP3    H148807   1.697   7.263  10.433
 8204TIP3    H248808   1.710   7.410  10.395
 8205TIP3   OH248809   0.245   5.778  11.620
 8205TIP3    H148810   0.200   5.691  11.634
 8205TIP3    H248811   0.331   5.760  11.662
 8206TIP3   OH248812   0.490   5.718  11.822
 8206TIP3    H148813   0.583   5.710  11.793
 8206TIP3    H248814   0.475   5.626  11.849
 8207TIP3   OH248815   0.420   7.460  10.080
 8207TIP3    H148816   0.361   7.477  10.156
 8207TIP3    H248817   0.456   7.376  10.108
 8208TIP3   OH248818   1.319   5.639  11.795
 8208TIP3    H148819   1.330   5.582  11.875
 8208TIP3    H248820   1.412   5.636  11.765
 8209TIP3   OH248821   1.616   7.243  11.674
 8209TIP3    H148822   1.537   7.250  11.616
 8209TIP3    H248823   1.631   7.338  11.691
 8210TIP3   OH248824   3.097   6.639  10.669
 8210TIP3    H148825   3.082   6.727  10.707
 8210TIP3    H248826   3.028   6.638  10.600
 8211TIP3   OH248827   2.980   6.546  11.008
 8211TIP3    H148828   2.982   6.500  11.095
 8211TIP3    H248829   2.917   6.493  10.956
 8212TIP3   OH248830   2.181   6.508  11.153
 8212TIP3    H148831   2.195   6.436  11.217
 8212TIP3    H248832   2.241   6.576  11.188
 8213TIP3   OH248833   3.311   6.807  10.874
 8213TIP3    H148834   3.294   6.743  10.948
 8213TIP3    H248835   3.313   6.892  10.920
 8214TIP3   OH248836   2.296   6.992  10.995
 8214TIP3    H148837   2.264   6.902  10.970
 8214TIP3    H248838   2.391   6.974  10.984
 8215TIP3   OH248839   1.968   6.322  10.562
 8215TIP3    H148840   1.930   6.410  10.580
 8215TIP3    H248841   1.911   6.289  10.491
 8216TIP3   OH248842   2.015   6.551  10.811
 8216TIP3    H148843   2.055   6.461  10.822
 8216TIP3    H248844   2.073   6.593  10.745
 8217TIP3   OH248845   3.036   7.339  10.831
 8217TIP3    H148846   3.124   7.300  10.813
 8217TIP3    H248847   3.009   7.289  10.909
 8218TIP3   OH248848   2.807   6.831  11.068
 8218TIP3    H148849   2.833   6.762  11.005
 8218TIP3    H248850   2.890   6.842  11.119
 8219TIP3   OH248851   3.659   5.954  11.101
 8219TIP3    H148852   3.664   6.011  11.181
 8219TIP3    H248853   3.747   5.974  11.065
 8220TIP3   OH248854   3.159   6.251  11.122
 8220TIP3    H148855   3.177   6.155  11.117
 8220TIP3    H248856   3.125   6.265  11.032
 8221TIP3   OH248857   2.443   6.029  10.780
 8221TIP3    H148858   2.460   6.109  10.724
 8221TIP3    H248859   2.405   5.970  10.713
 8222TIP3   OH248860   3.210   6.053  10.640
 8222TIP3    H148861   3.258   6.033  10.724
 8222TIP3    H248862   3.259   6.131  10.606
 8223TIP3   OH248863   2.107   6.307  10.872
 8223TIP3    H148864   2.169   6.252  10.924
 8223TIP3    H248865   2.124   6.272  10.783
 8224TIP3   OH248866   2.590   6.458  10.830
 8224TIP3    H148867   2.673   6.417  10.864
 8224TIP3    H248868   2.571   6.395  10.758
 8225TIP3   OH248869   3.679   6.093  11.337
 8225TIP3    H148870   3.647   6.179  11.301
 8225TIP3    H248871   3.691   6.118  11.430
 8226TIP3   OH248872   2.369   5.946  11.200
 8226TIP3    H148873   2.326   5.998  11.130
 8226TIP3    H248874   2.298   5.949  11.267
 8227TIP3   OH248875   3.032   6.903  10.562
 8227TIP3    H148876   3.029   6.895  10.465
 8227TIP3    H248877   3.013   6.998  10.573
 8228TIP3   OH248878   2.569   6.721  11.186
 8228TIP3    H148879   2.516   6.795  11.222
 8228TIP3    H248880   2.638   6.769  11.136
 8229TIP3   OH248881   3.372   6.017  10.857
 8229TIP3    H148882   3.368   5.937  10.911
 8229TIP3    H248883   3.463   6.045  10.870
 8230TIP3   OH248884   2.295   6.138  10.996
 8230TIP3    H148885   2.358   6.204  11.034
 8230TIP3    H248886   2.346   6.104  10.918
 8231TIP3   OH248887   2.438   6.939  11.301
 8231TIP3    H148888   2.428   7.032  11.275
 8231TIP3    H248889   2.350   6.920  11.341
 8232TIP3   OH248890   2.022   6.861  10.384
 8232TIP3    H148891   2.020   6.915  10.301
 8232TIP3    H248892   2.032   6.930  10.452
 8233TIP3   OH248893   3.391   7.094  11.108
 8233TIP3    H148894   3.294   7.086  11.112
 8233TIP3    H248895   3.399   7.149  11.029
 8234TIP3   OH248896   3.379   5.905  11.191
 8234TIP3    H148897   3.300   5.946  11.149
 8234TIP3    H248898   3.453   5.933  11.134
 8235TIP3   OH248899   2.691   5.689  10.956
 8235TIP3    H148900   2.664   5.599  10.938
 8235TIP3    H248901   2.602   5.731  10.970
 8236TIP3   OH248902   3.260   7.211  10.763
 8236TIP3    H148903   3.263   7.134  10.702
 8236TIP3    H248904   3.326   7.267  10.716
 8237TIP3   OH248905   3.347   7.001  10.605
 8237TIP3    H148906   3.315   6.961  10.522
 8237TIP3    H248907   3.340   6.925  10.665
 8238TIP3   OH248908   3.494   6.877  11.453
 8238TIP3    H148909   3.510   6.804  11.389
 8238TIP3    H248910   3.506   6.953  11.392
 8239TIP3   OH248911   2.956   6.590  10.412
 8239TIP3    H148912   2.897   6.663  10.384
 8239TIP3    H248913   3.034   6.597  10.353
 8240TIP3   OH248914   3.002   6.418  10.119
 8240TIP3    H148915   3.078   6.461  10.166
 8240TIP3    H248916   3.048   6.338  10.083
 8241TIP3   OH248917   3.699   6.524  11.230
 8241TIP3    H148918   3.640   6.600  11.243
 8241TIP3    H248919   3.754   6.560  11.158
 8242TIP3   OH248920   3.315   6.571  10.520
 8242TIP3    H148921   3.244   6.606  10.579
 8242TIP3    H248922   3.376   6.529  10.586
 8243TIP3   OH248923   3.320   6.406  11.425
 8243TIP3    H148924   3.300   6.488  11.474
 8243TIP3    H248925   3.261   6.418  11.347
 8244TIP3   OH248926   2.455   6.657  10.702
 8244TIP3    H148927   2.432   6.616  10.615
 8244TIP3    H248928   2.510   6.587  10.742
 8245TIP3   OH248929   2.588   6.978  10.956
 8245TIP3    H148930   2.601   6.965  10.861
 8245TIP3    H248931   2.670   6.940  10.995
 8246TIP3   OH248932   2.459   6.518  11.069
 8246TIP3    H148933   2.504   6.510  10.982
 8246TIP3    H248934   2.510   6.591  11.112
 8247TIP3   OH248935   3.116   7.088  11.129
 8247TIP3    H148936   3.081   7.157  11.188
 8247TIP3    H248937   3.086   7.006  11.175
 8248TIP3   OH248938   2.586   6.970  11.532
 8248TIP3    H148939   2.522   7.036  11.569
 8248TIP3    H248940   2.546   6.955  11.443
 8249TIP3   OH248941   3.186   6.533  10.283
 8249TIP3    H148942   3.228   6.538  10.372
 8249TIP3    H248943   3.251   6.582  10.226
 8250TIP3   OH248944   2.285   6.577  11.425
 8250TIP3    H148945   2.293   6.668  11.457
 8250TIP3    H248946   2.227   6.543  11.496
 8251TIP3   OH248947   2.968   7.200  10.564
 8251TIP3    H148948   2.993   7.206  10.657
 8251TIP3    H248949   2.893   7.262  10.559
 8252TIP3   OH248950   2.401   7.164  11.603
 8252TIP3    H148951   2.384   7.177  11.507
 8252TIP3    H248952   2.313   7.133  11.635
 8253TIP3   OH248953   3.587   5.670  10.300
 8253TIP3    H148954   3.492   5.675  10.328
 8253TIP3    H248955   3.603   5.764  10.282
 8254TIP3   OH248956   2.353   6.532  10.467
 8254TIP3    H148957   2.307   6.608  10.426
 8254TIP3    H248958   2.308   6.458  10.425
 8255TIP3   OH248959   3.684   7.137  10.127
 8255TIP3    H148960   3.737   7.218  10.115
 8255TIP3    H248961   3.752   7.065  10.125
 8256TIP3   OH248962   1.994   6.807  11.352
 8256TIP3    H148963   1.942   6.807  11.271
 8256TIP3    H248964   2.026   6.713  11.355
 8257TIP3   OH248965   1.967   7.043  11.007
 8257TIP3    H148966   2.063   7.030  11.010
 8257TIP3    H248967   1.954   7.123  11.059
 8258TIP3   OH248968   3.746   7.146  11.633
 8258TIP3    H148969   3.727   7.051  11.628
 8258TIP3    H248970   3.657   7.177  11.664
 8259TIP3   OH248971   2.848   7.077  11.469
 8259TIP3    H148972   2.858   7.162  11.517
 8259TIP3    H248973   2.759   7.046  11.495
 8260TIP3   OH248974   2.942   7.491  10.460
 8260TIP3    H148975   2.944   7.487  10.363
 8260TIP3    H248976   2.910   7.580  10.478
 8261TIP3   OH248977   2.277   7.307  10.661
 8261TIP3    H148978   2.316   7.319  10.751
 8261TIP3    H248979   2.210   7.239  10.684
 8262TIP3   OH248980   3.203   7.415  10.199
 8262TIP3    H148981   3.250   7.350  10.142
 8262TIP3    H248982   3.207   7.368  10.286
 8263TIP3   OH248983   3.171   7.355  10.450
 8263TIP3    H148984   3.087   7.392  10.484
 8263TIP3    H248985   3.175   7.270  10.496
 8264TIP3   OH248986   3.448   6.270  11.643
 8264TIP3    H148987   3.402   6.320  11.572
 8264TIP3    H248988   3.454   6.180  11.604
 8265TIP3   OH248989   2.212   6.916  11.443
 8265TIP3    H148990   2.208   6.876  11.534
 8265TIP3    H248991   2.124   6.890  11.408
 8266TIP3   OH248992   2.458   5.783  11.011
 8266TIP3    H148993   2.366   5.768  10.982
 8266TIP3    H248994   2.444   5.844  11.086
 8267TIP3   OH248995   2.952   5.722  11.348
 8267TIP3    H148996   2.996   5.694  11.432
 8267TIP3    H248997   2.858   5.718  11.375
 8268TIP3   OH248998   3.214   6.154  11.460
 8268TIP3    H148999   3.201   6.129  11.554
 8268TIP3    H249000   3.265   6.238  11.465
 8269TIP3   OH249001   3.345   6.647  10.117
 8269TIP3    H149002   3.308   6.650  10.025
 8269TIP3    H249003   3.439   6.662  10.093
 8270TIP3   OH249004   2.881   6.041  10.123
 8270TIP3    H149005   2.840   5.997  10.198
 8270TIP3    H249006   2.852   5.982  10.053
 8271TIP3   OH249007   2.471   6.270  11.161
 8271TIP3    H149008   2.391   6.269  11.218
 8271TIP3    H249009   2.465   6.361  11.125
 8272TIP3   OH249010   2.471   6.237  10.615
 8272TIP3    H149011   2.376   6.256  10.605
 8272TIP3    H249012   2.503   6.221  10.522
 8273TIP3   OH249013   3.051   6.365  10.550
 8273TIP3    H149014   3.014   6.445  10.505
 8273TIP3    H249015   3.103   6.327  10.476
 8274TIP3   OH249016   2.920   6.351  11.662
 8274TIP3    H149017   2.877   6.281  11.713
 8274TIP3    H249018   2.996   6.372  11.720
 8275TIP3   OH249019   3.127   6.294  10.820
 8275TIP3    H149020   3.121   6.379  10.772
 8275TIP3    H249021   3.115   6.235  10.744
 8276TIP3   OH249022   2.240   6.270  11.289
 8276TIP3    H149023   2.265   6.302  11.377
 8276TIP3    H249024   2.208   6.179  11.308
 8277TIP3   OH249025   2.559   5.999  10.022
 8277TIP3    H149026   2.524   6.002  10.114
 8277TIP3    H249027   2.505   6.063   9.974
 8278TIP3   OH249028   1.911   5.993  10.739
 8278TIP3    H149029   1.975   6.005  10.812
 8278TIP3    H249030   1.962   6.005  10.658
 8279TIP3   OH249031   2.028   6.071  10.264
 8279TIP3    H149032   2.104   6.123  10.229
 8279TIP3    H249033   1.968   6.145  10.286
 8280TIP3   OH249034   3.024   6.438  11.251
 8280TIP3    H149035   3.090   6.377  11.210
 8280TIP3    H249036   2.972   6.381  11.311
 8281TIP3   OH249037   2.763   6.052  10.746
 8281TIP3    H149038   2.668   6.044  10.761
 8281TIP3    H249039   2.802   5.992  10.814
 8282TIP3   OH249040   2.198   6.212  10.630
 8282TIP3    H149041   2.118   6.241  10.582
 8282TIP3    H249042   2.213   6.121  10.601
 8283TIP3   OH249043   2.600   6.202  10.380
 8283TIP3    H149044   2.688   6.237  10.392
 8283TIP3    H249045   2.554   6.269  10.324
 8284TIP3   OH249046   3.155   5.983  11.072
 8284TIP3    H149047   3.091   5.946  11.134
 8284TIP3    H249048   3.122   5.955  10.985
 8285TIP3   OH249049   2.440   6.333  10.197
 8285TIP3    H149050   2.367   6.298  10.145
 8285TIP3    H249051   2.500   6.366  10.128
 8286TIP3   OH249052   3.421   7.559  11.701
 8286TIP3    H149053   3.449   7.569  11.608
 8286TIP3    H249054   3.511   7.548  11.742
 8287TIP3   OH249055   2.232   6.755  11.671
 8287TIP3    H149056   2.302   6.789  11.730
 8287TIP3    H249057   2.156   6.749  11.732
 8288TIP3   OH249058   2.823   6.333  10.920
 8288TIP3    H149059   2.898   6.300  10.867
 8288TIP3    H249060   2.815   6.262  10.984
 8289TIP3   OH249061   2.309   5.908  10.570
 8289TIP3    H149062   2.243   5.857  10.622
 8289TIP3    H249063   2.350   5.835  10.523
 8290TIP3   OH249064   2.686   6.126  11.173
 8290TIP3    H149065   2.604   6.179  11.152
 8290TIP3    H249066   2.749   6.196  11.196
 8291TIP3   OH249067   2.777   6.796  10.370
 8291TIP3    H149068   2.706   6.738  10.335
 8291TIP3    H249069   2.740   6.813  10.460
 8292TIP3   OH249070   3.507   6.718  11.247
 8292TIP3    H149071   3.558   6.769  11.179
 8292TIP3    H249072   3.420   6.716  11.204
 8293TIP3   OH249073   3.137   6.059  10.180
 8293TIP3    H149074   3.040   6.068  10.167
 8293TIP3    H249075   3.159   6.148  10.216
 8294TIP3   OH249076   2.878   6.807  11.478
 8294TIP3    H149077   2.879   6.775  11.569
 8294TIP3    H249078   2.880   6.904  11.490
 8295TIP3   OH249079   3.218   6.269  10.336
 8295TIP3    H149080   3.305   6.244  10.376
 8295TIP3    H249081   3.238   6.357  10.298
 8296TIP3   OH249082   2.296   6.736  10.908
 8296TIP3    H149083   2.350   6.725  10.827
 8296TIP3    H249084   2.316   6.656  10.959
 8297TIP3   OH249085   2.995   6.939  10.289
 8297TIP3    H149086   2.955   7.029  10.290
 8297TIP3    H249087   2.917   6.880  10.299
 8298TIP3   OH249088   1.991   6.550  11.445
 8298TIP3    H149089   1.991   6.498  11.527
 8298TIP3    H249090   1.931   6.497  11.389
 8299TIP3   OH249091   2.669   6.501  11.642
 8299TIP3    H149092   2.616   6.440  11.588
 8299TIP3    H249093   2.757   6.461  11.639
 8300TIP3   OH249094   3.172   7.046  11.496
 8300TIP3    H149095   3.099   7.060  11.436
 8300TIP3    H249096   3.138   7.095  11.574
 8301TIP3   OH249097   3.721   6.265  10.326
 8301TIP3    H149098   3.644   6.250  10.267
 8301TIP3    H249099   3.732   6.361  10.314
 8302TIP3   OH249100   3.729   6.859  11.587
 8302TIP3    H149101   3.636   6.873  11.557
 8302TIP3    H249102   3.776   6.852  11.501
 8303TIP3   OH249103   3.553   7.111  10.362
 8303TIP3    H149104   3.477   7.053  10.364
 8303TIP3    H249105   3.585   7.105  10.270
 8304TIP3   OH249106   3.258   6.615  11.055
 8304TIP3    H149107   3.167   6.605  11.021
 8304TIP3    H249108   3.305   6.550  10.998
 8305TIP3   OH249109   2.513   7.056  10.676
 8305TIP3    H149110   2.545   7.146  10.652
 8305TIP3    H249111   2.433   7.052  10.623
 8306TIP3   OH249112   2.117   6.539  10.082
 8306TIP3    H149113   2.170   6.594  10.144
 8306TIP3    H249114   2.030   6.542  10.126
 8307TIP3   OH249115   2.663   6.833  10.617
 8307TIP3    H149116   2.617   6.919  10.633
 8307TIP3    H249117   2.609   6.774  10.672
 8308TIP3   OH249118   2.708   7.240  11.300
 8308TIP3    H149119   2.756   7.323  11.281
 8308TIP3    H249120   2.779   7.186  11.340
 8309TIP3   OH249121   2.534   7.307  10.568
 8309TIP3    H149122   2.439   7.323  10.589
 8309TIP3    H249123   2.578   7.386  10.607
 8310TIP3   OH249124   3.024   6.837  11.229
 8310TIP3    H149125   2.974   6.813  11.311
 8310TIP3    H249126   3.070   6.753  11.209
 8311TIP3   OH249127   3.299   6.959  10.130
 8311TIP3    H149128   3.315   6.910  10.213
 8311TIP3    H249129   3.202   6.957  10.130
 8312TIP3   OH249130   3.331   7.305  11.480
 8312TIP3    H149131   3.252   7.252  11.456
 8312TIP3    H249132   3.340   7.366  11.404
 8313TIP3   OH249133   3.780   7.388  10.118
 8313TIP3    H149134   3.845   7.456  10.141
 8313TIP3    H249135   3.698   7.428  10.156
 8314TIP3   OH249136   2.156   6.003  11.391
 8314TIP3    H149137   2.099   6.053  11.453
 8314TIP3    H249138   2.171   5.926  11.448
 8315TIP3   OH249139   3.374   6.818  10.342
 8315TIP3    H149140   3.362   6.723  10.352
 8315TIP3    H249141   3.472   6.821  10.339
 8316TIP3   OH249142   2.127   7.186  11.263
 8316TIP3    H149143   2.176   7.103  11.260
 8316TIP3    H249144   2.181   7.236  11.327
 8317TIP3   OH249145   2.565   7.009  10.228
 8317TIP3    H149146   2.643   6.963  10.263
 8317TIP3    H249147   2.579   7.101  10.259
 8318TIP3   OH249148   2.225   6.715  10.275
 8318TIP3    H149149   2.152   6.764  10.320
 8318TIP3    H249150   2.277   6.790  10.239
 8319TIP3   OH249151   3.011   5.999  11.335
 8319TIP3    H149152   3.102   6.020  11.367
 8319TIP3    H249153   3.005   5.903  11.346
 8320TIP3   OH249154   3.127   5.903  10.437
 8320TIP3    H149155   3.132   5.981  10.378
 8320TIP3    H249156   3.161   5.942  10.521
 8321TIP3   OH249157   2.886   7.185  10.267
 8321TIP3    H149158   2.809   7.202  10.322
 8321TIP3    H249159   2.904   7.275  10.234
 8322TIP3   OH249160   2.861   6.118  10.495
 8322TIP3    H149161   2.907   6.204  10.501
 8322TIP3    H249162   2.818   6.109  10.582
 8323TIP3   OH249163   2.909   6.250  11.408
 8323TIP3    H149164   2.928   6.298  11.492
 8323TIP3    H249165   2.986   6.189  11.399
 8324TIP3   OH249166   2.897   5.817  10.563
 8324TIP3    H149167   2.865   5.889  10.620
 8324TIP3    H249168   2.978   5.861  10.525
 8325TIP3   OH249169   2.596   7.270  10.302
 8325TIP3    H149170   2.615   7.355  10.256
 8325TIP3    H249171   2.557   7.301  10.387
 8326TIP3   OH249172   2.478   5.971  10.280
 8326TIP3    H149173   2.480   6.054  10.332
 8326TIP3    H249174   2.560   5.929  10.310
 8327TIP3   OH249175   3.463   6.038  11.501
 8327TIP3    H149176   3.370   6.029  11.473
 8327TIP3    H249177   3.512   6.035  11.416
 8328TIP3   OH249178   3.367   6.403  10.906
 8328TIP3    H149179   3.290   6.345  10.896
 8328TIP3    H249180   3.433   6.345  10.951
 8329TIP3   OH249181   2.291   6.970  10.166
 8329TIP3    H149182   2.365   7.023  10.200
 8329TIP3    H249183   2.320   6.955  10.074
 8330TIP3   OH249184   2.141   6.261  10.114
 8330TIP3    H149185   2.149   6.358  10.109
 8330TIP3    H249186   2.071   6.243  10.049
 8331TIP3   OH249187   3.485   7.402  11.099
 8331TIP3    H149188   3.469   7.425  11.005
 8331TIP3    H249189   3.583   7.387  11.091
 8332TIP3   OH249190   2.196   5.737  10.977
 8332TIP3    H149191   2.190   5.730  10.879
 8332TIP3    H249192   2.167   5.647  11.004
 8333TIP3   OH249193   2.075   7.094  10.542
 8333TIP3    H149194   1.994   7.145  10.541
 8333TIP3    H249195   2.122   7.145  10.474
 8334TIP3   OH249196   2.024   7.413  11.708
 8334TIP3    H149197   2.112   7.408  11.749
 8334TIP3    H249198   1.997   7.320  11.707
 8335TIP3   OH249199   2.509   7.244  11.849
 8335TIP3    H149200   2.604   7.252  11.842
 8335TIP3    H249201   2.483   7.226  11.757
 8336TIP3   OH249202   2.904   7.185  19.929
 8336TIP3    H149203   2.821   7.154  19.968
 8336TIP3    H249204   2.970   7.159  19.995
 8337TIP3   OH249205   3.119   7.152  11.741
 8337TIP3    H149206   3.088   7.061  11.766
 8337TIP3    H249207   3.196   7.162  11.801
 8338TIP3   OH249208   3.305   7.215  10.063
 8338TIP3    H149209   3.343   7.128  10.086
 8338TIP3    H249210   3.372   7.260  10.007
 8339TIP3   OH249211   1.983   6.778  11.793
 8339TIP3    H149212   1.935   6.695  11.810
 8339TIP3    H249213   1.933   6.811  11.715
 8340TIP3   OH249214   2.508   6.730  10.058
 8340TIP3    H149215   2.506   6.690  10.147
 8340TIP3    H249216   2.595   6.774  10.066
 8341TIP3   OH249217   2.670   6.773  11.693
 8341TIP3    H149218   2.643   6.827  11.614
 8341TIP3    H249219   2.662   6.680  11.662
 8342TIP3   OH249220   3.237   6.757  11.479
 8342TIP3    H149221   3.318   6.813  11.479
 8342TIP3    H249222   3.172   6.829  11.482
 8343TIP3   OH249223   2.117   6.467  11.748
 8343TIP3    H149224   2.161   6.384  11.771
 8343TIP3    H249225   2.151   6.528  11.816
 8344TIP3   OH249226   2.590   6.611  10.279
 8344TIP3    H149227   2.512   6.561  10.311
 8344TIP3    H249228   2.627   6.552  10.210
 8345TIP3   OH249229   2.471   6.390  11.435
 8345TIP3    H149230   2.411   6.467  11.422
 8345TIP3    H249231   2.549   6.421  11.385
 8346TIP3   OH249232   2.709   6.450  10.086
 8346TIP3    H149233   2.722   6.411   9.998
 8346TIP3    H249234   2.801   6.446  10.122
 8347TIP3   OH249235   3.017   6.652  11.799
 8347TIP3    H149236   3.084   6.614  11.740
 8347TIP3    H249237   3.001   6.577  11.861
 8348TIP3   OH249238   3.583   6.636  19.998
 8348TIP3    H149239   3.649   6.602  19.936
 8348TIP3    H249240   3.603   6.732  19.986
 8349TIP3   OH249241   2.569   6.150  11.520
 8349TIP3    H149242   2.547   6.081  11.453
 8349TIP3    H249243   2.525   6.229  11.480
 8350TIP3   OH249244   2.602   5.954  11.344
 8350TIP3    H149245   2.641   6.003  11.268
 8350TIP3    H249246   2.511   5.939  11.307
 8351TIP3   OH249247   2.702   6.531  11.331
 8351TIP3    H149248   2.785   6.572  11.303
 8351TIP3    H249249   2.640   6.603  11.307
 8352TIP3   OH249250   3.154   6.273  11.821
 8352TIP3    H149251   3.192   6.184  11.831
 8352TIP3    H249252   3.225   6.328  11.856
 8353TIP3   OH249253   3.316   6.591  11.674
 8353TIP3    H149254   3.286   6.653  11.604
 8353TIP3    H249255   3.413   6.593  11.659
 8354TIP3   OH249256   2.399   6.245  11.762
 8354TIP3    H149257   2.309   6.206  11.768
 8354TIP3    H249258   2.432   6.206  11.681
 8355TIP3   OH249259   2.672   5.702  11.345
 8355TIP3    H149260   2.636   5.792  11.356
 8355TIP3    H249261   2.597   5.658  11.302
 8356TIP3   OH249262   2.788   6.114  11.780
 8356TIP3    H149263   2.846   6.077  11.852
 8356TIP3    H249264   2.701   6.097  11.823
 8357TIP3   OH249265   3.038   6.059  11.659
 8357TIP3    H149266   3.018   6.118  11.733
 8357TIP3    H249267   3.085   5.989  11.710
 8358TIP3   OH249268   3.195   5.916  11.817
 8358TIP3    H149269   3.205   5.818  11.822
 8358TIP3    H249270   3.193   5.944  11.910
 8359TIP3   OH249271   2.190   6.071  11.749
 8359TIP3    H149272   2.170   5.987  11.703
 8359TIP3    H249273   2.158   6.051  11.839
 8360TIP3   OH249274   2.666   5.683  11.621
 8360TIP3    H149275   2.741   5.621  11.630
 8360TIP3    H249276   2.650   5.673  11.524
 8361TIP3   OH249277   2.693   5.804  11.869
 8361TIP3    H149278   2.674   5.753  11.788
 8361TIP3    H249279   2.632   5.881  11.858
 8362TIP3   OH249280   2.668   7.495  10.153
 8362TIP3    H149281   2.758   7.507  10.189
 8362TIP3    H249282   2.685   7.503  10.055
 8363TIP3   OH249283   2.022   6.965  10.134
 8363TIP3    H149284   2.120   6.968  10.146
 8363TIP3    H249285   2.015   6.940  10.041
 8364TIP3   OH249286   1.897   7.484  10.607
 8364TIP3    H149287   1.817   7.441  10.569
 8364TIP3    H249288   1.914   7.420  10.679
 8365TIP3   OH249289   1.981   7.300  10.803
 8365TIP3    H149290   1.912   7.240  10.834
 8365TIP3    H249291   2.044   7.302  10.879
 8366TIP3   OH249292   3.753   7.399  11.064
 8366TIP3    H149293   3.767   7.433  11.155
 8366TIP3    H249294   3.798   7.469  11.015
 8367TIP3   OH249295   3.685   7.332  11.403
 8367TIP3    H149296   3.661   7.255  11.346
 8367TIP3    H249297   3.732   7.285  11.475
 8368TIP3   OH249298   3.540   6.916  11.871
 8368TIP3    H149299   3.452   6.921  11.914
 8368TIP3    H249300   3.579   7.004  11.891
 8369TIP3   OH249301   3.634   6.768  10.366
 8369TIP3    H149302   3.722   6.808  10.385
 8369TIP3    H249303   3.619   6.714  10.446
 8370TIP3   OH249304   3.691   6.574  10.596
 8370TIP3    H149305   3.610   6.524  10.621
 8370TIP3    H249306   3.738   6.581  10.682
 8371TIP3   OH249307   3.664   6.830  11.062
 8371TIP3    H149308   3.725   6.756  11.041
 8371TIP3    H249309   3.712   6.905  11.021
 8372TIP3   OH249310   3.538   7.112  11.322
 8372TIP3    H149311   3.479   7.170  11.373
 8372TIP3    H249312   3.486   7.100  11.239
 8373TIP3   OH249313   3.745   6.565  10.209
 8373TIP3    H149314   3.682   6.591  10.139
 8373TIP3    H249315   3.735   6.640  10.271
 8374TIP3   OH249316   3.525   6.244  10.137
 8374TIP3    H149317   3.494   6.311  10.074
 8374TIP3    H249318   3.588   6.198  10.080
 8375TIP3   OH249319   3.489   6.421  10.669
 8375TIP3    H149320   3.475   6.329  10.648
 8375TIP3    H249321   3.461   6.424  10.763
 8376TIP3   OH249322   1.976   6.642  11.065
 8376TIP3    H149323   1.977   6.612  10.971
 8376TIP3    H249324   2.062   6.605  11.095
 8377TIP3   OH249325   3.594   6.613  11.619
 8377TIP3    H149326   3.641   6.527  11.625
 8377TIP3    H249327   3.663   6.680  11.599
 8378TIP3   OH249328   3.695   6.355  11.645
 8378TIP3    H149329   3.602   6.321  11.647
 8378TIP3    H249330   3.750   6.274  11.660
 8379TIP3   OH249331   3.499   6.009   9.963
 8379TIP3    H149332   3.555   5.969  10.033
 8379TIP3    H249333   3.410   5.991   9.996
 8380TIP3   OH249334   3.442   6.189  10.475
 8380TIP3    H149335   3.455   6.096  10.505
 8380TIP3    H249336   3.532   6.206  10.444
 8381TIP3   OH249337   3.545   6.236  11.030
 8381TIP3    H149338   3.642   6.247  11.044
 8381TIP3    H249339   3.514   6.241  11.122
 8382TIP3   OH249340   3.529   6.302  11.293
 8382TIP3    H149341   3.447   6.332  11.338
 8382TIP3    H249342   3.577   6.387  11.284
 8383TIP3   OH249343   1.973   6.093  11.576
 8383TIP3    H149344   2.029   6.130  11.648
 8383TIP3    H249345   1.904   6.055  11.634
 8384TIP3   OH249346   3.757   5.756  11.822
 8384TIP3    H149347   3.790   5.677  11.775
 8384TIP3    H249348   3.754   5.821  11.747
 8385TIP3   OH249349   3.532   5.930  10.512
 8385TIP3    H149350   3.565   5.879  10.589
 8385TIP3    H249351   3.473   5.864  10.472
 8386TIP3   OH249352   2.074   5.980  10.984
 8386TIP3    H149353   2.105   5.887  10.991
 8386TIP3    H249354   2.155   6.033  10.982
 8387TIP3   OH249355   1.910   6.299  11.045
 8387TIP3    H149356   1.968   6.291  10.967
 8387TIP3    H249357   1.965   6.357  11.099
 8388TIP3   OH249358   3.694   5.947  11.650
 8388TIP3    H149359   3.614   5.987  11.693
 8388TIP3    H249360   3.653   5.900  11.575
 8389TIP3   OH249361   3.704   5.938  10.149
 8389TIP3    H149362   3.756   5.881  10.090
 8389TIP3    H249363   3.769   6.009  10.167
 8390TIP3   OH249364   1.937   5.901  10.461
 8390TIP3    H149365   1.845   5.931  10.465
 8390TIP3    H249366   1.965   5.938  10.375
 8391TIP3   OH249367   3.392   7.386  10.624
 8391TIP3    H149368   3.475   7.375  10.573
 8391TIP3    H249369   3.421   7.445  10.695
 8392TIP3   OH249370   1.929   5.761  11.292
 8392TIP3    H149371   1.855   5.716  11.338
 8392TIP3    H249372   1.884   5.830  11.242
 8393TIP3   OH249373   2.158   7.070  11.696
 8393TIP3    H149374   2.076   7.082  11.644
 8393TIP3    H249375   2.128   7.081  11.787
 8394TIP3   OH249376   2.436   7.211  11.343
 8394TIP3    H149377   2.431   7.307  11.322
 8394TIP3    H249378   2.534   7.206  11.352
 8395TIP3   OH249379   2.880   7.304  11.613
 8395TIP3    H149380   2.870   7.291  11.710
 8395TIP3    H249381   2.958   7.363  11.608
 8396TIP3   OH249382   3.114   7.504  11.557
 8396TIP3    H149383   3.194   7.453  11.537
 8396TIP3    H249384   3.122   7.509  11.655
 8397TIP3   OH249385   3.605   5.715  11.475
 8397TIP3    H149386   3.534   5.754  11.422
 8397TIP3    H249387   3.619   5.629  11.429
 8398TIP3   OH249388   2.175   7.540  11.317
 8398TIP3    H149389   2.088   7.550  11.276
 8398TIP3    H249390   2.150   7.541  11.411
 8399TIP3   OH249391   2.421   7.465  11.272
 8399TIP3    H149392   2.331   7.500  11.296
 8399TIP3    H249393   2.425   7.491  11.178
 8400TIP3   OH249394   2.906   7.444  11.156
 8400TIP3    H149395   2.840   7.462  11.085
 8400TIP3    H249396   2.910   7.531  11.201
 8401TIP3   OH249397   3.094   7.307  11.307
 8401TIP3    H149398   3.021   7.353  11.260
 8401TIP3    H249399   3.167   7.369  11.290
 8402TIP3   OH249400   3.327   7.519  11.275
 8402TIP3    H149401   3.309   7.610  11.245
 8402TIP3    H249402   3.378   7.483  11.197
 8403TIP3   OH249403   2.136   7.327  11.019
 8403TIP3    H149404   2.121   7.271  11.099
 8403TIP3    H249405   2.223   7.295  10.987
 8404TIP3   OH249406   2.360   7.256  10.908
 8404TIP3    H149407   2.348   7.159  10.924
 8404TIP3    H249408   2.444   7.268  10.957
 8405TIP3   OH249409   2.587   7.254  11.034
 8405TIP3    H149410   2.614   7.164  11.007
 8405TIP3    H249411   2.609   7.256  11.129
 8406TIP3   OH249412   2.894   5.831  10.869
 8406TIP3    H149413   2.829   5.799  10.936
 8406TIP3    H249414   2.936   5.747  10.846
 8407TIP3   OH249415   3.469   5.659  10.886
 8407TIP3    H149416   3.539   5.712  10.842
 8407TIP3    H249417   3.388   5.692  10.841
 8408TIP3   OH249418   3.638   5.787  10.722
 8408TIP3    H149419   3.702   5.733  10.670
 8408TIP3    H249420   3.693   5.868  10.738
 8409TIP3   OH249421   2.183   5.712  10.693
 8409TIP3    H149422   2.102   5.713  10.639
 8409TIP3    H249423   2.220   5.624  10.669
 8410TIP3   OH249424   2.060   5.685  10.239
 8410TIP3    H149425   2.107   5.759  10.193
 8410TIP3    H249426   2.009   5.732  10.307
 8411TIP3   OH249427   2.631   5.663  10.676
 8411TIP3    H149428   2.711   5.690  10.630
 8411TIP3    H249429   2.632   5.720  10.756
 8412TIP3   OH249430   3.222   5.707  10.770
 8412TIP3    H149431   3.165   5.725  10.694
 8412TIP3    H249432   3.171   5.636  10.815
 8413TIP3   OH249433   3.352   5.695  10.406
 8413TIP3    H149434   3.275   5.753  10.396
 8413TIP3    H249435   3.314   5.623  10.461
 8414TIP3   OH249436   2.052   7.288  10.358
 8414TIP3    H149437   1.961   7.279  10.325
 8414TIP3    H249438   2.073   7.377  10.326
 8415TIP3   OH249439   2.220   5.841  10.103
 8415TIP3    H149440   2.304   5.801  10.078
 8415TIP3    H249441   2.249   5.922  10.149
 8416TIP3   OH249442   2.752   5.901  10.338
 8416TIP3    H149443   2.803   5.858  10.410
 8416TIP3    H249444   2.756   5.992  10.374
 8417TIP3   OH249445   2.946   7.444  10.171
 8417TIP3    H149446   3.045   7.443  10.178
 8417TIP3    H249447   2.936   7.399  10.085
 8418TIP3   OH249448   3.596   7.356  10.473
 8418TIP3    H149449   3.576   7.268  10.433
 8418TIP3    H249450   3.596   7.413  10.393
 8419TIP3   OH249451   2.159   5.783  11.630
 8419TIP3    H149452   2.104   5.702  11.640
 8419TIP3    H249453   2.234   5.764  11.690
 8420TIP3   OH249454   2.354   5.700  11.819
 8420TIP3    H149455   2.447   5.685  11.799
 8420TIP3    H249456   2.329   5.612  11.856
 8421TIP3   OH249457   2.260   7.459  10.072
 8421TIP3    H149458   2.197   7.466  10.145
 8421TIP3    H249459   2.319   7.391  10.108
 8422TIP3   OH249460   3.207   5.650  11.801
 8422TIP3    H149461   3.197   5.587  11.876
 8422TIP3    H249462   3.302   5.635  11.780
 8423TIP3   OH249463   3.504   7.243  11.682
 8423TIP3    H149464   3.424   7.242  11.625
 8423TIP3    H249465   3.526   7.338  11.679
 8424TIP3   OH249466   4.996   6.651  10.665
 8424TIP3    H149467   4.972   6.742  10.688
 8424TIP3    H249468   4.923   6.630  10.604
 8425TIP3   OH249469   4.864   6.530  11.006
 8425TIP3    H149470   4.869   6.489  11.096
 8425TIP3    H249471   4.803   6.470  10.960
 8426TIP3   OH249472   4.063   6.521  11.152
 8426TIP3    H149473   4.076   6.448  11.214
 8426TIP3    H249474   4.134   6.581  11.176
 8427TIP3   OH249475   5.194   6.813  10.866
 8427TIP3    H149476   5.175   6.745  10.933
 8427TIP3    H249477   5.191   6.893  10.919
 8428TIP3   OH249478   4.185   6.984  10.995
 8428TIP3    H149479   4.153   6.896  10.967
 8428TIP3    H249480   4.281   6.966  10.990
 8429TIP3   OH249481   3.855   6.324  10.556
 8429TIP3    H149482   3.813   6.409  10.580
 8429TIP3    H249483   3.825   6.315  10.463
 8430TIP3   OH249484   3.892   6.550  10.792
 8430TIP3    H149485   3.930   6.461  10.814
 8430TIP3    H249486   3.962   6.593  10.740
 8431TIP3   OH249487   4.909   7.335  10.814
 8431TIP3    H149488   5.000   7.297  10.808
 8431TIP3    H249489   4.879   7.295  10.897
 8432TIP3   OH249490   4.691   6.798  11.078
 8432TIP3    H149491   4.719   6.732  11.012
 8432TIP3    H249492   4.777   6.827  11.114
 8433TIP3   OH249493   5.545   5.955  11.106
 8433TIP3    H149494   5.551   6.004  11.190
 8433TIP3    H249495   5.630   5.984  11.068
 8434TIP3   OH249496   5.039   6.255  11.112
 8434TIP3    H149497   5.063   6.162  11.124
 8434TIP3    H249498   5.011   6.252  11.019
 8435TIP3   OH249499   4.328   6.028  10.775
 8435TIP3    H149500   4.342   6.109  10.720
 8435TIP3    H249501   4.284   5.970  10.708
 8436TIP3   OH249502   5.092   6.071  10.647
 8436TIP3    H149503   5.140   6.035  10.725
 8436TIP3    H249504   5.156   6.135  10.611
 8437TIP3   OH249505   3.979   6.308  10.876
 8437TIP3    H149506   4.043   6.259  10.930
 8437TIP3    H249507   4.006   6.275  10.788
 8438TIP3   OH249508   4.466   6.448  10.828
 8438TIP3    H149509   4.553   6.410  10.853
 8438TIP3    H249510   4.426   6.375  10.777
 8439TIP3   OH249511   5.567   6.096  11.336
 8439TIP3    H149512   5.531   6.182  11.306
 8439TIP3    H249513   5.572   6.113  11.432
 8440TIP3   OH249514   4.230   5.948  11.213
 8440TIP3    H149515   4.191   5.991  11.134
 8440TIP3    H249516   4.163   5.974  11.280
 8441TIP3   OH249517   4.918   6.899  10.564
 8441TIP3    H149518   4.913   6.890  10.466
 8441TIP3    H249519   4.896   6.993  10.573
 8442TIP3   OH249520   4.449   6.713  11.179
 8442TIP3    H149521   4.398   6.787  11.218
 8442TIP3    H249522   4.523   6.761  11.134
 8443TIP3   OH249523   5.268   6.000  10.839
 8443TIP3    H149524   5.267   5.922  10.895
 8443TIP3    H249525   5.352   6.041  10.864
 8444TIP3   OH249526   4.179   6.138  10.988
 8444TIP3    H149527   4.244   6.196  11.035
 8444TIP3    H249528   4.232   6.108  10.911
 8445TIP3   OH249529   4.320   6.930  11.301
 8445TIP3    H149530   4.306   7.019  11.264
 8445TIP3    H249531   4.233   6.914  11.346
 8446TIP3   OH249532   3.897   6.853  10.388
 8446TIP3    H149533   3.902   6.908  10.306
 8446TIP3    H249534   3.915   6.920  10.456
 8447TIP3   OH249535   5.278   7.091  11.110
 8447TIP3    H149536   5.180   7.082  11.115
 8447TIP3    H249537   5.284   7.158  11.041
 8448TIP3   OH249538   5.273   5.893  11.178
 8448TIP3    H149539   5.194   5.905  11.121
 8448TIP3    H249540   5.343   5.922  11.117
 8449TIP3   OH249541   4.584   5.700  10.947
 8449TIP3    H149542   4.550   5.610  10.937
 8449TIP3    H249543   4.499   5.745  10.970
 8450TIP3   OH249544   5.149   7.221  10.769
 8450TIP3    H149545   5.147   7.142  10.712
 8450TIP3    H249546   5.211   7.276  10.715
 8451TIP3   OH249547   5.230   6.999  10.607
 8451TIP3    H149548   5.202   6.960  10.523
 8451TIP3    H249549   5.220   6.923  10.667
 8452TIP3   OH249550   5.377   6.883  11.447
 8452TIP3    H149551   5.395   6.808  11.386
 8452TIP3    H249552   5.393   6.958  11.387
 8453TIP3   OH249553   4.838   6.592  10.412
 8453TIP3    H149554   4.783   6.669  10.386
 8453TIP3    H249555   4.912   6.595  10.347
 8454TIP3   OH249556   4.871   6.423  10.116
 8454TIP3    H149557   4.938   6.471  10.170
 8454TIP3    H249558   4.920   6.339  10.099
 8455TIP3   OH249559   5.586   6.522  11.228
 8455TIP3    H149560   5.521   6.595  11.238
 8455TIP3    H249561   5.639   6.562  11.155
 8456TIP3   OH249562   5.201   6.557  10.511
 8456TIP3    H149563   5.133   6.597  10.570
 8456TIP3    H249564   5.265   6.523  10.578
 8457TIP3   OH249565   5.177   6.418  11.442
 8457TIP3    H149566   5.163   6.512  11.462
 8457TIP3    H249567   5.112   6.407  11.370
 8458TIP3   OH249568   4.343   6.644  10.689
 8458TIP3    H149569   4.323   6.622  10.594
 8458TIP3    H249570   4.393   6.564  10.717
 8459TIP3   OH249571   4.479   6.977  10.958
 8459TIP3    H149572   4.489   6.952  10.865
 8459TIP3    H249573   4.560   6.939  10.998
 8460TIP3   OH249574   4.351   6.499  11.068
 8460TIP3    H149575   4.389   6.499  10.978
 8460TIP3    H249576   4.400   6.573  11.110
 8461TIP3   OH249577   5.007   7.080  11.129
 8461TIP3    H149578   4.971   7.155  11.181
 8461TIP3    H249579   4.971   7.003  11.178
 8462TIP3   OH249580   4.482   6.966  11.533
 8462TIP3    H149581   4.420   7.029  11.577
 8462TIP3    H249582   4.438   6.954  11.446
 8463TIP3   OH249583   5.062   6.534  10.267
 8463TIP3    H149584   5.110   6.537  10.354
 8463TIP3    H249585   5.128   6.576  10.206
 8464TIP3   OH249586   4.179   6.583  11.433
 8464TIP3    H149587   4.167   6.676  11.457
 8464TIP3    H249588   4.126   6.543  11.503
 8465TIP3   OH249589   4.844   7.205  10.566
 8465TIP3    H149590   4.865   7.219  10.659
 8465TIP3    H249591   4.778   7.276  10.555
 8466TIP3   OH249592   4.288   7.150  11.595
 8466TIP3    H149593   4.277   7.156  11.498
 8466TIP3    H249594   4.203   7.109  11.622
 8467TIP3   OH249595   5.477   5.672  10.300
 8467TIP3    H149596   5.380   5.669  10.314
 8467TIP3    H249597   5.488   5.766  10.278
 8468TIP3   OH249598   4.239   6.534  10.462
 8468TIP3    H149599   4.188   6.608  10.425
 8468TIP3    H249600   4.190   6.458  10.428
 8469TIP3   OH249601   5.574   7.137  10.137
 8469TIP3    H149602   5.620   7.222  10.118
 8469TIP3    H249603   5.647   7.071  10.134
 8470TIP3   OH249604   3.873   6.800  11.361
 8470TIP3    H149605   3.838   6.790  11.272
 8470TIP3    H249606   3.905   6.709  11.379
 8471TIP3   OH249607   3.852   7.049  10.985
 8471TIP3    H149608   3.949   7.045  10.989
 8471TIP3    H249609   3.835   7.124  11.044
 8472TIP3   OH249610   5.638   7.145  11.625
 8472TIP3    H149611   5.617   7.051  11.607
 8472TIP3    H249612   5.553   7.175  11.665
 8473TIP3   OH249613   4.737   7.076  11.481
 8473TIP3    H149614   4.748   7.165  11.522
 8473TIP3    H249615   4.645   7.053  11.502
 8474TIP3   OH249616   4.828   7.498  10.464
 8474TIP3    H149617   4.831   7.488  10.367
 8474TIP3    H249618   4.800   7.590  10.476
 8475TIP3   OH249619   4.161   7.307  10.662
 8475TIP3    H149620   4.194   7.319  10.754
 8475TIP3    H249621   4.094   7.237  10.680
 8476TIP3   OH249622   5.088   7.412  10.207
 8476TIP3    H149623   5.136   7.349  10.148
 8476TIP3    H249624   5.093   7.364  10.293
 8477TIP3   OH249625   5.054   7.358  10.458
 8477TIP3    H149626   4.965   7.387  10.484
 8477TIP3    H249627   5.058   7.268  10.495
 8478TIP3   OH249628   5.334   6.262  11.649
 8478TIP3    H149629   5.301   6.309  11.570
 8478TIP3    H249630   5.355   6.174  11.610
 8479TIP3   OH249631   4.093   6.922  11.443
 8479TIP3    H149632   4.092   6.887  11.535
 8479TIP3    H249633   4.003   6.897  11.411
 8480TIP3   OH249634   4.356   5.801  11.024
 8480TIP3    H149635   4.266   5.790  10.986
 8480TIP3    H249636   4.335   5.848  11.107
 8481TIP3   OH249637   4.843   5.737  11.337
 8481TIP3    H149638   4.879   5.695  11.419
 8481TIP3    H249639   4.745   5.734  11.350
 8482TIP3   OH249640   5.102   6.158  11.490
 8482TIP3    H149641   5.043   6.120  11.558
 8482TIP3    H249642   5.132   6.239  11.534
 8483TIP3   OH249643   5.240   6.647  10.120
 8483TIP3    H149644   5.206   6.651  10.026
 8483TIP3    H249645   5.335   6.654  10.101
 8484TIP3   OH249646   4.803   6.011  10.121
 8484TIP3    H149647   4.759   5.977  10.202
 8484TIP3    H249648   4.735   5.988  10.056
 8485TIP3   OH249649   4.362   6.251  11.160
 8485TIP3    H149650   4.284   6.262  11.219
 8485TIP3    H249651   4.367   6.343  11.125
 8486TIP3   OH249652   4.346   6.255  10.639
 8486TIP3    H149653   4.250   6.261  10.621
 8486TIP3    H249654   4.388   6.256  10.549
 8487TIP3   OH249655   4.927   6.374  10.554
 8487TIP3    H149656   4.892   6.450  10.502
 8487TIP3    H249657   4.988   6.335  10.487
 8488TIP3   OH249658   4.804   6.377  11.659
 8488TIP3    H149659   4.762   6.294  11.691
 8488TIP3    H249660   4.884   6.376  11.712
 8489TIP3   OH249661   5.026   6.297  10.813
 8489TIP3    H149662   5.008   6.381  10.769
 8489TIP3    H249663   5.017   6.239  10.735
 8490TIP3   OH249664   4.122   6.278  11.287
 8490TIP3    H149665   4.147   6.314  11.373
 8490TIP3    H249666   4.081   6.193  11.313
 8491TIP3   OH249667   4.460   6.036  10.040
 8491TIP3    H149668   4.417   6.012  10.124
 8491TIP3    H249669   4.407   6.112  10.010
 8492TIP3   OH249670   3.799   6.004  10.747
 8492TIP3    H149671   3.868   6.012  10.813
 8492TIP3    H249672   3.838   6.044  10.668
 8493TIP3   OH249673   3.911   6.069  10.270
 8493TIP3    H149674   3.986   6.120  10.232
 8493TIP3    H249675   3.850   6.143  10.288
 8494TIP3   OH249676   4.918   6.442  11.255
 8494TIP3    H149677   4.972   6.373  11.209
 8494TIP3    H249678   4.858   6.385  11.309
 8495TIP3   OH249679   4.641   6.029  10.764
 8495TIP3    H149680   4.546   6.038  10.779
 8495TIP3    H249681   4.674   5.988  10.845
 8496TIP3   OH249682   4.068   6.191  10.650
 8496TIP3    H149683   3.994   6.220  10.593
 8496TIP3    H249684   4.095   6.103  10.616
 8497TIP3   OH249685   4.478   6.214  10.398
 8497TIP3    H149686   4.572   6.229  10.381
 8497TIP3    H249687   4.431   6.271  10.332
 8498TIP3   OH249688   5.051   5.967  11.056
 8498TIP3    H149689   4.990   5.956  11.131
 8498TIP3    H249690   5.008   5.915  10.986
 8499TIP3   OH249691   4.299   6.329  10.220
 8499TIP3    H149692   4.219   6.322  10.165
 8499TIP3    H249693   4.369   6.329  10.152
 8500TIP3   OH249694   5.324   7.585  11.691
 8500TIP3    H149695   5.352   7.585  11.598
 8500TIP3    H249696   5.411   7.568  11.735
 8501TIP3   OH249697   4.128   6.758  11.682
 8501TIP3    H149698   4.194   6.771  11.752
 8501TIP3    H249699   4.046   6.744  11.734
 8502TIP3   OH249700   4.734   6.311  10.931
 8502TIP3    H149701   4.799   6.274  10.870
 8502TIP3    H249702   4.707   6.233  10.982
 8503TIP3   OH249703   4.185   5.915  10.581
 8503TIP3    H149704   4.119   5.856  10.624
 8503TIP3    H249705   4.223   5.852  10.518
 8504TIP3   OH249706   4.596   6.120  11.167
 8504TIP3    H149707   4.518   6.181  11.165
 8504TIP3    H249708   4.662   6.173  11.213
 8505TIP3   OH249709   4.660   6.785  10.364
 8505TIP3    H149710   4.585   6.731  10.332
 8505TIP3    H249711   4.625   6.812  10.453
 8506TIP3   OH249712   5.402   6.717  11.247
 8506TIP3    H149713   5.449   6.773  11.179
 8506TIP3    H249714   5.316   6.707  11.203
 8507TIP3   OH249715   5.054   6.062  10.191
 8507TIP3    H149716   4.959   6.055  10.168
 8507TIP3    H249717   5.065   6.158  10.201
 8508TIP3   OH249718   4.775   6.804  11.471
 8508TIP3    H149719   4.766   6.770  11.561
 8508TIP3    H249720   4.757   6.899  11.484
 8509TIP3   OH249721   5.113   6.284  10.337
 8509TIP3    H149722   5.196   6.255  10.378
 8509TIP3    H249723   5.137   6.365  10.288
 8510TIP3   OH249724   4.180   6.730  10.906
 8510TIP3    H149725   4.234   6.710  10.826
 8510TIP3    H249726   4.195   6.651  10.959
 8511TIP3   OH249727   4.870   6.933  10.307
 8511TIP3    H149728   4.835   7.025  10.305
 8511TIP3    H249729   4.789   6.878  10.308
 8512TIP3   OH249730   3.873   6.543  11.462
 8512TIP3    H149731   3.860   6.485  11.539
 8512TIP3    H249732   3.818   6.500  11.394
 8513TIP3   OH249733   4.552   6.500  11.649
 8513TIP3    H149734   4.523   6.430  11.590
 8513TIP3    H249735   4.648   6.482  11.654
 8514TIP3   OH249736   5.059   7.041  11.492
 8514TIP3    H149737   4.972   7.050  11.449
 8514TIP3    H249738   5.038   7.086  11.577
 8515TIP3   OH249739   5.605   6.263  10.331
 8515TIP3    H149740   5.536   6.245  10.263
 8515TIP3    H249741   5.612   6.359  10.322
 8516TIP3   OH249742   5.623   6.854  11.572
 8516TIP3    H149743   5.532   6.866  11.537
 8516TIP3    H249744   5.675   6.840  11.489
 8517TIP3   OH249745   5.443   7.107  10.370
 8517TIP3    H149746   5.367   7.047  10.368
 8517TIP3    H249747   5.476   7.104  10.278
 8518TIP3   OH249748   5.145   6.623  11.052
 8518TIP3    H149749   5.053   6.594  11.041
 8518TIP3    H249750   5.189   6.570  10.983
 8519TIP3   OH249751   4.393   7.044  10.680
 8519TIP3    H149752   4.434   7.130  10.658
 8519TIP3    H249753   4.305   7.054  10.640
 8520TIP3   OH249754   3.997   6.534  10.082
 8520TIP3    H149755   4.052   6.594  10.136
 8520TIP3    H249756   3.910   6.546  10.124
 8521TIP3   OH249757   4.543   6.827  10.611
 8521TIP3    H149758   4.491   6.909  10.624
 8521TIP3    H249759   4.496   6.764  10.668
 8522TIP3   OH249760   4.591   7.239  11.306
 8522TIP3    H149761   4.641   7.320  11.286
 8522TIP3    H249762   4.662   7.182  11.341
 8523TIP3   OH249763   4.425   7.299  10.573
 8523TIP3    H149764   4.331   7.319  10.595
 8523TIP3    H249765   4.472   7.379  10.607
 8524TIP3   OH249766   4.909   6.841  11.227
 8524TIP3    H149767   4.867   6.821  11.314
 8524TIP3    H249768   4.941   6.754  11.199
 8525TIP3   OH249769   5.193   6.962  10.136
 8525TIP3    H149770   5.216   6.913  10.218
 8525TIP3    H249771   5.097   6.959  10.146
 8526TIP3   OH249772   5.233   7.296  11.458
 8526TIP3    H149773   5.158   7.237  11.434
 8526TIP3    H249774   5.228   7.369  11.393
 8527TIP3   OH249775   5.663   7.390  10.115
 8527TIP3    H149776   5.737   7.448  10.142
 8527TIP3    H249777   5.587   7.436  10.157
 8528TIP3   OH249778   4.053   6.032  11.406
 8528TIP3    H149779   3.991   6.076  11.467
 8528TIP3    H249780   4.071   5.951  11.458
 8529TIP3   OH249781   5.257   6.815  10.351
 8529TIP3    H149782   5.242   6.720  10.355
 8529TIP3    H249783   5.355   6.815  10.347
 8530TIP3   OH249784   4.013   7.178  11.275
 8530TIP3    H149785   4.065   7.097  11.266
 8530TIP3    H249786   4.067   7.229  11.337
 8531TIP3   OH249787   4.448   7.022  10.235
 8531TIP3    H149788   4.527   6.973  10.260
 8531TIP3    H249789   4.465   7.113  10.269
 8532TIP3   OH249790   4.115   6.712  10.264
 8532TIP3    H149791   4.044   6.760  10.310
 8532TIP3    H249792   4.171   6.785  10.232
 8533TIP3   OH249793   4.901   6.018  11.318
 8533TIP3    H149794   4.986   6.037  11.361
 8533TIP3    H249795   4.882   5.926  11.346
 8534TIP3   OH249796   5.001   5.925  10.445
 8534TIP3    H149797   5.023   5.997  10.382
 8534TIP3    H249798   5.045   5.957  10.527
 8535TIP3   OH249799   4.781   7.182  10.253
 8535TIP3    H149800   4.705   7.192  10.311
 8535TIP3    H249801   4.793   7.274  10.222
 8536TIP3   OH249802   4.743   6.129  10.519
 8536TIP3    H149803   4.794   6.213  10.519
 8536TIP3    H249804   4.704   6.124  10.607
 8537TIP3   OH249805   4.789   6.266  11.405
 8537TIP3    H149806   4.795   6.305  11.495
 8537TIP3    H249807   4.849   6.189  11.409
 8538TIP3   OH249808   4.781   5.823  10.573
 8538TIP3    H149809   4.736   5.895  10.620
 8538TIP3    H249810   4.859   5.872  10.533
 8539TIP3   OH249811   4.479   7.294  10.303
 8539TIP3    H149812   4.502   7.383  10.269
 8539TIP3    H249813   4.439   7.313  10.390
 8540TIP3   OH249814   4.370   5.977  10.283
 8540TIP3    H149815   4.375   6.055  10.342
 8540TIP3    H249816   4.450   5.929  10.308
 8541TIP3   OH249817   5.351   6.032  11.501
 8541TIP3    H149818   5.255   6.038  11.484
 8541TIP3    H249819   5.389   6.025  11.411
 8542TIP3   OH249820   5.257   6.404  10.907
 8542TIP3    H149821   5.180   6.346  10.895
 8542TIP3    H249822   5.317   6.348  10.960
 8543TIP3   OH249823   4.178   6.973  10.164
 8543TIP3    H149824   4.251   7.029  10.198
 8543TIP3    H249825   4.212   6.949  10.076
 8544TIP3   OH249826   4.012   6.260  10.121
 8544TIP3    H149827   4.014   6.357  10.120
 8544TIP3    H249828   3.948   6.241  10.051
 8545TIP3   OH249829   5.367   7.402  11.092
 8545TIP3    H149830   5.354   7.428  10.998
 8545TIP3    H249831   5.465   7.395  11.088
 8546TIP3   OH249832   4.096   5.741  10.970
 8546TIP3    H149833   4.092   5.723  10.873
 8546TIP3    H249834   4.068   5.652  11.004
 8547TIP3   OH249835   3.970   7.097  10.556
 8547TIP3    H149836   3.894   7.150  10.582
 8547TIP3    H249837   3.994   7.145  10.474
 8548TIP3   OH249838   3.896   7.404  11.678
 8548TIP3    H149839   3.971   7.396  11.740
 8548TIP3    H249840   3.853   7.316  11.692
 8549TIP3   OH249841   4.321   7.296  11.853
 8549TIP3    H149842   4.408   7.338  11.861
 8549TIP3    H249843   4.341   7.228  11.785
 8550TIP3   OH249844   4.797   7.190  19.943
 8550TIP3    H149845   4.715   7.138  19.951
 8550TIP3    H249846   4.854   7.142  20.004
 8551TIP3   OH249847   5.017   7.145  11.735
 8551TIP3    H149848   4.989   7.059  11.773
 8551TIP3    H249849   5.100   7.165  11.784
 8552TIP3   OH249850   5.199   7.221  10.070
 8552TIP3    H149851   5.232   7.131  10.089
 8552TIP3    H249852   5.263   7.263  10.009
 8553TIP3   OH249853   3.875   6.768  11.800
 8553TIP3    H149854   3.840   6.677  11.803
 8553TIP3    H249855   3.829   6.804  11.721
 8554TIP3   OH249856   4.355   6.731  10.047
 8554TIP3    H149857   4.369   6.686  10.133
 8554TIP3    H249858   4.443   6.716  10.004
 8555TIP3   OH249859   4.559   6.765  11.689
 8555TIP3    H149860   4.531   6.830  11.619
 8555TIP3    H249861   4.537   6.677  11.651
 8556TIP3   OH249862   5.129   6.764  11.486
 8556TIP3    H149863   5.209   6.821  11.479
 8556TIP3    H249864   5.063   6.835  11.483
 8557TIP3   OH249865   4.006   6.489  11.756
 8557TIP3    H149866   4.073   6.423  11.737
 8557TIP3    H249867   4.043   6.536  11.833
 8558TIP3   OH249868   4.448   6.586  10.263
 8558TIP3    H149869   4.375   6.531  10.299
 8558TIP3    H249870   4.493   6.521  10.204
 8559TIP3   OH249871   4.362   6.391  11.434
 8559TIP3    H149872   4.310   6.474  11.438
 8559TIP3    H249873   4.435   6.423  11.379
 8560TIP3   OH249874   4.577   6.419  10.106
 8560TIP3    H149875   4.566   6.467  10.021
 8560TIP3    H249876   4.674   6.415  10.114
 8561TIP3   OH249877   4.920   6.659  11.813
 8561TIP3    H149878   4.977   6.611  11.751
 8561TIP3    H249879   4.879   6.589  11.868
 8562TIP3   OH249880   5.474   6.635  20.004
 8562TIP3    H149881   5.533   6.605  19.934
 8562TIP3    H249882   5.489   6.733  19.994
 8563TIP3   OH249883   4.440   6.147  11.523
 8563TIP3    H149884   4.444   6.078  11.453
 8563TIP3    H249885   4.421   6.229  11.473
 8564TIP3   OH249886   4.471   5.953  11.333
 8564TIP3    H149887   4.520   6.004  11.264
 8564TIP3    H249888   4.379   5.953  11.297
 8565TIP3   OH249889   4.594   6.538  11.335
 8565TIP3    H149890   4.682   6.575  11.316
 8565TIP3    H249891   4.535   6.604  11.293
 8566TIP3   OH249892   5.024   6.289  11.822
 8566TIP3    H149893   5.046   6.194  11.814
 8566TIP3    H249894   5.085   6.328  11.758
 8567TIP3   OH249895   5.199   6.589  11.679
 8567TIP3    H149896   5.169   6.654  11.613
 8567TIP3    H249897   5.295   6.591  11.664
 8568TIP3   OH249898   4.292   6.228  11.752
 8568TIP3    H149899   4.205   6.184  11.739
 8568TIP3    H249900   4.341   6.197  11.673
 8569TIP3   OH249901   4.571   5.709  11.338
 8569TIP3    H149902   4.532   5.799  11.349
 8569TIP3    H249903   4.493   5.657  11.314
 8570TIP3   OH249904   4.660   6.148  11.734
 8570TIP3    H149905   4.612   6.103  11.806
 8570TIP3    H249906   4.597   6.134  11.661
 8571TIP3   OH249907   4.930   6.065  11.663
 8571TIP3    H149908   4.834   6.063  11.678
 8571TIP3    H249909   4.963   6.001  11.730
 8572TIP3   OH249910   5.078   5.918  11.829
 8572TIP3    H149911   5.080   5.820  11.826
 8572TIP3    H249912   5.084   5.942  11.923
 8573TIP3   OH249913   4.074   6.058  11.756
 8573TIP3    H149914   4.065   5.975  11.704
 8573TIP3    H249915   4.055   6.025  11.848
 8574TIP3   OH249916   4.555   5.680  11.630
 8574TIP3    H149917   4.627   5.617  11.646
 8574TIP3    H249918   4.560   5.683  11.533
 8575TIP3   OH249919   4.580   5.802  11.873
 8575TIP3    H149920   4.562   5.763  11.784
 8575TIP3    H249921   4.510   5.870  11.876
 8576TIP3   OH249922   4.560   7.510  10.152
 8576TIP3    H149923   4.654   7.510  10.177
 8576TIP3    H249924   4.568   7.519  10.054
 8577TIP3   OH249925   3.910   6.966  10.142
 8577TIP3    H149926   4.008   6.973  10.152
 8577TIP3    H249927   3.902   6.943  10.049
 8578TIP3   OH249928   3.776   7.498  10.597
 8578TIP3    H149929   3.701   7.448  10.558
 8578TIP3    H249930   3.792   7.439  10.673
 8579TIP3   OH249931   3.870   7.299  10.807
 8579TIP3    H149932   3.801   7.235  10.834
 8579TIP3    H249933   3.920   7.309  10.891
 8580TIP3   OH249934   5.642   7.408  11.046
 8580TIP3    H149935   5.654   7.449  11.134
 8580TIP3    H249936   5.692   7.467  10.990
 8581TIP3   OH249937   5.573   7.334  11.390
 8581TIP3    H149938   5.543   7.260  11.331
 8581TIP3    H249939   5.623   7.279  11.453
 8582TIP3   OH249940   5.432   6.928  11.839
 8582TIP3    H149941   5.341   6.942  11.809
 8582TIP3    H249942   5.460   7.017  11.869
 8583TIP3   OH249943   5.524   6.767  10.365
 8583TIP3    H149944   5.612   6.805  10.386
 8583TIP3    H249945   5.507   6.709  10.442
 8584TIP3   OH249946   5.586   6.570  10.602
 8584TIP3    H149947   5.506   6.523  10.635
 8584TIP3    H249948   5.635   6.587  10.685
 8585TIP3   OH249949   5.555   6.835  11.065
 8585TIP3    H149950   5.622   6.764  11.051
 8585TIP3    H249951   5.601   6.911  11.024
 8586TIP3   OH249952   5.433   7.125  11.317
 8586TIP3    H149953   5.362   7.175  11.362
 8586TIP3    H249954   5.387   7.105  11.232
 8587TIP3   OH249955   5.636   6.560  10.210
 8587TIP3    H149956   5.574   6.589  10.139
 8587TIP3    H249957   5.627   6.635  10.272
 8588TIP3   OH249958   5.417   6.243  10.129
 8588TIP3    H149959   5.408   6.311  10.059
 8588TIP3    H249960   5.467   6.177  10.079
 8589TIP3   OH249961   5.383   6.418  10.669
 8589TIP3    H149962   5.364   6.328  10.640
 8589TIP3    H249963   5.347   6.419  10.761
 8590TIP3   OH249964   3.862   6.643  11.048
 8590TIP3    H149965   3.868   6.613  10.954
 8590TIP3    H249966   3.947   6.607  11.081
 8591TIP3   OH249967   5.483   6.607  11.615
 8591TIP3    H149968   5.529   6.521  11.633
 8591TIP3    H249969   5.556   6.667  11.591
 8592TIP3   OH249970   5.580   6.353  11.653
 8592TIP3    H149971   5.488   6.319  11.652
 8592TIP3    H249972   5.633   6.274  11.678
 8593TIP3   OH249973   5.390   5.995   9.960
 8593TIP3    H149974   5.447   5.961  10.032
 8593TIP3    H249975   5.301   5.984   9.996
 8594TIP3   OH249976   5.330   6.185  10.489
 8594TIP3    H149977   5.349   6.093  10.517
 8594TIP3    H249978   5.402   6.198  10.426
 8595TIP3   OH249979   5.427   6.235  11.058
 8595TIP3    H149980   5.526   6.242  11.066
 8595TIP3    H249981   5.402   6.242  11.152
 8596TIP3   OH249982   5.417   6.313  11.323
 8596TIP3    H149983   5.328   6.342  11.350
 8596TIP3    H249984   5.461   6.397  11.298
 8597TIP3   OH249985   3.855   6.149  11.656
 8597TIP3    H149986   3.940   6.131  11.700
 8597TIP3    H249987   3.806   6.065  11.670
 8598TIP3   OH249988   5.639   5.749  11.820
 8598TIP3    H149989   5.674   5.669  11.777
 8598TIP3    H249990   5.641   5.814  11.746
 8599TIP3   OH249991   5.403   5.931  10.514
 8599TIP3    H149992   5.443   5.885  10.591
 8599TIP3    H249993   5.353   5.858  10.473
 8600TIP3   OH249994   3.949   5.975  11.018
 8600TIP3    H149995   3.990   5.886  11.012
 8600TIP3    H249996   4.023   6.033  10.994
 8601TIP3   OH249997   3.803   6.284  11.074
 8601TIP3    H149998   3.858   6.259  10.997
 8601TIP3    H249999   3.849   6.364  11.102
 8602TIP3   OH250000   5.589   5.931  11.624
 8602TIP3    H150001   5.507   5.976  11.652
 8602TIP3    H250002   5.552   5.866  11.561
 8603TIP3   OH250003   5.583   5.935  10.157
 8603TIP3    H150004   5.626   5.867  10.103
 8603TIP3    H250005   5.659   5.995  10.173
 8604TIP3   OH250006   3.816   5.904  10.463
 8604TIP3    H150007   3.723   5.930  10.473
 8604TIP3    H250008   3.837   5.940  10.374
 8605TIP3   OH250009   5.279   7.394  10.619
 8605TIP3    H150010   5.364   7.387  10.571
 8605TIP3    H250011   5.309   7.444  10.698
 8606TIP3   OH250012   3.821   5.765  11.294
 8606TIP3    H150013   3.750   5.738  11.354
 8606TIP3    H250014   3.780   5.833  11.239
 8607TIP3   OH250015   4.052   7.061  11.696
 8607TIP3    H150016   3.969   7.060  11.645
 8607TIP3    H250017   4.020   7.066  11.786
 8608TIP3   OH250018   4.323   7.200  11.326
 8608TIP3    H150019   4.313   7.298  11.316
 8608TIP3    H250020   4.420   7.199  11.339
 8609TIP3   OH250021   4.779   7.312  11.611
 8609TIP3    H150022   4.771   7.279  11.704
 8609TIP3    H250023   4.856   7.371  11.619
 8610TIP3   OH250024   4.998   7.489  11.559
 8610TIP3    H150025   5.061   7.420  11.537
 8610TIP3    H250026   5.018   7.501  11.655
 8611TIP3   OH250027   5.490   5.712  11.464
 8611TIP3    H150028   5.411   5.742  11.416
 8611TIP3    H250029   5.503   5.623  11.424
 8612TIP3   OH250030   4.051   7.522  11.320
 8612TIP3    H150031   3.960   7.537  11.285
 8612TIP3    H250032   4.036   7.535  11.415
 8613TIP3   OH250033   4.306   7.457  11.274
 8613TIP3    H150034   4.214   7.485  11.298
 8613TIP3    H250035   4.310   7.484  11.180
 8614TIP3   OH250036   4.803   7.448  11.133
 8614TIP3    H150037   4.727   7.462  11.073
 8614TIP3    H250038   4.802   7.530  11.185
 8615TIP3   OH250039   4.984   7.306  11.285
 8615TIP3    H150040   4.914   7.363  11.245
 8615TIP3    H250041   5.060   7.364  11.268
 8616TIP3   OH250042   5.216   7.519  11.274
 8616TIP3    H150043   5.194   7.611  11.255
 8616TIP3    H250044   5.260   7.488  11.190
 8617TIP3   OH250045   4.023   7.321  11.036
 8617TIP3    H150046   4.015   7.275  11.123
 8617TIP3    H250047   4.106   7.285  10.999
 8618TIP3   OH250048   4.238   7.249  10.904
 8618TIP3    H150049   4.231   7.152  10.918
 8618TIP3    H250050   4.323   7.266  10.950
 8619TIP3   OH250051   4.468   7.257  11.028
 8619TIP3    H150052   4.490   7.164  11.012
 8619TIP3    H250053   4.489   7.270  11.123
 8620TIP3   OH250054   4.829   5.840  10.911
 8620TIP3    H150055   4.749   5.800  10.949
 8620TIP3    H250056   4.840   5.787  10.832
 8621TIP3   OH250057   5.351   5.666  10.883
 8621TIP3    H150058   5.420   5.722  10.837
 8621TIP3    H250059   5.269   5.693  10.836
 8622TIP3   OH250060   5.519   5.790  10.720
 8622TIP3    H150061   5.581   5.730  10.673
 8622TIP3    H250062   5.579   5.867  10.736
 8623TIP3   OH250063   4.067   5.702  10.696
 8623TIP3    H150064   3.981   5.700  10.650
 8623TIP3    H250065   4.104   5.615  10.669
 8624TIP3   OH250066   3.941   5.692  10.254
 8624TIP3    H150067   3.999   5.758  10.208
 8624TIP3    H250068   3.902   5.746  10.325
 8625TIP3   OH250069   4.489   5.676  10.675
 8625TIP3    H150070   4.572   5.690  10.628
 8625TIP3    H250071   4.497   5.734  10.752
 8626TIP3   OH250072   5.104   5.716  10.778
 8626TIP3    H150073   5.051   5.725  10.698
 8626TIP3    H250074   5.057   5.643  10.824
 8627TIP3   OH250075   5.236   5.702  10.399
 8627TIP3    H150076   5.156   5.756  10.385
 8627TIP3    H250077   5.201   5.632  10.458
 8628TIP3   OH250078   3.931   7.290  10.376
 8628TIP3    H150079   3.838   7.280  10.353
 8628TIP3    H250080   3.954   7.374  10.331
 8629TIP3   OH250081   4.108   5.838  10.114
 8629TIP3    H150082   4.183   5.777  10.100
 8629TIP3    H250083   4.150   5.921  10.140
 8630TIP3   OH250084   4.664   5.906  10.337
 8630TIP3    H150085   4.696   5.848  10.408
 8630TIP3    H250086   4.666   5.992  10.384
 8631TIP3   OH250087   4.833   7.442  10.165
 8631TIP3    H150088   4.931   7.444  10.177
 8631TIP3    H250089   4.829   7.395  10.079
 8632TIP3   OH250090   5.486   7.356  10.472
 8632TIP3    H150091   5.466   7.266  10.436
 8632TIP3    H250092   5.478   7.411  10.391
 8633TIP3   OH250093   4.043   5.794  11.633
 8633TIP3    H150094   3.993   5.710  11.635
 8633TIP3    H250095   4.109   5.776  11.704
 8634TIP3   OH250096   4.234   5.716  11.813
 8634TIP3    H150097   4.327   5.701  11.789
 8634TIP3    H250098   4.209   5.626  11.845
 8635TIP3   OH250099   4.153   7.464  10.067
 8635TIP3    H150100   4.092   7.475  10.142
 8635TIP3    H250101   4.204   7.388  10.101
 8636TIP3   OH250102   5.086   5.643  11.795
 8636TIP3    H150103   5.091   5.592  11.879
 8636TIP3    H250104   5.180   5.642  11.770
 8637TIP3   OH250105   5.394   7.254  11.671
 8637TIP3    H150106   5.341   7.260  11.588
 8637TIP3    H250107   5.429   7.344  11.674
 8638TIP3   OH250108   6.862   6.644  10.674
 8638TIP3    H150109   6.841   6.729  10.717
 8638TIP3    H250110   6.793   6.642  10.606
 8639TIP3   OH250111   6.727   6.529  10.997
 8639TIP3    H150112   6.751   6.488  11.083
 8639TIP3    H250113   6.651   6.474  10.968
 8640TIP3   OH250114   5.957   6.522  11.146
 8640TIP3    H150115   5.976   6.450  11.208
 8640TIP3    H250116   6.017   6.590  11.179
 8641TIP3   OH250117   7.119   6.861  10.877
 8641TIP3    H150118   7.105   6.780  10.930
 8641TIP3    H250119   7.108   6.928  10.945
 8642TIP3   OH250120   6.066   6.986  10.997
 8642TIP3    H150121   6.036   6.897  10.968
 8642TIP3    H250122   6.162   6.969  10.989
 8643TIP3   OH250123   5.736   6.326  10.558
 8643TIP3    H150124   5.698   6.414  10.577
 8643TIP3    H250125   5.686   6.301  10.479
 8644TIP3   OH250126   5.788   6.560  10.813
 8644TIP3    H150127   5.823   6.469  10.827
 8644TIP3    H250128   5.851   6.600  10.751
 8645TIP3   OH250129   6.808   7.374  10.891
 8645TIP3    H150130   6.872   7.321  10.837
 8645TIP3    H250131   6.778   7.303  10.949
 8646TIP3   OH250132   6.580   6.802  11.078
 8646TIP3    H150133   6.611   6.732  11.019
 8646TIP3    H250134   6.664   6.829  11.122
 8647TIP3   OH250135   7.421   6.009  11.072
 8647TIP3    H150136   7.447   6.049  11.157
 8647TIP3    H250137   7.503   6.018  11.020
 8648TIP3   OH250138   6.911   6.236  11.106
 8648TIP3    H150139   6.959   6.154  11.126
 8648TIP3    H250140   6.900   6.225  11.010
 8649TIP3   OH250141   6.215   6.033  10.776
 8649TIP3    H150142   6.228   6.113  10.720
 8649TIP3    H250143   6.170   5.975  10.711
 8650TIP3   OH250144   7.001   6.056  10.632
 8650TIP3    H150145   7.055   6.040  10.714
 8650TIP3    H250146   7.048   6.131  10.593
 8651TIP3   OH250147   5.855   6.306  10.876
 8651TIP3    H150148   5.922   6.263  10.932
 8651TIP3    H250149   5.881   6.270  10.789
 8652TIP3   OH250150   6.373   6.443  10.824
 8652TIP3    H150151   6.443   6.383  10.856
 8652TIP3    H250152   6.334   6.388  10.754
 8653TIP3   OH250153   7.447   6.070  11.352
 8653TIP3    H150154   7.399   6.153  11.332
 8653TIP3    H250155   7.501   6.096  11.428
 8654TIP3   OH250156   6.112   5.947  11.208
 8654TIP3    H150157   6.074   6.001  11.136
 8654TIP3    H250158   6.049   5.969  11.280
 8655TIP3   OH250159   6.793   6.903  10.546
 8655TIP3    H150160   6.783   6.910  10.448
 8655TIP3    H250161   6.765   6.991  10.573
 8656TIP3   OH250162   6.339   6.718  11.183
 8656TIP3    H150163   6.290   6.793  11.221
 8656TIP3    H250164   6.412   6.765  11.137
 8657TIP3   OH250165   7.143   6.032  10.862
 8657TIP3    H150166   7.112   5.956  10.914
 8657TIP3    H250167   7.224   6.059  10.909
 8658TIP3   OH250168   6.068   6.141  10.999
 8658TIP3    H150169   6.131   6.205  11.040
 8658TIP3    H250170   6.120   6.112  10.920
 8659TIP3   OH250171   6.216   6.929  11.302
 8659TIP3    H150172   6.202   7.019  11.266
 8659TIP3    H250173   6.128   6.913  11.344
 8660TIP3   OH250174   5.790   6.859  10.379
 8660TIP3    H150175   5.794   6.918  10.300
 8660TIP3    H250176   5.800   6.924  10.452
 8661TIP3   OH250177   7.158   7.089  11.108
 8661TIP3    H150178   7.060   7.089  11.100
 8661TIP3    H250179   7.175   7.181  11.078
 8662TIP3   OH250180   7.195   5.916  11.183
 8662TIP3    H150181   7.114   5.923  11.128
 8662TIP3    H250182   7.260   5.967  11.130
 8663TIP3   OH250183   6.465   5.696  10.929
 8663TIP3    H150184   6.439   5.605  10.948
 8663TIP3    H250185   6.381   5.742  10.957
 8664TIP3   OH250186   6.978   7.229  10.746
 8664TIP3    H150187   7.009   7.143  10.708
 8664TIP3    H250188   7.053   7.286  10.720
 8665TIP3   OH250189   7.072   7.006  10.619
 8665TIP3    H150190   7.066   6.942  10.546
 8665TIP3    H250191   7.106   6.950  10.692
 8666TIP3   OH250192   7.239   6.864  11.442
 8666TIP3    H150193   7.250   6.799  11.369
 8666TIP3    H250194   7.261   6.946  11.395
 8667TIP3   OH250195   6.718   6.576  10.414
 8667TIP3    H150196   6.678   6.664  10.397
 8667TIP3    H250197   6.798   6.579  10.360
 8668TIP3   OH250198   6.759   6.442  10.116
 8668TIP3    H150199   6.829   6.475  10.178
 8668TIP3    H250200   6.797   6.354  10.095
 8669TIP3   OH250201   7.413   6.492  11.226
 8669TIP3    H150202   7.352   6.565  11.202
 8669TIP3    H250203   7.488   6.514  11.165
 8670TIP3   OH250204   7.083   6.598  10.518
 8670TIP3    H150205   7.009   6.626  10.577
 8670TIP3    H250206   7.138   6.548  10.583
 8671TIP3   OH250207   7.055   6.406  11.407
 8671TIP3    H150208   7.025   6.479  11.464
 8671TIP3    H250209   6.994   6.418  11.331
 8672TIP3   OH250210   6.215   6.644  10.698
 8672TIP3    H150211   6.185   6.625  10.606
 8672TIP3    H250212   6.279   6.570  10.714
 8673TIP3   OH250213   6.359   6.982  10.959
 8673TIP3    H150214   6.370   6.983  10.862
 8673TIP3    H250215   6.439   6.935  10.990
 8674TIP3   OH250216   6.245   6.506  11.063
 8674TIP3    H150217   6.287   6.506  10.975
 8674TIP3    H250218   6.292   6.579  11.109
 8675TIP3   OH250219   6.889   7.088  11.132
 8675TIP3    H150220   6.855   7.155  11.194
 8675TIP3    H250221   6.875   7.007  11.185
 8676TIP3   OH250222   6.374   6.968  11.531
 8676TIP3    H150223   6.309   7.029  11.572
 8676TIP3    H250224   6.336   6.958  11.441
 8677TIP3   OH250225   6.949   6.527  10.283
 8677TIP3    H150226   7.003   6.549  10.362
 8677TIP3    H250227   7.002   6.572  10.213
 8678TIP3   OH250228   6.067   6.581  11.427
 8678TIP3    H150229   6.078   6.671  11.462
 8678TIP3    H250230   5.997   6.547  11.486
 8679TIP3   OH250231   6.719   7.190  10.553
 8679TIP3    H150232   6.757   7.196  10.641
 8679TIP3    H250233   6.655   7.263  10.553
 8680TIP3   OH250234   6.171   7.148  11.595
 8680TIP3    H150235   6.161   7.154  11.498
 8680TIP3    H250236   6.087   7.107  11.624
 8681TIP3   OH250237   7.318   5.649  10.226
 8681TIP3    H150238   7.221   5.660  10.238
 8681TIP3    H250239   7.351   5.732  10.262
 8682TIP3   OH250240   6.121   6.536  10.462
 8682TIP3    H150241   6.085   6.612  10.412
 8682TIP3    H250242   6.077   6.461  10.419
 8683TIP3   OH250243   7.440   7.087  10.152
 8683TIP3    H150244   7.442   7.186  10.154
 8683TIP3    H250245   7.533   7.074  10.125
 8684TIP3   OH250246   5.759   6.806  11.352
 8684TIP3    H150247   5.709   6.802  11.269
 8684TIP3    H250248   5.796   6.714  11.353
 8685TIP3   OH250249   5.740   7.054  10.995
 8685TIP3    H150250   5.836   7.046  11.000
 8685TIP3    H250251   5.726   7.135  11.045
 8686TIP3   OH250252   7.524   7.130  11.584
 8686TIP3    H150253   7.507   7.034  11.582
 8686TIP3    H250254   7.449   7.158  11.640
 8687TIP3   OH250255   6.629   7.083  11.452
 8687TIP3    H150256   6.642   7.162  11.509
 8687TIP3    H250257   6.545   7.047  11.484
 8688TIP3   OH250258   6.702   7.490  10.470
 8688TIP3    H150259   6.686   7.495  10.375
 8688TIP3    H250260   6.659   7.571  10.502
 8689TIP3   OH250261   6.049   7.303  10.658
 8689TIP3    H150262   6.085   7.311  10.749
 8689TIP3    H250263   5.980   7.236  10.675
 8690TIP3   OH250264   6.958   7.426  10.204
 8690TIP3    H150265   6.996   7.368  10.134
 8690TIP3    H250266   6.979   7.373  10.284
 8691TIP3   OH250267   6.945   7.365  10.460
 8691TIP3    H150268   6.852   7.393  10.476
 8691TIP3    H250269   6.959   7.296  10.527
 8692TIP3   OH250270   7.237   6.292  11.622
 8692TIP3    H150271   7.176   6.313  11.550
 8692TIP3    H250272   7.255   6.197  11.608
 8693TIP3   OH250273   5.984   6.919  11.441
 8693TIP3    H150274   5.977   6.883  11.532
 8693TIP3    H250275   5.894   6.900  11.407
 8694TIP3   OH250276   6.240   5.798  11.021
 8694TIP3    H150277   6.154   5.789  10.979
 8694TIP3    H250278   6.213   5.848  11.101
 8695TIP3   OH250279   6.723   5.729  11.354
 8695TIP3    H150280   6.754   5.682  11.434
 8695TIP3    H250281   6.624   5.729  11.361
 8696TIP3   OH250282   7.020   6.104  11.446
 8696TIP3    H150283   6.975   6.076  11.528
 8696TIP3    H250284   7.019   6.201  11.456
 8697TIP3   OH250285   7.102   6.637  10.107
 8697TIP3    H150286   7.062   6.652  10.018
 8697TIP3    H250287   7.191   6.672  10.092
 8698TIP3   OH250288   6.677   6.014  10.124
 8698TIP3    H150289   6.636   5.981  10.208
 8698TIP3    H250290   6.614   5.978  10.062
 8699TIP3   OH250291   6.251   6.264  11.163
 8699TIP3    H150292   6.168   6.265  11.217
 8699TIP3    H250293   6.249   6.356  11.128
 8700TIP3   OH250294   6.235   6.250  10.631
 8700TIP3    H150295   6.140   6.268  10.617
 8700TIP3    H250296   6.269   6.228  10.541
 8701TIP3   OH250297   6.823   6.374  10.557
 8701TIP3    H150298   6.775   6.444  10.507
 8701TIP3    H250299   6.873   6.333  10.484
 8702TIP3   OH250300   6.666   6.346  11.658
 8702TIP3    H150301   6.626   6.265  11.696
 8702TIP3    H250302   6.746   6.354  11.715
 8703TIP3   OH250303   6.894   6.312  10.818
 8703TIP3    H150304   6.877   6.400  10.778
 8703TIP3    H250305   6.893   6.261  10.735
 8704TIP3   OH250306   6.012   6.268  11.289
 8704TIP3    H150307   6.033   6.308  11.374
 8704TIP3    H250308   5.970   6.184  11.318
 8705TIP3   OH250309   6.344   6.054  10.045
 8705TIP3    H150310   6.295   6.013  10.119
 8705TIP3    H250311   6.283   6.049   9.971
 8706TIP3   OH250312   5.685   5.998  10.748
 8706TIP3    H150313   5.748   6.012  10.820
 8706TIP3    H250314   5.731   6.034  10.671
 8707TIP3   OH250315   5.795   6.071  10.267
 8707TIP3    H150316   5.872   6.120  10.230
 8707TIP3    H250317   5.734   6.147  10.281
 8708TIP3   OH250318   6.816   6.454  11.235
 8708TIP3    H150319   6.862   6.381  11.187
 8708TIP3    H250320   6.762   6.401  11.297
 8709TIP3   OH250321   6.505   6.023  10.760
 8709TIP3    H150322   6.410   6.025  10.780
 8709TIP3    H250323   6.544   5.978  10.837
 8710TIP3   OH250324   5.955   6.194  10.646
 8710TIP3    H150325   5.884   6.227  10.587
 8710TIP3    H250326   5.981   6.106  10.612
 8711TIP3   OH250327   6.359   6.205  10.391
 8711TIP3    H150328   6.451   6.234  10.390
 8711TIP3    H250329   6.314   6.268  10.330
 8712TIP3   OH250330   6.946   5.951  11.050
 8712TIP3    H150331   6.881   5.945  11.123
 8712TIP3    H250332   6.887   5.936  10.973
 8713TIP3   OH250333   6.208   6.332  10.205
 8713TIP3    H150334   6.124   6.308  10.164
 8713TIP3    H250335   6.270   6.328  10.130
 8714TIP3   OH250336   7.242   7.510  11.706
 8714TIP3    H150337   7.288   7.531  11.622
 8714TIP3    H250338   7.308   7.538  11.771
 8715TIP3   OH250339   6.003   6.754  11.676
 8715TIP3    H150340   6.070   6.783  11.741
 8715TIP3    H250341   5.924   6.739  11.732
 8716TIP3   OH250342   6.602   6.294  10.929
 8716TIP3    H150343   6.684   6.282  10.878
 8716TIP3    H250344   6.598   6.211  10.978
 8717TIP3   OH250345   6.062   5.916  10.586
 8717TIP3    H150346   5.997   5.857  10.630
 8717TIP3    H250347   6.102   5.851  10.525
 8718TIP3   OH250348   6.473   6.127  11.175
 8718TIP3    H150349   6.393   6.184  11.171
 8718TIP3    H250350   6.536   6.186  11.219
 8719TIP3   OH250351   6.544   6.791  10.365
 8719TIP3    H150352   6.473   6.733  10.331
 8719TIP3    H250353   6.507   6.812  10.454
 8720TIP3   OH250354   7.252   6.708  11.226
 8720TIP3    H150355   7.297   6.749  11.150
 8720TIP3    H250356   7.165   6.690  11.189
 8721TIP3   OH250357   6.929   6.062  10.183
 8721TIP3    H150358   6.832   6.051  10.168
 8721TIP3    H250359   6.931   6.154  10.216
 8722TIP3   OH250360   6.647   6.793  11.508
 8722TIP3    H150361   6.658   6.765  11.601
 8722TIP3    H250362   6.665   6.888  11.512
 8723TIP3   OH250363   6.981   6.270  10.341
 8723TIP3    H150364   7.070   6.241  10.368
 8723TIP3    H250365   6.998   6.361  10.308
 8724TIP3   OH250366   6.069   6.732  10.919
 8724TIP3    H150367   6.124   6.711  10.840
 8724TIP3    H250368   6.078   6.652  10.973
 8725TIP3   OH250369   6.769   6.927  10.271
 8725TIP3    H150370   6.740   7.021  10.280
 8725TIP3    H250371   6.685   6.878  10.279
 8726TIP3   OH250372   5.762   6.540  11.451
 8726TIP3    H150373   5.746   6.486  11.530
 8726TIP3    H250374   5.703   6.498  11.384
 8727TIP3   OH250375   6.444   6.495  11.648
 8727TIP3    H150376   6.404   6.438  11.581
 8727TIP3    H250377   6.534   6.455  11.652
 8728TIP3   OH250378   6.939   7.028  11.501
 8728TIP3    H150379   6.858   7.052  11.456
 8728TIP3    H250380   6.923   7.069  11.589
 8729TIP3   OH250381   7.469   6.228  10.319
 8729TIP3    H150382   7.396   6.217  10.254
 8729TIP3    H250383   7.508   6.307  10.278
 8730TIP3   OH250384   7.468   6.849  11.565
 8730TIP3    H150385   7.372   6.871  11.554
 8730TIP3    H250386   7.496   6.840  11.471
 8731TIP3   OH250387   7.305   7.131  10.376
 8731TIP3    H150388   7.234   7.066  10.388
 8731TIP3    H250389   7.351   7.097  10.297
 8732TIP3   OH250390   7.049   6.651  11.033
 8732TIP3    H150391   6.956   6.641  11.007
 8732TIP3    H250392   7.084   6.572  10.986
 8733TIP3   OH250393   6.277   7.050  10.691
 8733TIP3    H150394   6.312   7.139  10.671
 8733TIP3    H250395   6.198   7.051  10.635
 8734TIP3   OH250396   5.886   6.535  10.085
 8734TIP3    H150397   5.936   6.594  10.146
 8734TIP3    H250398   5.798   6.536  10.128
 8735TIP3   OH250399   6.426   6.829  10.616
 8735TIP3    H150400   6.380   6.912  10.638
 8735TIP3    H250401   6.386   6.766  10.678
 8736TIP3   OH250402   6.474   7.256  11.274
 8736TIP3    H150403   6.520   7.342  11.267
 8736TIP3    H250404   6.550   7.199  11.296
 8737TIP3   OH250405   6.307   7.304  10.569
 8737TIP3    H150406   6.213   7.322  10.590
 8737TIP3    H250407   6.353   7.384  10.604
 8738TIP3   OH250408   6.795   6.833  11.236
 8738TIP3    H150409   6.747   6.822  11.321
 8738TIP3    H250410   6.831   6.743  11.224
 8739TIP3   OH250411   7.063   6.969  10.126
 8739TIP3    H150412   7.102   6.921  10.203
 8739TIP3    H250413   6.969   6.953  10.147
 8740TIP3   OH250414   7.086   7.305  11.476
 8740TIP3    H150415   7.020   7.240  11.444
 8740TIP3    H250416   7.104   7.366  11.402
 8741TIP3   OH250417   7.502   7.347  10.126
 8741TIP3    H150418   7.562   7.420  10.106
 8741TIP3    H250419   7.427   7.398  10.165
 8742TIP3   OH250420   5.933   6.028  11.403
 8742TIP3    H150421   5.845   6.068  11.412
 8742TIP3    H250422   5.934   5.959  11.471
 8743TIP3   OH250423   7.166   6.824  10.322
 8743TIP3    H150424   7.120   6.749  10.365
 8743TIP3    H250425   7.260   6.796  10.331
 8744TIP3   OH250426   5.898   7.182  11.265
 8744TIP3    H150427   5.949   7.100  11.261
 8744TIP3    H250428   5.952   7.234  11.327
 8745TIP3   OH250429   6.336   6.998  10.229
 8745TIP3    H150430   6.415   6.953  10.262
 8745TIP3    H250431   6.354   7.091  10.257
 8746TIP3   OH250432   6.003   6.712  10.278
 8746TIP3    H150433   5.924   6.757  10.315
 8746TIP3    H250434   6.050   6.790  10.239
 8747TIP3   OH250435   6.782   6.014  11.341
 8747TIP3    H150436   6.875   6.028  11.367
 8747TIP3    H250437   6.760   5.929  11.382
 8748TIP3   OH250438   6.861   5.936  10.430
 8748TIP3    H150439   6.889   5.990  10.354
 8748TIP3    H250440   6.920   5.970  10.500
 8749TIP3   OH250441   6.648   7.177  10.244
 8749TIP3    H150442   6.567   7.192  10.296
 8749TIP3    H250443   6.686   7.266  10.246
 8750TIP3   OH250444   6.626   6.129  10.544
 8750TIP3    H150445   6.661   6.219  10.552
 8750TIP3    H250446   6.592   6.107  10.633
 8751TIP3   OH250447   6.683   6.266  11.398
 8751TIP3    H150448   6.674   6.282  11.495
 8751TIP3    H250449   6.727   6.178  11.391
 8752TIP3   OH250450   6.661   5.817  10.571
 8752TIP3    H150451   6.611   5.894  10.605
 8752TIP3    H250452   6.742   5.861  10.536
 8753TIP3   OH250453   6.375   7.260  10.301
 8753TIP3    H150454   6.398   7.343  10.258
 8753TIP3    H250455   6.328   7.290  10.382
 8754TIP3   OH250456   6.227   5.949  10.290
 8754TIP3    H150457   6.228   6.035  10.335
 8754TIP3    H250458   6.319   5.921  10.307
 8755TIP3   OH250459   7.253   6.002  11.530
 8755TIP3    H150460   7.168   6.020  11.485
 8755TIP3    H250461   7.316   6.022  11.457
 8756TIP3   OH250462   7.119   6.432  10.901
 8756TIP3    H150463   7.040   6.374  10.893
 8756TIP3    H250464   7.177   6.368  10.949
 8757TIP3   OH250465   6.066   6.965  10.166
 8757TIP3    H150466   6.150   7.001  10.201
 8757TIP3    H250467   6.089   6.953  10.073
 8758TIP3   OH250468   5.908   6.258  10.123
 8758TIP3    H150469   5.906   6.355  10.123
 8758TIP3    H250470   5.842   6.239  10.053
 8759TIP3   OH250471   7.266   7.346  11.083
 8759TIP3    H150472   7.243   7.399  11.003
 8759TIP3    H250473   7.363   7.345  11.074
 8760TIP3   OH250474   5.976   5.739  10.967
 8760TIP3    H150475   5.968   5.726  10.870
 8760TIP3    H250476   5.951   5.648  10.997
 8761TIP3   OH250477   5.852   7.098  10.550
 8761TIP3    H150478   5.769   7.144  10.567
 8761TIP3    H250479   5.882   7.154  10.475
 8762TIP3   OH250480   5.796   7.412  11.698
 8762TIP3    H150481   5.888   7.411  11.728
 8762TIP3    H250482   5.772   7.318  11.699
 8763TIP3   OH250483   6.277   7.252  11.857
 8763TIP3    H150484   6.372   7.233  11.857
 8763TIP3    H250485   6.255   7.234  11.765
 8764TIP3   OH250486   6.686   7.193  19.947
 8764TIP3    H150487   6.598   7.168  19.979
 8764TIP3    H250488   6.744   7.157  20.014
 8765TIP3   OH250489   6.905   7.142  11.747
 8765TIP3    H150490   6.865   7.056  11.771
 8765TIP3    H250491   6.985   7.143  11.803
 8766TIP3   OH250492   7.048   7.228  10.059
 8766TIP3    H150493   7.072   7.143  10.102
 8766TIP3    H250494   7.132   7.269  10.030
 8767TIP3   OH250495   5.750   6.769  11.796
 8767TIP3    H150496   5.720   6.676  11.788
 8767TIP3    H250497   5.714   6.808  11.714
 8768TIP3   OH250498   6.271   6.730  10.050
 8768TIP3    H150499   6.278   6.686  10.138
 8768TIP3    H250500   6.349   6.787  10.058
 8769TIP3   OH250501   6.449   6.762  11.717
 8769TIP3    H150502   6.442   6.817  11.636
 8769TIP3    H250503   6.451   6.670  11.680
 8770TIP3   OH250504   7.010   6.748  11.495
 8770TIP3    H150505   7.102   6.786  11.492
 8770TIP3    H250506   6.963   6.831  11.511
 8771TIP3   OH250507   5.888   6.488  11.747
 8771TIP3    H150508   5.947   6.413  11.749
 8771TIP3    H250509   5.917   6.539  11.825
 8772TIP3   OH250510   6.353   6.608  10.269
 8772TIP3    H150511   6.278   6.557  10.307
 8772TIP3    H250512   6.388   6.547  10.201
 8773TIP3   OH250513   6.254   6.391  11.434
 8773TIP3    H150514   6.193   6.467  11.422
 8773TIP3    H250515   6.330   6.426  11.385
 8774TIP3   OH250516   6.477   6.443  10.074
 8774TIP3    H150517   6.484   6.431   9.979
 8774TIP3    H250518   6.570   6.435  10.106
 8775TIP3   OH250519   6.798   6.662  11.798
 8775TIP3    H150520   6.880   6.622  11.766
 8775TIP3    H250521   6.759   6.589  11.849
 8776TIP3   OH250522   7.341   6.695  19.974
 8776TIP3    H150523   7.330   6.599  19.963
 8776TIP3    H250524   7.420   6.707  19.916
 8777TIP3   OH250525   6.321   6.147  11.532
 8777TIP3    H150526   6.329   6.081  11.459
 8777TIP3    H250527   6.293   6.228  11.483
 8778TIP3   OH250528   6.348   5.954  11.334
 8778TIP3    H150529   6.406   6.004  11.272
 8778TIP3    H250530   6.266   5.944  11.282
 8779TIP3   OH250531   6.474   6.542  11.338
 8779TIP3    H150532   6.560   6.583  11.321
 8779TIP3    H250533   6.416   6.610  11.299
 8780TIP3   OH250534   6.875   6.297  11.819
 8780TIP3    H150535   6.884   6.205  11.792
 8780TIP3    H250536   6.964   6.317  11.856
 8781TIP3   OH250537   7.063   6.593  11.703
 8781TIP3    H150538   7.047   6.646  11.621
 8781TIP3    H250539   7.151   6.557  11.682
 8782TIP3   OH250540   6.176   6.229  11.755
 8782TIP3    H150541   6.090   6.189  11.730
 8782TIP3    H250542   6.232   6.207  11.677
 8783TIP3   OH250543   6.454   5.708  11.329
 8783TIP3    H150544   6.422   5.800  11.336
 8783TIP3    H250545   6.370   5.663  11.311
 8784TIP3   OH250546   6.542   6.122  11.745
 8784TIP3    H150547   6.478   6.097  11.815
 8784TIP3    H250548   6.483   6.119  11.667
 8785TIP3   OH250549   6.836   6.045  11.646
 8785TIP3    H150550   6.740   6.050  11.656
 8785TIP3    H250551   6.861   5.993  11.725
 8786TIP3   OH250552   6.972   5.915  11.833
 8786TIP3    H150553   6.974   5.816  11.834
 8786TIP3    H250554   6.965   5.937  11.928
 8787TIP3   OH250555   5.960   6.045  11.762
 8787TIP3    H150556   5.946   5.963  11.712
 8787TIP3    H250557   5.934   6.017  11.854
 8788TIP3   OH250558   6.434   5.684  11.637
 8788TIP3    H150559   6.516   5.633  11.641
 8788TIP3    H250560   6.420   5.684  11.541
 8789TIP3   OH250561   6.467   5.805  11.880
 8789TIP3    H150562   6.447   5.757  11.796
 8789TIP3    H250563   6.407   5.882  11.871
 8790TIP3   OH250564   6.430   7.500  10.153
 8790TIP3    H150565   6.521   7.514  10.183
 8790TIP3    H250566   6.441   7.512  10.056
 8791TIP3   OH250567   5.794   6.970  10.134
 8791TIP3    H150568   5.893   6.971  10.143
 8791TIP3    H250569   5.781   6.943  10.042
 8792TIP3   OH250570   5.665   7.501  10.603
 8792TIP3    H150571   5.590   7.454  10.560
 8792TIP3    H250572   5.675   7.444  10.681
 8793TIP3   OH250573   5.755   7.292  10.806
 8793TIP3    H150574   5.683   7.236  10.840
 8793TIP3    H250575   5.814   7.300  10.884
 8794TIP3   OH250576   7.570   7.386  11.063
 8794TIP3    H150577   7.573   7.415  11.156
 8794TIP3    H250578   7.546   7.470  11.023
 8795TIP3   OH250579   7.450   7.317  11.402
 8795TIP3    H150580   7.418   7.250  11.339
 8795TIP3    H250581   7.497   7.256  11.464
 8796TIP3   OH250582   7.272   6.928  11.840
 8796TIP3    H150583   7.197   6.929  11.905
 8796TIP3    H250584   7.329   7.000  11.873
 8797TIP3   OH250585   7.431   6.741  10.375
 8797TIP3    H150586   7.503   6.800  10.401
 8797TIP3    H250587   7.442   6.670  10.441
 8798TIP3   OH250588   7.470   6.555  10.570
 8798TIP3    H150589   7.375   6.531  10.576
 8798TIP3    H250590   7.497   6.541  10.662
 8799TIP3   OH250591   7.451   6.802  11.085
 8799TIP3    H150592   7.517   6.757  11.030
 8799TIP3    H250593   7.454   6.893  11.046
 8800TIP3   OH250594   7.320   7.102  11.315
 8800TIP3    H150595   7.250   7.151  11.360
 8800TIP3    H250596   7.277   7.086  11.228
 8801TIP3   OH250597   7.485   6.553  10.184
 8801TIP3    H150598   7.401   6.582  10.148
 8801TIP3    H250599   7.494   6.619  10.255
 8802TIP3   OH250600   7.323   6.236  10.104
 8802TIP3    H150601   7.374   6.282  10.034
 8802TIP3    H250602   7.316   6.149  10.061
 8803TIP3   OH250603   7.247   6.433  10.661
 8803TIP3    H150604   7.222   6.344  10.630
 8803TIP3    H250605   7.217   6.432  10.755
 8804TIP3   OH250606   5.746   6.648  11.065
 8804TIP3    H150607   5.755   6.615  10.971
 8804TIP3    H250608   5.833   6.619  11.099
 8805TIP3   OH250609   7.340   6.593  11.605
 8805TIP3    H150610   7.421   6.539  11.592
 8805TIP3    H250611   7.377   6.683  11.597
 8806TIP3   OH250612   7.496   6.392  11.675
 8806TIP3    H150613   7.399   6.377  11.678
 8806TIP3    H250614   7.525   6.300  11.693
 8807TIP3   OH250615   7.259   6.023   9.964
 8807TIP3    H150616   7.315   5.957  10.008
 8807TIP3    H250617   7.173   6.013  10.009
 8808TIP3   OH250618   7.217   6.194  10.477
 8808TIP3    H150619   7.218   6.097  10.496
 8808TIP3    H250620   7.311   6.211  10.460
 8809TIP3   OH250621   7.244   6.246  11.030
 8809TIP3    H150622   7.341   6.234  11.015
 8809TIP3    H250623   7.241   6.229  11.126
 8810TIP3   OH250624   7.277   6.281  11.316
 8810TIP3    H150625   7.194   6.329  11.337
 8810TIP3    H250626   7.330   6.358  11.285
 8811TIP3   OH250627   5.737   6.143  11.668
 8811TIP3    H150628   5.827   6.124  11.703
 8811TIP3    H250629   5.695   6.053  11.669
 8812TIP3   OH250630   7.510   5.649  11.825
 8812TIP3    H150631   7.555   5.595  11.759
 8812TIP3    H250632   7.505   5.735  11.778
 8813TIP3   OH250633   7.261   5.928  10.503
 8813TIP3    H150634   7.291   5.895  10.591
 8813TIP3    H250635   7.213   5.850  10.470
 8814TIP3   OH250636   5.842   5.980  11.014
 8814TIP3    H150637   5.881   5.889  11.008
 8814TIP3    H250638   5.920   6.036  10.996
 8815TIP3   OH250639   5.687   6.287  11.072
 8815TIP3    H150640   5.741   6.271  10.993
 8815TIP3    H250641   5.731   6.367  11.104
 8816TIP3   OH250642   7.471   5.887  11.711
 8816TIP3    H150643   7.382   5.917  11.743
 8816TIP3    H250644   7.442   5.870  11.619
 8817TIP3   OH250645   7.519   5.908  10.136
 8817TIP3    H150646   7.549   5.824  10.098
 8817TIP3    H250647   7.567   5.977  10.086
 8818TIP3   OH250648   5.705   5.902  10.458
 8818TIP3    H150649   5.615   5.933  10.475
 8818TIP3    H250650   5.724   5.942  10.371
 8819TIP3   OH250651   7.153   7.390  10.634
 8819TIP3    H150652   7.222   7.392  10.563
 8819TIP3    H250653   7.206   7.418  10.711
 8820TIP3   OH250654   5.711   5.760  11.298
 8820TIP3    H150655   5.639   5.732  11.358
 8820TIP3    H250656   5.666   5.822  11.237
 8821TIP3   OH250657   5.930   7.065  11.686
 8821TIP3    H150658   5.846   7.065  11.636
 8821TIP3    H250659   5.900   7.073  11.777
 8822TIP3   OH250660   6.214   7.205  11.332
 8822TIP3    H150661   6.202   7.303  11.323
 8822TIP3    H250662   6.311   7.205  11.330
 8823TIP3   OH250663   6.674   7.308  11.603
 8823TIP3    H150664   6.660   7.288  11.698
 8823TIP3    H250665   6.749   7.372  11.608
 8824TIP3   OH250666   6.895   7.488  11.567
 8824TIP3    H150667   6.956   7.417  11.543
 8824TIP3    H250668   6.921   7.503  11.660
 8825TIP3   OH250669   7.343   5.717  11.490
 8825TIP3    H150670   7.263   5.754  11.450
 8825TIP3    H250671   7.349   5.630  11.446
 8826TIP3   OH250672   5.936   7.540  11.315
 8826TIP3    H150673   5.843   7.534  11.284
 8826TIP3    H250674   5.925   7.557  11.410
 8827TIP3   OH250675   6.192   7.463  11.279
 8827TIP3    H150676   6.101   7.496  11.303
 8827TIP3    H250677   6.195   7.487  11.185
 8828TIP3   OH250678   6.682   7.449  11.156
 8828TIP3    H150679   6.609   7.465  11.091
 8828TIP3    H250680   6.682   7.535  11.202
 8829TIP3   OH250681   6.859   7.298  11.298
 8829TIP3    H150682   6.791   7.347  11.246
 8829TIP3    H250683   6.934   7.356  11.283
 8830TIP3   OH250684   7.132   7.518  11.259
 8830TIP3    H150685   7.114   7.604  11.218
 8830TIP3    H250686   7.180   7.468  11.189
 8831TIP3   OH250687   5.913   7.316  11.026
 8831TIP3    H150688   5.912   7.265  11.110
 8831TIP3    H250689   5.997   7.287  10.983
 8832TIP3   OH250690   6.131   7.251  10.899
 8832TIP3    H150691   6.122   7.154  10.912
 8832TIP3    H250692   6.211   7.268  10.954
 8833TIP3   OH250693   6.353   7.252  11.034
 8833TIP3    H150694   6.379   7.158  11.019
 8833TIP3    H250695   6.382   7.266  11.127
 8834TIP3   OH250696   6.706   5.861  10.916
 8834TIP3    H150697   6.629   5.807  10.939
 8834TIP3    H250698   6.753   5.801  10.856
 8835TIP3   OH250699   7.206   5.661  10.903
 8835TIP3    H150700   7.257   5.725  10.849
 8835TIP3    H250701   7.115   5.686  10.873
 8836TIP3   OH250702   7.350   5.801  10.727
 8836TIP3    H150703   7.421   5.738  10.700
 8836TIP3    H250704   7.408   5.876  10.753
 8837TIP3   OH250705   5.944   5.691  10.692
 8837TIP3    H150706   5.862   5.680  10.642
 8837TIP3    H250707   5.992   5.607  10.671
 8838TIP3   OH250708   5.819   5.688  10.251
 8838TIP3    H150709   5.874   5.756  10.205
 8838TIP3    H250710   5.779   5.740  10.324
 8839TIP3   OH250711   6.374   5.668  10.657
 8839TIP3    H150712   6.456   5.696  10.616
 8839TIP3    H250713   6.391   5.688  10.750
 8840TIP3   OH250714   6.952   5.721  10.800
 8840TIP3    H150715   6.930   5.720  10.706
 8840TIP3    H250716   6.903   5.642  10.835
 8841TIP3   OH250717   7.103   5.698  10.404
 8841TIP3    H150718   7.026   5.756  10.411
 8841TIP3    H250719   7.066   5.611  10.434
 8842TIP3   OH250720   5.814   7.289  10.368
 8842TIP3    H150721   5.720   7.279  10.347
 8842TIP3    H250722   5.835   7.374  10.325
 8843TIP3   OH250723   6.000   5.825  10.111
 8843TIP3    H150724   6.078   5.769  10.123
 8843TIP3    H250725   6.028   5.908  10.152
 8844TIP3   OH250726   6.548   5.925  10.337
 8844TIP3    H150727   6.601   5.879  10.404
 8844TIP3    H250728   6.543   6.013  10.380
 8845TIP3   OH250729   6.701   7.446  10.163
 8845TIP3    H150730   6.800   7.444  10.170
 8845TIP3    H250731   6.689   7.397  10.079
 8846TIP3   OH250732   7.362   7.366  10.480
 8846TIP3    H150733   7.342   7.272  10.459
 8846TIP3    H250734   7.356   7.402  10.390
 8847TIP3   OH250735   5.920   5.790  11.637
 8847TIP3    H150736   5.868   5.707  11.636
 8847TIP3    H250737   5.992   5.768  11.699
 8848TIP3   OH250738   6.118   5.707  11.829
 8848TIP3    H150739   6.208   5.689  11.797
 8848TIP3    H250740   6.089   5.616  11.851
 8849TIP3   OH250741   6.032   7.472  10.071
 8849TIP3    H150742   5.968   7.474  10.145
 8849TIP3    H250743   6.087   7.398  10.100
 8850TIP3   OH250744   6.982   5.652  11.828
 8850TIP3    H150745   6.978   5.598  11.909
 8850TIP3    H250746   7.070   5.626  11.792
 8851TIP3   OH250747   7.284   7.231  11.678
 8851TIP3    H150748   7.224   7.263  11.608
 8851TIP3    H250749   7.322   7.315  11.708
 8852TIP3   OH250750   7.574   6.291  10.549
 8852TIP3    H150751   7.550   6.385  10.552
 8852TIP3    H250752   7.523   6.260  10.471
 8853TIP3   OH250753   7.564   6.752  11.334
 8853TIP3    H150754   7.521   6.759  11.246
 8853TIP3    H250755   7.545   6.660  11.362
 8854TIP3   OH250756   7.520   7.035  10.988
 8854TIP3    H150757   7.603   7.055  10.941
 8854TIP3    H250758   7.531   7.089  11.067
 8855TIP3   OH250759   7.543   5.988  10.721
 8855TIP3    H150760   7.628   6.035  10.732
 8855TIP3    H250761   7.536   5.988  10.625
 8856TIP3   OH250762   7.582   6.498  11.442
 8856TIP3    H150763   7.571   6.438  11.519
 8856TIP3    H250764   7.503   6.476  11.386
 8857TIP3   OH250765   7.598   6.721  11.765
 8857TIP3    H150766   7.539   6.648  11.790
 8857TIP3    H250767   7.555   6.760  11.686
 8858TIP3   OH250768   7.493   7.494  10.667
 8858TIP3    H150769   7.438   7.444  10.602
 8858TIP3    H250770   7.515   7.422  10.730
 8859TIP3   OH250771   7.551   7.260  10.813
 8859TIP3    H150772   7.473   7.217  10.853
 8859TIP3    H250773   7.609   7.272  10.891
 8860TIP3   OH250774   7.611   6.572  11.069
 8860TIP3    H150775   7.613   6.580  10.972
 8860TIP3    H250776   7.696   6.616  11.089
 8861TIP3   OH250777   7.537   6.135  11.648
 8861TIP3    H150778   7.633   6.127  11.631
 8861TIP3    H250779   7.520   6.058  11.707
 8862TIP3   OH250780   7.502   6.258  11.002
 8862TIP3    H150781   7.590   6.219  11.017
 8862TIP3    H250782   7.529   6.350  11.004
 8863TIP3   OH250783   7.511   5.925  10.416
 8863TIP3    H150784   7.418   5.951  10.432
 8863TIP3    H250785   7.516   5.929  10.318
 8864TIP3   OH250786   7.476   5.752  11.257
 8864TIP3    H150787   7.454   5.759  11.353
 8864TIP3    H250788   7.419   5.821  11.218
 8865TIP3   OH250789   0.825   7.523  11.012
 8865TIP3    H150790   0.830   7.457  10.939
 8865TIP3    H250791   0.727   7.527  11.027
 8866TIP3   OH250792   1.691   7.489  10.253
 8866TIP3    H150793   1.597   7.499  10.280
 8866TIP3    H250794   1.707   7.587  10.257
 8867TIP3   OH250795   0.578   7.611  11.043
 8867TIP3    H150796   0.485   7.606  11.011
 8867TIP3    H250797   0.593   7.708  11.024
 8868TIP3   OH250798   1.054   7.590  11.394
 8868TIP3    H150799   1.134   7.553  11.437
 8868TIP3    H250800   0.987   7.530  11.430
 8869TIP3   OH250801   0.327   7.587  10.938
 8869TIP3    H150802   0.318   7.588  10.840
 8869TIP3    H250803   0.270   7.511  10.962
 8870TIP3   OH250804   0.780   7.502  11.353
 8870TIP3    H150805   0.779   7.601  11.351
 8870TIP3    H250806   0.708   7.477  11.293
 8871TIP3   OH250807   0.754   7.476  11.614
 8871TIP3    H150808   0.840   7.451  11.650
 8871TIP3    H250809   0.770   7.465  11.518
 8872TIP3   OH250810   1.805   7.548  11.778
 8872TIP3    H150811   1.884   7.500  11.747
 8872TIP3    H250812   1.846   7.612  11.838
 8873TIP3   OH250813   0.075   7.625  11.264
 8873TIP3    H150814  -0.011   7.629  11.307
 8873TIP3    H250815   0.094   7.721  11.253
 8874TIP3   OH250816   1.683   7.554  11.445
 8874TIP3    H150817   1.617   7.544  11.373
 8874TIP3    H250818   1.714   7.461  11.456
 8875TIP3   OH250819   1.585   7.504  10.855
 8875TIP3    H150820   1.625   7.590  10.874
 8875TIP3    H250821   1.492   7.532  10.844
 8876TIP3   OH250822   0.285   7.561  10.654
 8876TIP3    H150823   0.203   7.539  10.605
 8876TIP3    H250824   0.336   7.478  10.639
 8877TIP3   OH250825   0.177   7.527  10.196
 8877TIP3    H150826   0.202   7.592  10.129
 8877TIP3    H250827   0.145   7.588  10.265
 8878TIP3   OH250828   0.756   7.523  10.687
 8878TIP3    H150829   0.785   7.597  10.631
 8878TIP3    H250830   0.686   7.568  10.737
 8879TIP3   OH250831   1.316   7.549  10.771
 8879TIP3    H150832   1.264   7.566  10.692
 8879TIP3    H250833   1.273   7.468  10.805
 8880TIP3   OH250834   1.463   7.563  10.373
 8880TIP3    H150835   1.401   7.545  10.300
 8880TIP3    H250836   1.435   7.494  10.437
 8881TIP3   OH250837   0.459   7.536  11.732
 8881TIP3    H150838   0.519   7.483  11.678
 8881TIP3    H250839   0.441   7.476  11.807
 8882TIP3   OH250840   1.330   7.461  11.807
 8882TIP3    H150841   1.340   7.431  11.900
 8882TIP3    H250842   1.424   7.459  11.780
 8883TIP3   OH250843   2.704   7.524  11.006
 8883TIP3    H150844   2.702   7.451  10.940
 8883TIP3    H250845   2.609   7.532  11.028
 8884TIP3   OH250846   3.575   7.501  10.247
 8884TIP3    H150847   3.483   7.504  10.281
 8884TIP3    H250848   3.590   7.599  10.255
 8885TIP3   OH250849   2.447   7.617  11.045
 8885TIP3    H150850   2.358   7.608  11.005
 8885TIP3    H250851   2.459   7.714  11.040
 8886TIP3   OH250852   2.946   7.590  11.379
 8886TIP3    H150853   3.021   7.560  11.437
 8886TIP3    H250854   2.880   7.524  11.405
 8887TIP3   OH250855   2.188   7.576  10.937
 8887TIP3    H150856   2.180   7.568  10.839
 8887TIP3    H250857   2.155   7.489  10.967
 8888TIP3   OH250858   2.680   7.505  11.352
 8888TIP3    H150859   2.686   7.601  11.330
 8888TIP3    H250860   2.590   7.486  11.319
 8889TIP3   OH250861   2.610   7.473  11.608
 8889TIP3    H150862   2.683   7.429  11.653
 8889TIP3    H250863   2.644   7.478  11.515
 8890TIP3   OH250864   3.661   7.503  11.775
 8890TIP3    H150865   3.748   7.481  11.738
 8890TIP3    H250866   3.684   7.579  11.831
 8891TIP3   OH250867   1.915   7.578  11.277
 8891TIP3    H150868   1.840   7.579  11.341
 8891TIP3    H250869   1.918   7.672  11.249
 8892TIP3   OH250870   3.542   7.559  11.448
 8892TIP3    H150871   3.480   7.545  11.374
 8892TIP3    H250872   3.595   7.476  11.443
 8893TIP3   OH250873   3.477   7.500  10.855
 8893TIP3    H150874   3.515   7.588  10.875
 8893TIP3    H250875   3.385   7.525  10.839
 8894TIP3   OH250876   2.154   7.543  10.660
 8894TIP3    H150877   2.064   7.526  10.624
 8894TIP3    H250878   2.200   7.460  10.636
 8895TIP3   OH250879   2.068   7.536  10.267
 8895TIP3    H150880   2.120   7.619  10.283
 8895TIP3    H250881   1.997   7.549  10.333
 8896TIP3   OH250882   2.635   7.517  10.693
 8896TIP3    H150883   2.674   7.588  10.638
 8896TIP3    H250884   2.563   7.570  10.729
 8897TIP3   OH250885   3.203   7.552  10.770
 8897TIP3    H150886   3.154   7.554  10.687
 8897TIP3    H250887   3.161   7.475  10.812
 8898TIP3   OH250888   3.342   7.566  10.368
 8898TIP3    H150889   3.275   7.543  10.301
 8898TIP3    H250890   3.315   7.502  10.438
 8899TIP3   OH250891   2.345   7.521  11.709
 8899TIP3    H150892   2.431   7.475  11.696
 8899TIP3    H250893   2.308   7.471  11.786
 8900TIP3   OH250894   3.195   7.456  11.807
 8900TIP3    H150895   3.209   7.426  11.899
 8900TIP3    H250896   3.287   7.458  11.774
 8901TIP3   OH250897   4.587   7.522  11.012
 8901TIP3    H150898   4.575   7.452  10.946
 8901TIP3    H250899   4.496   7.534  11.046
 8902TIP3   OH250900   5.458   7.497  10.247
 8902TIP3    H150901   5.366   7.496  10.280
 8902TIP3    H250902   5.466   7.596  10.250
 8903TIP3   OH250903   4.331   7.617  11.048
 8903TIP3    H150904   4.238   7.608  11.019
 8903TIP3    H250905   4.344   7.714  11.039
 8904TIP3   OH250906   4.842   7.584  11.366
 8904TIP3    H150907   4.911   7.557  11.430
 8904TIP3    H250908   4.768   7.529  11.397
 8905TIP3   OH250909   4.061   7.570  10.933
 8905TIP3    H150910   4.052   7.560  10.836
 8905TIP3    H250911   4.033   7.482  10.966
 8906TIP3   OH250912   4.575   7.501  11.361
 8906TIP3    H150913   4.571   7.595  11.332
 8906TIP3    H250914   4.487   7.470  11.331
 8907TIP3   OH250915   4.535   7.484  11.628
 8907TIP3    H150916   4.613   7.442  11.667
 8907TIP3    H250917   4.553   7.476  11.532
 8908TIP3   OH250918   5.561   7.510  11.765
 8908TIP3    H150919   5.648   7.490  11.725
 8908TIP3    H250920   5.587   7.580  11.827
 8909TIP3   OH250921   3.788   7.574  11.264
 8909TIP3    H150922   3.728   7.589  11.338
 8909TIP3    H250923   3.812   7.667  11.241
 8910TIP3   OH250924   5.440   7.559  11.440
 8910TIP3    H150925   5.374   7.548  11.369
 8910TIP3    H250926   5.492   7.475  11.430
 8911TIP3   OH250927   5.362   7.503  10.851
 8911TIP3    H150928   5.403   7.588  10.874
 8911TIP3    H250929   5.270   7.532  10.840
 8912TIP3   OH250930   4.035   7.540  10.640
 8912TIP3    H150931   3.944   7.525  10.607
 8912TIP3    H250932   4.077   7.454  10.624
 8913TIP3   OH250933   3.969   7.531  10.264
 8913TIP3    H150934   4.017   7.616  10.274
 8913TIP3    H250935   3.895   7.552  10.325
 8914TIP3   OH250936   4.522   7.517  10.685
 8914TIP3    H150937   4.560   7.595  10.642
 8914TIP3    H250938   4.446   7.561  10.724
 8915TIP3   OH250939   5.083   7.549  10.774
 8915TIP3    H150940   5.047   7.542  10.685
 8915TIP3    H250941   5.037   7.474  10.815
 8916TIP3   OH250942   5.229   7.563  10.374
 8916TIP3    H150943   5.167   7.539  10.303
 8916TIP3    H250944   5.198   7.503  10.445
 8917TIP3   OH250945   4.228   7.522  11.712
 8917TIP3    H150946   4.315   7.484  11.692
 8917TIP3    H250947   4.189   7.447  11.761
 8918TIP3   OH250948   5.112   7.463  11.797
 8918TIP3    H150949   5.115   7.429  11.889
 8918TIP3    H250950   5.207   7.472  11.774
 8919TIP3   OH250951   6.477   7.516  11.011
 8919TIP3    H150952   6.479   7.446  10.943
 8919TIP3    H250953   6.380   7.526  11.025
 8920TIP3   OH250954   7.311   7.504  10.239
 8920TIP3    H150955   7.228   7.509  10.292
 8920TIP3    H250956   7.319   7.600  10.218
 8921TIP3   OH250957   6.224   7.610  11.040
 8921TIP3    H150958   6.131   7.600  11.010
 8921TIP3    H250959   6.233   7.708  11.040
 8922TIP3   OH250960   6.728   7.578  11.377
 8922TIP3    H150961   6.798   7.550  11.441
 8922TIP3    H250962   6.662   7.509  11.395
 8923TIP3   OH250963   5.943   7.570  10.939
 8923TIP3    H150964   5.934   7.558  10.842
 8923TIP3    H250965   5.919   7.480  10.972
 8924TIP3   OH250966   6.457   7.503  11.373
 8924TIP3    H150967   6.463   7.598  11.348
 8924TIP3    H250968   6.375   7.477  11.327
 8925TIP3   OH250969   6.413   7.491  11.649
 8925TIP3    H150970   6.485   7.438  11.686
 8925TIP3    H250971   6.428   7.477  11.553
 8926TIP3   OH250972   7.509   7.478  11.797
 8926TIP3    H150973   7.601   7.458  11.776
 8926TIP3    H250974   7.523   7.556  11.853
 8927TIP3   OH250975   5.677   7.576  11.253
 8927TIP3    H150976   5.613   7.581  11.325
 8927TIP3    H250977   5.697   7.670  11.237
 8928TIP3   OH250978   7.333   7.549  11.450
 8928TIP3    H150979   7.274   7.546  11.373
 8928TIP3    H250980   7.376   7.460  11.441
 8929TIP3   OH250981   7.242   7.494  10.864
 8929TIP3    H150982   7.279   7.584  10.865
 8929TIP3    H250983   7.149   7.517  10.841
 8930TIP3   OH250984   5.929   7.535  10.661
 8930TIP3    H150985   5.844   7.523  10.614
 8930TIP3    H250986   5.976   7.452  10.637
 8931TIP3   OH250987   5.842   7.534  10.264
 8931TIP3    H150988   5.886   7.624  10.264
 8931TIP3    H250989   5.772   7.553  10.329
 8932TIP3   OH250990   6.410   7.516  10.692
 8932TIP3    H150991   6.444   7.597  10.650
 8932TIP3    H250992   6.333   7.558  10.734
 8933TIP3   OH250993   6.991   7.562  10.789
 8933TIP3    H150994   6.973   7.534  10.698
 8933TIP3    H250995   6.931   7.501  10.837
 8934TIP3   OH250996   7.100   7.572  10.379
 8934TIP3    H150997   7.028   7.555  10.315
 8934TIP3    H250998   7.070   7.509  10.449
 8935TIP3   OH250999   6.128   7.526  11.696
 8935TIP3    H151000   6.218   7.490  11.686
 8935TIP3    H251001   6.094   7.474  11.773
 8936TIP3   OH251002   7.006   7.468  11.814
 8936TIP3    H151003   7.017   7.444  11.907
 8936TIP3    H251004   7.099   7.459  11.782
 8937TIP3   OH251005   7.472   7.590  11.209
 8937TIP3    H151006   7.470   7.595  11.306
 8937TIP3    H251007   7.483   7.684  11.186
 8938TIP3   OH251008   1.205   0.978  12.579
 8938TIP3    H151009   1.194   1.074  12.563
 8938TIP3    H251010   1.138   0.944  12.517
 8939TIP3   OH251011   1.450   1.251  12.717
 8939TIP3    H151012   1.395   1.174  12.737
 8939TIP3    H251013   1.488   1.273  12.802
 8940TIP3   OH251014   0.467   1.324  12.861
 8940TIP3    H151015   0.406   1.253  12.828
 8940TIP3    H251016   0.543   1.268  12.877
 8941TIP3   OH251017   0.144   0.708  12.392
 8941TIP3    H151018   0.129   0.776  12.460
 8941TIP3    H251019   0.056   0.667  12.394
 8942TIP3   OH251020   0.163   0.885  12.608
 8942TIP3    H151021   0.181   0.804  12.660
 8942TIP3    H251022   0.250   0.911  12.575
 8943TIP3   OH251023   1.378   0.403  12.562
 8943TIP3    H151024   1.417   0.357  12.487
 8943TIP3    H251025   1.331   0.476  12.519
 8944TIP3   OH251026   0.220   0.633  12.742
 8944TIP3    H151027   0.293   0.642  12.805
 8944TIP3    H251028   0.228   0.542  12.707
 8945TIP3   OH251029   0.729   0.813  12.706
 8945TIP3    H151030   0.804   0.772  12.753
 8945TIP3    H251031   0.691   0.731  12.669
 8946TIP3   OH251032   1.145   1.231  12.452
 8946TIP3    H151033   1.138   1.208  12.356
 8946TIP3    H251034   1.162   1.325  12.444
 8947TIP3   OH251035   0.120   1.195  12.264
 8947TIP3    H151036   0.113   1.249  12.182
 8947TIP3    H251037   0.151   1.261  12.328
 8948TIP3   OH251038   1.501   1.342  12.436
 8948TIP3    H151039   1.423   1.301  12.395
 8948TIP3    H251040   1.482   1.332  12.531
 8949TIP3   OH251041   1.074   0.904  12.324
 8949TIP3    H151042   0.985   0.940  12.307
 8949TIP3    H251043   1.120   0.923  12.241
 8950TIP3   OH251044   1.077   0.806  12.019
 8950TIP3    H151045   1.166   0.807  12.062
 8950TIP3    H251046   1.087   0.730  11.959
 8951TIP3   OH251047   1.433   0.948  12.387
 8951TIP3    H151048   1.359   0.948  12.453
 8951TIP3    H251049   1.499   0.891  12.431
 8952TIP3   OH251050   0.584   1.036  12.623
 8952TIP3    H151051   0.541   0.993  12.547
 8952TIP3    H251052   0.637   0.960  12.659
 8953TIP3   OH251053   1.314   0.845  12.157
 8953TIP3    H151054   1.359   0.883  12.234
 8953TIP3    H251055   1.357   0.899  12.087
 8954TIP3   OH251056   1.696   0.077  12.167
 8954TIP3    H151057   1.608   0.114  12.185
 8954TIP3    H251058   1.738   0.152  12.118
 8955TIP3   OH251059   0.437   0.904  12.408
 8955TIP3    H151060   0.416   0.979  12.347
 8955TIP3    H251061   0.399   0.829  12.362
 8956TIP3   OH251062   1.792   1.443  12.040
 8956TIP3    H151063   1.821   1.537  12.041
 8956TIP3    H251064   1.880   1.400  12.034
 8957TIP3   OH251065   0.064   1.434  12.884
 8957TIP3    H151066   0.093   1.362  12.941
 8957TIP3    H251067   0.127   1.505  12.901
 8958TIP3   OH251068   0.398   1.657  12.526
 8958TIP3    H151069   0.413   1.635  12.620
 8958TIP3    H251070   0.301   1.655  12.520
 8959TIP3   OH251071   1.460   0.967  11.971
 8959TIP3    H151072   1.417   0.955  11.884
 8959TIP3    H251073   1.546   0.928  11.947
 8960TIP3   OH251074   1.000   0.321  12.011
 8960TIP3    H151075   0.940   0.287  12.080
 8960TIP3    H251076   0.945   0.311  11.932
 8961TIP3   OH251077   0.620   0.601  12.571
 8961TIP3    H151078   0.529   0.618  12.546
 8961TIP3    H251079   0.663   0.589  12.485
 8962TIP3   OH251080   1.172   0.649  12.392
 8962TIP3    H151081   1.142   0.739  12.366
 8962TIP3    H251082   1.249   0.635  12.333
 8963TIP3   OH251083   0.657   0.394  11.914
 8963TIP3    H151084   0.627   0.323  11.973
 8963TIP3    H251085   0.580   0.413  11.859
 8964TIP3   OH251086   0.889   0.393  12.670
 8964TIP3    H151087   0.805   0.357  12.640
 8964TIP3    H251088   0.884   0.369  12.764
 8965TIP3   OH251089   0.698   0.585  12.281
 8965TIP3    H151090   0.738   0.501  12.253
 8965TIP3    H251091   0.648   0.611  12.202
 8966TIP3   OH251092   0.559   0.701  12.020
 8966TIP3    H151093   0.535   0.663  11.933
 8966TIP3    H251094   0.654   0.720  12.000
 8967TIP3   OH251095   0.939   0.669  12.814
 8967TIP3    H151096   0.904   0.594  12.765
 8967TIP3    H251097   0.948   0.631  12.902
 8968TIP3   OH251098   0.886   1.160  12.230
 8968TIP3    H151099   0.828   1.089  12.195
 8968TIP3    H251100   0.847   1.171  12.320
 8969TIP3   OH251101   1.249   0.409  12.048
 8969TIP3    H151102   1.151   0.421  12.045
 8969TIP3    H251103   1.283   0.472  12.115
 8970TIP3   OH251104   1.369   0.577  12.219
 8970TIP3    H151105   1.456   0.576  12.263
 8970TIP3    H251106   1.371   0.659  12.165
 8971TIP3   OH251107   0.380   1.088  12.786
 8971TIP3    H151108   0.441   1.072  12.711
 8971TIP3    H251109   0.369   0.999  12.824
 8972TIP3   OH251110   1.148   1.205  12.185
 8972TIP3    H151111   1.121   1.294  12.160
 8972TIP3    H251112   1.058   1.164  12.186
 8973TIP3   OH251113   1.794   0.621  12.195
 8973TIP3    H151114   1.752   0.599  12.109
 8973TIP3    H251115   1.822   0.715  12.182
 8974TIP3   OH251116   1.590   1.504  12.206
 8974TIP3    H151117   1.575   1.444  12.282
 8974TIP3    H251118   1.668   1.466  12.160
 8975TIP3   OH251119   0.648   1.428  12.528
 8975TIP3    H151120   0.662   1.522  12.504
 8975TIP3    H251121   0.551   1.425  12.529
 8976TIP3   OH251122   0.224   0.919  12.014
 8976TIP3    H151123   0.271   0.985  12.069
 8976TIP3    H251124   0.143   0.905  12.066
 8977TIP3   OH251125   0.776   1.170  12.476
 8977TIP3    H151126   0.731   1.254  12.500
 8977TIP3    H251127   0.727   1.105  12.529
 8978TIP3   OH251128   0.655   1.694  12.453
 8978TIP3    H151129   0.558   1.688  12.469
 8978TIP3    H251130   0.671   1.788  12.476
 8979TIP3   OH251131   1.420   1.291  12.017
 8979TIP3    H151132   1.412   1.255  12.108
 8979TIP3    H251133   1.335   1.262  11.979
 8980TIP3   OH251134   1.855   1.704  12.062
 8980TIP3    H151135   1.896   1.768  12.003
 8980TIP3    H251136   1.787   1.758  12.109
 8981TIP3   OH251137   1.483   1.163  12.235
 8981TIP3    H151138   1.465   1.074  12.274
 8981TIP3    H251139   1.531   1.207  12.307
 8982TIP3   OH251140   0.829   1.426  11.860
 8982TIP3    H151141   0.807   1.360  11.791
 8982TIP3    H251142   0.760   1.407  11.926
 8983TIP3   OH251143   0.688   1.335  12.117
 8983TIP3    H151144   0.764   1.294  12.163
 8983TIP3    H251145   0.700   1.429  12.143
 8984TIP3   OH251146   0.361   1.085  12.186
 8984TIP3    H151147   0.282   1.137  12.214
 8984TIP3    H251148   0.401   1.145  12.121
 8985TIP3   OH251149   1.195   0.290  12.298
 8985TIP3    H151150   1.159   0.297  12.208
 8985TIP3    H251151   1.183   0.381  12.326
 8986TIP3   OH251152   0.956   0.466  12.413
 8986TIP3    H151153   1.019   0.540  12.408
 8986TIP3    H251154   0.932   0.467  12.508
 8987TIP3   OH251155   1.021   0.172  12.483
 8987TIP3    H151156   1.001   0.261  12.516
 8987TIP3    H251157   1.094   0.187  12.421
 8988TIP3   OH251158   0.743   1.588  12.164
 8988TIP3    H151159   0.710   1.643  12.091
 8988TIP3    H251160   0.717   1.642  12.242
 8989TIP3   OH251161   0.432   1.343  12.016
 8989TIP3    H151162   0.511   1.354  12.073
 8989TIP3    H251163   0.470   1.280  11.952
 8990TIP3   OH251164   0.204   1.438  12.380
 8990TIP3    H151165   0.127   1.491  12.399
 8990TIP3    H251166   0.259   1.507  12.339
 8991TIP3   OH251167   1.041   1.609  11.864
 8991TIP3    H151168   0.971   1.540  11.869
 8991TIP3    H251169   1.107   1.565  11.806
 8992TIP3   OH251170   1.460   1.560  11.881
 8992TIP3    H151171   1.490   1.517  11.963
 8992TIP3    H251172   1.542   1.567  11.828
 8993TIP3   OH251173   0.572   1.154  11.875
 8993TIP3    H151174   0.602   1.109  11.955
 8993TIP3    H251175   0.659   1.167  11.830
 8994TIP3   OH251176   1.156   1.264  11.875
 8994TIP3    H151177   1.065   1.271  11.906
 8994TIP3    H251178   1.149   1.175  11.831
 8995TIP3   OH251179   0.723   0.948  12.136
 8995TIP3    H151180   0.647   0.898  12.168
 8995TIP3    H251181   0.752   0.894  12.058
 8996TIP3   OH251182   0.804   0.783  11.941
 8996TIP3    H151183   0.824   0.807  11.849
 8996TIP3    H251184   0.895   0.790  11.981
 8997TIP3   OH251185   1.723   1.028  11.861
 8997TIP3    H151186   1.704   0.980  11.777
 8997TIP3    H251187   1.774   1.102  11.824
 8998TIP3   OH251188   0.162   1.313  12.027
 8998TIP3    H151189   0.256   1.337  12.017
 8998TIP3    H251190   0.146   1.263  11.944
 8999TIP3   OH251191   0.070   1.826  12.447
 8999TIP3    H151192  -0.019   1.866  12.454
 8999TIP3    H251193   0.077   1.779  12.531
 9000TIP3   OH251194   0.160   1.641  12.663
 9000TIP3    H151195   0.207   1.556  12.674
 9000TIP3    H251196   0.196   1.691  12.740
 9001TIP3   OH251197   1.775   1.114  12.215
 9001TIP3    H151198   1.859   1.156  12.244
 9001TIP3    H251199   1.751   1.068  12.298
 9002TIP3   OH251200   1.791   0.933  12.452
 9002TIP3    H151201   1.729   0.911  12.523
 9002TIP3    H251202   1.873   0.955  12.502
 9003TIP3   OH251203   1.822   1.206  12.927
 9003TIP3    H151204   1.906   1.174  12.889
 9003TIP3    H251205   1.850   1.228  13.017
 9004TIP3   OH251206   1.859   0.879  12.097
 9004TIP3    H151207   1.781   0.877  12.038
 9004TIP3    H251208   1.835   0.951  12.158
 9005TIP3   OH251209   1.652   0.639  11.947
 9005TIP3    H151210   1.709   0.677  11.877
 9005TIP3    H251211   1.641   0.546  11.916
 9006TIP3   OH251212   1.583   0.755  12.528
 9006TIP3    H151213   1.600   0.676  12.471
 9006TIP3    H251214   1.634   0.736  12.606
 9007TIP3   OH251215   0.233   0.877  12.950
 9007TIP3    H151216   0.189   0.934  12.887
 9007TIP3    H251217   0.213   0.920  13.035
 9008TIP3   OH251218   1.612   0.392  11.874
 9008TIP3    H151219   1.658   0.320  11.922
 9008TIP3    H251220   1.520   0.358  11.866
 9009TIP3   OH251221   1.599   0.541  12.360
 9009TIP3    H151222   1.619   0.449  12.384
 9009TIP3    H251223   1.671   0.561  12.296
 9010TIP3   OH251224   1.633   0.269  12.419
 9010TIP3    H151225   1.702   0.201  12.415
 9010TIP3    H251226   1.564   0.231  12.361
 9011TIP3   OH251227   0.097   0.627  13.035
 9011TIP3    H151228   0.141   0.629  12.950
 9011TIP3    H251229   0.126   0.710  13.076
 9012TIP3   OH251230   1.828   0.265  12.034
 9012TIP3    H151231   1.864   0.204  11.966
 9012TIP3    H251232   1.896   0.334  12.039
 9013TIP3   OH251233   0.268   1.719  12.890
 9013TIP3    H151234   0.298   1.719  12.984
 9013TIP3    H251235   0.344   1.666  12.853
 9014TIP3   OH251236   0.466   1.583  12.782
 9014TIP3    H151237   0.467   1.489  12.813
 9014TIP3    H251238   0.560   1.604  12.806
 9015TIP3   OH251239   0.721   1.620  12.871
 9015TIP3    H151240   0.809   1.605  12.835
 9015TIP3    H251241   0.738   1.644  12.963
 9016TIP3   OH251242   1.546   0.086  12.729
 9016TIP3    H151243   1.638   0.106  12.706
 9016TIP3    H251244   1.505   0.090  12.642
 9017TIP3   OH251245   0.152   0.138  12.089
 9017TIP3    H151246   0.108   0.056  12.059
 9017TIP3    H251247   0.156   0.122  12.185
 9018TIP3   OH251248   0.735   0.131  12.558
 9018TIP3    H151249   0.821   0.120  12.515
 9018TIP3    H251250   0.691   0.046  12.542
 9019TIP3   OH251251   1.448   0.163  12.254
 9019TIP3    H151252   1.356   0.196  12.254
 9019TIP3    H251253   1.431   0.066  12.258
 9020TIP3   OH251254   0.191   1.670  12.232
 9020TIP3    H151255   0.095   1.673  12.227
 9020TIP3    H251256   0.211   1.761  12.200
 9021TIP3   OH251257   0.861   0.289  12.234
 9021TIP3    H151258   0.875   0.208  12.286
 9021TIP3    H251259   0.906   0.358  12.289
 9022TIP3   OH251260   1.737   1.690  12.365
 9022TIP3    H151261   1.670   1.625  12.334
 9022TIP3    H251262   1.702   1.773  12.328
 9023TIP3   OH251263   0.321   1.738  11.930
 9023TIP3    H151264   0.279   1.762  12.014
 9023TIP3    H251265   0.380   1.667  11.958
 9024TIP3   OH251266   3.106   0.992  12.541
 9024TIP3    H151267   3.073   1.082  12.557
 9024TIP3    H251268   3.034   0.956  12.488
 9025TIP3   OH251269   3.320   1.200  12.765
 9025TIP3    H151270   3.310   1.104  12.765
 9025TIP3    H251271   3.367   1.217  12.682
 9026TIP3   OH251272   1.951   0.638  12.444
 9026TIP3    H151273   1.952   0.713  12.505
 9026TIP3    H251274   1.919   0.679  12.362
 9027TIP3   OH251275   1.999   0.906  12.679
 9027TIP3    H151276   2.041   0.834  12.732
 9027TIP3    H251277   2.060   0.978  12.702
 9028TIP3   OH251278   2.814   1.096  13.000
 9028TIP3    H151279   2.802   1.080  12.905
 9028TIP3    H251280   2.798   1.193  13.005
 9029TIP3   OH251281   2.407   0.428  12.700
 9029TIP3    H151282   2.428   0.496  12.634
 9029TIP3    H251283   2.379   0.352  12.646
 9030TIP3   OH251284   3.249   0.432  12.505
 9030TIP3    H151285   3.239   0.383  12.588
 9030TIP3    H251286   3.262   0.523  12.534
 9031TIP3   OH251287   2.073   0.630  12.753
 9031TIP3    H151288   2.126   0.617  12.833
 9031TIP3    H251289   2.117   0.568  12.691
 9032TIP3   OH251290   2.621   0.753  12.695
 9032TIP3    H151291   2.697   0.741  12.755
 9032TIP3    H251292   2.636   0.682  12.632
 9033TIP3   OH251293   3.014   1.229  12.435
 9033TIP3    H151294   3.014   1.198  12.343
 9033TIP3    H251295   2.999   1.326  12.420
 9034TIP3   OH251296   2.279   0.513  12.917
 9034TIP3    H151297   2.347   0.572  12.949
 9034TIP3    H251298   2.322   0.474  12.837
 9035TIP3   OH251299   2.030   1.191  12.262
 9035TIP3    H151300   2.021   1.246  12.181
 9035TIP3    H251301   2.044   1.261  12.330
 9036TIP3   OH251302   2.970   0.918  12.301
 9036TIP3    H151303   2.918   0.999  12.281
 9036TIP3    H251304   3.047   0.925  12.242
 9037TIP3   OH251305   2.962   0.807  11.976
 9037TIP3    H151306   3.029   0.849  12.034
 9037TIP3    H251307   3.007   0.725  11.952
 9038TIP3   OH251308   3.329   0.921  12.397
 9038TIP3    H151309   3.252   0.944  12.454
 9038TIP3    H251310   3.386   0.872  12.460
 9039TIP3   OH251311   3.187   0.887  12.141
 9039TIP3    H151312   3.241   0.891  12.222
 9039TIP3    H251313   3.251   0.925  12.076
 9040TIP3   OH251314   2.981   1.496  12.437
 9040TIP3    H151315   3.013   1.517  12.526
 9040TIP3    H251316   2.925   1.569  12.410
 9041TIP3   OH251317   3.550   0.078  12.141
 9041TIP3    H151318   3.461   0.108  12.168
 9041TIP3    H251319   3.590   0.164  12.119
 9042TIP3   OH251320   2.370   0.874  12.300
 9042TIP3    H151321   2.338   0.967  12.295
 9042TIP3    H251322   2.290   0.826  12.322
 9043TIP3   OH251323   2.901   1.808  12.331
 9043TIP3    H151324   2.892   1.818  12.234
 9043TIP3    H251325   2.908   1.902  12.358
 9044TIP3   OH251326   2.286   1.666  12.527
 9044TIP3    H151327   2.289   1.675  12.624
 9044TIP3    H251328   2.196   1.630  12.512
 9045TIP3   OH251329   3.193   1.716  12.048
 9045TIP3    H151330   3.262   1.660  12.004
 9045TIP3    H251331   3.224   1.718  12.140
 9046TIP3   OH251332   3.181   1.732  12.345
 9046TIP3    H151333   3.085   1.713  12.343
 9046TIP3    H251334   3.221   1.650  12.377
 9047TIP3   OH251335   2.477   0.088  12.874
 9047TIP3    H151336   2.401   0.050  12.828
 9047TIP3    H251337   2.443   0.176  12.889
 9048TIP3   OH251338   3.354   0.987  11.967
 9048TIP3    H151339   3.335   1.005  11.873
 9048TIP3    H251340   3.452   0.999  11.966
 9049TIP3   OH251341   2.477   0.625  12.481
 9049TIP3    H151342   2.394   0.637  12.526
 9049TIP3    H251343   2.503   0.718  12.471
 9050TIP3   OH251344   3.068   0.677  12.377
 9050TIP3    H151345   3.028   0.756  12.336
 9050TIP3    H251346   3.107   0.628  12.302
 9051TIP3   OH251347   3.084   0.635  12.661
 9051TIP3    H151348   3.063   0.681  12.579
 9051TIP3    H251349   3.078   0.543  12.635
 9052TIP3   OH251350   2.535   0.388  11.886
 9052TIP3    H151351   2.475   0.314  11.899
 9052TIP3    H251352   2.473   0.456  11.853
 9053TIP3   OH251353   2.007   0.442  12.166
 9053TIP3    H151354   2.062   0.490  12.101
 9053TIP3    H251355   1.938   0.510  12.182
 9054TIP3   OH251356   2.179   0.484  12.522
 9054TIP3    H151357   2.105   0.547  12.510
 9054TIP3    H251358   2.191   0.450  12.432
 9055TIP3   OH251359   2.427   0.669  12.005
 9055TIP3    H151360   2.414   0.648  11.911
 9055TIP3    H251361   2.503   0.728  11.999
 9056TIP3   OH251362   2.846   0.669  12.836
 9056TIP3    H151363   2.926   0.649  12.785
 9056TIP3    H251364   2.868   0.621  12.916
 9057TIP3   OH251365   2.781   1.102  12.235
 9057TIP3    H151366   2.710   1.047  12.196
 9057TIP3    H251367   2.736   1.128  12.319
 9058TIP3   OH251368   3.137   0.425  12.010
 9058TIP3    H151369   3.048   0.450  12.037
 9058TIP3    H251370   3.192   0.474  12.075
 9059TIP3   OH251371   3.240   0.591  12.187
 9059TIP3    H151372   3.318   0.573  12.244
 9059TIP3    H251373   3.264   0.678  12.153
 9060TIP3   OH251374   2.971   1.254  12.132
 9060TIP3    H151375   2.924   1.339  12.149
 9060TIP3    H251376   2.904   1.187  12.158
 9061TIP3   OH251377   3.710   0.615  12.200
 9061TIP3    H151378   3.654   0.587  12.125
 9061TIP3    H251379   3.721   0.712  12.180
 9062TIP3   OH251380   2.532   1.407  12.512
 9062TIP3    H151381   2.531   1.504  12.496
 9062TIP3    H251382   2.438   1.386  12.520
 9063TIP3   OH251383   2.106   0.945  11.982
 9063TIP3    H151384   2.161   0.978  12.056
 9063TIP3    H251385   2.021   0.922  12.024
 9064TIP3   OH251386   2.650   1.154  12.466
 9064TIP3    H151387   2.618   1.244  12.488
 9064TIP3    H251388   2.656   1.114  12.553
 9065TIP3   OH251389   2.537   1.670  12.443
 9065TIP3    H151390   2.440   1.664  12.460
 9065TIP3    H251391   2.556   1.759  12.477
 9066TIP3   OH251392   3.316   1.315  12.012
 9066TIP3    H151393   3.342   1.277  12.101
 9066TIP3    H251394   3.227   1.276  12.008
 9067TIP3   OH251395   3.377   1.174  12.234
 9067TIP3    H151396   3.337   1.109  12.294
 9067TIP3    H251397   3.472   1.154  12.245
 9068TIP3   OH251398   2.704   1.429  11.866
 9068TIP3    H151399   2.703   1.382  11.781
 9068TIP3    H251400   2.647   1.370  11.919
 9069TIP3   OH251401   2.582   1.349  12.107
 9069TIP3    H151402   2.655   1.304  12.153
 9069TIP3    H251403   2.592   1.440  12.143
 9070TIP3   OH251404   2.249   1.076  12.165
 9070TIP3    H151405   2.169   1.112  12.207
 9070TIP3    H251406   2.286   1.154  12.121
 9071TIP3   OH251407   3.102   0.317  12.291
 9071TIP3    H151408   3.138   0.401  12.266
 9071TIP3    H251409   3.119   0.315  12.387
 9072TIP3   OH251410   2.869   1.530  12.172
 9072TIP3    H151411   2.778   1.564  12.191
 9072TIP3    H251412   2.914   1.615  12.158
 9073TIP3   OH251413   2.616   1.610  12.184
 9073TIP3    H151414   2.621   1.688  12.124
 9073TIP3    H251415   2.580   1.652  12.265
 9074TIP3   OH251416   2.298   1.335  12.024
 9074TIP3    H151417   2.372   1.363  12.081
 9074TIP3    H251418   2.348   1.293  11.952
 9075TIP3   OH251419   2.084   0.647  11.988
 9075TIP3    H151420   2.133   0.732  11.992
 9075TIP3    H251421   2.047   0.650  11.899
 9076TIP3   OH251422   2.217   0.110  12.822
 9076TIP3    H151423   2.202   0.097  12.725
 9076TIP3    H251424   2.193   0.022  12.854
 9077TIP3   OH251425   2.090   1.439  12.418
 9077TIP3    H151426   2.024   1.505  12.445
 9077TIP3    H251427   2.126   1.489  12.343
 9078TIP3   OH251428   2.905   1.623  11.856
 9078TIP3    H151429   2.859   1.540  11.882
 9078TIP3    H251430   2.986   1.588  11.814
 9079TIP3   OH251431   3.361   1.567  11.901
 9079TIP3    H151432   3.369   1.478  11.942
 9079TIP3    H251433   3.424   1.567  11.826
 9080TIP3   OH251434   2.450   1.135  11.860
 9080TIP3    H151435   2.463   1.081  11.940
 9080TIP3    H251436   2.535   1.119  11.812
 9081TIP3   OH251437   3.004   1.280  11.852
 9081TIP3    H151438   2.978   1.270  11.946
 9081TIP3    H251439   3.005   1.184  11.826
 9082TIP3   OH251440   2.582   0.947  12.128
 9082TIP3    H151441   2.514   0.895  12.176
 9082TIP3    H251442   2.618   0.881  12.065
 9083TIP3   OH251443   2.669   0.781  11.933
 9083TIP3    H151444   2.652   0.797  11.839
 9083TIP3    H251445   2.766   0.789  11.938
 9084TIP3   OH251446   3.601   1.019  11.864
 9084TIP3    H151447   3.599   0.991  11.769
 9084TIP3    H251448   3.610   1.116  11.856
 9085TIP3   OH251449   2.663   1.836  12.062
 9085TIP3    H151450   2.760   1.842  12.070
 9085TIP3    H251451   2.653   1.881  11.976
 9086TIP3   OH251452   2.019   1.297  12.010
 9086TIP3    H151453   2.116   1.311  12.006
 9086TIP3    H251454   2.005   1.244  11.929
 9087TIP3   OH251455   1.921   1.845  12.486
 9087TIP3    H151456   1.853   1.791  12.440
 9087TIP3    H251457   1.932   1.787  12.565
 9088TIP3   OH251458   1.977   1.640  12.656
 9088TIP3    H151459   1.894   1.591  12.671
 9088TIP3    H251460   2.008   1.652  12.748
 9089TIP3   OH251461   3.677   1.099  12.268
 9089TIP3    H151462   3.763   1.140  12.285
 9089TIP3    H251463   3.679   1.024  12.331
 9090TIP3   OH251464   3.690   0.889  12.442
 9090TIP3    H151465   3.616   0.824  12.455
 9090TIP3    H251466   3.734   0.894  12.530
 9091TIP3   OH251467   3.710   0.875  12.090
 9091TIP3    H151468   3.651   0.887  12.013
 9091TIP3    H251469   3.682   0.950  12.146
 9092TIP3   OH251470   3.544   0.622  11.924
 9092TIP3    H151471   3.597   0.662  11.853
 9092TIP3    H251472   3.520   0.535  11.884
 9093TIP3   OH251473   3.491   0.723  12.504
 9093TIP3    H151474   3.465   0.666  12.428
 9093TIP3    H251475   3.469   0.667  12.580
 9094TIP3   OH251476   3.505   0.373  11.851
 9094TIP3    H151477   3.569   0.313  11.892
 9094TIP3    H251478   3.420   0.324  11.851
 9095TIP3   OH251479   3.472   0.539  12.328
 9095TIP3    H151480   3.468   0.442  12.350
 9095TIP3    H251481   3.566   0.550  12.302
 9096TIP3   OH251482   3.532   0.280  12.367
 9096TIP3    H151483   3.534   0.231  12.452
 9096TIP3    H251484   3.452   0.238  12.328
 9097TIP3   OH251485   2.075   0.346  12.824
 9097TIP3    H151486   2.143   0.275  12.816
 9097TIP3    H251487   2.128   0.421  12.858
 9098TIP3   OH251488   3.714   0.259  12.033
 9098TIP3    H151489   3.758   0.190  11.980
 9098TIP3    H251490   3.788   0.312  12.068
 9099TIP3   OH251491   1.905   0.249  12.328
 9099TIP3    H151492   1.819   0.288  12.311
 9099TIP3    H251493   1.962   0.315  12.283
 9100TIP3   OH251494   3.465   0.048  12.783
 9100TIP3    H151495   3.480   0.099  12.701
 9100TIP3    H251496   3.368   0.039  12.787
 9101TIP3   OH251497   3.597   0.172  12.597
 9101TIP3    H151498   3.660   0.108  12.563
 9101TIP3    H251499   3.657   0.246  12.623
 9102TIP3   OH251500   2.187   0.090  12.561
 9102TIP3    H151501   2.119   0.118  12.498
 9102TIP3    H251502   2.205  -0.002  12.530
 9103TIP3   OH251503   2.084   0.112  12.167
 9103TIP3    H151504   2.082   0.157  12.082
 9103TIP3    H251505   1.998   0.140  12.204
 9104TIP3   OH251506   3.189   0.152  12.666
 9104TIP3    H151507   3.132   0.130  12.590
 9104TIP3    H251508   3.157   0.089  12.731
 9105TIP3   OH251509   3.321   0.154  12.270
 9105TIP3    H151510   3.232   0.192  12.288
 9105TIP3    H251511   3.298   0.059  12.270
 9106TIP3   OH251512   2.066   1.645  12.241
 9106TIP3    H151513   1.970   1.640  12.223
 9106TIP3    H251514   2.083   1.733  12.202
 9107TIP3   OH251515   2.243   0.227  11.977
 9107TIP3    H151516   2.273   0.169  11.904
 9107TIP3    H251517   2.285   0.186  12.055
 9108TIP3   OH251518   2.933   1.791  12.060
 9108TIP3    H151519   3.030   1.787  12.049
 9108TIP3    H251520   2.909   1.734  11.984
 9109TIP3   OH251521   2.201   1.737  11.935
 9109TIP3    H151522   2.172   1.748  12.027
 9109TIP3    H251523   2.270   1.670  11.945
 9110TIP3   OH251524   3.824   0.646  12.455
 9110TIP3    H151525   3.839   0.737  12.486
 9110TIP3    H251526   3.762   0.658  12.381
 9111TIP3   OH251527   3.878   0.908  12.643
 9111TIP3    H151528   3.905   0.884  12.733
 9111TIP3    H251529   3.941   0.980  12.623
 9112TIP3   OH251530   5.135   0.437  12.529
 9112TIP3    H151531   5.163   0.379  12.604
 9112TIP3    H251532   5.220   0.468  12.497
 9113TIP3   OH251533   4.022   0.612  12.752
 9113TIP3    H151534   4.017   0.516  12.770
 9113TIP3    H251535   4.039   0.609  12.656
 9114TIP3   OH251536   4.463   0.775  12.752
 9114TIP3    H151537   4.544   0.756  12.702
 9114TIP3    H251538   4.400   0.734  12.688
 9115TIP3   OH251539   5.269   0.311  12.709
 9115TIP3    H151540   5.226   0.322  12.796
 9115TIP3    H251541   5.359   0.340  12.728
 9116TIP3   OH251542   3.937   1.242  12.286
 9116TIP3    H151543   3.905   1.281  12.203
 9116TIP3    H251544   3.898   1.296  12.356
 9117TIP3   OH251545   4.590   0.129  12.854
 9117TIP3    H151546   4.624   0.039  12.840
 9117TIP3    H251547   4.511   0.127  12.797
 9118TIP3   OH251548   4.835   0.896  12.267
 9118TIP3    H151549   4.764   0.952  12.306
 9118TIP3    H251550   4.910   0.958  12.267
 9119TIP3   OH251551   4.853   0.798  11.979
 9119TIP3    H151552   4.865   0.778  12.074
 9119TIP3    H251553   4.898   0.723  11.939
 9120TIP3   OH251554   4.319   0.962  12.565
 9120TIP3    H151555   4.312   0.945  12.469
 9120TIP3    H251556   4.408   0.933  12.584
 9121TIP3   OH251557   5.476   0.051  12.191
 9121TIP3    H151558   5.389   0.035  12.233
 9121TIP3    H251559   5.475   0.146  12.170
 9122TIP3   OH251560   4.239   0.886  12.287
 9122TIP3    H151561   4.183   0.961  12.257
 9122TIP3    H251562   4.181   0.810  12.272
 9123TIP3   OH251563   5.557   1.417  11.997
 9123TIP3    H151564   5.579   1.501  11.956
 9123TIP3    H251565   5.642   1.368  11.993
 9124TIP3   OH251566   4.179   1.690  12.485
 9124TIP3    H151567   4.246   1.640  12.538
 9124TIP3    H251568   4.099   1.644  12.510
 9125TIP3   OH251569   5.084   1.759  12.058
 9125TIP3    H151570   5.157   1.699  12.031
 9125TIP3    H251571   5.105   1.764  12.153
 9126TIP3   OH251572   5.066   1.704  12.339
 9126TIP3    H151573   4.973   1.727  12.327
 9126TIP3    H251574   5.063   1.625  12.395
 9127TIP3   OH251575   4.769   0.361  11.996
 9127TIP3    H151576   4.733   0.342  12.085
 9127TIP3    H251577   4.728   0.285  11.953
 9128TIP3   OH251578   4.367   0.639  12.543
 9128TIP3    H151579   4.283   0.592  12.530
 9128TIP3    H251580   4.413   0.607  12.462
 9129TIP3   OH251581   4.915   0.686  12.404
 9129TIP3    H151582   4.883   0.757  12.344
 9129TIP3    H251583   4.992   0.652  12.357
 9130TIP3   OH251584   4.428   0.376  11.896
 9130TIP3    H151585   4.380   0.340  11.974
 9130TIP3    H251586   4.359   0.432  11.854
 9131TIP3   OH251587   3.809   0.329  12.621
 9131TIP3    H151588   3.865   0.407  12.629
 9131TIP3    H251589   3.826   0.299  12.530
 9132TIP3   OH251590   3.893   0.412  12.164
 9132TIP3    H151591   3.951   0.452  12.096
 9132TIP3    H251592   3.835   0.489  12.183
 9133TIP3   OH251593   4.646   0.450  12.656
 9133TIP3    H151594   4.586   0.375  12.643
 9133TIP3    H251595   4.725   0.404  12.694
 9134TIP3   OH251596   4.071   0.517  12.502
 9134TIP3    H151597   3.999   0.527  12.437
 9134TIP3    H251598   4.127   0.444  12.468
 9135TIP3   OH251599   4.452   0.565  12.289
 9135TIP3    H151600   4.549   0.573  12.278
 9135TIP3    H251601   4.417   0.634  12.231
 9136TIP3   OH251602   5.153   0.313  12.948
 9136TIP3    H151603   5.106   0.394  12.978
 9136TIP3    H251604   5.082   0.259  12.908
 9137TIP3   OH251605   4.326   0.685  12.017
 9137TIP3    H151606   4.293   0.641  11.936
 9137TIP3    H251607   4.406   0.727  11.980
 9138TIP3   OH251608   4.663   1.098  12.290
 9138TIP3    H151609   4.599   1.059  12.229
 9138TIP3    H251610   4.611   1.163  12.342
 9139TIP3   OH251611   5.021   0.419  12.078
 9139TIP3    H151612   4.930   0.421  12.041
 9139TIP3    H251613   5.039   0.512  12.097
 9140TIP3   OH251614   5.098   0.640  12.206
 9140TIP3    H151615   5.147   0.579  12.265
 9140TIP3    H251616   5.171   0.678  12.156
 9141TIP3   OH251617   4.114   1.071  12.720
 9141TIP3    H151618   4.194   1.044  12.671
 9141TIP3    H251619   4.115   1.018  12.799
 9142TIP3   OH251620   4.877   1.201  12.100
 9142TIP3    H151621   4.865   1.295  12.117
 9142TIP3    H251622   4.814   1.161  12.164
 9143TIP3   OH251623   5.593   0.630  12.186
 9143TIP3    H151624   5.543   0.595  12.108
 9143TIP3    H251625   5.621   0.718  12.155
 9144TIP3   OH251626   5.513   1.435  12.268
 9144TIP3    H151627   5.427   1.394  12.280
 9144TIP3    H251628   5.522   1.441  12.170
 9145TIP3   OH251629   5.175   0.897  12.883
 9145TIP3    H151630   5.099   0.954  12.865
 9145TIP3    H251631   5.131   0.809  12.888
 9146TIP3   OH251632   3.996   0.883  12.065
 9146TIP3    H151633   4.031   0.970  12.095
 9146TIP3    H251634   3.916   0.904  12.013
 9147TIP3   OH251635   4.604   1.384  11.867
 9147TIP3    H151636   4.576   1.363  11.777
 9147TIP3    H251637   4.590   1.298  11.910
 9148TIP3   OH251638   4.120   1.097  12.159
 9148TIP3    H151639   4.056   1.145  12.216
 9148TIP3    H251640   4.170   1.169  12.117
 9149TIP3   OH251641   4.994   0.325  12.345
 9149TIP3    H151642   4.974   0.386  12.273
 9149TIP3    H251643   5.042   0.381  12.411
 9150TIP3   OH251644   4.707   0.511  12.406
 9150TIP3    H151645   4.794   0.550  12.432
 9150TIP3    H251646   4.680   0.484  12.497
 9151TIP3   OH251647   4.787   0.182  12.448
 9151TIP3    H151648   4.782   0.208  12.541
 9151TIP3    H251649   4.865   0.234  12.419
 9152TIP3   OH251650   4.326   0.309  12.150
 9152TIP3    H151651   4.311   0.380  12.214
 9152TIP3    H251652   4.418   0.290  12.178
 9153TIP3   OH251653   4.185   1.327  12.018
 9153TIP3    H151654   4.262   1.349  12.073
 9153TIP3    H251655   4.232   1.277  11.947
 9154TIP3   OH251656   3.992   0.618  11.980
 9154TIP3    H151657   4.029   0.702  12.013
 9154TIP3    H251658   3.934   0.651  11.910
 9155TIP3   OH251659   4.785   1.604  11.881
 9155TIP3    H151660   4.737   1.519  11.870
 9155TIP3    H251661   4.868   1.579  11.835
 9156TIP3   OH251662   5.293   1.609  11.964
 9156TIP3    H151663   5.276   1.517  11.940
 9156TIP3    H251664   5.331   1.636  11.880
 9157TIP3   OH251665   4.349   1.159  11.878
 9157TIP3    H151666   4.331   1.071  11.913
 9157TIP3    H251667   4.425   1.137  11.819
 9158TIP3   OH251668   4.877   1.277  11.823
 9158TIP3    H151669   4.871   1.259  11.918
 9158TIP3    H251670   4.890   1.183  11.796
 9159TIP3   OH251671   4.454   0.981  12.122
 9159TIP3    H151672   4.388   0.935  12.178
 9159TIP3    H251673   4.484   0.909  12.064
 9160TIP3   OH251674   4.564   0.800  11.918
 9160TIP3    H151675   4.573   0.847  11.832
 9160TIP3    H251676   4.658   0.786  11.940
 9161TIP3   OH251677   3.905   1.311  12.003
 9161TIP3    H151678   4.002   1.299  11.995
 9161TIP3    H251679   3.872   1.247  11.935
 9162TIP3   OH251680   5.601   0.892  12.452
 9162TIP3    H151681   5.527   0.834  12.482
 9162TIP3    H251682   5.636   0.930  12.535
 9163TIP3   OH251683   5.641   0.877  12.091
 9163TIP3    H151684   5.551   0.879  12.054
 9163TIP3    H251685   5.636   0.924  12.176
 9164TIP3   OH251686   5.426   0.618  11.948
 9164TIP3    H151687   5.469   0.653  11.867
 9164TIP3    H251688   5.397   0.529  11.917
 9165TIP3   OH251689   5.382   0.741  12.501
 9165TIP3    H151690   5.304   0.687  12.481
 9165TIP3    H251691   5.356   0.780  12.586
 9166TIP3   OH251692   5.387   0.362  11.891
 9166TIP3    H151693   5.437   0.311  11.958
 9166TIP3    H251694   5.298   0.321  11.887
 9167TIP3   OH251695   5.304   0.533  12.354
 9167TIP3    H151696   5.353   0.446  12.352
 9167TIP3    H251697   5.380   0.594  12.351
 9168TIP3   OH251698   5.433   0.297  12.350
 9168TIP3    H151699   5.451   0.236  12.425
 9168TIP3    H251700   5.354   0.255  12.311
 9169TIP3   OH251701   3.793   0.620  12.938
 9169TIP3    H151702   3.852   0.640  12.863
 9169TIP3    H251703   3.777   0.707  12.975
 9170TIP3   OH251704   5.601   0.246  12.042
 9170TIP3    H151705   5.641   0.191  11.972
 9170TIP3    H251706   5.676   0.300  12.075
 9171TIP3   OH251707   3.804   0.225  12.350
 9171TIP3    H151708   3.709   0.243  12.333
 9171TIP3    H251709   3.843   0.272  12.273
 9172TIP3   OH251710   4.824   0.250  12.723
 9172TIP3    H151711   4.762   0.191  12.768
 9172TIP3    H251712   4.897   0.191  12.695
 9173TIP3   OH251713   5.340   0.031  12.711
 9173TIP3    H151714   5.383   0.109  12.671
 9173TIP3    H251715   5.282   0.070  12.778
 9174TIP3   OH251716   5.548   0.159  12.551
 9174TIP3    H151717   5.605   0.083  12.567
 9174TIP3    H251718   5.599   0.236  12.585
 9175TIP3   OH251719   5.028   0.077  12.668
 9175TIP3    H151720   5.088   0.016  12.623
 9175TIP3    H251721   5.051   0.055  12.761
 9176TIP3   OH251722   5.207   0.180  12.272
 9176TIP3    H151723   5.118   0.223  12.281
 9176TIP3    H251724   5.194   0.099  12.323
 9177TIP3   OH251725   4.088   0.183  12.002
 9177TIP3    H151726   4.160   0.155  11.942
 9177TIP3    H251727   4.135   0.236  12.069
 9178TIP3   OH251728   4.633   0.302  12.230
 9178TIP3    H151729   4.660   0.233  12.295
 9178TIP3    H251730   4.656   0.381  12.285
 9179TIP3   OH251731   4.816   1.779  12.084
 9179TIP3    H151732   4.912   1.778  12.068
 9179TIP3    H251733   4.788   1.728  12.006
 9180TIP3   OH251734   4.126   1.738  11.916
 9180TIP3    H151735   4.107   1.795  11.991
 9180TIP3    H251736   4.134   1.648  11.952
 9181TIP3   OH251737   6.869   0.991  12.531
 9181TIP3    H151738   6.837   1.083  12.536
 9181TIP3    H251739   6.819   0.958  12.453
 9182TIP3   OH251740   6.732   0.879  12.915
 9182TIP3    H151741   6.800   0.811  12.913
 9182TIP3    H251742   6.686   0.869  12.831
 9183TIP3   OH251743   5.763   0.655  12.444
 9183TIP3    H151744   5.718   0.741  12.443
 9183TIP3    H251745   5.700   0.604  12.392
 9184TIP3   OH251746   5.776   0.909  12.670
 9184TIP3    H151747   5.838   0.839  12.702
 9184TIP3    H251748   5.824   0.940  12.592
 9185TIP3   OH251749   6.815   1.746  12.774
 9185TIP3    H151750   6.876   1.697  12.716
 9185TIP3    H251751   6.796   1.672  12.834
 9186TIP3   OH251752   6.557   1.186  12.980
 9186TIP3    H151753   6.580   1.132  12.904
 9186TIP3    H251754   6.634   1.172  13.038
 9187TIP3   OH251755   6.225   0.393  12.686
 9187TIP3    H151756   6.227   0.484  12.652
 9187TIP3    H251757   6.178   0.345  12.616
 9188TIP3   OH251758   6.993   0.423  12.550
 9188TIP3    H151759   7.047   0.379  12.617
 9188TIP3    H251760   7.061   0.478  12.506
 9189TIP3   OH251761   5.902   0.671  12.753
 9189TIP3    H151762   5.915   0.602  12.819
 9189TIP3    H251763   5.925   0.625  12.669
 9190TIP3   OH251764   6.363   0.807  12.700
 9190TIP3    H151765   6.428   0.753  12.748
 9190TIP3    H251766   6.316   0.735  12.652
 9191TIP3   OH251767   6.794   1.247  12.433
 9191TIP3    H151768   6.777   1.241  12.337
 9191TIP3    H251769   6.754   1.332  12.457
 9192TIP3   OH251770   5.787   1.213  12.230
 9192TIP3    H151771   5.779   1.258  12.143
 9192TIP3    H251772   5.788   1.289  12.292
 9193TIP3   OH251773   6.957   1.574  12.610
 9193TIP3    H151774   6.981   1.487  12.570
 9193TIP3    H251775   7.041   1.620  12.591
 9194TIP3   OH251776   7.104   1.359  12.464
 9194TIP3    H151777   7.092   1.300  12.387
 9194TIP3    H251778   7.136   1.297  12.531
 9195TIP3   OH251779   6.738   0.910  12.309
 9195TIP3    H151780   6.665   0.972  12.291
 9195TIP3    H251781   6.803   0.925  12.238
 9196TIP3   OH251782   6.731   0.831  11.965
 9196TIP3    H151783   6.792   0.870  12.031
 9196TIP3    H251784   6.750   0.737  11.976
 9197TIP3   OH251785   7.068   0.875  12.386
 9197TIP3    H151786   7.006   0.924  12.444
 9197TIP3    H251787   7.143   0.862  12.448
 9198TIP3   OH251788   6.200   0.982  12.572
 9198TIP3    H151789   6.193   0.921  12.497
 9198TIP3    H251790   6.263   0.934  12.631
 9199TIP3   OH251791   6.369   1.347  12.844
 9199TIP3    H151792   6.356   1.295  12.764
 9199TIP3    H251793   6.441   1.300  12.891
 9200TIP3   OH251794   6.942   0.865  12.147
 9200TIP3    H151795   6.996   0.855  12.231
 9200TIP3    H251796   7.008   0.905  12.085
 9201TIP3   OH251797   6.685   1.562  12.524
 9201TIP3    H151798   6.781   1.565  12.542
 9201TIP3    H251799   6.680   1.592  12.432
 9202TIP3   OH251800   7.310   0.091  12.154
 9202TIP3    H151801   7.219   0.096  12.116
 9202TIP3    H251802   7.359   0.151  12.095
 9203TIP3   OH251803   6.149   0.867  12.302
 9203TIP3    H151804   6.110   0.957  12.299
 9203TIP3    H251805   6.081   0.812  12.261
 9204TIP3   OH251806   7.442   1.483  11.984
 9204TIP3    H151807   7.478   1.570  12.012
 9204TIP3    H251808   7.524   1.431  11.986
 9205TIP3   OH251809   6.699   1.788  12.348
 9205TIP3    H151810   6.698   1.795  12.251
 9205TIP3    H251811   6.683   1.880  12.375
 9206TIP3   OH251812   6.050   1.684  12.512
 9206TIP3    H151813   6.087   1.728  12.590
 9206TIP3    H251814   5.967   1.734  12.506
 9207TIP3   OH251815   6.985   1.730  12.032
 9207TIP3    H151816   7.037   1.655  11.995
 9207TIP3    H251817   6.988   1.713  12.129
 9208TIP3   OH251818   6.956   1.728  12.294
 9208TIP3    H151819   6.864   1.744  12.327
 9208TIP3    H251820   6.981   1.648  12.342
 9209TIP3   OH251821   7.112   0.983  11.992
 9209TIP3    H151822   7.100   0.970  11.895
 9209TIP3    H251823   7.209   0.991  11.997
 9210TIP3   OH251824   6.630   0.328  12.022
 9210TIP3    H151825   6.615   0.274  12.100
 9210TIP3    H251826   6.592   0.269  11.953
 9211TIP3   OH251827   6.262   0.626  12.525
 9211TIP3    H151828   6.167   0.601  12.517
 9211TIP3    H251829   6.297   0.610  12.434
 9212TIP3   OH251830   6.806   0.662  12.393
 9212TIP3    H151831   6.794   0.753  12.358
 9212TIP3    H251832   6.873   0.626  12.330
 9213TIP3   OH251833   6.854   0.672  12.699
 9213TIP3    H151834   6.865   0.714  12.612
 9213TIP3    H251835   6.898   0.586  12.684
 9214TIP3   OH251836   6.318   0.373  11.899
 9214TIP3    H151837   6.275   0.338  11.980
 9214TIP3    H251838   6.241   0.404  11.849
 9215TIP3   OH251839   5.709   0.382  12.618
 9215TIP3    H151840   5.797   0.368  12.651
 9215TIP3    H251841   5.724   0.372  12.522
 9216TIP3   OH251842   5.777   0.428  12.148
 9216TIP3    H151843   5.832   0.474  12.080
 9216TIP3    H251844   5.723   0.504  12.176
 9217TIP3   OH251845   6.003   0.546  12.511
 9217TIP3    H151846   5.920   0.590  12.481
 9217TIP3    H251847   6.006   0.465  12.456
 9218TIP3   OH251848   6.340   0.581  12.264
 9218TIP3    H151849   6.426   0.575  12.221
 9218TIP3    H251850   6.286   0.631  12.200
 9219TIP3   OH251851   6.212   0.691  12.018
 9219TIP3    H151852   6.173   0.637  11.948
 9219TIP3    H251853   6.295   0.718  11.973
 9220TIP3   OH251854   6.599   0.599  12.805
 9220TIP3    H151855   6.691   0.603  12.770
 9220TIP3    H251856   6.603   0.647  12.889
 9221TIP3   OH251857   6.096   0.282  12.440
 9221TIP3    H151858   6.018   0.236  12.479
 9221TIP3    H251859   6.149   0.205  12.412
 9222TIP3   OH251860   6.547   1.136  12.242
 9222TIP3    H151861   6.478   1.073  12.210
 9222TIP3    H251862   6.512   1.158  12.332
 9223TIP3   OH251863   6.881   0.376  12.073
 9223TIP3    H151864   6.784   0.370  12.051
 9223TIP3    H251865   6.898   0.472  12.075
 9224TIP3   OH251866   6.992   0.598  12.180
 9224TIP3    H151867   7.087   0.608  12.200
 9224TIP3    H251868   6.983   0.675  12.121
 9225TIP3   OH251869   6.758   1.254  12.143
 9225TIP3    H151870   6.718   1.344  12.158
 9225TIP3    H251871   6.681   1.197  12.162
 9226TIP3   OH251872   7.593   0.600  12.143
 9226TIP3    H151873   7.504   0.578  12.112
 9226TIP3    H251874   7.576   0.695  12.145
 9227TIP3   OH251875   7.307   1.483  12.225
 9227TIP3    H151876   7.253   1.405  12.239
 9227TIP3    H251877   7.353   1.467  12.140
 9228TIP3   OH251878   6.266   1.401  12.550
 9228TIP3    H151879   6.312   1.478  12.511
 9228TIP3    H251880   6.205   1.376  12.480
 9229TIP3   OH251881   5.923   0.924  12.006
 9229TIP3    H151882   5.965   0.971  12.081
 9229TIP3    H251883   5.827   0.925  12.023
 9230TIP3   OH251884   6.425   1.163  12.485
 9230TIP3    H151885   6.366   1.238  12.504
 9230TIP3    H251886   6.401   1.102  12.557
 9231TIP3   OH251887   6.331   1.649  12.432
 9231TIP3    H151888   6.233   1.655  12.439
 9231TIP3    H251889   6.360   1.730  12.480
 9232TIP3   OH251890   7.094   1.305  12.030
 9232TIP3    H151891   7.097   1.254  12.114
 9232TIP3    H251892   7.009   1.274  11.994
 9233TIP3   OH251893   7.511   1.735  12.042
 9233TIP3    H151894   7.561   1.794  11.984
 9233TIP3    H251895   7.424   1.779  12.039
 9234TIP3   OH251896   7.145   1.172  12.262
 9234TIP3    H151897   7.120   1.080  12.243
 9234TIP3    H251898   7.243   1.163  12.269
 9235TIP3   OH251899   6.482   1.420  11.868
 9235TIP3    H151900   6.458   1.371  11.788
 9235TIP3    H251901   6.419   1.384  11.933
 9236TIP3   OH251902   6.355   1.327  12.108
 9236TIP3    H151903   6.430   1.280  12.150
 9236TIP3    H251904   6.367   1.418  12.143
 9237TIP3   OH251905   6.027   1.095  12.185
 9237TIP3    H151906   5.938   1.126  12.215
 9237TIP3    H251907   6.050   1.165  12.121
 9238TIP3   OH251908   6.871   0.316  12.330
 9238TIP3    H151909   6.879   0.368  12.247
 9238TIP3    H251910   6.914   0.376  12.396
 9239TIP3   OH251911   6.661   1.506  12.172
 9239TIP3    H151912   6.571   1.538  12.192
 9239TIP3    H251913   6.706   1.590  12.152
 9240TIP3   OH251914   6.593   0.475  12.426
 9240TIP3    H151915   6.669   0.536  12.414
 9240TIP3    H251916   6.526   0.535  12.460
 9241TIP3   OH251917   6.672   0.196  12.473
 9241TIP3    H151918   6.644   0.289  12.464
 9241TIP3    H251919   6.765   0.208  12.446
 9242TIP3   OH251920   6.391   1.579  12.179
 9242TIP3    H151921   6.388   1.661  12.123
 9242TIP3    H251922   6.380   1.618  12.269
 9243TIP3   OH251923   6.215   0.307  12.136
 9243TIP3    H151924   6.194   0.379  12.198
 9243TIP3    H251925   6.306   0.288  12.168
 9244TIP3   OH251926   7.116   0.775  12.753
 9244TIP3    H151927   7.023   0.760  12.777
 9244TIP3    H251928   7.159   0.697  12.795
 9245TIP3   OH251929   6.067   1.334  12.025
 9245TIP3    H151930   6.139   1.358  12.086
 9245TIP3    H251931   6.119   1.294  11.954
 9246TIP3   OH251932   5.871   0.633  11.984
 9246TIP3    H151933   5.907   0.721  12.009
 9246TIP3    H251934   5.822   0.655  11.903
 9247TIP3   OH251935   6.006   0.006  12.824
 9247TIP3    H151936   5.987   0.094  12.787
 9247TIP3    H251937   5.970  -0.053  12.755
 9248TIP3   OH251938   5.833   1.440  12.374
 9248TIP3    H151939   5.781   1.509  12.418
 9248TIP3    H251940   5.921   1.478  12.376
 9249TIP3   OH251941   6.679   1.624  11.865
 9249TIP3    H151942   6.632   1.538  11.872
 9249TIP3    H251943   6.761   1.594  11.819
 9250TIP3   OH251944   7.131   1.544  11.880
 9250TIP3    H151945   7.161   1.482  11.949
 9250TIP3    H251946   7.211   1.554  11.825
 9251TIP3   OH251947   6.219   1.137  11.859
 9251TIP3    H151948   6.248   1.110  11.948
 9251TIP3    H251949   6.304   1.128  11.810
 9252TIP3   OH251950   6.777   1.289  11.834
 9252TIP3    H151951   6.746   1.272  11.925
 9252TIP3    H251952   6.775   1.196  11.800
 9253TIP3   OH251953   6.351   0.967  12.126
 9253TIP3    H151954   6.280   0.920  12.174
 9253TIP3    H251955   6.388   0.895  12.073
 9254TIP3   OH251956   6.472   0.775  11.923
 9254TIP3    H151957   6.448   0.798  11.831
 9254TIP3    H251958   6.565   0.809  11.925
 9255TIP3   OH251959   7.377   0.998  11.887
 9255TIP3    H151960   7.343   0.970  11.799
 9255TIP3    H251961   7.361   1.096  11.885
 9256TIP3   OH251962   6.422   1.816  12.061
 9256TIP3    H151963   6.514   1.812  12.089
 9256TIP3    H251964   6.430   1.883  11.990
 9257TIP3   OH251965   5.788   1.296  11.977
 9257TIP3    H151966   5.886   1.301  11.984
 9257TIP3    H251967   5.774   1.233  11.902
 9258TIP3   OH251968   7.402   1.104  12.271
 9258TIP3    H151969   7.498   1.109  12.260
 9258TIP3    H251970   7.397   1.055  12.356
 9259TIP3   OH251971   7.462   0.953  12.487
 9259TIP3    H151972   7.381   0.896  12.487
 9259TIP3    H251973   7.523   0.887  12.522
 9260TIP3   OH251974   7.540   0.897  12.085
 9260TIP3    H151975   7.478   0.915  12.011
 9260TIP3    H251976   7.492   0.934  12.161
 9261TIP3   OH251977   7.401   0.616  11.889
 9261TIP3    H151978   7.342   0.670  11.944
 9261TIP3    H251979   7.339   0.557  11.845
 9262TIP3   OH251980   7.263   0.784  12.544
 9262TIP3    H151981   7.232   0.702  12.499
 9262TIP3    H251982   7.210   0.778  12.626
 9263TIP3   OH251983   5.762   0.825  12.970
 9263TIP3    H151984   5.743   0.814  12.876
 9263TIP3    H251985   5.859   0.807  12.978
 9264TIP3   OH251986   7.260   0.365  11.838
 9264TIP3    H151987   7.277   0.357  11.932
 9264TIP3    H251988   7.163   0.350  11.836
 9265TIP3   OH251989   7.203   0.531  12.421
 9265TIP3    H151990   7.222   0.438  12.395
 9265TIP3    H251991   7.243   0.578  12.344
 9266TIP3   OH251992   7.254   0.576  12.869
 9266TIP3    H151993   7.344   0.607  12.891
 9266TIP3    H251994   7.236   0.517  12.943
 9267TIP3   OH251995   7.255   0.267  12.355
 9267TIP3    H151996   7.305   0.234  12.433
 9267TIP3    H251997   7.266   0.194  12.289
 9268TIP3   OH251998   7.475   0.271  12.031
 9268TIP3    H151999   7.529   0.219  11.970
 9268TIP3    H252000   7.486   0.360  11.994
 9269TIP3   OH252001   5.733   0.263  12.358
 9269TIP3    H152002   5.637   0.251  12.345
 9269TIP3    H252003   5.756   0.312  12.277
 9270TIP3   OH252004   7.170   1.720  12.537
 9270TIP3    H152005   7.239   1.713  12.467
 9270TIP3    H252006   7.184   1.810  12.569
 9271TIP3   OH252007   7.200   0.145  12.748
 9271TIP3    H152008   7.273   0.131  12.684
 9271TIP3    H252009   7.124   0.103  12.703
 9272TIP3   OH252010   7.395   0.157  12.571
 9272TIP3    H152011   7.450   0.078  12.552
 9272TIP3    H252012   7.464   0.227  12.579
 9273TIP3   OH252013   5.932   0.108  12.549
 9273TIP3    H152014   5.853   0.096  12.493
 9273TIP3    H252015   5.955   0.015  12.572
 9274TIP3   OH252016   5.857   0.095  12.167
 9274TIP3    H152017   5.882   0.139  12.083
 9274TIP3    H252018   5.771   0.133  12.188
 9275TIP3   OH252019   6.413   0.097  12.553
 9275TIP3    H152020   6.501   0.134  12.570
 9275TIP3    H252021   6.399   0.044  12.634
 9276TIP3   OH252022   6.956   0.045  12.675
 9276TIP3    H152023   6.903   0.032  12.596
 9276TIP3    H252024   6.964  -0.047  12.705
 9277TIP3   OH252025   7.047   0.135  12.193
 9277TIP3    H152026   7.005   0.221  12.212
 9277TIP3    H252027   7.078   0.109  12.282
 9278TIP3   OH252028   5.963   0.230  11.965
 9278TIP3    H152029   6.021   0.174  11.909
 9278TIP3    H252030   6.024   0.255  12.037
 9279TIP3   OH252031   6.486   0.264  12.265
 9279TIP3    H152032   6.520   0.220  12.345
 9279TIP3    H252033   6.534   0.348  12.272
 9280TIP3   OH252034   6.722   1.773  12.078
 9280TIP3    H152035   6.816   1.780  12.048
 9280TIP3    H252036   6.689   1.724  11.999
 9281TIP3   OH252037   7.354   1.720  12.332
 9281TIP3    H152038   7.343   1.632  12.289
 9281TIP3    H252039   7.370   1.775  12.253
 9282TIP3   OH252040   7.570   0.678  12.462
 9282TIP3    H152041   7.557   0.731  12.382
 9282TIP3    H252042   7.492   0.621  12.454
 9283TIP3   OH252043   7.560   0.373  12.618
 9283TIP3    H152044   7.655   0.374  12.641
 9283TIP3    H252045   7.569   0.358  12.521
 9284TIP3   OH252046   7.485   1.842  12.530
 9284TIP3    H152047   7.446   1.802  12.449
 9284TIP3    H252048   7.488   1.762  12.588
 9285TIP3   OH252049   7.558   1.628  12.673
 9285TIP3    H152050   7.569   1.534  12.656
 9285TIP3    H252051   7.651   1.655  12.666
 9286TIP3   OH252052   7.514   0.684  12.903
 9286TIP3    H152053   7.562   0.616  12.853
 9286TIP3    H252054   7.560   0.684  12.989
 9287TIP3   OH252055   7.536   0.279  12.365
 9287TIP3    H152056   7.447   0.273  12.329
 9287TIP3    H252057   7.587   0.288  12.284
 9288TIP3   OH252058   1.163   2.876  12.561
 9288TIP3    H152059   1.199   2.964  12.577
 9288TIP3    H252060   1.141   2.884  12.465
 9289TIP3   OH252061   1.098   2.749  12.881
 9289TIP3    H152062   1.097   2.750  12.978
 9289TIP3    H252063   1.195   2.746  12.868
 9290TIP3   OH252064   1.451   3.010  12.727
 9290TIP3    H152065   1.421   2.964  12.808
 9290TIP3    H252066   1.435   3.100  12.755
 9291TIP3   OH252067   0.132   2.480  12.337
 9291TIP3    H152068   0.183   2.559  12.360
 9291TIP3    H252069   0.048   2.491  12.386
 9292TIP3   OH252070   0.155   2.808  12.698
 9292TIP3    H152071   0.181   2.719  12.731
 9292TIP3    H252072   0.209   2.814  12.618
 9293TIP3   OH252073   1.147   3.561  12.740
 9293TIP3    H152074   1.236   3.530  12.711
 9293TIP3    H252075   1.163   3.608  12.823
 9294TIP3   OH252076   0.903   3.032  12.925
 9294TIP3    H152077   0.911   2.949  12.876
 9294TIP3    H252078   0.982   3.022  12.982
 9295TIP3   OH252079   1.290   2.290  12.526
 9295TIP3    H152080   1.357   2.229  12.558
 9295TIP3    H252081   1.328   2.376  12.553
 9296TIP3   OH252082   0.280   2.563  12.722
 9296TIP3    H152083   0.214   2.525  12.785
 9296TIP3    H252084   0.304   2.491  12.660
 9297TIP3   OH252085   0.761   2.686  12.696
 9297TIP3    H152086   0.753   2.614  12.763
 9297TIP3    H252087   0.708   2.643  12.625
 9298TIP3   OH252088   1.143   3.128  12.416
 9298TIP3    H152089   1.123   3.127  12.321
 9298TIP3    H252090   1.112   3.219  12.438
 9299TIP3   OH252091   0.099   3.107  12.258
 9299TIP3    H152092   0.104   3.159  12.174
 9299TIP3    H252093   0.130   3.170  12.325
 9300TIP3   OH252094   0.813   1.932  12.816
 9300TIP3    H152095   0.779   1.841  12.809
 9300TIP3    H252096   0.731   1.979  12.844
 9301TIP3   OH252097   1.345   3.445  12.598
 9301TIP3    H152098   1.365   3.360  12.553
 9301TIP3    H252099   1.427   3.495  12.580
 9302TIP3   OH252100   1.461   3.240  12.476
 9302TIP3    H152101   1.407   3.202  12.404
 9302TIP3    H252102   1.460   3.166  12.539
 9303TIP3   OH252103   1.078   2.831  12.299
 9303TIP3    H152104   1.025   2.913  12.291
 9303TIP3    H252105   1.143   2.841  12.227
 9304TIP3   OH252106   1.076   2.694  11.969
 9304TIP3    H152107   1.128   2.738  12.038
 9304TIP3    H252108   1.109   2.603  11.975
 9305TIP3   OH252109   1.429   2.812  12.390
 9305TIP3    H152110   1.373   2.808  12.470
 9305TIP3    H252111   1.512   2.773  12.429
 9306TIP3   OH252112   0.716   3.232  12.824
 9306TIP3    H152113   0.742   3.232  12.731
 9306TIP3    H252114   0.785   3.175  12.863
 9307TIP3   OH252115   1.291   2.772  12.156
 9307TIP3    H152116   1.347   2.787  12.236
 9307TIP3    H252117   1.344   2.816  12.085
 9308TIP3   OH252118   1.062   3.402  12.484
 9308TIP3    H152119   1.074   3.447  12.570
 9308TIP3    H252120   1.041   3.474  12.423
 9309TIP3   OH252121   1.666   1.871  12.183
 9309TIP3    H152122   1.581   1.874  12.234
 9309TIP3    H252123   1.633   1.906  12.100
 9310TIP3   OH252124   0.351   2.787  12.376
 9310TIP3    H152125   0.386   2.864  12.327
 9310TIP3    H252126   0.423   2.722  12.365
 9311TIP3   OH252127   1.796   3.332  12.004
 9311TIP3    H152128   1.821   3.426  12.014
 9311TIP3    H252129   1.884   3.290  12.017
 9312TIP3   OH252130   0.133   3.362  12.944
 9312TIP3    H152131   0.171   3.275  12.923
 9312TIP3    H252132   0.136   3.351  13.043
 9313TIP3   OH252133   1.027   3.671  12.335
 9313TIP3    H152134   1.022   3.688  12.239
 9313TIP3    H252135   1.024   3.763  12.369
 9314TIP3   OH252136   0.415   3.559  12.517
 9314TIP3    H152137   0.397   3.557  12.611
 9314TIP3    H252138   0.330   3.532  12.478
 9315TIP3   OH252139   1.343   3.613  12.023
 9315TIP3    H152140   1.397   3.542  11.979
 9315TIP3    H252141   1.347   3.590  12.118
 9316TIP3   OH252142   1.295   3.617  12.298
 9316TIP3    H152143   1.200   3.638  12.317
 9316TIP3    H252144   1.310   3.546  12.360
 9317TIP3   OH252145   0.571   2.039  12.936
 9317TIP3    H152146   0.481   2.015  12.907
 9317TIP3    H252147   0.547   2.111  12.997
 9318TIP3   OH252148   1.438   2.878  11.969
 9318TIP3    H152149   1.435   2.893  11.873
 9318TIP3    H252150   1.534   2.875  11.984
 9319TIP3   OH252151   1.009   2.205  11.985
 9319TIP3    H152152   0.982   2.177  12.075
 9319TIP3    H252153   0.939   2.159  11.933
 9320TIP3   OH252154   0.602   2.536  12.525
 9320TIP3    H152155   0.509   2.504  12.523
 9320TIP3    H252156   0.643   2.463  12.474
 9321TIP3   OH252157   1.143   2.611  12.433
 9321TIP3    H152158   1.120   2.692  12.381
 9321TIP3    H252159   1.201   2.569  12.368
 9322TIP3   OH252160   0.635   2.276  11.868
 9322TIP3    H152161   0.603   2.224  11.946
 9322TIP3    H252162   0.565   2.341  11.856
 9323TIP3   OH252163   0.111   2.236  12.614
 9323TIP3    H152164   0.205   2.222  12.633
 9323TIP3    H252165   0.109   2.232  12.517
 9324TIP3   OH252166   0.103   2.313  12.140
 9324TIP3    H152167   0.165   2.353  12.077
 9324TIP3    H252168   0.108   2.380  12.214
 9325TIP3   OH252169   0.875   2.270  12.599
 9325TIP3    H152170   0.781   2.246  12.594
 9325TIP3    H252171   0.914   2.212  12.668
 9326TIP3   OH252172   0.348   2.430  12.484
 9326TIP3    H152173   0.262   2.436  12.438
 9326TIP3    H252174   0.359   2.332  12.484
 9327TIP3   OH252175   0.754   2.543  12.227
 9327TIP3    H152176   0.777   2.458  12.270
 9327TIP3    H252177   0.658   2.535  12.226
 9328TIP3   OH252178   1.312   2.188  12.933
 9328TIP3    H152179   1.228   2.163  12.970
 9328TIP3    H252180   1.322   2.124  12.860
 9329TIP3   OH252181   0.543   2.590  12.013
 9329TIP3    H152182   0.515   2.505  11.979
 9329TIP3    H252183   0.639   2.589  11.997
 9330TIP3   OH252184   0.397   2.169  12.511
 9330TIP3    H152185   0.415   2.076  12.529
 9330TIP3    H252186   0.483   2.194  12.467
 9331TIP3   OH252187   0.884   3.015  12.261
 9331TIP3    H152188   0.813   2.969  12.212
 9331TIP3    H252189   0.837   3.038  12.345
 9332TIP3   OH252190   1.249   2.278  12.053
 9332TIP3    H152191   1.161   2.262  12.010
 9332TIP3    H252192   1.235   2.366  12.093
 9333TIP3   OH252193   1.304   2.509  12.200
 9333TIP3    H152194   1.393   2.507  12.238
 9333TIP3    H252195   1.313   2.579  12.132
 9334TIP3   OH252196   1.062   3.149  12.110
 9334TIP3    H152197   1.044   3.239  12.143
 9334TIP3    H252198   1.002   3.094  12.165
 9335TIP3   OH252199   1.603   3.386  12.207
 9335TIP3    H152200   1.575   3.322  12.274
 9335TIP3    H252201   1.666   3.333  12.154
 9336TIP3   OH252202   0.612   3.297  12.554
 9336TIP3    H152203   0.649   3.382  12.524
 9336TIP3    H252204   0.546   3.284  12.485
 9337TIP3   OH252205   0.250   2.772  12.022
 9337TIP3    H152206   0.323   2.822  12.066
 9337TIP3    H252207   0.175   2.788  12.081
 9338TIP3   OH252208   0.772   3.079  12.496
 9338TIP3    H152209   0.710   3.150  12.521
 9338TIP3    H252210   0.758   3.009  12.561
 9339TIP3   OH252211   0.660   3.540  12.409
 9339TIP3    H152212   0.564   3.554  12.428
 9339TIP3    H252213   0.695   3.610  12.465
 9340TIP3   OH252214   1.422   3.204  11.996
 9340TIP3    H152215   1.456   3.160  12.077
 9340TIP3    H252216   1.336   3.160  11.988
 9341TIP3   OH252217   1.849   3.602  12.051
 9341TIP3    H152218   1.909   3.670  12.018
 9341TIP3    H252219   1.772   3.657  12.076
 9342TIP3   OH252220   1.483   3.057  12.236
 9342TIP3    H152221   1.459   2.981  12.292
 9342TIP3    H252222   1.581   3.054  12.236
 9343TIP3   OH252223   0.821   3.310  11.871
 9343TIP3    H152224   0.810   3.258  11.790
 9343TIP3    H252225   0.762   3.262  11.931
 9344TIP3   OH252226   0.676   3.226  12.120
 9344TIP3    H152227   0.761   3.208  12.165
 9344TIP3    H252228   0.680   3.324  12.131
 9345TIP3   OH252229   0.365   2.996  12.169
 9345TIP3    H152230   0.274   3.017  12.200
 9345TIP3    H252231   0.386   3.073  12.112
 9346TIP3   OH252232   1.196   2.130  12.315
 9346TIP3    H152233   1.206   2.199  12.247
 9346TIP3    H252234   1.226   2.177  12.394
 9347TIP3   OH252235   0.995   3.413  12.179
 9347TIP3    H152236   0.903   3.446  12.179
 9347TIP3    H252237   1.043   3.492  12.149
 9348TIP3   OH252238   0.972   2.354  12.364
 9348TIP3    H152239   1.021   2.429  12.402
 9348TIP3    H252240   0.914   2.330  12.440
 9349TIP3   OH252241   0.962   2.062  12.456
 9349TIP3    H152242   0.929   2.149  12.485
 9349TIP3    H252243   1.041   2.088  12.405
 9350TIP3   OH252244   0.729   3.483  12.149
 9350TIP3    H152245   0.726   3.568  12.100
 9350TIP3    H252246   0.712   3.521  12.239
 9351TIP3   OH252247   0.565   2.157  12.102
 9351TIP3    H152248   0.568   2.221  12.176
 9351TIP3    H252249   0.654   2.118  12.118
 9352TIP3   OH252250   0.425   3.218  12.017
 9352TIP3    H152251   0.514   3.227  12.059
 9352TIP3    H252252   0.446   3.148  11.951
 9353TIP3   OH252253   0.243   2.484  11.969
 9353TIP3    H152254   0.278   2.569  11.999
 9353TIP3    H252255   0.175   2.508  11.904
 9354TIP3   OH252256   1.620   3.521  12.981
 9354TIP3    H152257   1.621   3.555  12.890
 9354TIP3    H252258   1.635   3.606  13.029
 9355TIP3   OH252259   0.308   1.983  12.873
 9355TIP3    H152260   0.295   1.990  12.776
 9355TIP3    H252261   0.305   1.885  12.879
 9356TIP3   OH252262   0.225   3.365  12.453
 9356TIP3    H152263   0.131   3.379  12.436
 9356TIP3    H252264   0.260   3.405  12.371
 9357TIP3   OH252265   1.028   3.506  11.867
 9357TIP3    H152266   0.972   3.426  11.879
 9357TIP3    H252267   1.107   3.467  11.822
 9358TIP3   OH252268   1.479   3.438  11.866
 9358TIP3    H152269   1.481   3.369  11.935
 9358TIP3    H252270   1.564   3.424  11.820
 9359TIP3   OH252271   0.556   3.022  11.879
 9359TIP3    H152272   0.574   2.978  11.964
 9359TIP3    H252273   0.645   3.020  11.838
 9360TIP3   OH252274   1.135   3.169  11.840
 9360TIP3    H152275   1.090   3.158  11.927
 9360TIP3    H252276   1.127   3.075  11.810
 9361TIP3   OH252277   0.695   2.849  12.123
 9361TIP3    H152278   0.677   2.785  12.193
 9361TIP3    H252279   0.733   2.786  12.057
 9362TIP3   OH252280   0.805   2.683  11.940
 9362TIP3    H152281   0.815   2.728  11.856
 9362TIP3    H252282   0.897   2.678  11.971
 9363TIP3   OH252283   1.728   2.892  11.876
 9363TIP3    H152284   1.708   2.867  11.783
 9363TIP3    H252285   1.726   2.991  11.868
 9364TIP3   OH252286   0.780   3.736  12.080
 9364TIP3    H152287   0.875   3.748  12.096
 9364TIP3    H252288   0.777   3.772  11.989
 9365TIP3   OH252289   0.158   3.233  12.025
 9365TIP3    H152290   0.256   3.241  12.022
 9365TIP3    H252291   0.144   3.177  11.946
 9366TIP3   OH252292   0.093   3.730  12.471
 9366TIP3    H152293  -0.003   3.747  12.467
 9366TIP3    H252294   0.102   3.684  12.556
 9367TIP3   OH252295   0.150   3.554  12.690
 9367TIP3    H152296   0.157   3.459  12.676
 9367TIP3    H252297   0.056   3.559  12.721
 9368TIP3   OH252298   1.765   3.010  12.228
 9368TIP3    H152299   1.846   3.059  12.251
 9368TIP3    H252300   1.765   2.939  12.294
 9369TIP3   OH252301   1.852   2.786  12.086
 9369TIP3    H152302   1.798   2.805  12.005
 9369TIP3    H252303   1.841   2.871  12.131
 9370TIP3   OH252304   0.090   2.133  12.329
 9370TIP3    H152305  -0.008   2.130  12.323
 9370TIP3    H252306   0.107   2.179  12.244
 9371TIP3   OH252307   1.551   3.619  12.568
 9371TIP3    H152308   1.595   3.609  12.481
 9371TIP3    H252309   1.586   3.704  12.600
 9372TIP3   OH252310   0.519   3.487  12.816
 9372TIP3    H152311   0.464   3.429  12.763
 9372TIP3    H252312   0.603   3.437  12.813
 9373TIP3   OH252313   1.034   2.127  12.771
 9373TIP3    H152314   0.978   2.067  12.823
 9373TIP3    H252315   1.065   2.067  12.701
 9374TIP3   OH252316   1.740   2.049  12.538
 9374TIP3    H152317   1.806   1.980  12.517
 9374TIP3    H252318   1.802   2.119  12.569
 9375TIP3   OH252319   0.270   1.924  12.612
 9375TIP3    H152320   0.225   1.949  12.529
 9375TIP3    H252321   0.328   1.853  12.584
 9376TIP3   OH252322   0.224   1.919  12.147
 9376TIP3    H152323   0.251   1.981  12.076
 9376TIP3    H252324   0.185   1.982  12.212
 9377TIP3   OH252325   0.728   1.970  12.551
 9377TIP3    H152326   0.793   2.014  12.491
 9377TIP3    H252327   0.786   1.955  12.627
 9378TIP3   OH252328   1.430   1.930  12.283
 9378TIP3    H152329   1.363   1.993  12.313
 9378TIP3    H252330   1.439   1.870  12.363
 9379TIP3   OH252331   0.192   3.570  12.239
 9379TIP3    H152332   0.097   3.565  12.222
 9379TIP3    H252333   0.200   3.667  12.232
 9380TIP3   OH252334   0.323   2.107  11.981
 9380TIP3    H152335   0.401   2.069  11.936
 9380TIP3    H252336   0.368   2.149  12.056
 9381TIP3   OH252337   0.871   2.134  12.194
 9381TIP3    H152338   0.885   2.085  12.277
 9381TIP3    H252339   0.842   2.221  12.231
 9382TIP3   OH252340   1.069   3.677  12.073
 9382TIP3    H152341   1.164   3.675  12.052
 9382TIP3    H252342   1.039   3.624  11.996
 9383TIP3   OH252343   1.715   3.582  12.345
 9383TIP3    H152344   1.676   3.511  12.290
 9383TIP3    H252345   1.716   3.657  12.281
 9384TIP3   OH252346   0.316   3.613  11.928
 9384TIP3    H152347   0.302   3.659  12.013
 9384TIP3    H252348   0.382   3.547  11.955
 9385TIP3   OH252349   3.097   2.879  12.512
 9385TIP3    H152350   3.075   2.972  12.487
 9385TIP3    H252351   3.010   2.838  12.515
 9386TIP3   OH252352   1.979   2.553  12.452
 9386TIP3    H152353   1.962   2.647  12.454
 9386TIP3    H252354   1.915   2.525  12.523
 9387TIP3   OH252355   3.050   3.663  12.756
 9387TIP3    H152356   3.101   3.603  12.698
 9387TIP3    H252357   3.049   3.615  12.838
 9388TIP3   OH252358   3.196   2.300  12.542
 9388TIP3    H152359   3.268   2.258  12.589
 9388TIP3    H252360   3.246   2.371  12.496
 9389TIP3   OH252361   2.093   2.528  12.752
 9389TIP3    H152362   2.146   2.476  12.814
 9389TIP3    H252363   2.135   2.502  12.668
 9390TIP3   OH252364   2.562   2.666  12.704
 9390TIP3    H152365   2.650   2.626  12.703
 9390TIP3    H252366   2.514   2.605  12.642
 9391TIP3   OH252367   3.028   3.118  12.414
 9391TIP3    H152368   2.996   3.109  12.322
 9391TIP3    H252369   3.000   3.211  12.434
 9392TIP3   OH252370   2.022   3.097  12.275
 9392TIP3    H152371   2.023   3.150  12.191
 9392TIP3    H252372   2.046   3.167  12.340
 9393TIP3   OH252373   3.179   3.465  12.609
 9393TIP3    H152374   3.214   3.386  12.564
 9393TIP3    H252375   3.239   3.533  12.575
 9394TIP3   OH252376   3.319   3.215  12.464
 9394TIP3    H152377   3.294   3.178  12.377
 9394TIP3    H252378   3.367   3.138  12.498
 9395TIP3   OH252379   2.953   2.786  12.267
 9395TIP3    H152380   2.904   2.870  12.266
 9395TIP3    H252381   3.044   2.813  12.240
 9396TIP3   OH252382   2.945   2.681  11.969
 9396TIP3    H152383   2.977   2.718  12.053
 9396TIP3    H252384   2.997   2.598  11.967
 9397TIP3   OH252385   3.340   2.810  12.403
 9397TIP3    H152386   3.257   2.818  12.456
 9397TIP3    H252387   3.401   2.762  12.463
 9398TIP3   OH252388   2.448   2.885  12.575
 9398TIP3    H152389   2.402   2.825  12.514
 9398TIP3    H252390   2.473   2.825  12.648
 9399TIP3   OH252391   2.627   3.243  12.853
 9399TIP3    H152392   2.616   3.180  12.781
 9399TIP3    H252393   2.656   3.183  12.924
 9400TIP3   OH252394   2.464   2.802  12.914
 9400TIP3    H152395   2.492   2.737  12.847
 9400TIP3    H252396   2.548   2.826  12.955
 9401TIP3   OH252397   3.203   2.765  12.161
 9401TIP3    H152398   3.265   2.755  12.235
 9401TIP3    H252399   3.264   2.803  12.093
 9402TIP3   OH252400   2.948   3.373  12.466
 9402TIP3    H152401   2.997   3.434  12.524
 9402TIP3    H252402   2.880   3.430  12.429
 9403TIP3   OH252403   2.289   2.756  12.343
 9403TIP3    H152404   2.287   2.838  12.292
 9403TIP3    H252405   2.313   2.690  12.276
 9404TIP3   OH252406   3.680   3.319  11.996
 9404TIP3    H152407   3.720   3.407  12.003
 9404TIP3    H252408   3.760   3.262  12.000
 9405TIP3   OH252409   2.888   3.688  12.344
 9405TIP3    H152410   2.908   3.695  12.249
 9405TIP3    H252411   2.899   3.782  12.374
 9406TIP3   OH252412   2.281   3.580  12.507
 9406TIP3    H152413   2.299   3.553  12.599
 9406TIP3    H252414   2.189   3.552  12.494
 9407TIP3   OH252415   3.361   2.878  11.976
 9407TIP3    H152416   3.339   2.879  11.881
 9407TIP3    H252417   3.458   2.879  11.972
 9408TIP3   OH252418   2.892   2.227  11.954
 9408TIP3    H152419   2.888   2.205  12.048
 9408TIP3    H252420   2.823   2.162  11.924
 9409TIP3   OH252421   2.456   2.486  12.540
 9409TIP3    H152422   2.374   2.433  12.538
 9409TIP3    H252423   2.501   2.460  12.458
 9410TIP3   OH252424   3.026   2.579  12.420
 9410TIP3    H152425   2.997   2.663  12.377
 9410TIP3    H252426   3.083   2.549  12.345
 9411TIP3   OH252427   3.092   2.536  12.694
 9411TIP3    H152428   3.060   2.588  12.618
 9411TIP3    H252429   3.116   2.453  12.650
 9412TIP3   OH252430   2.537   2.250  11.882
 9412TIP3    H152431   2.492   2.215  11.962
 9412TIP3    H252432   2.488   2.331  11.863
 9413TIP3   OH252433   1.929   2.234  12.603
 9413TIP3    H152434   1.900   2.322  12.633
 9413TIP3    H252435   2.017   2.230  12.644
 9414TIP3   OH252436   2.752   2.297  12.645
 9414TIP3    H152437   2.683   2.242  12.606
 9414TIP3    H252438   2.812   2.233  12.688
 9415TIP3   OH252439   2.175   2.392  12.531
 9415TIP3    H152440   2.118   2.447  12.472
 9415TIP3    H252441   2.200   2.314  12.476
 9416TIP3   OH252442   2.539   2.439  12.277
 9416TIP3    H152443   2.632   2.437  12.252
 9416TIP3    H252444   2.502   2.508  12.219
 9417TIP3   OH252445   2.446   2.570  12.029
 9417TIP3    H152446   2.409   2.530  11.948
 9417TIP3    H252447   2.532   2.599  11.990
 9418TIP3   OH252448   2.304   2.164  12.447
 9418TIP3    H152449   2.254   2.096  12.497
 9418TIP3    H252450   2.370   2.110  12.403
 9419TIP3   OH252451   2.790   3.004  12.261
 9419TIP3    H152452   2.716   2.961  12.215
 9419TIP3    H252453   2.745   3.032  12.344
 9420TIP3   OH252454   3.152   2.275  12.034
 9420TIP3    H152455   3.063   2.315  12.033
 9420TIP3    H252456   3.205   2.352  12.063
 9421TIP3   OH252457   3.150   2.496  12.201
 9421TIP3    H152458   3.238   2.463  12.227
 9421TIP3    H252459   3.181   2.564  12.138
 9422TIP3   OH252460   2.971   3.152  12.110
 9422TIP3    H152461   2.933   3.237  12.141
 9422TIP3    H252462   2.909   3.090  12.153
 9423TIP3   OH252463   3.720   2.464  12.199
 9423TIP3    H152464   3.643   2.464  12.140
 9423TIP3    H252465   3.735   2.559  12.211
 9424TIP3   OH252466   3.524   3.392  12.206
 9424TIP3    H152467   3.482   3.321  12.257
 9424TIP3    H252468   3.580   3.343  12.142
 9425TIP3   OH252469   3.269   2.813  12.913
 9425TIP3    H152470   3.214   2.766  12.979
 9425TIP3    H252471   3.284   2.741  12.850
 9426TIP3   OH252472   2.509   3.287  12.569
 9426TIP3    H152473   2.566   3.366  12.566
 9426TIP3    H252474   2.451   3.301  12.493
 9427TIP3   OH252475   2.117   2.793  12.025
 9427TIP3    H152476   2.159   2.862  12.080
 9427TIP3    H252477   2.022   2.798  12.048
 9428TIP3   OH252478   2.650   3.061  12.481
 9428TIP3    H152479   2.604   3.139  12.517
 9428TIP3    H252480   2.605   2.990  12.530
 9429TIP3   OH252481   2.544   3.540  12.433
 9429TIP3    H152482   2.449   3.556  12.445
 9429TIP3    H252483   2.578   3.619  12.481
 9430TIP3   OH252484   3.310   3.183  12.030
 9430TIP3    H152485   3.324   3.133  12.114
 9430TIP3    H252486   3.219   3.155  12.012
 9431TIP3   OH252487   3.737   3.603  12.032
 9431TIP3    H152488   3.813   3.663  12.028
 9431TIP3    H252489   3.667   3.662  12.000
 9432TIP3   OH252490   3.382   3.032  12.252
 9432TIP3    H152491   3.364   2.945  12.293
 9432TIP3    H252492   3.480   3.029  12.247
 9433TIP3   OH252493   2.698   3.325  11.873
 9433TIP3    H152494   2.692   3.272  11.792
 9433TIP3    H252495   2.645   3.269  11.933
 9434TIP3   OH252496   2.577   3.228  12.115
 9434TIP3    H152497   2.645   3.194  12.175
 9434TIP3    H252498   2.590   3.325  12.133
 9435TIP3   OH252499   2.247   2.977  12.174
 9435TIP3    H152500   2.167   3.008  12.222
 9435TIP3    H252501   2.281   3.059  12.134
 9436TIP3   OH252502   3.086   2.192  12.294
 9436TIP3    H152503   3.134   2.214  12.211
 9436TIP3    H252504   3.130   2.246  12.361
 9437TIP3   OH252505   2.861   3.392  12.178
 9437TIP3    H152506   2.778   3.442  12.193
 9437TIP3    H252507   2.923   3.462  12.158
 9438TIP3   OH252508   2.832   2.355  12.387
 9438TIP3    H152509   2.895   2.430  12.385
 9438TIP3    H252510   2.803   2.354  12.480
 9439TIP3   OH252511   2.920   2.058  12.451
 9439TIP3    H152512   2.874   2.142  12.442
 9439TIP3    H252513   3.001   2.084  12.402
 9440TIP3   OH252514   2.604   3.486  12.176
 9440TIP3    H152515   2.607   3.570  12.125
 9440TIP3    H252516   2.586   3.521  12.267
 9441TIP3   OH252517   2.472   2.184  12.143
 9441TIP3    H152518   2.471   2.267  12.195
 9441TIP3    H252519   2.564   2.154  12.156
 9442TIP3   OH252520   3.346   2.593  12.759
 9442TIP3    H152521   3.247   2.594  12.758
 9442TIP3    H252522   3.358   2.546  12.843
 9443TIP3   OH252523   2.289   3.220  12.027
 9443TIP3    H152524   2.370   3.254  12.071
 9443TIP3    H252525   2.328   3.178  11.948
 9444TIP3   OH252526   2.094   2.498  11.945
 9444TIP3    H152527   2.148   2.556  12.000
 9444TIP3    H252528   2.046   2.564  11.893
 9445TIP3   OH252529   2.073   3.329  12.412
 9445TIP3    H152530   1.998   3.383  12.439
 9445TIP3    H252531   2.118   3.395  12.356
 9446TIP3   OH252532   2.924   3.503  11.874
 9446TIP3    H152533   2.859   3.431  11.894
 9446TIP3    H252534   2.984   3.456  11.813
 9447TIP3   OH252535   3.376   3.441  11.875
 9447TIP3    H152536   3.382   3.377  11.948
 9447TIP3    H252537   3.453   3.416  11.820
 9448TIP3   OH252538   2.443   3.037  11.858
 9448TIP3    H152539   2.477   3.025  11.949
 9448TIP3    H252540   2.521   3.009  11.806
 9449TIP3   OH252541   2.999   3.164  11.816
 9449TIP3    H152542   2.975   3.149  11.909
 9449TIP3    H252543   3.012   3.070  11.791
 9450TIP3   OH252544   2.586   2.855  12.125
 9450TIP3    H152545   2.511   2.812  12.168
 9450TIP3    H252546   2.613   2.788  12.060
 9451TIP3   OH252547   2.673   2.675  11.904
 9451TIP3    H152548   2.678   2.717  11.816
 9451TIP3    H252549   2.769   2.673  11.926
 9452TIP3   OH252550   3.619   2.899  11.877
 9452TIP3    H152551   3.598   2.858  11.789
 9452TIP3    H252552   3.594   2.993  11.861
 9453TIP3   OH252553   2.676   3.727  12.081
 9453TIP3    H152554   2.771   3.739  12.095
 9453TIP3    H252555   2.660   3.787  12.005
 9454TIP3   OH252556   2.021   3.190  12.010
 9454TIP3    H152557   2.118   3.197  12.008
 9454TIP3    H252558   2.002   3.138  11.929
 9455TIP3   OH252559   1.840   3.740  12.509
 9455TIP3    H152560   1.801   3.667  12.457
 9455TIP3    H252561   1.896   3.695  12.574
 9456TIP3   OH252562   1.995   3.542  12.677
 9456TIP3    H152563   1.924   3.477  12.684
 9456TIP3    H252564   2.016   3.565  12.769
 9457TIP3   OH252565   3.650   3.000  12.275
 9457TIP3    H152566   3.743   3.033  12.277
 9457TIP3    H252567   3.647   2.943  12.355
 9458TIP3   OH252568   3.693   2.812  12.489
 9458TIP3    H152569   3.621   2.752  12.519
 9458TIP3    H252570   3.771   2.781  12.540
 9459TIP3   OH252571   3.762   2.792  12.096
 9459TIP3    H152572   3.709   2.826  12.021
 9459TIP3    H252573   3.716   2.833  12.171
 9460TIP3   OH252574   3.661   2.506  11.877
 9460TIP3    H152575   3.639   2.592  11.914
 9460TIP3    H252576   3.580   2.462  11.909
 9461TIP3   OH252577   3.498   2.641  12.547
 9461TIP3    H152578   3.478   2.558  12.500
 9461TIP3    H252579   3.452   2.623  12.632
 9462TIP3   OH252580   3.505   2.199  11.865
 9462TIP3    H152581   3.489   2.256  11.944
 9462TIP3    H252582   3.417   2.200  11.826
 9463TIP3   OH252583   3.431   2.398  12.414
 9463TIP3    H152584   3.469   2.308  12.418
 9463TIP3    H252585   3.470   2.425  12.328
 9464TIP3   OH252586   3.538   2.119  12.411
 9464TIP3    H152587   3.557   2.049  12.475
 9464TIP3    H252588   3.474   2.073  12.353
 9465TIP3   OH252589   3.740   2.144  12.020
 9465TIP3    H152590   3.730   2.064  11.966
 9465TIP3    H252591   3.681   2.203  11.973
 9466TIP3   OH252592   2.149   3.601  12.913
 9466TIP3    H152593   2.178   3.536  12.980
 9466TIP3    H252594   2.210   3.577  12.839
 9467TIP3   OH252595   2.338   3.493  12.761
 9467TIP3    H152596   2.377   3.406  12.741
 9467TIP3    H252597   2.420   3.538  12.794
 9468TIP3   OH252598   2.585   3.534  12.848
 9468TIP3    H152599   2.600   3.437  12.860
 9468TIP3    H252600   2.590   3.564  12.940
 9469TIP3   OH252601   2.900   2.114  12.785
 9469TIP3    H152602   2.918   2.031  12.832
 9469TIP3    H252603   2.978   2.121  12.728
 9470TIP3   OH252604   2.186   1.948  12.544
 9470TIP3    H152605   2.099   1.923  12.509
 9470TIP3    H252606   2.224   1.860  12.557
 9471TIP3   OH252607   2.068   1.899  12.125
 9471TIP3    H152608   2.097   1.959  12.054
 9471TIP3    H252609   2.005   1.952  12.174
 9472TIP3   OH252610   2.618   1.913  12.554
 9472TIP3    H152611   2.702   1.875  12.524
 9472TIP3    H252612   2.626   1.907  12.649
 9473TIP3   OH252613   3.174   1.942  12.711
 9473TIP3    H152614   3.190   1.998  12.634
 9473TIP3    H252615   3.179   1.852  12.675
 9474TIP3   OH252616   3.346   1.943  12.307
 9474TIP3    H152617   3.308   1.972  12.224
 9474TIP3    H252618   3.294   1.864  12.331
 9475TIP3   OH252619   2.062   3.543  12.239
 9475TIP3    H152620   1.967   3.548  12.220
 9475TIP3    H252621   2.091   3.621  12.189
 9476TIP3   OH252622   2.249   2.161  11.995
 9476TIP3    H152623   2.276   2.082  11.946
 9476TIP3    H252624   2.320   2.167  12.062
 9477TIP3   OH252625   2.758   2.162  12.202
 9477TIP3    H152626   2.798   2.096  12.259
 9477TIP3    H252627   2.769   2.242  12.258
 9478TIP3   OH252628   2.957   3.668  12.084
 9478TIP3    H152629   3.018   3.713  12.025
 9478TIP3    H252630   2.920   3.608  12.015
 9479TIP3   OH252631   2.159   3.612  11.918
 9479TIP3    H152632   2.144   3.659  12.003
 9479TIP3    H252633   2.243   3.567  11.936
 9480TIP3   OH252634   5.004   2.871  12.548
 9480TIP3    H152635   4.978   2.964  12.561
 9480TIP3    H252636   4.945   2.850  12.472
 9481TIP3   OH252637   5.208   3.149  12.740
 9481TIP3    H152638   5.181   3.074  12.794
 9481TIP3    H252639   5.279   3.182  12.801
 9482TIP3   OH252640   4.261   3.204  12.903
 9482TIP3    H152641   4.176   3.170  12.874
 9482TIP3    H252642   4.324   3.166  12.839
 9483TIP3   OH252643   3.928   2.759  12.678
 9483TIP3    H152644   4.014   2.717  12.692
 9483TIP3    H252645   3.955   2.850  12.657
 9484TIP3   OH252646   4.933   3.583  12.754
 9484TIP3    H152647   5.005   3.548  12.698
 9484TIP3    H252648   4.953   3.534  12.837
 9485TIP3   OH252649   5.097   2.332  12.512
 9485TIP3    H152650   5.144   2.285  12.585
 9485TIP3    H252651   5.171   2.368  12.461
 9486TIP3   OH252652   4.431   2.700  12.693
 9486TIP3    H152653   4.509   2.645  12.688
 9486TIP3    H252654   4.364   2.640  12.651
 9487TIP3   OH252655   4.916   3.121  12.451
 9487TIP3    H152656   4.857   3.119  12.375
 9487TIP3    H252657   4.906   3.216  12.474
 9488TIP3   OH252658   5.242   2.254  12.726
 9488TIP3    H152659   5.217   2.168  12.765
 9488TIP3    H252660   5.293   2.293  12.799
 9489TIP3   OH252661   3.915   3.086  12.257
 9489TIP3    H152662   3.907   3.140  12.176
 9489TIP3    H252663   3.933   3.155  12.324
 9490TIP3   OH252664   5.098   3.496  12.568
 9490TIP3    H152665   5.135   3.406  12.552
 9490TIP3    H252666   5.174   3.552  12.542
 9491TIP3   OH252667   5.195   3.249  12.476
 9491TIP3    H152668   5.196   3.168  12.425
 9491TIP3    H252669   5.189   3.209  12.566
 9492TIP3   OH252670   4.859   2.837  12.330
 9492TIP3    H152671   4.806   2.917  12.312
 9492TIP3    H252672   4.920   2.831  12.254
 9493TIP3   OH252673   4.844   2.674  11.976
 9493TIP3    H152674   4.893   2.725  12.043
 9493TIP3    H252675   4.903   2.596  11.966
 9494TIP3   OH252676   5.206   2.778  12.390
 9494TIP3    H152677   5.139   2.813  12.453
 9494TIP3    H252678   5.271   2.737  12.452
 9495TIP3   OH252679   4.263   2.871  12.559
 9495TIP3    H152680   4.319   2.852  12.482
 9495TIP3    H252681   4.313   2.824  12.629
 9496TIP3   OH252682   5.052   2.763  12.157
 9496TIP3    H152683   5.111   2.773  12.235
 9496TIP3    H252684   5.109   2.801  12.085
 9497TIP3   OH252685   4.851   3.381  12.469
 9497TIP3    H152686   4.905   3.419  12.540
 9497TIP3    H252687   4.786   3.450  12.457
 9498TIP3   OH252688   4.262   2.777  12.285
 9498TIP3    H152689   4.211   2.856  12.255
 9498TIP3    H252690   4.204   2.737  12.352
 9499TIP3   OH252691   5.552   3.358  11.955
 9499TIP3    H152692   5.587   3.445  11.982
 9499TIP3    H252693   5.629   3.303  11.982
 9500TIP3   OH252694   4.840   3.709  12.336
 9500TIP3    H152695   4.816   3.708  12.242
 9500TIP3    H252696   4.813   3.800  12.361
 9501TIP3   OH252697   4.162   3.573  12.528
 9501TIP3    H152698   4.187   3.591  12.620
 9501TIP3    H252699   4.070   3.546  12.543
 9502TIP3   OH252700   5.112   3.629  12.018
 9502TIP3    H152701   5.150   3.543  11.992
 9502TIP3    H252702   5.110   3.619  12.116
 9503TIP3   OH252703   5.070   3.586  12.289
 9503TIP3    H152704   4.982   3.621  12.315
 9503TIP3    H252705   5.082   3.518  12.359
 9504TIP3   OH252706   4.363   1.989  12.972
 9504TIP3    H152707   4.326   1.972  12.885
 9504TIP3    H252708   4.375   2.084  12.971
 9505TIP3   OH252709   5.219   2.859  11.981
 9505TIP3    H152710   5.222   2.829  11.888
 9505TIP3    H252711   5.297   2.917  11.984
 9506TIP3   OH252712   4.758   2.237  11.958
 9506TIP3    H152713   4.741   2.232  12.054
 9506TIP3    H252714   4.743   2.144  11.936
 9507TIP3   OH252715   4.905   2.592  12.421
 9507TIP3    H152716   4.881   2.676  12.374
 9507TIP3    H252717   4.969   2.555  12.358
 9508TIP3   OH252718   4.997   2.531  12.690
 9508TIP3    H152719   4.962   2.599  12.630
 9508TIP3    H252720   5.007   2.458  12.626
 9509TIP3   OH252721   3.786   2.211  12.609
 9509TIP3    H152722   3.875   2.226  12.644
 9509TIP3    H252723   3.811   2.186  12.518
 9510TIP3   OH252724   4.679   3.029  12.257
 9510TIP3    H152725   4.615   2.978  12.201
 9510TIP3    H252726   4.622   3.041  12.337
 9511TIP3   OH252727   5.054   2.287  12.050
 9511TIP3    H152728   4.962   2.303  12.021
 9511TIP3    H252729   5.075   2.370  12.098
 9512TIP3   OH252730   5.109   2.500  12.196
 9512TIP3    H152731   5.188   2.483  12.251
 9512TIP3    H252732   5.126   2.588  12.158
 9513TIP3   OH252733   4.857   3.179  12.126
 9513TIP3    H152734   4.828   3.266  12.159
 9513TIP3    H252735   4.793   3.117  12.169
 9514TIP3   OH252736   5.596   2.531  12.176
 9514TIP3    H152737   5.573   2.502  12.086
 9514TIP3    H252738   5.605   2.628  12.159
 9515TIP3   OH252739   5.452   3.333  12.227
 9515TIP3    H152740   5.374   3.285  12.259
 9515TIP3    H252741   5.455   3.308  12.135
 9516TIP3   OH252742   5.130   2.831  12.922
 9516TIP3    H152743   5.088   2.884  12.852
 9516TIP3    H252744   5.168   2.756  12.873
 9517TIP3   OH252745   4.434   3.290  12.548
 9517TIP3    H152746   4.464   3.377  12.517
 9517TIP3    H252747   4.340   3.294  12.530
 9518TIP3   OH252748   4.013   2.813  12.001
 9518TIP3    H152749   4.051   2.878  12.065
 9518TIP3    H252750   3.918   2.813  12.025
 9519TIP3   OH252751   4.526   3.046  12.480
 9519TIP3    H152752   4.496   3.134  12.512
 9519TIP3    H252753   4.538   2.999  12.565
 9520TIP3   OH252754   4.438   3.540  12.436
 9520TIP3    H152755   4.342   3.549  12.449
 9520TIP3    H252756   4.472   3.620  12.482
 9521TIP3   OH252757   5.202   3.192  12.030
 9521TIP3    H152758   5.202   3.162  12.123
 9521TIP3    H252759   5.111   3.167  12.007
 9522TIP3   OH252760   5.619   3.616  12.024
 9522TIP3    H152761   5.640   3.692  11.966
 9522TIP3    H252762   5.547   3.655  12.078
 9523TIP3   OH252763   5.279   3.025  12.257
 9523TIP3    H152764   5.257   2.937  12.292
 9523TIP3    H252765   5.376   3.014  12.246
 9524TIP3   OH252766   4.594   3.307  11.867
 9524TIP3    H152767   4.576   3.249  11.792
 9524TIP3    H252768   4.541   3.262  11.936
 9525TIP3   OH252769   4.461   3.229  12.120
 9525TIP3    H152770   4.528   3.186  12.176
 9525TIP3    H252771   4.477   3.324  12.146
 9526TIP3   OH252772   4.143   2.980  12.164
 9526TIP3    H152773   4.063   3.022  12.204
 9526TIP3    H252774   4.183   3.055  12.117
 9527TIP3   OH252775   4.967   2.170  12.295
 9527TIP3    H152776   4.995   2.206  12.209
 9527TIP3    H252777   5.035   2.207  12.354
 9528TIP3   OH252778   4.762   3.430  12.177
 9528TIP3    H152779   4.674   3.462  12.203
 9528TIP3    H252780   4.806   3.513  12.153
 9529TIP3   OH252781   4.705   2.373  12.374
 9529TIP3    H152782   4.773   2.436  12.406
 9529TIP3    H252783   4.655   2.350  12.454
 9530TIP3   OH252784   4.762   2.057  12.441
 9530TIP3    H152785   4.787   2.094  12.527
 9530TIP3    H252786   4.831   2.094  12.382
 9531TIP3   OH252787   4.491   3.481  12.173
 9531TIP3    H152788   4.506   3.559  12.116
 9531TIP3    H252789   4.458   3.527  12.252
 9532TIP3   OH252790   5.227   2.628  12.770
 9532TIP3    H152791   5.142   2.583  12.751
 9532TIP3    H252792   5.278   2.561  12.821
 9533TIP3   OH252793   4.188   3.212  12.013
 9533TIP3    H152794   4.263   3.250  12.064
 9533TIP3    H252795   4.240   3.157  11.950
 9534TIP3   OH252796   4.018   2.511  11.969
 9534TIP3    H152797   4.039   2.604  11.985
 9534TIP3    H252798   3.924   2.516  11.947
 9535TIP3   OH252799   5.303   3.573  12.968
 9535TIP3    H152800   5.333   3.632  12.897
 9535TIP3    H252801   5.294   3.487  12.924
 9536TIP3   OH252802   3.956   3.317  12.402
 9536TIP3    H152803   3.948   3.379  12.476
 9536TIP3    H252804   3.965   3.383  12.330
 9537TIP3   OH252805   4.802   3.508  11.858
 9537TIP3    H152806   4.751   3.425  11.874
 9537TIP3    H252807   4.881   3.471  11.812
 9538TIP3   OH252808   5.240   3.423  11.877
 9538TIP3    H152809   5.253   3.351  11.943
 9538TIP3    H252810   5.330   3.441  11.845
 9539TIP3   OH252811   4.339   3.028  11.864
 9539TIP3    H152812   4.361   2.981  11.946
 9539TIP3    H252813   4.418   3.004  11.810
 9540TIP3   OH252814   4.912   3.165  11.854
 9540TIP3    H152815   4.874   3.162  11.944
 9540TIP3    H252816   4.905   3.069  11.829
 9541TIP3   OH252817   4.469   2.873  12.120
 9541TIP3    H152818   4.407   2.819  12.174
 9541TIP3    H252819   4.511   2.805  12.063
 9542TIP3   OH252820   4.577   2.694  11.932
 9542TIP3    H152821   4.573   2.702  11.835
 9542TIP3    H252822   4.671   2.671  11.947
 9543TIP3   OH252823   5.494   2.872  11.869
 9543TIP3    H152824   5.478   2.859  11.773
 9543TIP3    H252825   5.492   2.970  11.873
 9544TIP3   OH252826   4.559   3.718  12.083
 9544TIP3    H152827   4.657   3.714  12.078
 9544TIP3    H252828   4.540   3.777  12.008
 9545TIP3   OH252829   3.906   3.181  12.003
 9545TIP3    H152830   4.004   3.191  12.001
 9545TIP3    H252831   3.890   3.128  11.921
 9546TIP3   OH252832   3.883   3.520  12.666
 9546TIP3    H152833   3.812   3.457  12.684
 9546TIP3    H252834   3.897   3.554  12.756
 9547TIP3   OH252835   5.544   2.966  12.259
 9547TIP3    H152836   5.630   3.012  12.266
 9547TIP3    H252837   5.548   2.902  12.334
 9548TIP3   OH252838   5.570   2.781  12.460
 9548TIP3    H152839   5.501   2.719  12.492
 9548TIP3    H252840   5.628   2.784  12.539
 9549TIP3   OH252841   5.642   2.781  12.077
 9549TIP3    H152842   5.578   2.800  12.005
 9549TIP3    H252843   5.625   2.856  12.138
 9550TIP3   OH252844   5.519   2.479  11.911
 9550TIP3    H152845   5.484   2.559  11.868
 9550TIP3    H252846   5.449   2.415  11.882
 9551TIP3   OH252847   5.367   2.613  12.538
 9551TIP3    H152848   5.402   2.524  12.534
 9551TIP3    H252849   5.322   2.616  12.625
 9552TIP3   OH252850   5.346   2.285  11.856
 9552TIP3    H152851   5.402   2.225  11.906
 9552TIP3    H252852   5.263   2.233  11.851
 9553TIP3   OH252853   5.324   2.384  12.354
 9553TIP3    H152854   5.361   2.302  12.390
 9553TIP3    H252855   5.403   2.435  12.328
 9554TIP3   OH252856   5.367   2.435  12.896
 9554TIP3    H152857   5.458   2.409  12.913
 9554TIP3    H252858   5.321   2.396  12.976
 9555TIP3   OH252859   3.816   2.182  12.329
 9555TIP3    H152860   3.732   2.154  12.370
 9555TIP3    H252861   3.781   2.209  12.242
 9556TIP3   OH252862   5.300   3.649  12.511
 9556TIP3    H152863   5.389   3.610  12.497
 9556TIP3    H252864   5.305   3.681  12.604
 9557TIP3   OH252865   4.417   3.524  12.859
 9557TIP3    H152866   4.383   3.436  12.834
 9557TIP3    H252867   4.465   3.501  12.940
 9558TIP3   OH252868   4.834   2.086  12.728
 9558TIP3    H152869   4.788   2.023  12.786
 9558TIP3    H252870   4.912   2.033  12.697
 9559TIP3   OH252871   4.488   1.969  12.511
 9559TIP3    H152872   4.579   1.982  12.482
 9559TIP3    H252873   4.498   1.912  12.587
 9560TIP3   OH252874   5.052   1.956  12.638
 9560TIP3    H152875   5.145   1.955  12.610
 9560TIP3    H252876   5.040   1.864  12.664
 9561TIP3   OH252877   5.182   1.941  12.262
 9561TIP3    H152878   5.099   1.983  12.285
 9561TIP3    H252879   5.199   1.879  12.336
 9562TIP3   OH252880   3.946   3.524  12.231
 9562TIP3    H152881   3.853   3.518  12.203
 9562TIP3    H252882   3.964   3.619  12.210
 9563TIP3   OH252883   4.627   2.165  12.212
 9563TIP3    H152884   4.664   2.105  12.280
 9563TIP3    H252885   4.641   2.251  12.257
 9564TIP3   OH252886   4.827   3.674  12.064
 9564TIP3    H152887   4.919   3.685  12.033
 9564TIP3    H252888   4.797   3.615  11.990
 9565TIP3   OH252889   5.518   3.567  12.376
 9565TIP3    H152890   5.488   3.492  12.321
 9565TIP3    H252891   5.486   3.644  12.325
 9566TIP3   OH252892   4.112   3.614  11.923
 9566TIP3    H152893   4.088   3.634  12.014
 9566TIP3    H252894   4.184   3.549  11.935
 9567TIP3   OH252895   6.888   2.871  12.544
 9567TIP3    H152896   6.854   2.962  12.549
 9567TIP3    H252897   6.816   2.826  12.497
 9568TIP3   OH252898   7.114   3.138  12.740
 9568TIP3    H152899   7.141   3.047  12.757
 9568TIP3    H252900   7.133   3.181  12.824
 9569TIP3   OH252901   6.073   3.212  12.907
 9569TIP3    H152902   6.008   3.155  12.867
 9569TIP3    H252903   6.087   3.168  12.993
 9570TIP3   OH252904   5.786   2.741  12.658
 9570TIP3    H152905   5.818   2.650  12.643
 9570TIP3    H252906   5.837   2.792  12.596
 9571TIP3   OH252907   7.021   2.286  12.505
 9571TIP3    H152908   7.053   2.271  12.597
 9571TIP3    H252909   7.022   2.383  12.504
 9572TIP3   OH252910   6.800   3.124  12.424
 9572TIP3    H152911   6.816   3.123  12.327
 9572TIP3    H252912   6.796   3.220  12.444
 9573TIP3   OH252913   7.127   2.259  12.757
 9573TIP3    H152914   7.102   2.177  12.802
 9573TIP3    H252915   7.223   2.252  12.761
 9574TIP3   OH252916   5.803   3.090  12.248
 9574TIP3    H152917   5.805   3.144  12.166
 9574TIP3    H252918   5.779   3.155  12.314
 9575TIP3   OH252919   7.142   3.228  12.441
 9575TIP3    H152920   7.077   3.160  12.417
 9575TIP3    H252921   7.149   3.215  12.537
 9576TIP3   OH252922   6.740   2.804  12.296
 9576TIP3    H152923   6.682   2.878  12.271
 9576TIP3    H252924   6.817   2.816  12.237
 9577TIP3   OH252925   6.744   2.684  11.993
 9577TIP3    H152926   6.815   2.720  12.050
 9577TIP3    H252927   6.765   2.590  12.000
 9578TIP3   OH252928   7.105   2.808  12.394
 9578TIP3    H152929   7.034   2.836  12.457
 9578TIP3    H252930   7.166   2.759  12.455
 9579TIP3   OH252931   6.259   2.900  12.613
 9579TIP3    H152932   6.238   2.888  12.520
 9579TIP3    H252933   6.264   2.810  12.648
 9580TIP3   OH252934   6.965   2.755  12.150
 9580TIP3    H152935   7.024   2.784  12.223
 9580TIP3    H252936   7.011   2.801  12.075
 9581TIP3   OH252937   6.754   3.384  12.503
 9581TIP3    H152938   6.799   3.445  12.563
 9581TIP3    H252939   6.680   3.435  12.467
 9582TIP3   OH252940   7.305   1.910  12.130
 9582TIP3    H152941   7.211   1.912  12.155
 9582TIP3    H252942   7.336   1.999  12.154
 9583TIP3   OH252943   7.451   3.367  11.949
 9583TIP3    H152944   7.473   3.459  11.975
 9583TIP3    H252945   7.538   3.328  11.964
 9584TIP3   OH252946   6.258   2.024  12.866
 9584TIP3    H152947   6.164   2.003  12.848
 9584TIP3    H252948   6.257   2.066  12.953
 9585TIP3   OH252949   7.095   2.885  11.966
 9585TIP3    H152950   7.080   2.885  11.869
 9585TIP3    H252951   7.187   2.915  11.972
 9586TIP3   OH252952   6.682   2.251  11.975
 9586TIP3    H152953   6.646   2.250  12.065
 9586TIP3    H252954   6.652   2.162  11.948
 9587TIP3   OH252955   6.799   2.567  12.380
 9587TIP3    H152956   6.777   2.653  12.338
 9587TIP3    H252957   6.884   2.547  12.335
 9588TIP3   OH252958   6.327   2.260  11.884
 9588TIP3    H152959   6.289   2.226  11.969
 9588TIP3    H252960   6.252   2.314  11.852
 9589TIP3   OH252961   5.775   2.284  12.124
 9589TIP3    H152962   5.735   2.356  12.074
 9589TIP3    H252963   5.746   2.303  12.214
 9590TIP3   OH252964   6.515   2.283  12.632
 9590TIP3    H152965   6.429   2.318  12.658
 9590TIP3    H252966   6.550   2.256  12.718
 9591TIP3   OH252967   6.616   2.468  12.833
 9591TIP3    H152968   6.632   2.516  12.751
 9591TIP3    H252969   6.677   2.507  12.897
 9592TIP3   OH252970   6.557   2.987  12.215
 9592TIP3    H152971   6.488   2.956  12.155
 9592TIP3    H252972   6.504   3.004  12.297
 9593TIP3   OH252973   6.932   2.286  12.074
 9593TIP3    H152974   6.846   2.309  12.033
 9593TIP3    H252975   6.962   2.373  12.109
 9594TIP3   OH252976   7.017   2.494  12.204
 9594TIP3    H152977   7.095   2.485  12.262
 9594TIP3    H252978   7.028   2.582  12.164
 9595TIP3   OH252979   6.050   2.915  12.827
 9595TIP3    H152980   6.096   2.943  12.746
 9595TIP3    H252981   6.116   2.857  12.867
 9596TIP3   OH252982   6.769   3.135  12.124
 9596TIP3    H152983   6.732   3.224  12.140
 9596TIP3    H252984   6.696   3.077  12.155
 9597TIP3   OH252985   7.449   2.507  12.186
 9597TIP3    H152986   7.397   2.472  12.110
 9597TIP3    H252987   7.454   2.601  12.157
 9598TIP3   OH252988   7.295   3.380  12.222
 9598TIP3    H152989   7.250   3.310  12.272
 9598TIP3    H252990   7.356   3.332  12.164
 9599TIP3   OH252991   6.416   3.029  12.441
 9599TIP3    H152992   6.424   3.121  12.469
 9599TIP3    H252993   6.384   2.987  12.523
 9600TIP3   OH252994   6.281   3.606  12.416
 9600TIP3    H152995   6.274   3.579  12.509
 9600TIP3    H252996   6.327   3.692  12.423
 9601TIP3   OH252997   7.090   3.187  12.026
 9601TIP3    H152998   7.092   3.162  12.120
 9601TIP3    H252999   7.018   3.128  11.998
 9602TIP3   OH253000   7.546   3.610  12.039
 9602TIP3    H153001   7.568   3.698  12.004
 9602TIP3    H253002   7.457   3.629  12.069
 9603TIP3   OH253003   7.166   3.022  12.250
 9603TIP3    H153004   7.155   2.938  12.299
 9603TIP3    H253005   7.256   3.050  12.276
 9604TIP3   OH253006   6.490   3.302  11.857
 9604TIP3    H153007   6.474   3.248  11.778
 9604TIP3    H253008   6.429   3.258  11.919
 9605TIP3   OH253009   6.365   3.240  12.121
 9605TIP3    H153010   6.448   3.200  12.152
 9605TIP3    H253011   6.380   3.333  12.144
 9606TIP3   OH253012   6.856   2.182  12.308
 9606TIP3    H153013   6.882   2.228  12.226
 9606TIP3    H253014   6.917   2.221  12.373
 9607TIP3   OH253015   6.638   3.388  12.152
 9607TIP3    H153016   6.551   3.428  12.170
 9607TIP3    H253017   6.664   3.437  12.071
 9608TIP3   OH253018   6.610   2.360  12.394
 9608TIP3    H153019   6.668   2.438  12.408
 9608TIP3    H253020   6.584   2.333  12.486
 9609TIP3   OH253021   6.664   2.040  12.433
 9609TIP3    H153022   6.663   2.068  12.526
 9609TIP3    H253023   6.714   2.114  12.390
 9610TIP3   OH253024   6.396   3.499  12.197
 9610TIP3    H153025   6.405   3.575  12.135
 9610TIP3    H253026   6.342   3.538  12.268
 9611TIP3   OH253027   6.254   2.157  12.124
 9611TIP3    H153028   6.255   2.215  12.201
 9611TIP3    H253029   6.344   2.120  12.128
 9612TIP3   OH253030   6.066   3.216  12.002
 9612TIP3    H153031   6.142   3.247  12.053
 9612TIP3    H253032   6.115   3.163  11.936
 9613TIP3   OH253033   7.237   3.561  12.929
 9613TIP3    H153034   7.178   3.584  12.855
 9613TIP3    H253035   7.310   3.623  12.923
 9614TIP3   OH253036   6.018   1.971  12.757
 9614TIP3    H153037   5.967   2.051  12.740
 9614TIP3    H253038   5.948   1.902  12.757
 9615TIP3   OH253039   6.704   3.485  11.901
 9615TIP3    H153040   6.638   3.415  11.880
 9615TIP3    H253041   6.775   3.461  11.838
 9616TIP3   OH253042   7.147   3.454  11.884
 9616TIP3    H153043   7.168   3.382  11.948
 9616TIP3    H253044   7.221   3.444  11.820
 9617TIP3   OH253045   6.239   3.040  11.858
 9617TIP3    H153046   6.250   2.971  11.925
 9617TIP3    H253047   6.313   3.018  11.797
 9618TIP3   OH253048   6.784   3.161  11.824
 9618TIP3    H153049   6.761   3.147  11.918
 9618TIP3    H253050   6.782   3.067  11.796
 9619TIP3   OH253051   6.415   2.698  11.917
 9619TIP3    H153052   6.417   2.705  11.820
 9619TIP3    H253053   6.505   2.672  11.940
 9620TIP3   OH253054   7.370   2.897  11.870
 9620TIP3    H153055   7.332   2.872  11.783
 9620TIP3    H253056   7.378   2.996  11.863
 9621TIP3   OH253057   6.478   3.719  12.087
 9621TIP3    H153058   6.562   3.763  12.097
 9621TIP3    H253059   6.441   3.766  12.010
 9622TIP3   OH253060   5.784   3.193  11.988
 9622TIP3    H153061   5.882   3.194  11.988
 9622TIP3    H253062   5.765   3.136  11.910
 9623TIP3   OH253063   7.458   3.011  12.278
 9623TIP3    H153064   7.550   3.027  12.253
 9623TIP3    H253065   7.471   2.942  12.347
 9624TIP3   OH253066   7.479   2.804  12.454
 9624TIP3    H153067   7.399   2.755  12.483
 9624TIP3    H253068   7.523   2.819  12.539
 9625TIP3   OH253069   7.411   3.036  12.942
 9625TIP3    H153070   7.495   2.996  12.913
 9625TIP3    H253071   7.420   3.125  12.909
 9626TIP3   OH253072   7.466   2.791  12.115
 9626TIP3    H153073   7.432   2.812  12.026
 9626TIP3    H253074   7.440   2.872  12.164
 9627TIP3   OH253075   7.310   2.471  11.926
 9627TIP3    H153076   7.318   2.525  11.846
 9627TIP3    H253077   7.286   2.386  11.883
 9628TIP3   OH253078   7.266   2.639  12.524
 9628TIP3    H153079   7.261   2.558  12.468
 9628TIP3    H253080   7.234   2.610  12.611
 9629TIP3   OH253081   7.260   2.222  11.837
 9629TIP3    H153082   7.252   2.206  11.932
 9629TIP3    H253083   7.166   2.209  11.809
 9630TIP3   OH253084   7.235   2.433  12.351
 9630TIP3    H153085   7.223   2.337  12.365
 9630TIP3    H253086   7.328   2.434  12.319
 9631TIP3   OH253087   7.254   2.159  12.384
 9631TIP3    H153088   7.261   2.128  12.476
 9631TIP3    H253089   7.192   2.095  12.345
 9632TIP3   OH253090   7.467   2.130  12.051
 9632TIP3    H153091   7.508   2.066  11.990
 9632TIP3    H253092   7.487   2.216  12.010
 9633TIP3   OH253093   6.162   3.455  12.767
 9633TIP3    H153094   6.112   3.380  12.805
 9633TIP3    H253095   6.161   3.519  12.839
 9634TIP3   OH253096   6.712   2.047  12.737
 9634TIP3    H153097   6.703   1.978  12.804
 9634TIP3    H253098   6.809   2.047  12.724
 9635TIP3   OH253099   7.335   2.038  12.633
 9635TIP3    H153100   7.393   1.968  12.597
 9635TIP3    H253101   7.397   2.114  12.629
 9636TIP3   OH253102   6.396   1.885  12.555
 9636TIP3    H153103   6.472   1.909  12.501
 9636TIP3    H253104   6.338   1.961  12.540
 9637TIP3   OH253105   6.972   1.991  12.709
 9637TIP3    H153106   6.993   2.007  12.617
 9637TIP3    H253107   6.926   1.905  12.709
 9638TIP3   OH253108   7.074   1.970  12.295
 9638TIP3    H153109   6.993   2.024  12.295
 9638TIP3    H253110   7.042   1.879  12.312
 9639TIP3   OH253111   5.986   2.126  11.970
 9639TIP3    H153112   6.042   2.070  11.913
 9639TIP3    H253113   6.042   2.135  12.048
 9640TIP3   OH253114   6.521   2.175  12.193
 9640TIP3    H153115   6.565   2.111  12.250
 9640TIP3    H253116   6.538   2.256  12.247
 9641TIP3   OH253117   7.360   3.599  12.358
 9641TIP3    H153118   7.327   3.525  12.301
 9641TIP3    H253119   7.354   3.676  12.299
 9642TIP3   OH253120   5.963   3.573  11.864
 9642TIP3    H153121   5.932   3.633  11.931
 9642TIP3    H253122   6.047   3.537  11.897
 9643TIP3   OH253123   7.566   2.532  12.440
 9643TIP3    H153124   7.567   2.629  12.442
 9643TIP3    H253125   7.530   2.514  12.351
 9644TIP3   OH253126   7.524   3.308  12.901
 9644TIP3    H153127   7.615   3.340  12.902
 9644TIP3    H253128   7.486   3.352  12.978
 9645TIP3   OH253129   7.516   2.225  12.595
 9645TIP3    H153130   7.602   2.270  12.610
 9645TIP3    H253131   7.529   2.198  12.501
 9646TIP3   OH253132   7.515   3.705  12.549
 9646TIP3    H153133   7.447   3.665  12.490
 9646TIP3    H253134   7.535   3.628  12.604
 9647TIP3   OH253135   7.565   3.526  12.746
 9647TIP3    H153136   7.511   3.449  12.775
 9647TIP3    H253137   7.532   3.596  12.806
 9648TIP3   OH253138   7.647   2.893  12.866
 9648TIP3    H153139   7.704   2.867  12.790
 9648TIP3    H253140   7.680   2.830  12.931
 9649TIP3   OH253141   7.493   2.593  12.778
 9649TIP3    H153142   7.582   2.558  12.770
 9649TIP3    H253143   7.493   2.625  12.868
 9650TIP3   OH253144   7.509   2.152  12.312
 9650TIP3    H153145   7.413   2.165  12.328
 9650TIP3    H253146   7.506   2.141  12.214
 9651TIP3   OH253147   1.199   4.746  12.543
 9651TIP3    H153148   1.183   4.843  12.539
 9651TIP3    H253149   1.142   4.714  12.471
 9652TIP3   OH253150   1.428   4.978  12.735
 9652TIP3    H153151   1.377   4.919  12.792
 9652TIP3    H253152   1.467   5.041  12.799
 9653TIP3   OH253153   0.130   4.401  12.335
 9653TIP3    H153154   0.149   4.481  12.385
 9653TIP3    H253155   0.039   4.382  12.363
 9654TIP3   OH253156   0.127   4.677  12.633
 9654TIP3    H153157   0.151   4.589  12.662
 9654TIP3    H253158   0.213   4.723  12.631
 9655TIP3   OH253159   1.182   5.488  12.737
 9655TIP3    H153160   1.246   5.435  12.685
 9655TIP3    H253161   1.173   5.436  12.818
 9656TIP3   OH253162   0.563   4.174  12.719
 9656TIP3    H153163   0.595   4.252  12.668
 9656TIP3    H253164   0.505   4.133  12.652
 9657TIP3   OH253165   1.328   4.178  12.523
 9657TIP3    H153166   1.364   4.153  12.611
 9657TIP3    H253167   1.358   4.270  12.517
 9658TIP3   OH253168   0.711   4.566  12.710
 9658TIP3    H153169   0.768   4.513  12.768
 9658TIP3    H253170   0.695   4.504  12.637
 9659TIP3   OH253171   1.159   4.988  12.439
 9659TIP3    H153172   1.145   4.994  12.344
 9659TIP3    H253173   1.115   5.072  12.467
 9660TIP3   OH253174   1.489   4.145  12.736
 9660TIP3    H153175   1.456   4.108  12.821
 9660TIP3    H253176   1.577   4.104  12.731
 9661TIP3   OH253177   0.115   4.983  12.270
 9661TIP3    H153178   0.121   5.046  12.194
 9661TIP3    H253179   0.162   5.030  12.340
 9662TIP3   OH253180   1.337   5.330  12.573
 9662TIP3    H153181   1.386   5.247  12.554
 9662TIP3    H253182   1.410   5.394  12.582
 9663TIP3   OH253183   1.494   5.114  12.498
 9663TIP3    H153184   1.438   5.062  12.439
 9663TIP3    H253185   1.485   5.059  12.579
 9664TIP3   OH253186   1.068   4.676  12.302
 9664TIP3    H153187   1.021   4.759  12.282
 9664TIP3    H253188   1.148   4.684  12.246
 9665TIP3   OH253189   1.090   4.575  11.965
 9665TIP3    H153190   1.133   4.607  12.046
 9665TIP3    H253191   1.118   4.482  11.963
 9666TIP3   OH253192   1.458   4.704  12.412
 9666TIP3    H153193   1.374   4.715  12.460
 9666TIP3    H253194   1.516   4.666  12.481
 9667TIP3   OH253195   0.568   4.782  12.610
 9667TIP3    H153196   0.537   4.730  12.533
 9667TIP3    H253197   0.626   4.716  12.656
 9668TIP3   OH253198   1.301   4.659  12.162
 9668TIP3    H153199   1.368   4.691  12.226
 9668TIP3    H253200   1.345   4.688  12.078
 9669TIP3   OH253201   1.054   5.237  12.463
 9669TIP3    H153202   1.084   5.274  12.547
 9669TIP3    H253203   1.019   5.315  12.419
 9670TIP3   OH253204   1.677   3.777  12.166
 9670TIP3    H153205   1.594   3.792  12.217
 9670TIP3    H253206   1.708   3.868  12.153
 9671TIP3   OH253207   0.425   4.655  12.399
 9671TIP3    H153208   0.409   4.732  12.340
 9671TIP3    H253209   0.440   4.581  12.338
 9672TIP3   OH253210   1.781   5.233  11.974
 9672TIP3    H153211   1.810   5.322  12.003
 9672TIP3    H253212   1.864   5.184  11.994
 9673TIP3   OH253213   1.043   5.564  12.335
 9673TIP3    H153214   1.029   5.569  12.238
 9673TIP3    H253215   1.030   5.658  12.361
 9674TIP3   OH253216   0.406   5.432  12.536
 9674TIP3    H153217   0.418   5.400  12.629
 9674TIP3    H253218   0.314   5.406  12.517
 9675TIP3   OH253219   1.355   5.508  12.018
 9675TIP3    H153220   1.396   5.428  11.976
 9675TIP3    H253221   1.349   5.487  12.113
 9676TIP3   OH253222   1.297   5.493  12.298
 9676TIP3    H153223   1.202   5.511  12.317
 9676TIP3    H253224   1.312   5.420  12.360
 9677TIP3   OH253225   1.454   4.756  11.973
 9677TIP3    H153226   1.432   4.766  11.878
 9677TIP3    H253227   1.550   4.771  11.971
 9678TIP3   OH253228   1.033   4.124  11.978
 9678TIP3    H153229   0.983   4.126  12.062
 9678TIP3    H253230   0.983   4.051  11.936
 9679TIP3   OH253231   0.627   4.353  12.535
 9679TIP3    H153232   0.531   4.350  12.515
 9679TIP3    H253233   0.665   4.340  12.445
 9680TIP3   OH253234   1.168   4.462  12.416
 9680TIP3    H153235   1.130   4.541  12.371
 9680TIP3    H253236   1.230   4.432  12.347
 9681TIP3   OH253237   1.336   4.443  12.648
 9681TIP3    H153238   1.280   4.518  12.622
 9681TIP3    H253239   1.275   4.369  12.640
 9682TIP3   OH253240   0.678   4.144  11.913
 9682TIP3    H153241   0.613   4.100  11.971
 9682TIP3    H253242   0.618   4.204  11.863
 9683TIP3   OH253243   0.119   4.083  12.671
 9683TIP3    H153244   0.045   4.022  12.692
 9683TIP3    H253245   0.119   4.088  12.575
 9684TIP3   OH253246   0.123   4.205  12.128
 9684TIP3    H153247   0.177   4.263  12.068
 9684TIP3    H253248   0.079   4.272  12.182
 9685TIP3   OH253249   0.842   4.134  12.632
 9685TIP3    H153250   0.748   4.152  12.636
 9685TIP3    H253251   0.871   4.180  12.713
 9686TIP3   OH253252   0.364   4.327  12.468
 9686TIP3    H153253   0.279   4.353  12.427
 9686TIP3    H253254   0.348   4.232  12.488
 9687TIP3   OH253255   0.706   4.315  12.263
 9687TIP3    H153256   0.779   4.282  12.209
 9687TIP3    H253257   0.654   4.363  12.193
 9688TIP3   OH253258   1.291   4.128  12.932
 9688TIP3    H153259   1.244   4.183  12.999
 9688TIP3    H253260   1.243   4.044  12.940
 9689TIP3   OH253261   0.589   4.415  12.047
 9689TIP3    H153262   0.515   4.423  11.985
 9689TIP3    H253263   0.650   4.477  12.001
 9690TIP3   OH253264   0.941   4.347  12.813
 9690TIP3    H153265   1.010   4.343  12.745
 9690TIP3    H253266   0.996   4.345  12.893
 9691TIP3   OH253267   0.409   4.066  12.514
 9691TIP3    H153268   0.352   3.991  12.542
 9691TIP3    H253269   0.453   4.027  12.436
 9692TIP3   OH253270   0.900   4.884  12.257
 9692TIP3    H153271   0.828   4.835  12.210
 9692TIP3    H253272   0.853   4.907  12.341
 9693TIP3   OH253273   1.276   4.162  12.073
 9693TIP3    H153274   1.187   4.157  12.033
 9693TIP3    H253275   1.281   4.257  12.096
 9694TIP3   OH253276   1.323   4.391  12.199
 9694TIP3    H153277   1.395   4.360  12.257
 9694TIP3    H253278   1.366   4.468  12.157
 9695TIP3   OH253279   0.383   4.830  12.800
 9695TIP3    H153280   0.440   4.831  12.721
 9695TIP3    H253281   0.440   4.783  12.861
 9696TIP3   OH253282   1.089   5.023  12.129
 9696TIP3    H153283   1.051   5.111  12.152
 9696TIP3    H253284   1.023   4.963  12.170
 9697TIP3   OH253285   1.813   4.363  12.180
 9697TIP3    H153286   1.761   4.354  12.096
 9697TIP3    H253287   1.831   4.459  12.180
 9698TIP3   OH253288   1.644   5.246  12.234
 9698TIP3    H153289   1.591   5.179  12.279
 9698TIP3    H253290   1.678   5.201  12.155
 9699TIP3   OH253291   0.639   5.185  12.552
 9699TIP3    H153292   0.675   5.270  12.517
 9699TIP3    H253293   0.550   5.188  12.515
 9700TIP3   OH253294   0.149   4.702  11.986
 9700TIP3    H153295   0.244   4.718  11.994
 9700TIP3    H253296   0.128   4.666  12.073
 9701TIP3   OH253297   0.766   4.936  12.490
 9701TIP3    H153298   0.737   5.026  12.513
 9701TIP3    H253299   0.715   4.885  12.557
 9702TIP3   OH253300   0.656   5.426  12.428
 9702TIP3    H153301   0.562   5.423  12.456
 9702TIP3    H253302   0.686   5.505  12.476
 9703TIP3   OH253303   1.424   5.069  12.024
 9703TIP3    H153304   1.421   5.030  12.114
 9703TIP3    H253305   1.337   5.040  11.993
 9704TIP3   OH253306   1.849   5.491  12.060
 9704TIP3    H153307   1.909   5.553  12.017
 9704TIP3    H253308   1.783   5.554  12.098
 9705TIP3   OH253309   1.492   4.927  12.259
 9705TIP3    H153310   1.474   4.843  12.307
 9705TIP3    H253311   1.590   4.927  12.256
 9706TIP3   OH253312   0.806   5.199  11.860
 9706TIP3    H153313   0.792   5.156  11.774
 9706TIP3    H253314   0.750   5.143  11.917
 9707TIP3   OH253315   0.683   5.108  12.119
 9707TIP3    H153316   0.751   5.065  12.173
 9707TIP3    H253317   0.697   5.203  12.141
 9708TIP3   OH253318   0.356   4.855  12.204
 9708TIP3    H153319   0.269   4.898  12.214
 9708TIP3    H253320   0.398   4.904  12.132
 9709TIP3   OH253321   1.215   4.069  12.320
 9709TIP3    H153322   1.243   4.121  12.243
 9709TIP3    H253323   1.247   4.123  12.395
 9710TIP3   OH253324   1.000   5.301  12.175
 9710TIP3    H153325   0.914   5.332  12.209
 9710TIP3    H253326   1.035   5.384  12.137
 9711TIP3   OH253327   0.950   4.231  12.376
 9711TIP3    H153328   0.992   4.318  12.383
 9711TIP3    H253329   0.907   4.221  12.462
 9712TIP3   OH253330   1.022   3.925  12.425
 9712TIP3    H153331   0.989   3.986  12.492
 9712TIP3    H253332   1.103   3.975  12.394
 9713TIP3   OH253333   0.724   5.364  12.172
 9713TIP3    H153334   0.736   5.448  12.120
 9713TIP3    H253335   0.691   5.404  12.255
 9714TIP3   OH253336   0.566   4.052  12.154
 9714TIP3    H153337   0.566   4.138  12.198
 9714TIP3    H253338   0.661   4.030  12.159
 9715TIP3   OH253339   0.421   5.112  12.031
 9715TIP3    H153340   0.510   5.115  12.073
 9715TIP3    H253341   0.444   5.049  11.959
 9716TIP3   OH253342   0.235   4.395  11.966
 9716TIP3    H153343   0.296   4.469  11.978
 9716TIP3    H253344   0.191   4.416  11.881
 9717TIP3   OH253345   0.346   3.837  12.824
 9717TIP3    H153346   0.346   3.823  12.727
 9717TIP3    H253347   0.261   3.883  12.833
 9718TIP3   OH253348   0.205   5.241  12.446
 9718TIP3    H153349   0.115   5.263  12.417
 9718TIP3    H253350   0.252   5.281  12.371
 9719TIP3   OH253351   1.023   5.391  11.860
 9719TIP3    H153352   0.974   5.310  11.884
 9719TIP3    H253353   1.103   5.353  11.819
 9720TIP3   OH253354   1.469   5.312  11.865
 9720TIP3    H153355   1.482   5.239  11.930
 9720TIP3    H253356   1.558   5.321  11.825
 9721TIP3   OH253357   0.555   4.939  11.868
 9721TIP3    H153358   0.525   4.847  11.887
 9721TIP3    H253359   0.649   4.927  11.843
 9722TIP3   OH253360   1.132   5.054  11.847
 9722TIP3    H153361   1.100   5.040  11.939
 9722TIP3    H253362   1.128   4.961  11.814
 9723TIP3   OH253363   0.707   4.733  12.139
 9723TIP3    H153364   0.625   4.690  12.167
 9723TIP3    H253365   0.728   4.682  12.058
 9724TIP3   OH253366   0.802   4.560  11.932
 9724TIP3    H153367   0.786   4.571  11.836
 9724TIP3    H253368   0.899   4.562  11.940
 9725TIP3   OH253369   1.734   4.773  11.875
 9725TIP3    H153370   1.707   4.745  11.784
 9725TIP3    H253371   1.721   4.872  11.865
 9726TIP3   OH253372   0.794   5.598  12.085
 9726TIP3    H153373   0.891   5.605  12.076
 9726TIP3    H253374   0.765   5.658  12.013
 9727TIP3   OH253375   0.146   5.120  12.037
 9727TIP3    H153376   0.236   5.158  12.028
 9727TIP3    H253377   0.143   5.068  11.956
 9728TIP3   OH253378   0.054   5.604  12.431
 9728TIP3    H153379  -0.023   5.659  12.452
 9728TIP3    H253380   0.066   5.554  12.513
 9729TIP3   OH253381   0.137   5.447  12.645
 9729TIP3    H153382   0.153   5.356  12.613
 9729TIP3    H253383   0.176   5.447  12.735
 9730TIP3   OH253384   1.778   4.882  12.236
 9730TIP3    H153385   1.867   4.918  12.249
 9730TIP3    H253386   1.774   4.820  12.312
 9731TIP3   OH253387   1.790   4.693  12.465
 9731TIP3    H153388   1.736   4.648  12.532
 9731TIP3    H253389   1.872   4.705  12.518
 9732TIP3   OH253390   1.868   4.662  12.081
 9732TIP3    H153391   1.810   4.675  12.003
 9732TIP3    H253392   1.840   4.739  12.135
 9733TIP3   OH253393   1.660   4.377  11.939
 9733TIP3    H153394   1.681   4.436  11.865
 9733TIP3    H253395   1.636   4.296  11.891
 9734TIP3   OH253396   1.577   4.515  12.570
 9734TIP3    H153397   1.577   4.478  12.479
 9734TIP3    H253398   1.488   4.480  12.596
 9735TIP3   OH253399   0.148   4.746  12.924
 9735TIP3    H153400   0.183   4.739  12.834
 9735TIP3    H253401   0.231   4.736  12.972
 9736TIP3   OH253402   1.618   4.116  11.845
 9736TIP3    H153403   1.656   4.080  11.928
 9736TIP3    H253404   1.524   4.098  11.852
 9737TIP3   OH253405   1.541   4.313  12.363
 9737TIP3    H153406   1.549   4.218  12.384
 9737TIP3    H253407   1.630   4.327  12.328
 9738TIP3   OH253408   1.632   4.029  12.345
 9738TIP3    H153409   1.659   4.016  12.437
 9738TIP3    H253410   1.566   3.958  12.335
 9739TIP3   OH253411   0.029   4.388  12.905
 9739TIP3    H153412  -0.030   4.410  12.831
 9739TIP3    H253413  -0.032   4.419  12.978
 9740TIP3   OH253414   1.808   4.002  12.033
 9740TIP3    H153415   1.845   3.948  11.960
 9740TIP3    H253416   1.889   4.028  12.080
 9741TIP3   OH253417   0.110   4.027  12.322
 9741TIP3    H153418   0.012   4.023  12.326
 9741TIP3    H253419   0.120   4.086  12.245
 9742TIP3   OH253420   1.545   5.515  12.588
 9742TIP3    H153421   1.587   5.471  12.511
 9742TIP3    H253422   1.580   5.605  12.578
 9743TIP3   OH253423   0.237   5.465  12.898
 9743TIP3    H153424   0.233   5.449  12.994
 9743TIP3    H253425   0.326   5.430  12.877
 9744TIP3   OH253426   0.457   5.351  12.785
 9744TIP3    H153427   0.478   5.256  12.796
 9744TIP3    H253428   0.540   5.382  12.826
 9745TIP3   OH253429   0.337   3.817  12.546
 9745TIP3    H153430   0.263   3.813  12.481
 9745TIP3    H253431   0.361   3.723  12.549
 9746TIP3   OH253432   0.191   3.825  12.141
 9746TIP3    H153433   0.214   3.863  12.054
 9746TIP3    H253434   0.158   3.905  12.187
 9747TIP3   OH253435   0.720   3.825  12.559
 9747TIP3    H153436   0.771   3.802  12.481
 9747TIP3    H253437   0.741   3.919  12.572
 9748TIP3   OH253438   1.242   3.849  12.710
 9748TIP3    H153439   1.312   3.857  12.644
 9748TIP3    H253440   1.200   3.764  12.692
 9749TIP3   OH253441   1.458   3.826  12.305
 9749TIP3    H153442   1.393   3.876  12.254
 9749TIP3    H253443   1.409   3.741  12.320
 9750TIP3   OH253444   0.185   5.430  12.244
 9750TIP3    H153445   0.097   5.422  12.204
 9750TIP3    H253446   0.202   5.524  12.219
 9751TIP3   OH253447   0.320   3.984  11.970
 9751TIP3    H153448   0.398   3.936  11.936
 9751TIP3    H253449   0.347   4.004  12.061
 9752TIP3   OH253450   0.872   4.059  12.188
 9752TIP3    H153451   0.926   3.996  12.238
 9752TIP3    H253452   0.884   4.136  12.249
 9753TIP3   OH253453   1.068   5.553  12.064
 9753TIP3    H153454   1.159   5.567  12.036
 9753TIP3    H253455   1.041   5.492  11.991
 9754TIP3   OH253456   1.715   5.464  12.371
 9754TIP3    H153457   1.700   5.386  12.312
 9754TIP3    H253458   1.703   5.537  12.307
 9755TIP3   OH253459   0.303   5.497  11.933
 9755TIP3    H153460   0.294   5.534  12.022
 9755TIP3    H253461   0.374   5.432  11.948
 9756TIP3   OH253462   3.076   4.773  12.547
 9756TIP3    H153463   3.061   4.863  12.509
 9756TIP3    H253464   3.009   4.721  12.501
 9757TIP3   OH253465   3.328   4.946  12.698
 9757TIP3    H153466   3.240   4.910  12.713
 9757TIP3    H253467   3.323   5.029  12.746
 9758TIP3   OH253468   1.988   4.394  12.440
 9758TIP3    H153469   1.969   4.478  12.484
 9758TIP3    H253470   1.926   4.392  12.366
 9759TIP3   OH253471   1.985   4.666  12.658
 9759TIP3    H153472   2.021   4.631  12.742
 9759TIP3    H253473   2.051   4.733  12.636
 9760TIP3   OH253474   3.060   5.463  12.759
 9760TIP3    H153475   3.125   5.421  12.700
 9760TIP3    H253476   2.981   5.412  12.740
 9761TIP3   OH253477   2.847   4.933  13.015
 9761TIP3    H153478   2.854   4.879  12.936
 9761TIP3    H253479   2.841   4.862  13.082
 9762TIP3   OH253480   2.470   4.149  12.702
 9762TIP3    H153481   2.491   4.230  12.649
 9762TIP3    H253482   2.415   4.106  12.633
 9763TIP3   OH253483   3.216   4.197  12.536
 9763TIP3    H153484   3.284   4.127  12.554
 9763TIP3    H253485   3.268   4.270  12.500
 9764TIP3   OH253486   2.567   4.555  12.683
 9764TIP3    H153487   2.645   4.507  12.718
 9764TIP3    H253488   2.527   4.484  12.627
 9765TIP3   OH253489   3.017   4.992  12.422
 9765TIP3    H153490   3.004   4.994  12.326
 9765TIP3    H253491   2.988   5.083  12.447
 9766TIP3   OH253492   2.032   4.970  12.281
 9766TIP3    H153493   2.022   5.021  12.198
 9766TIP3    H253494   2.039   5.042  12.348
 9767TIP3   OH253495   2.721   3.821  12.792
 9767TIP3    H153496   2.745   3.728  12.800
 9767TIP3    H253497   2.646   3.828  12.855
 9768TIP3   OH253498   3.215   5.336  12.553
 9768TIP3    H153499   3.261   5.252  12.527
 9768TIP3    H253500   3.290   5.397  12.569
 9769TIP3   OH253501   3.337   5.116  12.451
 9769TIP3    H153502   3.318   5.062  12.371
 9769TIP3    H253503   3.350   5.043  12.515
 9770TIP3   OH253504   2.938   4.676  12.279
 9770TIP3    H153505   2.883   4.756  12.266
 9770TIP3    H253506   3.018   4.699  12.227
 9771TIP3   OH253507   2.969   4.575  11.977
 9771TIP3    H153508   3.033   4.606  12.045
 9771TIP3    H253509   2.984   4.480  11.979
 9772TIP3   OH253510   3.288   4.709  12.382
 9772TIP3    H153511   3.221   4.720  12.453
 9772TIP3    H253512   3.354   4.654  12.430
 9773TIP3   OH253513   2.443   4.751  12.565
 9773TIP3    H153514   2.411   4.699  12.488
 9773TIP3    H253515   2.494   4.683  12.614
 9774TIP3   OH253516   2.520   4.685  12.906
 9774TIP3    H153517   2.520   4.630  12.824
 9774TIP3    H253518   2.588   4.642  12.960
 9775TIP3   OH253519   3.172   4.650  12.146
 9775TIP3    H153520   3.216   4.677  12.230
 9775TIP3    H253521   3.232   4.692  12.079
 9776TIP3   OH253522   2.937   5.256  12.499
 9776TIP3    H153523   3.028   5.285  12.514
 9776TIP3    H253524   2.905   5.319  12.432
 9777TIP3   OH253525   2.320   4.643  12.335
 9777TIP3    H153526   2.292   4.726  12.293
 9777TIP3    H253527   2.290   4.577  12.271
 9778TIP3   OH253528   3.679   5.241  11.975
 9778TIP3    H153529   3.712   5.329  12.004
 9778TIP3    H253530   3.757   5.185  11.999
 9779TIP3   OH253531   2.923   5.559  12.319
 9779TIP3    H153532   2.906   5.571  12.223
 9779TIP3    H253533   2.912   5.651  12.350
 9780TIP3   OH253534   2.290   5.457  12.519
 9780TIP3    H153535   2.295   5.414  12.606
 9780TIP3    H253536   2.196   5.449  12.497
 9781TIP3   OH253537   3.218   5.509  12.029
 9781TIP3    H153538   3.271   5.436  11.988
 9781TIP3    H253539   3.232   5.492  12.124
 9782TIP3   OH253540   3.192   5.492  12.312
 9782TIP3    H153541   3.097   5.517  12.322
 9782TIP3    H253542   3.196   5.419  12.377
 9783TIP3   OH253543   2.488   3.889  12.925
 9783TIP3    H153544   2.405   3.858  12.884
 9783TIP3    H253545   2.471   3.984  12.926
 9784TIP3   OH253546   3.335   4.759  11.970
 9784TIP3    H153547   3.337   4.736  11.875
 9784TIP3    H253548   3.412   4.819  11.970
 9785TIP3   OH253549   2.905   4.083  11.988
 9785TIP3    H153550   2.862   4.079  12.075
 9785TIP3    H253551   2.834   4.041  11.936
 9786TIP3   OH253552   2.489   4.354  12.542
 9786TIP3    H153553   2.392   4.365  12.521
 9786TIP3    H253554   2.525   4.351  12.450
 9787TIP3   OH253555   3.046   4.456  12.371
 9787TIP3    H153556   3.004   4.535  12.330
 9787TIP3    H253557   3.107   4.431  12.299
 9788TIP3   OH253558   2.547   4.152  11.911
 9788TIP3    H153559   2.491   4.106  11.978
 9788TIP3    H253560   2.483   4.209  11.864
 9789TIP3   OH253561   1.827   4.108  12.607
 9789TIP3    H153562   1.912   4.130  12.650
 9789TIP3    H253563   1.858   4.052  12.534
 9790TIP3   OH253564   2.002   4.175  12.134
 9790TIP3    H153565   2.061   4.210  12.066
 9790TIP3    H253566   1.938   4.250  12.140
 9791TIP3   OH253567   2.758   4.167  12.616
 9791TIP3    H153568   2.674   4.125  12.644
 9791TIP3    H253569   2.823   4.112  12.665
 9792TIP3   OH253570   2.240   4.343  12.482
 9792TIP3    H153571   2.145   4.371  12.480
 9792TIP3    H253572   2.227   4.247  12.472
 9793TIP3   OH253573   2.564   4.334  12.281
 9793TIP3    H153574   2.657   4.332  12.255
 9793TIP3    H253575   2.521   4.387  12.212
 9794TIP3   OH253576   2.442   4.445  12.033
 9794TIP3    H153577   2.398   4.388  11.968
 9794TIP3    H253578   2.523   4.468  11.984
 9795TIP3   OH253579   2.745   4.412  12.812
 9795TIP3    H153580   2.792   4.362  12.743
 9795TIP3    H253581   2.816   4.454  12.862
 9796TIP3   OH253582   2.300   4.063  12.488
 9796TIP3    H153583   2.253   3.983  12.522
 9796TIP3    H253584   2.358   4.024  12.423
 9797TIP3   OH253585   2.764   4.906  12.238
 9797TIP3    H153586   2.689   4.854  12.203
 9797TIP3    H253587   2.736   4.916  12.332
 9798TIP3   OH253588   3.147   4.153  12.065
 9798TIP3    H153589   3.051   4.149  12.040
 9798TIP3    H253590   3.160   4.248  12.087
 9799TIP3   OH253591   3.214   4.378  12.181
 9799TIP3    H153592   3.286   4.365  12.247
 9799TIP3    H253593   3.234   4.465  12.142
 9800TIP3   OH253594   2.309   4.833  12.802
 9800TIP3    H153595   2.334   4.829  12.709
 9800TIP3    H253596   2.377   4.778  12.844
 9801TIP3   OH253597   2.976   5.012  12.120
 9801TIP3    H153598   2.956   5.103  12.152
 9801TIP3    H253599   2.899   4.961  12.153
 9802TIP3   OH253600   3.477   5.288  12.198
 9802TIP3    H153601   3.463   5.231  12.275
 9802TIP3    H253602   3.541   5.238  12.144
 9803TIP3   OH253603   2.530   5.171  12.555
 9803TIP3    H153604   2.564   5.262  12.547
 9803TIP3    H253605   2.457   5.173  12.492
 9804TIP3   OH253606   2.144   4.698  12.005
 9804TIP3    H153607   2.181   4.758  12.073
 9804TIP3    H253608   2.048   4.694  12.024
 9805TIP3   OH253609   2.641   4.926  12.471
 9805TIP3    H153610   2.611   5.015  12.498
 9805TIP3    H253611   2.582   4.871  12.526
 9806TIP3   OH253612   2.547   5.442  12.449
 9806TIP3    H153613   2.449   5.455  12.454
 9806TIP3    H253614   2.577   5.531  12.475
 9807TIP3   OH253615   3.290   5.081  12.007
 9807TIP3    H153616   3.290   5.053  12.101
 9807TIP3    H253617   3.215   5.029  11.975
 9808TIP3   OH253618   3.739   5.492  12.062
 9808TIP3    H153619   3.802   5.557  12.026
 9808TIP3    H253620   3.669   5.553  12.096
 9809TIP3   OH253621   3.355   4.942  12.244
 9809TIP3    H153622   3.332   4.858  12.290
 9809TIP3    H253623   3.452   4.942  12.247
 9810TIP3   OH253624   2.703   5.203  11.867
 9810TIP3    H153625   2.691   5.156  11.783
 9810TIP3    H253626   2.649   5.145  11.926
 9811TIP3   OH253627   2.574   5.118  12.109
 9811TIP3    H153628   2.649   5.075  12.155
 9811TIP3    H253629   2.588   5.211  12.139
 9812TIP3   OH253630   2.262   4.859  12.178
 9812TIP3    H153631   2.182   4.901  12.217
 9812TIP3    H253632   2.300   4.933  12.127
 9813TIP3   OH253633   3.088   4.083  12.329
 9813TIP3    H153634   3.107   4.127  12.244
 9813TIP3    H253635   3.136   4.137  12.395
 9814TIP3   OH253636   2.890   5.278  12.191
 9814TIP3    H153637   2.805   5.326  12.201
 9814TIP3    H253638   2.946   5.342  12.146
 9815TIP3   OH253639   2.830   4.255  12.365
 9815TIP3    H153640   2.897   4.325  12.381
 9815TIP3    H253641   2.803   4.229  12.457
 9816TIP3   OH253642   2.891   3.940  12.436
 9816TIP3    H153643   2.867   3.996  12.511
 9816TIP3    H253644   2.969   3.991  12.399
 9817TIP3   OH253645   2.618   5.364  12.189
 9817TIP3    H153646   2.619   5.438  12.124
 9817TIP3    H253647   2.589   5.413  12.269
 9818TIP3   OH253648   2.447   4.062  12.153
 9818TIP3    H153649   2.438   4.147  12.198
 9818TIP3    H253650   2.543   4.049  12.163
 9819TIP3   OH253651   2.298   5.099  12.026
 9819TIP3    H153652   2.373   5.129  12.082
 9819TIP3    H253653   2.348   5.054  11.956
 9820TIP3   OH253654   2.119   4.392  11.948
 9820TIP3    H153655   2.168   4.466  11.988
 9820TIP3    H253656   2.049   4.439  11.898
 9821TIP3   OH253657   2.234   3.869  12.846
 9821TIP3    H153658   2.203   3.866  12.754
 9821TIP3    H253659   2.191   3.790  12.883
 9822TIP3   OH253660   2.080   5.213  12.418
 9822TIP3    H153661   2.015   5.280  12.444
 9822TIP3    H253662   2.121   5.263  12.345
 9823TIP3   OH253663   2.915   5.387  11.865
 9823TIP3    H153664   2.862   5.305  11.871
 9823TIP3    H253665   2.998   5.353  11.824
 9824TIP3   OH253666   3.359   5.322  11.874
 9824TIP3    H153667   3.372   5.254  11.943
 9824TIP3    H253668   3.450   5.334  11.841
 9825TIP3   OH253669   2.448   4.927  11.854
 9825TIP3    H153670   2.465   4.859  11.920
 9825TIP3    H253671   2.536   4.935  11.810
 9826TIP3   OH253672   3.014   5.053  11.837
 9826TIP3    H153673   2.981   5.039  11.927
 9826TIP3    H253674   3.015   4.958  11.807
 9827TIP3   OH253675   2.580   4.740  12.119
 9827TIP3    H153676   2.515   4.681  12.160
 9827TIP3    H253677   2.620   4.680  12.053
 9828TIP3   OH253678   2.696   4.560  11.925
 9828TIP3    H153679   2.692   4.589  11.831
 9828TIP3    H253680   2.793   4.564  11.941
 9829TIP3   OH253681   3.610   4.778  11.878
 9829TIP3    H153682   3.595   4.755  11.784
 9829TIP3    H253683   3.610   4.876  11.872
 9830TIP3   OH253684   2.663   5.599  12.060
 9830TIP3    H153685   2.758   5.622  12.070
 9830TIP3    H253686   2.648   5.648  11.978
 9831TIP3   OH253687   2.012   5.080  12.012
 9831TIP3    H153688   2.110   5.084  12.007
 9831TIP3    H253689   1.992   5.026  11.932
 9832TIP3   OH253690   1.916   5.575  12.515
 9832TIP3    H153691   1.844   5.521  12.476
 9832TIP3    H253692   1.956   5.514  12.579
 9833TIP3   OH253693   1.984   5.391  12.705
 9833TIP3    H153694   1.945   5.303  12.692
 9833TIP3    H253695   1.937   5.415  12.787
 9834TIP3   OH253696   3.769   4.656  12.086
 9834TIP3    H153697   3.694   4.684  12.030
 9834TIP3    H253698   3.767   4.719  12.160
 9835TIP3   OH253699   3.497   4.370  11.942
 9835TIP3    H153700   3.554   4.434  11.898
 9835TIP3    H253701   3.523   4.288  11.899
 9836TIP3   OH253702   3.459   4.559  12.542
 9836TIP3    H153703   3.488   4.467  12.537
 9836TIP3    H253704   3.534   4.605  12.580
 9837TIP3   OH253705   3.502   4.077  11.902
 9837TIP3    H153706   3.521   4.077  11.997
 9837TIP3    H253707   3.408   4.102  11.895
 9838TIP3   OH253708   3.412   4.313  12.366
 9838TIP3    H153709   3.449   4.226  12.390
 9838TIP3    H253710   3.492   4.361  12.340
 9839TIP3   OH253711   2.050   4.124  12.790
 9839TIP3    H153712   2.083   4.042  12.829
 9839TIP3    H253713   2.074   4.192  12.853
 9840TIP3   OH253714   3.736   4.040  12.032
 9840TIP3    H153715   3.749   3.959  11.977
 9840TIP3    H253716   3.708   4.097  11.959
 9841TIP3   OH253717   1.923   4.032  12.354
 9841TIP3    H153718   1.829   4.053  12.346
 9841TIP3    H253719   1.956   4.085  12.279
 9842TIP3   OH253720   3.425   5.527  12.578
 9842TIP3    H153721   3.469   5.498  12.496
 9842TIP3    H253722   3.481   5.602  12.604
 9843TIP3   OH253723   2.916   3.989  12.734
 9843TIP3    H153724   2.840   3.947  12.780
 9843TIP3    H253725   2.965   3.908  12.712
 9844TIP3   OH253726   2.173   3.840  12.550
 9844TIP3    H153727   2.089   3.846  12.500
 9844TIP3    H253728   2.211   3.753  12.524
 9845TIP3   OH253729   2.063   3.809  12.138
 9845TIP3    H153730   2.089   3.876  12.072
 9845TIP3    H253731   1.996   3.858  12.190
 9846TIP3   OH253732   2.587   3.766  12.560
 9846TIP3    H153733   2.639   3.807  12.491
 9846TIP3    H253734   2.630   3.796  12.643
 9847TIP3   OH253735   2.060   5.418  12.250
 9847TIP3    H153736   1.965   5.434  12.235
 9847TIP3    H253737   2.095   5.498  12.208
 9848TIP3   OH253738   2.186   4.015  11.976
 9848TIP3    H153739   2.253   3.966  11.926
 9848TIP3    H253740   2.231   4.024  12.062
 9849TIP3   OH253741   2.732   4.069  12.200
 9849TIP3    H153742   2.763   4.005  12.265
 9849TIP3    H253743   2.770   4.149  12.245
 9850TIP3   OH253744   2.946   5.574  12.052
 9850TIP3    H153745   3.043   5.564  12.039
 9850TIP3    H253746   2.915   5.506  11.988
 9851TIP3   OH253747   3.583   5.468  12.357
 9851TIP3    H153748   3.550   5.406  12.288
 9851TIP3    H253749   3.587   5.550  12.304
 9852TIP3   OH253750   2.188   5.497  11.931
 9852TIP3    H153751   2.164   5.536  12.017
 9852TIP3    H253752   2.261   5.438  11.954
 9853TIP3   OH253753   5.217   5.028  12.764
 9853TIP3    H153754   5.224   4.934  12.744
 9853TIP3    H253755   5.172   5.028  12.852
 9854TIP3   OH253756   4.936   5.514  12.790
 9854TIP3    H153757   4.983   5.464  12.720
 9854TIP3    H253758   4.899   5.442  12.841
 9855TIP3   OH253759   4.716   4.972  12.999
 9855TIP3    H153760   4.708   4.958  12.905
 9855TIP3    H253761   4.810   4.962  13.017
 9856TIP3   OH253762   4.327   4.192  12.684
 9856TIP3    H153763   4.324   4.262  12.616
 9856TIP3    H253764   4.286   4.118  12.634
 9857TIP3   OH253765   5.131   4.210  12.492
 9857TIP3    H153766   5.166   4.162  12.569
 9857TIP3    H253767   5.212   4.260  12.466
 9858TIP3   OH253768   4.946   5.024  12.443
 9858TIP3    H153769   4.922   4.989  12.356
 9858TIP3    H253770   4.916   5.118  12.435
 9859TIP3   OH253771   4.169   4.242  12.904
 9859TIP3    H153772   4.206   4.330  12.913
 9859TIP3    H253773   4.227   4.203  12.836
 9860TIP3   OH253774   5.083   5.358  12.621
 9860TIP3    H153775   5.093   5.271  12.576
 9860TIP3    H253776   5.158   5.404  12.581
 9861TIP3   OH253777   5.239   5.153  12.509
 9861TIP3    H153778   5.232   5.083  12.442
 9861TIP3    H253779   5.219   5.102  12.589
 9862TIP3   OH253780   5.166   4.696  12.431
 9862TIP3    H153781   5.099   4.666  12.494
 9862TIP3    H253782   5.243   4.643  12.462
 9863TIP3   OH253783   4.335   4.761  12.538
 9863TIP3    H153784   4.255   4.752  12.483
 9863TIP3    H253785   4.323   4.692  12.603
 9864TIP3   OH253786   4.858   5.273  12.462
 9864TIP3    H153787   4.878   5.306  12.551
 9864TIP3    H253788   4.781   5.324  12.437
 9865TIP3   OH253789   5.452   3.785  12.180
 9865TIP3    H153790   5.358   3.801  12.207
 9865TIP3    H253791   5.480   3.873  12.147
 9866TIP3   OH253792   5.565   5.215  12.007
 9866TIP3    H153793   5.599   5.306  12.022
 9866TIP3    H253794   5.649   5.163  12.011
 9867TIP3   OH253795   4.811   5.579  12.332
 9867TIP3    H153796   4.797   5.586  12.236
 9867TIP3    H253797   4.799   5.672  12.360
 9868TIP3   OH253798   4.159   5.455  12.522
 9868TIP3    H153799   4.191   5.424  12.610
 9868TIP3    H253800   4.074   5.407  12.514
 9869TIP3   OH253801   5.118   5.506  12.039
 9869TIP3    H153802   5.149   5.425  11.993
 9869TIP3    H253803   5.124   5.482  12.134
 9870TIP3   OH253804   5.066   5.486  12.320
 9870TIP3    H153805   4.974   5.519  12.325
 9870TIP3    H253806   5.054   5.402  12.368
 9871TIP3   OH253807   5.230   4.759  11.986
 9871TIP3    H153808   5.216   4.740  11.892
 9871TIP3    H253809   5.325   4.780  11.988
 9872TIP3   OH253810   4.805   4.140  11.966
 9872TIP3    H153811   4.764   4.147  12.053
 9872TIP3    H253812   4.748   4.070  11.928
 9873TIP3   OH253813   4.469   4.144  11.927
 9873TIP3    H153814   4.381   4.117  11.955
 9873TIP3    H253815   4.460   4.234  11.890
 9874TIP3   OH253816   3.801   4.177  12.581
 9874TIP3    H153817   3.853   4.168  12.664
 9874TIP3    H253818   3.755   4.093  12.576
 9875TIP3   OH253819   4.584   4.099  12.676
 9875TIP3    H153820   4.505   4.153  12.688
 9875TIP3    H253821   4.653   4.167  12.653
 9876TIP3   OH253822   4.486   4.319  12.276
 9876TIP3    H153823   4.516   4.354  12.365
 9876TIP3    H253824   4.428   4.392  12.252
 9877TIP3   OH253825   4.306   4.432  12.037
 9877TIP3    H153826   4.239   4.437  11.967
 9877TIP3    H253827   4.389   4.441  11.985
 9878TIP3   OH253828   4.212   4.054  12.484
 9878TIP3    H153829   4.149   3.977  12.483
 9878TIP3    H253830   4.274   4.034  12.412
 9879TIP3   OH253831   4.637   4.904  12.255
 9879TIP3    H153832   4.563   4.853  12.217
 9879TIP3    H253833   4.601   4.933  12.342
 9880TIP3   OH253834   5.044   4.217  12.079
 9880TIP3    H153835   4.957   4.191  12.042
 9880TIP3    H253836   5.072   4.272  12.002
 9881TIP3   OH253837   4.846   5.029  12.132
 9881TIP3    H153838   4.818   5.121  12.152
 9881TIP3    H253839   4.780   4.976  12.180
 9882TIP3   OH253840   5.608   4.401  12.174
 9882TIP3    H153841   5.565   4.365  12.094
 9882TIP3    H253842   5.608   4.497  12.155
 9883TIP3   OH253843   5.410   5.231  12.231
 9883TIP3    H153844   5.366   5.151  12.264
 9883TIP3    H253845   5.457   5.199  12.151
 9884TIP3   OH253846   4.416   5.189  12.527
 9884TIP3    H153847   4.417   5.277  12.484
 9884TIP3    H253848   4.323   5.169  12.522
 9885TIP3   OH253849   4.035   4.716  12.023
 9885TIP3    H153850   4.056   4.734  12.116
 9885TIP3    H253851   3.940   4.691  12.030
 9886TIP3   OH253852   4.548   4.954  12.535
 9886TIP3    H153853   4.493   5.035  12.536
 9886TIP3    H253854   4.481   4.884  12.549
 9887TIP3   OH253855   4.411   5.430  12.405
 9887TIP3    H153856   4.317   5.448  12.427
 9887TIP3    H253857   4.452   5.500  12.460
 9888TIP3   OH253858   5.196   5.082  12.005
 9888TIP3    H153859   5.235   5.045  12.087
 9888TIP3    H253860   5.107   5.045  12.014
 9889TIP3   OH253861   5.613   5.494  12.065
 9889TIP3    H153862   5.678   5.560  12.037
 9889TIP3    H253863   5.541   5.553  12.098
 9890TIP3   OH253864   5.263   4.942  12.234
 9890TIP3    H153865   5.214   4.865  12.267
 9890TIP3    H253866   5.356   4.909  12.240
 9891TIP3   OH253867   4.590   5.210  11.860
 9891TIP3    H153868   4.576   5.156  11.781
 9891TIP3    H253869   4.530   5.166  11.922
 9892TIP3   OH253870   4.476   5.102  12.114
 9892TIP3    H153871   4.561   5.075  12.155
 9892TIP3    H253872   4.474   5.197  12.139
 9893TIP3   OH253873   5.026   4.040  12.301
 9893TIP3    H153874   5.055   4.098  12.228
 9893TIP3    H253875   5.057   4.094  12.377
 9894TIP3   OH253876   4.765   5.298  12.168
 9894TIP3    H153877   4.670   5.322  12.173
 9894TIP3    H253878   4.802   5.389  12.162
 9895TIP3   OH253879   4.785   3.967  12.401
 9895TIP3    H153880   4.778   3.995  12.494
 9895TIP3    H253881   4.871   4.003  12.371
 9896TIP3   OH253882   4.510   5.363  12.162
 9896TIP3    H153883   4.512   5.445  12.107
 9896TIP3    H253884   4.467   5.400  12.243
 9897TIP3   OH253885   4.333   4.042  12.152
 9897TIP3    H153886   4.368   4.131  12.166
 9897TIP3    H253887   4.417   3.992  12.160
 9898TIP3   OH253888   4.173   5.118  12.026
 9898TIP3    H153889   4.234   5.121  12.100
 9898TIP3    H253890   4.217   5.053  11.968
 9899TIP3   OH253891   4.004   5.238  12.457
 9899TIP3    H153892   3.911   5.223  12.474
 9899TIP3    H253893   4.003   5.279  12.368
 9900TIP3   OH253894   4.803   5.391  11.865
 9900TIP3    H153895   4.750   5.311  11.884
 9900TIP3    H253896   4.883   5.354  11.823
 9901TIP3   OH253897   5.252   5.323  11.877
 9901TIP3    H153898   5.254   5.244  11.936
 9901TIP3    H253899   5.337   5.315  11.831
 9902TIP3   OH253900   4.326   4.952  11.861
 9902TIP3    H153901   4.328   4.869  11.908
 9902TIP3    H253902   4.412   4.950  11.815
 9903TIP3   OH253903   4.904   5.040  11.850
 9903TIP3    H153904   4.863   5.037  11.939
 9903TIP3    H253905   4.897   4.946  11.826
 9904TIP3   OH253906   4.481   4.714  12.134
 9904TIP3    H153907   4.389   4.686  12.140
 9904TIP3    H253908   4.505   4.682  12.047
 9905TIP3   OH253909   5.493   4.766  11.874
 9905TIP3    H153910   5.468   4.744  11.781
 9905TIP3    H253911   5.504   4.864  11.869
 9906TIP3   OH253912   4.536   5.609  12.067
 9906TIP3    H153913   4.627   5.643  12.076
 9906TIP3    H253914   4.512   5.649  11.982
 9907TIP3   OH253915   3.890   5.075  12.006
 9907TIP3    H153916   3.985   5.088  12.015
 9907TIP3    H253917   3.886   5.009  11.933
 9908TIP3   OH253918   3.786   5.586  12.476
 9908TIP3    H153919   3.720   5.522  12.443
 9908TIP3    H253920   3.828   5.531  12.546
 9909TIP3   OH253921   3.871   5.402  12.654
 9909TIP3    H153922   3.843   5.319  12.695
 9909TIP3    H253923   3.913   5.445  12.731
 9910TIP3   OH253924   5.518   4.864  12.276
 9910TIP3    H153925   5.599   4.919  12.272
 9910TIP3    H253926   5.535   4.813  12.359
 9911TIP3   OH253927   5.577   4.708  12.493
 9911TIP3    H153928   5.511   4.648  12.533
 9911TIP3    H253929   5.652   4.698  12.557
 9912TIP3   OH253930   5.638   4.677  12.091
 9912TIP3    H153931   5.570   4.685  12.022
 9912TIP3    H253932   5.599   4.732  12.162
 9913TIP3   OH253933   5.454   4.381  11.936
 9913TIP3    H153934   5.467   4.449  11.868
 9913TIP3    H253935   5.431   4.301  11.883
 9914TIP3   OH253936   5.364   4.530  12.526
 9914TIP3    H153937   5.374   4.443  12.480
 9914TIP3    H253938   5.373   4.506  12.620
 9915TIP3   OH253939   5.394   4.136  11.838
 9915TIP3    H153940   5.438   4.107  11.920
 9915TIP3    H253941   5.302   4.113  11.855
 9916TIP3   OH253942   5.363   4.295  12.392
 9916TIP3    H153943   5.372   4.197  12.397
 9916TIP3    H253944   5.405   4.314  12.307
 9917TIP3   OH253945   5.339   4.027  12.405
 9917TIP3    H153946   5.427   4.001  12.438
 9917TIP3    H253947   5.301   3.942  12.375
 9918TIP3   OH253948   3.956   4.082  12.802
 9918TIP3    H153949   3.955   4.011  12.867
 9918TIP3    H253950   3.976   4.160  12.857
 9919TIP3   OH253951   5.589   3.994  12.050
 9919TIP3    H153952   5.638   3.960  11.972
 9919TIP3    H253953   5.663   3.998  12.113
 9920TIP3   OH253954   5.324   5.500  12.574
 9920TIP3    H153955   5.366   5.455  12.498
 9920TIP3    H253956   5.316   5.589  12.534
 9921TIP3   OH253957   4.039   5.483  12.861
 9921TIP3    H153958   4.016   5.436  12.942
 9921TIP3    H253959   4.127   5.445  12.838
 9922TIP3   OH253960   4.264   5.354  12.760
 9922TIP3    H153961   4.263   5.258  12.751
 9922TIP3    H253962   4.338   5.364  12.822
 9923TIP3   OH253963   4.836   3.948  12.731
 9923TIP3    H153964   4.817   3.939  12.825
 9923TIP3    H253965   4.926   3.911  12.728
 9924TIP3   OH253966   5.315   3.797  12.741
 9924TIP3    H153967   5.358   3.870  12.693
 9924TIP3    H253968   5.220   3.824  12.738
 9925TIP3   OH253969   5.524   3.926  12.575
 9925TIP3    H153970   5.555   3.835  12.565
 9925TIP3    H253971   5.601   3.978  12.544
 9926TIP3   OH253972   4.064   3.831  12.480
 9926TIP3    H153973   3.970   3.811  12.495
 9926TIP3    H253974   4.109   3.745  12.486
 9927TIP3   OH253975   3.965   3.791  12.135
 9927TIP3    H153976   4.005   3.862  12.081
 9927TIP3    H253977   3.903   3.843  12.188
 9928TIP3   OH253978   4.515   3.791  12.561
 9928TIP3    H153979   4.564   3.854  12.507
 9928TIP3    H253980   4.517   3.835  12.647
 9929TIP3   OH253981   5.072   3.844  12.662
 9929TIP3    H153982   5.046   3.847  12.569
 9929TIP3    H253983   5.029   3.761  12.694
 9930TIP3   OH253984   5.202   3.831  12.281
 9930TIP3    H153985   5.134   3.900  12.299
 9930TIP3    H253986   5.161   3.750  12.317
 9931TIP3   OH253987   3.957   5.424  12.247
 9931TIP3    H153988   3.878   5.403  12.195
 9931TIP3    H253989   3.969   5.518  12.220
 9932TIP3   OH253990   4.097   4.043  11.997
 9932TIP3    H153991   4.148   3.975  11.950
 9932TIP3    H253992   4.166   4.077  12.057
 9933TIP3   OH253993   4.618   4.038  12.214
 9933TIP3    H153994   4.675   3.996  12.282
 9933TIP3    H253995   4.604   4.126  12.254
 9934TIP3   OH253996   4.833   5.561  12.069
 9934TIP3    H153997   4.926   5.571  12.042
 9934TIP3    H253998   4.802   5.504  11.994
 9935TIP3   OH253999   5.485   5.458  12.362
 9935TIP3    H154000   5.459   5.382  12.304
 9935TIP3    H254001   5.474   5.533  12.301
 9936TIP3   OH254002   4.068   5.501  11.927
 9936TIP3    H154003   4.035   5.541  12.010
 9936TIP3    H254004   4.131   5.435  11.960
 9937TIP3   OH254005   6.847   4.756  12.541
 9937TIP3    H154006   6.826   4.851  12.522
 9937TIP3    H254007   6.765   4.716  12.512
 9938TIP3   OH254008   7.061   4.960  12.785
 9938TIP3    H154009   6.975   4.965  12.741
 9938TIP3    H254010   7.080   5.052  12.806
 9939TIP3   OH254011   5.726   4.446  12.470
 9939TIP3    H154012   5.735   4.512  12.400
 9939TIP3    H254013   5.702   4.366  12.419
 9940TIP3   OH254014   5.839   4.703  12.635
 9940TIP3    H154015   5.811   4.675  12.724
 9940TIP3    H254016   5.858   4.618  12.593
 9941TIP3   OH254017   6.811   5.491  12.736
 9941TIP3    H154018   6.889   5.447  12.779
 9941TIP3    H254019   6.789   5.562  12.802
 9942TIP3   OH254020   6.925   4.354  12.983
 9942TIP3    H154021   7.000   4.301  13.016
 9942TIP3    H254022   6.897   4.309  12.903
 9943TIP3   OH254023   5.895   4.451  12.753
 9943TIP3    H154024   5.975   4.418  12.710
 9943TIP3    H254025   5.828   4.448  12.683
 9944TIP3   OH254026   6.793   5.001  12.443
 9944TIP3    H154027   6.827   5.015  12.355
 9944TIP3    H254028   6.774   5.095  12.467
 9945TIP3   OH254029   5.761   4.987  12.264
 9945TIP3    H154030   5.786   5.022  12.177
 9945TIP3    H254031   5.812   5.038  12.327
 9946TIP3   OH254032   6.480   3.809  12.816
 9946TIP3    H154033   6.518   3.744  12.876
 9946TIP3    H254034   6.396   3.830  12.862
 9947TIP3   OH254035   7.008   5.333  12.519
 9947TIP3    H154036   7.068   5.254  12.519
 9947TIP3    H254037   7.067   5.401  12.558
 9948TIP3   OH254038   7.153   5.111  12.479
 9948TIP3    H154039   7.141   5.067  12.393
 9948TIP3    H254040   7.136   5.039  12.541
 9949TIP3   OH254041   7.054   4.714  12.371
 9949TIP3    H154042   6.977   4.714  12.433
 9949TIP3    H254043   7.116   4.653  12.416
 9950TIP3   OH254044   6.335   5.082  12.819
 9950TIP3    H154045   6.300   5.106  12.731
 9950TIP3    H254046   6.375   4.996  12.800
 9951TIP3   OH254047   6.974   4.597  12.138
 9951TIP3    H154048   7.000   4.634  12.225
 9951TIP3    H254049   7.008   4.665  12.075
 9952TIP3   OH254050   6.732   5.275  12.459
 9952TIP3    H154051   6.797   5.313  12.522
 9952TIP3    H254052   6.695   5.356  12.420
 9953TIP3   OH254053   7.334   3.801  12.130
 9953TIP3    H154054   7.245   3.804  12.094
 9953TIP3    H254055   7.342   3.887  12.173
 9954TIP3   OH254056   7.443   5.251  11.976
 9954TIP3    H154057   7.480   5.341  11.989
 9954TIP3    H254058   7.526   5.201  11.982
 9955TIP3   OH254059   6.673   5.562  12.335
 9955TIP3    H154060   6.680   5.571  12.237
 9955TIP3    H254061   6.668   5.656  12.362
 9956TIP3   OH254062   6.044   5.465  12.529
 9956TIP3    H154063   6.088   5.414  12.598
 9956TIP3    H254064   5.969   5.406  12.505
 9957TIP3   OH254065   6.974   5.486  12.041
 9957TIP3    H154066   7.039   5.422  12.005
 9957TIP3    H254067   6.993   5.486  12.137
 9958TIP3   OH254068   6.945   5.496  12.307
 9958TIP3    H154069   6.850   5.504  12.331
 9958TIP3    H254070   6.973   5.426  12.369
 9959TIP3   OH254071   6.236   3.848  12.939
 9959TIP3    H154072   6.147   3.846  12.902
 9959TIP3    H254073   6.244   3.940  12.968
 9960TIP3   OH254074   7.086   4.776  11.971
 9960TIP3    H154075   7.067   4.764  11.875
 9960TIP3    H254076   7.184   4.784  11.970
 9961TIP3   OH254077   6.670   4.081  11.999
 9961TIP3    H154078   6.604   4.089  12.068
 9961TIP3    H254079   6.615   4.061  11.922
 9962TIP3   OH254080   6.367   4.169  11.920
 9962TIP3    H154081   6.304   4.124  11.980
 9962TIP3    H254082   6.303   4.228  11.876
 9963TIP3   OH254083   6.457   4.205  12.603
 9963TIP3    H154084   6.377   4.170  12.644
 9963TIP3    H254085   6.525   4.139  12.625
 9964TIP3   OH254086   6.202   4.371  12.062
 9964TIP3    H154087   6.133   4.365  11.993
 9964TIP3    H254088   6.262   4.434  12.021
 9965TIP3   OH254089   6.678   4.408  12.757
 9965TIP3    H154090   6.648   4.318  12.745
 9965TIP3    H254091   6.644   4.434  12.843
 9966TIP3   OH254092   6.945   4.117  12.082
 9966TIP3    H154093   6.853   4.147  12.065
 9966TIP3    H254094   6.978   4.192  12.138
 9967TIP3   OH254095   7.012   4.341  12.193
 9967TIP3    H154096   7.091   4.360  12.248
 9967TIP3    H254097   6.996   4.428  12.151
 9968TIP3   OH254098   6.731   5.056  12.075
 9968TIP3    H154099   6.722   5.134  12.134
 9968TIP3    H254100   6.704   4.983  12.132
 9969TIP3   OH254101   7.493   4.378  12.170
 9969TIP3    H154102   7.431   4.355  12.098
 9969TIP3    H254103   7.508   4.472  12.150
 9970TIP3   OH254104   7.278   5.279  12.219
 9970TIP3    H154105   7.245   5.189  12.235
 9970TIP3    H254106   7.329   5.269  12.136
 9971TIP3   OH254107   6.240   5.192  12.583
 9971TIP3    H154108   6.321   5.244  12.577
 9971TIP3    H254109   6.228   5.167  12.490
 9972TIP3   OH254110   5.897   4.673  11.996
 9972TIP3    H154111   5.946   4.729  12.061
 9972TIP3    H254112   5.804   4.686  12.026
 9973TIP3   OH254113   6.296   5.480  12.430
 9973TIP3    H154114   6.202   5.488  12.455
 9973TIP3    H254115   6.337   5.547  12.488
 9974TIP3   OH254116   7.097   5.098  12.017
 9974TIP3    H154117   7.111   5.043  12.098
 9974TIP3    H254118   7.006   5.072  11.997
 9975TIP3   OH254119   7.540   5.498  12.050
 9975TIP3    H154120   7.559   5.576  11.993
 9975TIP3    H254121   7.457   5.530  12.089
 9976TIP3   OH254122   7.170   4.947  12.246
 9976TIP3    H154123   7.134   4.859  12.269
 9976TIP3    H254124   7.266   4.928  12.237
 9977TIP3   OH254125   6.480   5.194  11.866
 9977TIP3    H154126   6.466   5.163  11.775
 9977TIP3    H254127   6.431   5.127  11.916
 9978TIP3   OH254128   6.332   5.099  12.122
 9978TIP3    H154129   6.405   5.042  12.153
 9978TIP3    H254130   6.361   5.188  12.152
 9979TIP3   OH254131   6.029   4.848  12.144
 9979TIP3    H154132   5.980   4.853  12.227
 9979TIP3    H254133   6.119   4.860  12.176
 9980TIP3   OH254134   6.663   5.303  12.187
 9980TIP3    H154135   6.572   5.319  12.223
 9980TIP3    H254136   6.684   5.388  12.146
 9981TIP3   OH254137   6.391   5.360  12.191
 9981TIP3    H154138   6.399   5.433  12.126
 9981TIP3    H254139   6.351   5.411  12.265
 9982TIP3   OH254140   6.190   4.070  12.116
 9982TIP3    H154141   6.170   4.163  12.137
 9982TIP3    H254142   6.251   4.050  12.187
 9983TIP3   OH254143   7.140   4.543  12.771
 9983TIP3    H154144   7.062   4.525  12.825
 9983TIP3    H254145   7.206   4.486  12.815
 9984TIP3   OH254146   6.057   5.117  12.018
 9984TIP3    H154147   6.132   5.144  12.073
 9984TIP3    H254148   6.100   5.044  11.970
 9985TIP3   OH254149   5.927   4.390  11.944
 9985TIP3    H154150   5.942   4.471  11.996
 9985TIP3    H254151   5.842   4.359  11.978
 9986TIP3   OH254152   5.869   5.274  12.470
 9986TIP3    H154153   5.789   5.306  12.425
 9986TIP3    H254154   5.920   5.252  12.390
 9987TIP3   OH254155   6.680   5.403  11.874
 9987TIP3    H154156   6.637   5.315  11.887
 9987TIP3    H254157   6.766   5.380  11.832
 9988TIP3   OH254158   7.146   5.334  11.893
 9988TIP3    H154159   7.160   5.255  11.949
 9988TIP3    H254160   7.227   5.334  11.839
 9989TIP3   OH254161   6.193   4.930  11.844
 9989TIP3    H154162   6.160   4.850  11.887
 9989TIP3    H254163   6.284   4.907  11.817
 9990TIP3   OH254164   6.793   5.047  11.821
 9990TIP3    H154165   6.762   5.042  11.915
 9990TIP3    H254166   6.784   4.953  11.799
 9991TIP3   OH254167   6.476   4.536  11.936
 9991TIP3    H154168   6.403   4.537  11.871
 9991TIP3    H254169   6.544   4.583  11.886
 9992TIP3   OH254170   7.365   4.772  11.882
 9992TIP3    H154171   7.343   4.749  11.789
 9992TIP3    H254172   7.374   4.870  11.877
 9993TIP3   OH254173   6.428   5.590  12.050
 9993TIP3    H154174   6.518   5.601  12.084
 9993TIP3    H254175   6.429   5.654  11.976
 9994TIP3   OH254176   5.782   5.069  11.997
 9994TIP3    H154177   5.879   5.077  11.998
 9994TIP3    H254178   5.768   5.017  11.914
 9995TIP3   OH254179   5.698   5.560  12.489
 9995TIP3    H154180   5.616   5.526  12.447
 9995TIP3    H254181   5.697   5.518  12.575
 9996TIP3   OH254182   7.434   4.887  12.270
 9996TIP3    H154183   7.517   4.928  12.296
 9996TIP3    H254184   7.433   4.807  12.328
 9997TIP3   OH254185   7.469   4.694  12.460
 9997TIP3    H154186   7.386   4.644  12.480
 9997TIP3    H254187   7.492   4.721  12.550
 9998TIP3   OH254188   7.384   4.942  12.999
 9998TIP3    H154189   7.465   4.890  13.022
 9998TIP3    H254190   7.415   5.033  12.991
 9999TIP3   OH254191   7.491   4.666  12.114
 9999TIP3    H154192   7.446   4.691  12.031
 9999TIP3    H254193   7.497   4.753  12.157
10000TIP3   OH254194   7.317   4.371  11.944
10000TIP3    H154195   7.339   4.441  11.881
10000TIP3    H254196   7.289   4.298  11.885
10001TIP3   OH254197   7.244   4.541  12.512
10001TIP3    H154198   7.237   4.457  12.460
10001TIP3    H254199   7.191   4.523  12.592
10002TIP3   OH254200   7.250   4.130  11.836
10002TIP3    H154201   7.321   4.097  11.892
10002TIP3    H254202   7.170   4.118  11.889
10003TIP3   OH254203   7.241   4.324  12.336
10003TIP3    H154204   7.242   4.242  12.387
10003TIP3    H254205   7.331   4.320  12.299
10004TIP3   OH254206   7.267   4.052  12.382
10004TIP3    H154207   7.279   4.010  12.471
10004TIP3    H254208   7.170   4.060  12.380
10005TIP3   OH254209   7.511   4.024  12.034
10005TIP3    H154210   7.537   3.945  11.983
10005TIP3    H254211   7.558   4.096  11.989
10006TIP3   OH254212   7.184   5.531  12.557
10006TIP3    H154213   7.242   5.518  12.480
10006TIP3    H254214   7.238   5.590  12.613
10007TIP3   OH254215   6.338   5.362  12.852
10007TIP3    H154216   6.345   5.265  12.850
10007TIP3    H254217   6.337   5.379  12.947
10008TIP3   OH254218   7.333   3.905  12.607
10008TIP3    H154219   7.399   3.835  12.593
10008TIP3    H254220   7.386   3.964  12.662
10009TIP3   OH254221   6.491   3.841  12.518
10009TIP3    H154222   6.581   3.874  12.542
10009TIP3    H254223   6.447   3.846  12.604
10010TIP3   OH254224   5.802   5.389  12.230
10010TIP3    H154225   5.708   5.402  12.211
10010TIP3    H254226   5.835   5.477  12.204
10011TIP3   OH254227   5.967   4.036  11.951
10011TIP3    H154228   6.024   3.968  11.911
10011TIP3    H254229   6.000   4.041  12.042
10012TIP3   OH254230   6.713   5.566  12.074
10012TIP3    H154231   6.809   5.551  12.057
10012TIP3    H254232   6.679   5.513  11.998
10013TIP3   OH254233   7.376   5.483  12.373
10013TIP3    H154234   7.342   5.401  12.332
10013TIP3    H254235   7.384   5.537  12.292
10014TIP3   OH254236   5.961   5.488  11.931
10014TIP3    H154237   5.941   5.522  12.020
10014TIP3    H254238   6.040   5.434  11.949
10015TIP3   OH254239   7.582   4.436  12.466
10015TIP3    H154240   7.558   4.530  12.465
10015TIP3    H254241   7.529   4.402  12.393
10016TIP3   OH254242   7.609   5.245  12.614
10016TIP3    H154243   7.650   5.161  12.640
10016TIP3    H254244   7.525   5.219  12.571
10017TIP3   OH254245   7.536   4.116  12.595
10017TIP3    H154246   7.615   4.158  12.633
10017TIP3    H254247   7.554   4.113  12.500
10018TIP3   OH254248   7.473   5.673  12.545
10018TIP3    H154249   7.446   5.612  12.474
10018TIP3    H254250   7.483   5.607  12.617
10019TIP3   OH254251   7.554   5.491  12.714
10019TIP3    H154252   7.571   5.404  12.672
10019TIP3    H254253   7.646   5.520  12.726
10020TIP3   OH254254   7.566   4.753  12.998
10020TIP3    H154255   7.530   4.681  12.944
10020TIP3    H254256   7.634   4.700  13.044
10021TIP3   OH254257   7.525   4.054  12.303
10021TIP3    H154258   7.430   4.053  12.331
10021TIP3    H254259   7.518   4.041  12.206
10022TIP3   OH254260   1.217   6.636  12.542
10022TIP3    H154261   1.222   6.732  12.550
10022TIP3    H254262   1.146   6.628  12.476
10023TIP3   OH254263   1.436   6.901  12.746
10023TIP3    H154264   1.413   6.811  12.776
10023TIP3    H254265   1.510   6.920  12.806
10024TIP3   OH254266   0.135   6.317  12.370
10024TIP3    H154267   0.153   6.377  12.446
10024TIP3    H254268   0.038   6.307  12.380
10025TIP3   OH254269   0.171   6.498  12.579
10025TIP3    H154270   0.202   6.425  12.639
10025TIP3    H254271   0.183   6.575  12.637
10026TIP3   OH254272   1.284   6.238  12.976
10026TIP3    H154273   1.279   6.139  12.989
10026TIP3    H254274   1.204   6.249  12.924
10027TIP3   OH254275   0.560   6.057  12.687
10027TIP3    H154276   0.524   6.137  12.646
10027TIP3    H254277   0.518   5.988  12.635
10028TIP3   OH254278   1.362   6.079  12.475
10028TIP3    H154279   1.419   6.046  12.546
10028TIP3    H254280   1.410   6.162  12.457
10029TIP3   OH254281   0.234   6.277  12.723
10029TIP3    H154282   0.295   6.256  12.795
10029TIP3    H254283   0.276   6.234  12.645
10030TIP3   OH254284   1.157   6.885  12.435
10030TIP3    H154285   1.138   6.881  12.341
10030TIP3    H254286   1.178   6.979  12.449
10031TIP3   OH254287   1.503   6.041  12.700
10031TIP3    H154288   1.422   6.013  12.746
10031TIP3    H254289   1.543   5.955  12.680
10032TIP3   OH254290   0.410   6.130  12.905
10032TIP3    H154291   0.440   6.096  12.991
10032TIP3    H254292   0.470   6.079  12.847
10033TIP3   OH254293   0.180   6.902  12.260
10033TIP3    H154294   0.156   6.981  12.207
10033TIP3    H254295   0.178   6.938  12.352
10034TIP3   OH254296   1.470   7.001  12.482
10034TIP3    H154297   1.440   6.928  12.425
10034TIP3    H254298   1.450   6.968  12.572
10035TIP3   OH254299   1.084   6.579  12.301
10035TIP3    H154300   1.013   6.641  12.273
10035TIP3    H254301   1.155   6.601  12.238
10036TIP3   OH254302   1.049   6.471  11.983
10036TIP3    H154303   1.115   6.517  12.039
10036TIP3    H254304   1.077   6.379  11.996
10037TIP3   OH254305   1.442   6.545  12.379
10037TIP3    H154306   1.373   6.585  12.436
10037TIP3    H254307   1.507   6.512  12.444
10038TIP3   OH254308   0.622   6.638  12.555
10038TIP3    H154309   0.552   6.627  12.486
10038TIP3    H254310   0.656   6.548  12.555
10039TIP3   OH254311   1.295   6.545  12.135
10039TIP3    H154312   1.348   6.529  12.216
10039TIP3    H254313   1.365   6.568  12.069
10040TIP3   OH254314   1.092   7.259  12.493
10040TIP3    H154315   1.043   7.222  12.568
10040TIP3    H254316   1.029   7.330  12.464
10041TIP3   OH254317   1.687   5.669  12.177
10041TIP3    H154318   1.590   5.682  12.184
10041TIP3    H254319   1.718   5.753  12.136
10042TIP3   OH254320   0.486   6.546  12.345
10042TIP3    H154321   0.427   6.609  12.298
10042TIP3    H254322   0.439   6.462  12.339
10043TIP3   OH254323   1.789   7.111  11.997
10043TIP3    H154324   1.817   7.205  12.001
10043TIP3    H254325   1.874   7.064  12.014
10044TIP3   OH254326   0.072   6.979  12.860
10044TIP3    H154327   0.148   7.026  12.895
10044TIP3    H254328   0.002   7.025  12.909
10045TIP3   OH254329   1.331   7.376  12.058
10045TIP3    H154330   1.405   7.317  12.030
10045TIP3    H254331   1.323   7.354  12.154
10046TIP3   OH254332   1.277   7.352  12.312
10046TIP3    H154333   1.186   7.352  12.347
10046TIP3    H254334   1.319   7.290  12.374
10047TIP3   OH254335   1.485   6.644  11.976
10047TIP3    H154336   1.455   6.667  11.885
10047TIP3    H254337   1.582   6.657  11.970
10048TIP3   OH254338   1.023   6.005  11.964
10048TIP3    H154339   0.992   5.999  12.057
10048TIP3    H254340   0.975   5.928  11.930
10049TIP3   OH254341   0.563   6.293  12.527
10049TIP3    H154342   0.479   6.262  12.487
10049TIP3    H254343   0.624   6.269  12.455
10050TIP3   OH254344   1.138   6.345  12.394
10050TIP3    H154345   1.117   6.435  12.356
10050TIP3    H254346   1.207   6.317  12.331
10051TIP3   OH254347   1.158   6.364  12.701
10051TIP3    H154348   1.191   6.433  12.640
10051TIP3    H254349   1.192   6.287  12.655
10052TIP3   OH254350   0.646   6.028  11.892
10052TIP3    H154351   0.609   5.978  11.968
10052TIP3    H254352   0.578   6.092  11.870
10053TIP3   OH254353   0.056   5.993  12.637
10053TIP3    H154354   0.134   5.991  12.696
10053TIP3    H254355   0.089   6.018  12.550
10054TIP3   OH254356   0.084   6.138  12.167
10054TIP3    H154357   0.121   6.170  12.083
10054TIP3    H254358   0.124   6.202  12.231
10055TIP3   OH254359   0.857   6.062  12.629
10055TIP3    H154360   0.760   6.045  12.634
10055TIP3    H254361   0.877   6.022  12.716
10056TIP3   OH254362   0.321   6.177  12.490
10056TIP3    H154363   0.254   6.207  12.425
10056TIP3    H254364   0.337   6.083  12.463
10057TIP3   OH254365   0.660   6.202  12.288
10057TIP3    H154366   0.754   6.196  12.264
10057TIP3    H254367   0.628   6.255  12.211
10058TIP3   OH254368   0.592   6.321  12.058
10058TIP3    H154369   0.530   6.270  12.005
10058TIP3    H254370   0.655   6.354  11.989
10059TIP3   OH254371   0.423   5.937  12.464
10059TIP3    H154372   0.382   5.852  12.489
10059TIP3    H254373   0.508   5.909  12.429
10060TIP3   OH254374   0.896   6.753  12.248
10060TIP3    H154375   0.824   6.705  12.202
10060TIP3    H254376   0.845   6.806  12.313
10061TIP3   OH254377   1.266   6.064  12.052
10061TIP3    H154378   1.184   6.065  11.998
10061TIP3    H254379   1.274   6.158  12.077
10062TIP3   OH254380   1.313   6.284  12.194
10062TIP3    H154381   1.391   6.248  12.238
10062TIP3    H254382   1.352   6.346  12.130
10063TIP3   OH254383   1.064   6.914  12.116
10063TIP3    H154384   1.026   7.002  12.138
10063TIP3    H254385   1.006   6.856  12.170
10064TIP3   OH254386   1.820   6.253  12.188
10064TIP3    H154387   1.810   6.222  12.096
10064TIP3    H254388   1.839   6.348  12.173
10065TIP3   OH254389   1.614   7.141  12.220
10065TIP3    H154390   1.579   7.073  12.279
10065TIP3    H254391   1.668   7.094  12.155
10066TIP3   OH254392   1.380   6.626  12.886
10066TIP3    H154393   1.298   6.680  12.894
10066TIP3    H254394   1.400   6.615  12.980
10067TIP3   OH254395   0.207   6.551  12.010
10067TIP3    H154396   0.269   6.597  12.071
10067TIP3    H254397   0.128   6.542  12.066
10068TIP3   OH254398   0.739   6.878  12.440
10068TIP3    H154399   0.749   6.947  12.506
10068TIP3    H254400   0.685   6.810  12.486
10069TIP3   OH254401   1.438   6.950  12.009
10069TIP3    H154402   1.452   6.904  12.095
10069TIP3    H254403   1.346   6.924  11.993
10070TIP3   OH254404   1.865   7.370  12.024
10070TIP3    H154405   1.930   7.441  12.036
10070TIP3    H254406   1.780   7.418  12.041
10071TIP3   OH254407   1.485   6.813  12.250
10071TIP3    H154408   1.473   6.716  12.250
10071TIP3    H254409   1.582   6.818  12.251
10072TIP3   OH254410   0.816   7.064  11.848
10072TIP3    H154411   0.805   7.013  11.767
10072TIP3    H254412   0.767   7.009  11.909
10073TIP3   OH254413   0.348   6.704  12.182
10073TIP3    H154414   0.275   6.759  12.218
10073TIP3    H254415   0.384   6.762  12.113
10074TIP3   OH254416   1.215   5.962  12.292
10074TIP3    H154417   1.236   5.994  12.201
10074TIP3    H254418   1.270   6.023  12.349
10075TIP3   OH254419   0.979   7.156  12.189
10075TIP3    H154420   0.933   7.201  12.261
10075TIP3    H254421   1.037   7.227  12.158
10076TIP3   OH254422   0.941   6.137  12.362
10076TIP3    H154423   0.999   6.215  12.371
10076TIP3    H254424   0.922   6.110  12.455
10077TIP3   OH254425   1.030   5.820  12.414
10077TIP3    H154426   0.992   5.878  12.480
10077TIP3    H254427   1.099   5.881  12.376
10078TIP3   OH254428   0.591   5.947  12.145
10078TIP3    H154429   0.582   6.032  12.193
10078TIP3    H254430   0.683   5.923  12.165
10079TIP3   OH254431   1.450   6.325  12.768
10079TIP3    H154432   1.410   6.414  12.762
10079TIP3    H254433   1.392   6.282  12.835
10080TIP3   OH254434   0.210   6.262  11.960
10080TIP3    H154435   0.240   6.350  11.987
10080TIP3    H254436   0.173   6.280  11.873
10081TIP3   OH254437   0.252   5.748  12.746
10081TIP3    H154438   0.266   5.741  12.650
10081TIP3    H254439   0.283   5.660  12.773
10082TIP3   OH254440   0.219   7.087  12.447
10082TIP3    H154441   0.209   7.141  12.529
10082TIP3    H254442   0.185   7.152  12.383
10083TIP3   OH254443   1.030   7.239  11.877
10083TIP3    H154444   0.971   7.161  11.878
10083TIP3    H254445   1.105   7.208  11.821
10084TIP3   OH254446   1.503   7.222  11.918
10084TIP3    H154447   1.515   7.133  11.956
10084TIP3    H254448   1.568   7.224  11.845
10085TIP3   OH254449   0.575   6.826  11.886
10085TIP3    H154450   0.576   6.746  11.941
10085TIP3    H254451   0.664   6.816  11.847
10086TIP3   OH254452   1.134   6.922  11.842
10086TIP3    H154453   1.098   6.915  11.933
10086TIP3    H254454   1.133   6.826  11.818
10087TIP3   OH254455   0.681   6.610  12.108
10087TIP3    H154456   0.630   6.546  12.162
10087TIP3    H254457   0.731   6.550  12.049
10088TIP3   OH254458   0.786   6.446  11.910
10088TIP3    H154459   0.800   6.491  11.823
10088TIP3    H254460   0.879   6.443  11.941
10089TIP3   OH254461   1.741   6.674  11.866
10089TIP3    H154462   1.704   6.642  11.781
10089TIP3    H254463   1.726   6.771  11.858
10090TIP3   OH254464   0.780   7.494  12.038
10090TIP3    H154465   0.852   7.484  12.102
10090TIP3    H254466   0.806   7.574  11.990
10091TIP3   OH254467   0.156   7.005  12.011
10091TIP3    H154468   0.226   6.940  12.025
10091TIP3    H254469   0.116   6.960  11.935
10092TIP3   OH254470   0.053   7.449  12.428
10092TIP3    H154471  -0.033   7.489  12.447
10092TIP3    H254472   0.104   7.484  12.505
10093TIP3   OH254473   0.138   7.248  12.649
10093TIP3    H154474   0.045   7.263  12.673
10093TIP3    H254475   0.185   7.329  12.672
10094TIP3   OH254476   1.774   6.758  12.256
10094TIP3    H154477   1.864   6.796  12.262
10094TIP3    H254478   1.782   6.684  12.320
10095TIP3   OH254479   1.807   6.547  12.448
10095TIP3    H154480   1.731   6.505  12.495
10095TIP3    H254481   1.862   6.575  12.524
10096TIP3   OH254482   1.860   6.521  12.082
10096TIP3    H154483   1.791   6.521  12.013
10096TIP3    H254484   1.835   6.603  12.128
10097TIP3   OH254485   1.595   6.266  11.970
10097TIP3    H154486   1.680   6.307  11.952
10097TIP3    H254487   1.601   6.185  11.916
10098TIP3   OH254488   1.609   6.403  12.557
10098TIP3    H154489   1.581   6.332  12.495
10098TIP3    H254490   1.560   6.376  12.638
10099TIP3   OH254491   1.612   6.016  11.848
10099TIP3    H154492   1.656   5.973  11.924
10099TIP3    H254493   1.520   5.989  11.859
10100TIP3   OH254494   1.578   6.210  12.376
10100TIP3    H154495   1.585   6.111  12.374
10100TIP3    H254496   1.637   6.228  12.301
10101TIP3   OH254497   1.610   5.945  12.362
10101TIP3    H154498   1.633   5.894  12.441
10101TIP3    H254499   1.560   5.875  12.314
10102TIP3   OH254500   0.192   5.973  12.881
10102TIP3    H154501   0.214   5.887  12.837
10102TIP3    H254502   0.277   6.022  12.878
10103TIP3   OH254503   0.114   6.373  12.969
10103TIP3    H154504   0.140   6.283  12.944
10103TIP3    H254505   0.074   6.411  12.890
10104TIP3   OH254506   1.805   5.907  12.026
10104TIP3    H154507   1.859   5.849  11.966
10104TIP3    H254508   1.828   5.995  11.987
10105TIP3   OH254509   0.105   5.915  12.314
10105TIP3    H154510   0.013   5.901  12.346
10105TIP3    H254511   0.087   5.994  12.259
10106TIP3   OH254512   1.495   7.375  12.494
10106TIP3    H154513   1.582   7.358  12.454
10106TIP3    H254514   1.515   7.413  12.581
10107TIP3   OH254515   1.562   5.753  12.764
10107TIP3    H154516   1.639   5.748  12.704
10107TIP3    H254517   1.510   5.673  12.745
10108TIP3   OH254518   1.745   5.783  12.573
10108TIP3    H154519   1.806   5.715  12.534
10108TIP3    H254520   1.804   5.860  12.569
10109TIP3   OH254521   0.318   5.687  12.496
10109TIP3    H154522   0.234   5.664  12.448
10109TIP3    H254523   0.361   5.598  12.502
10110TIP3   OH254524   0.209   5.693  12.148
10110TIP3    H154525   0.207   5.742  12.065
10110TIP3    H254526   0.171   5.758  12.212
10111TIP3   OH254527   0.736   5.672  12.565
10111TIP3    H154528   0.823   5.672  12.522
10111TIP3    H254529   0.757   5.713  12.651
10112TIP3   OH254530   1.448   5.735  12.291
10112TIP3    H154531   1.371   5.792  12.309
10112TIP3    H254532   1.411   5.647  12.313
10113TIP3   OH254533   0.151   7.264  12.253
10113TIP3    H154534   0.074   7.305  12.210
10113TIP3    H254535   0.166   7.332  12.323
10114TIP3   OH254536   0.312   5.898  11.964
10114TIP3    H154537   0.384   5.846  11.924
10114TIP3    H254538   0.343   5.905  12.056
10115TIP3   OH254539   0.889   5.930  12.190
10115TIP3    H154540   0.932   5.871  12.253
10115TIP3    H254541   0.897   6.014  12.241
10116TIP3   OH254542   1.060   7.409  12.092
10116TIP3    H154543   1.152   7.407  12.059
10116TIP3    H254544   1.014   7.372  12.015
10117TIP3   OH254545   1.722   7.357  12.328
10117TIP3    H154546   1.689   7.271  12.292
10117TIP3    H254547   1.711   7.412  12.248
10118TIP3   OH254548   0.306   7.376  11.917
10118TIP3    H154549   0.254   7.413  11.991
10118TIP3    H254550   0.378   7.333  11.963
10119TIP3   OH254551   3.102   6.645  12.531
10119TIP3    H154552   3.071   6.738  12.530
10119TIP3    H254553   3.049   6.611  12.457
10120TIP3   OH254554   3.314   6.879  12.736
10120TIP3    H154555   3.285   6.798  12.783
10120TIP3    H254556   3.341   6.936  12.810
10121TIP3   OH254557   1.972   6.302  12.456
10121TIP3    H154558   1.960   6.397  12.472
10121TIP3    H254559   1.908   6.288  12.383
10122TIP3   OH254560   1.988   6.573  12.665
10122TIP3    H154561   2.039   6.512  12.720
10122TIP3    H254562   2.037   6.654  12.683
10123TIP3   OH254563   3.050   7.326  12.768
10123TIP3    H154564   3.131   7.297  12.723
10123TIP3    H254565   3.087   7.335  12.860
10124TIP3   OH254566   3.155   6.261  12.989
10124TIP3    H154567   3.086   6.199  13.013
10124TIP3    H254568   3.148   6.266  12.892
10125TIP3   OH254569   2.481   6.049  12.665
10125TIP3    H154570   2.488   6.133  12.614
10125TIP3    H254571   2.406   6.007  12.619
10126TIP3   OH254572   3.214   6.056  12.516
10126TIP3    H154573   3.252   6.025  12.601
10126TIP3    H254574   3.256   6.142  12.507
10127TIP3   OH254575   2.061   6.309  12.789
10127TIP3    H154576   2.133   6.269  12.845
10127TIP3    H254577   2.098   6.287  12.702
10128TIP3   OH254578   2.572   6.441  12.702
10128TIP3    H154579   2.654   6.402  12.736
10128TIP3    H254580   2.528   6.365  12.659
10129TIP3   OH254581   3.010   6.889  12.417
10129TIP3    H154582   2.999   6.893  12.320
10129TIP3    H254583   2.993   6.984  12.438
10130TIP3   OH254584   3.384   5.993  12.730
10130TIP3    H154585   3.468   5.951  12.707
10130TIP3    H254586   3.413   6.066  12.787
10131TIP3   OH254587   2.268   6.157  12.858
10131TIP3    H154588   2.289   6.105  12.938
10131TIP3    H254589   2.345   6.143  12.801
10132TIP3   OH254590   2.035   6.849  12.262
10132TIP3    H154591   2.034   6.910  12.185
10132TIP3    H254592   2.062   6.910  12.333
10133TIP3   OH254593   3.223   7.227  12.558
10133TIP3    H154594   3.261   7.139  12.540
10133TIP3    H254595   3.297   7.289  12.538
10134TIP3   OH254596   3.369   6.974  12.462
10134TIP3    H154597   3.337   6.913  12.393
10134TIP3    H254598   3.355   6.925  12.546
10135TIP3   OH254599   2.961   6.571  12.304
10135TIP3    H154600   2.899   6.644  12.281
10135TIP3    H254601   3.038   6.590  12.246
10136TIP3   OH254602   2.973   6.447  11.979
10136TIP3    H154603   3.024   6.491  12.051
10136TIP3    H254604   2.987   6.356  12.008
10137TIP3   OH254605   3.332   6.569  12.404
10137TIP3    H154606   3.257   6.592  12.464
10137TIP3    H254607   3.391   6.521  12.464
10138TIP3   OH254608   2.470   6.642  12.566
10138TIP3    H154609   2.432   6.586  12.496
10138TIP3    H254610   2.501   6.575  12.631
10139TIP3   OH254611   3.180   6.540  12.165
10139TIP3    H154612   3.243   6.550  12.239
10139TIP3    H254613   3.235   6.573  12.089
10140TIP3   OH254614   2.953   7.159  12.467
10140TIP3    H154615   3.011   7.205  12.531
10140TIP3    H254616   2.918   7.231  12.411
10141TIP3   OH254617   3.576   5.670  12.171
10141TIP3    H154618   3.484   5.681  12.203
10141TIP3    H254619   3.603   5.762  12.152
10142TIP3   OH254620   2.345   6.532  12.340
10142TIP3    H154621   2.323   6.618  12.297
10142TIP3    H254622   2.298   6.468  12.286
10143TIP3   OH254623   3.673   7.111  11.976
10143TIP3    H154624   3.695   7.205  11.989
10143TIP3    H254625   3.757   7.067  12.000
10144TIP3   OH254626   1.980   7.091  12.853
10144TIP3    H154627   2.068   7.098  12.893
10144TIP3    H254628   1.920   7.129  12.920
10145TIP3   OH254629   2.931   7.473  12.332
10145TIP3    H154630   2.934   7.499  12.238
10145TIP3    H254631   2.881   7.548  12.371
10146TIP3   OH254632   2.307   7.311  12.530
10146TIP3    H154633   2.345   7.378  12.591
10146TIP3    H254634   2.269   7.248  12.593
10147TIP3   OH254635   3.191   7.364  12.064
10147TIP3    H154636   3.270   7.312  12.037
10147TIP3    H254637   3.187   7.341  12.161
10148TIP3   OH254638   3.168   7.340  12.325
10148TIP3    H154639   3.086   7.386  12.348
10148TIP3    H254640   3.184   7.287  12.406
10149TIP3   OH254641   3.332   6.640  11.976
10149TIP3    H154642   3.322   6.654  11.879
10149TIP3    H254643   3.426   6.663  11.986
10150TIP3   OH254644   2.905   6.002  11.990
10150TIP3    H154645   2.880   5.978  12.081
10150TIP3    H254646   2.854   5.931  11.945
10151TIP3   OH254647   2.458   6.267  12.521
10151TIP3    H154648   2.367   6.240  12.497
10151TIP3    H254649   2.501   6.272  12.432
10152TIP3   OH254650   3.031   6.343  12.405
10152TIP3    H154651   3.000   6.427  12.362
10152TIP3    H254652   3.091   6.312  12.335
10153TIP3   OH254653   3.133   6.313  12.704
10153TIP3    H154654   3.105   6.393  12.654
10153TIP3    H254655   3.101   6.244  12.645
10154TIP3   OH254656   2.504   6.003  11.878
10154TIP3    H154657   2.476   5.964  11.963
10154TIP3    H254658   2.430   6.062  11.854
10155TIP3   OH254659   1.932   5.997  12.625
10155TIP3    H154660   1.984   6.078  12.636
10155TIP3    H254661   1.954   5.975  12.532
10156TIP3   OH254662   2.023   6.054  12.173
10156TIP3    H154663   2.066   6.086  12.092
10156TIP3    H254664   1.949   6.118  12.179
10157TIP3   OH254665   2.757   6.039  12.627
10157TIP3    H154666   2.660   6.028  12.633
10157TIP3    H254667   2.778   6.039  12.722
10158TIP3   OH254668   2.186   6.154  12.513
10158TIP3    H154669   2.123   6.207  12.460
10158TIP3    H254670   2.180   6.064  12.477
10159TIP3   OH254671   2.557   6.221  12.280
10159TIP3    H154672   2.653   6.213  12.267
10159TIP3    H254673   2.530   6.279  12.207
10160TIP3   OH254674   2.473   6.334  12.049
10160TIP3    H154675   2.423   6.276  11.989
10160TIP3    H254676   2.542   6.367  11.986
10161TIP3   OH254677   2.322   5.909  12.471
10161TIP3    H154678   2.367   5.822  12.469
10161TIP3    H254679   2.354   5.946  12.388
10162TIP3   OH254680   2.790   6.773  12.246
10162TIP3    H154681   2.712   6.729  12.205
10162TIP3    H254682   2.746   6.806  12.329
10163TIP3   OH254683   3.162   6.060  12.049
10163TIP3    H154684   3.064   6.064  12.039
10163TIP3    H254685   3.182   6.145  12.093
10164TIP3   OH254686   3.200   6.278  12.193
10164TIP3    H154687   3.272   6.241  12.249
10164TIP3    H254688   3.245   6.356  12.156
10165TIP3   OH254689   2.970   6.915  12.116
10165TIP3    H154690   2.924   6.998  12.145
10165TIP3    H254691   2.909   6.848  12.151
10166TIP3   OH254692   3.698   6.257  12.194
10166TIP3    H154693   3.645   6.249  12.112
10166TIP3    H254694   3.723   6.352  12.190
10167TIP3   OH254695   3.526   7.121  12.218
10167TIP3    H154696   3.490   7.052  12.277
10167TIP3    H254697   3.560   7.072  12.142
10168TIP3   OH254698   3.294   6.649  12.903
10168TIP3    H154699   3.258   6.611  12.985
10168TIP3    H254700   3.373   6.594  12.889
10169TIP3   OH254701   2.524   7.085  12.554
10169TIP3    H154702   2.552   7.169  12.512
10169TIP3    H254703   2.431   7.080  12.525
10170TIP3   OH254704   2.146   6.554  12.003
10170TIP3    H154705   2.189   6.611  12.071
10170TIP3    H254706   2.051   6.557  12.024
10171TIP3   OH254707   2.637   6.836  12.450
10171TIP3    H154708   2.603   6.911  12.499
10171TIP3    H254709   2.599   6.761  12.499
10172TIP3   OH254710   2.568   7.336  12.428
10172TIP3    H154711   2.470   7.332  12.421
10172TIP3    H254712   2.577   7.421  12.477
10173TIP3   OH254713   3.313   6.962  12.020
10173TIP3    H154714   3.316   6.923  12.110
10173TIP3    H254715   3.226   6.931  11.992
10174TIP3   OH254716   3.740   7.377  12.037
10174TIP3    H154717   3.790   7.462  12.045
10174TIP3    H254718   3.647   7.410  12.042
10175TIP3   OH254719   3.379   6.804  12.241
10175TIP3    H154720   3.360   6.721  12.288
10175TIP3    H254721   3.476   6.804  12.240
10176TIP3   OH254722   2.716   7.058  11.855
10176TIP3    H154723   2.689   6.991  11.791
10176TIP3    H254724   2.650   7.047  11.926
10177TIP3   OH254725   2.592   7.011  12.107
10177TIP3    H154726   2.652   6.968  12.169
10177TIP3    H254727   2.600   7.104  12.137
10178TIP3   OH254728   2.268   6.733  12.168
10178TIP3    H154729   2.184   6.773  12.199
10178TIP3    H254730   2.311   6.810  12.126
10179TIP3   OH254731   3.093   5.952  12.287
10179TIP3    H154732   3.143   5.984  12.210
10179TIP3    H254733   3.147   5.978  12.364
10180TIP3   OH254734   2.860   7.152  12.200
10180TIP3    H154735   2.772   7.186  12.223
10180TIP3    H254736   2.911   7.233  12.187
10181TIP3   OH254737   2.812   6.144  12.372
10181TIP3    H154738   2.882   6.210  12.389
10181TIP3    H254739   2.798   6.105  12.460
10182TIP3   OH254740   2.896   5.827  12.424
10182TIP3    H154741   2.885   5.881  12.504
10182TIP3    H254742   2.966   5.879  12.379
10183TIP3   OH254743   2.613   7.271  12.174
10183TIP3    H154744   2.628   7.357  12.127
10183TIP3    H254745   2.589   7.308  12.262
10184TIP3   OH254746   2.469   5.943  12.145
10184TIP3    H154747   2.463   6.032  12.182
10184TIP3    H254748   2.564   5.925  12.163
10185TIP3   OH254749   3.380   6.412  12.745
10185TIP3    H154750   3.287   6.384  12.754
10185TIP3    H254751   3.425   6.357  12.812
10186TIP3   OH254752   2.288   6.978  12.033
10186TIP3    H154753   2.358   7.035  12.068
10186TIP3    H254754   2.341   6.924  11.968
10187TIP3   OH254755   2.175   6.252  11.991
10187TIP3    H154756   2.173   6.348  12.008
10187TIP3    H254757   2.083   6.233  11.964
10188TIP3   OH254758   2.092   7.090  12.424
10188TIP3    H154759   2.020   7.121  12.480
10188TIP3    H254760   2.099   7.162  12.359
10189TIP3   OH254761   2.910   7.256  11.876
10189TIP3    H154762   2.863   7.170  11.883
10189TIP3    H254763   2.991   7.232  11.825
10190TIP3   OH254764   3.383   7.223  11.920
10190TIP3    H154765   3.394   7.134  11.957
10190TIP3    H254766   3.453   7.225  11.851
10191TIP3   OH254767   2.443   6.812  11.864
10191TIP3    H154768   2.465   6.758  11.941
10191TIP3    H254769   2.527   6.803  11.814
10192TIP3   OH254770   3.021   6.920  11.820
10192TIP3    H154771   2.975   6.920  11.904
10192TIP3    H254772   3.020   6.824  11.799
10193TIP3   OH254773   2.578   6.633  12.132
10193TIP3    H154774   2.519   6.578  12.188
10193TIP3    H254775   2.609   6.568  12.067
10194TIP3   OH254776   2.690   6.460  11.925
10194TIP3    H154777   2.678   6.486  11.832
10194TIP3    H254778   2.787   6.463  11.934
10195TIP3   OH254779   3.609   6.663  11.878
10195TIP3    H154780   3.591   6.633  11.786
10195TIP3    H254781   3.605   6.761  11.867
10196TIP3   OH254782   2.663   7.510  12.070
10196TIP3    H154783   2.761   7.518  12.070
10196TIP3    H254784   2.637   7.567  11.998
10197TIP3   OH254785   2.012   6.946  12.006
10197TIP3    H154786   2.110   6.949  11.999
10197TIP3    H254787   1.987   6.901  11.923
10198TIP3   OH254788   1.890   7.502  12.472
10198TIP3    H154789   1.828   7.442  12.424
10198TIP3    H254790   1.884   7.470  12.562
10199TIP3   OH254791   3.656   6.751  12.261
10199TIP3    H154792   3.745   6.789  12.272
10199TIP3    H254793   3.652   6.686  12.335
10200TIP3   OH254794   3.693   6.567  12.463
10200TIP3    H154795   3.622   6.511  12.502
10200TIP3    H254796   3.747   6.585  12.543
10201TIP3   OH254797   3.681   6.826  12.974
10201TIP3    H154798   3.750   6.759  12.975
10201TIP3    H254799   3.718   6.894  13.033
10202TIP3   OH254800   3.734   6.542  12.095
10202TIP3    H154801   3.673   6.557  12.020
10202TIP3    H254802   3.706   6.616  12.154
10203TIP3   OH254803   3.545   6.257  11.937
10203TIP3    H154804   3.569   6.316  11.865
10203TIP3    H254805   3.533   6.174  11.890
10204TIP3   OH254806   3.518   6.372  12.524
10204TIP3    H154807   3.468   6.299  12.482
10204TIP3    H254808   3.469   6.384  12.608
10205TIP3   OH254809   3.507   6.000  11.841
10205TIP3    H154810   3.544   5.964  11.924
10205TIP3    H254811   3.414   5.974  11.842
10206TIP3   OH254812   3.423   6.190  12.335
10206TIP3    H154813   3.450   6.099  12.356
10206TIP3    H254814   3.512   6.226  12.319
10207TIP3   OH254815   3.491   6.217  12.906
10207TIP3    H154816   3.586   6.243  12.898
10207TIP3    H254817   3.487   6.218  13.003
10208TIP3   OH254818   3.519   5.929  12.372
10208TIP3    H154819   3.547   5.889  12.456
10208TIP3    H254820   3.458   5.860  12.341
10209TIP3   OH254821   3.696   5.903  12.040
10209TIP3    H154822   3.732   5.849  11.966
10209TIP3    H254823   3.770   5.965  12.058
10210TIP3   OH254824   1.911   5.920  12.364
10210TIP3    H154825   1.822   5.920  12.327
10210TIP3    H254826   1.959   5.955  12.285
10211TIP3   OH254827   3.403   7.406  12.492
10211TIP3    H154828   3.484   7.395  12.440
10211TIP3    H254829   3.429   7.439  12.580
10212TIP3   OH254830   3.623   5.785  12.589
10212TIP3    H154831   3.681   5.719  12.546
10212TIP3    H254832   3.688   5.857  12.605
10213TIP3   OH254833   2.057   5.704  12.119
10213TIP3    H154834   2.108   5.753  12.053
10213TIP3    H254835   1.998   5.775  12.150
10214TIP3   OH254836   2.589   5.713  12.511
10214TIP3    H154837   2.675   5.736  12.474
10214TIP3    H254838   2.607   5.717  12.606
10215TIP3   OH254839   3.348   5.715  12.297
10215TIP3    H154840   3.282   5.751  12.236
10215TIP3    H254841   3.304   5.633  12.329
10216TIP3   OH254842   2.051   7.280  12.237
10216TIP3    H154843   1.956   7.285  12.221
10216TIP3    H254844   2.081   7.361  12.191
10217TIP3   OH254845   2.195   5.913  11.962
10217TIP3    H154846   2.262   5.855  11.921
10217TIP3    H254847   2.238   5.940  12.044
10218TIP3   OH254848   2.743   5.943  12.205
10218TIP3    H154849   2.798   5.885  12.258
10218TIP3    H254850   2.757   6.026  12.255
10219TIP3   OH254851   2.928   7.464  12.056
10219TIP3    H154852   3.020   7.436  12.037
10219TIP3    H254853   2.884   7.392  12.006
10220TIP3   OH254854   3.594   7.359  12.306
10220TIP3    H154855   3.572   7.268  12.272
10220TIP3    H254856   3.576   7.412  12.225
10221TIP3   OH254857   2.228   7.401  11.930
10221TIP3    H154858   2.172   7.421  12.007
10221TIP3    H254859   2.281   7.329  11.965
10222TIP3   OH254860   4.972   6.645  12.529
10222TIP3    H154861   4.977   6.740  12.551
10222TIP3    H254862   4.878   6.632  12.523
10223TIP3   OH254863   4.198   6.973  12.865
10223TIP3    H154864   4.156   6.886  12.863
10223TIP3    H254865   4.289   6.952  12.835
10224TIP3   OH254866   3.871   6.311  12.446
10224TIP3    H154867   3.831   6.396  12.469
10224TIP3    H254868   3.792   6.258  12.429
10225TIP3   OH254869   3.870   6.570  12.670
10225TIP3    H154870   3.915   6.491  12.706
10225TIP3    H254871   3.935   6.610  12.611
10226TIP3   OH254872   4.339   6.079  12.715
10226TIP3    H154873   4.345   6.153  12.652
10226TIP3    H254874   4.278   6.019  12.669
10227TIP3   OH254875   5.123   6.061  12.486
10227TIP3    H154876   5.154   6.026  12.572
10227TIP3    H254877   5.176   6.141  12.479
10228TIP3   OH254878   3.970   6.312  12.776
10228TIP3    H154879   3.974   6.225  12.824
10228TIP3    H254880   3.993   6.278  12.688
10229TIP3   OH254881   4.408   6.437  12.721
10229TIP3    H154882   4.495   6.402  12.745
10229TIP3    H254883   4.380   6.372  12.653
10230TIP3   OH254884   4.931   6.921  12.448
10230TIP3    H154885   4.835   6.915  12.452
10230TIP3    H254886   4.945   7.015  12.430
10231TIP3   OH254887   5.262   6.014  12.718
10231TIP3    H154888   5.293   5.943  12.776
10231TIP3    H254889   5.342   6.067  12.717
10232TIP3   OH254890   3.925   6.864  12.255
10232TIP3    H154891   3.913   6.919  12.174
10232TIP3    H254892   3.932   6.934  12.324
10233TIP3   OH254893   4.593   5.696  12.807
10233TIP3    H154894   4.602   5.603  12.831
10233TIP3    H254895   4.500   5.714  12.836
10234TIP3   OH254896   5.088   7.163  12.618
10234TIP3    H154897   5.155   7.105  12.582
10234TIP3    H254898   5.131   7.250  12.617
10235TIP3   OH254899   4.849   6.414  11.984
10235TIP3    H154900   4.883   6.391  12.071
10235TIP3    H254901   4.898   6.349  11.930
10236TIP3   OH254902   4.337   6.666  12.592
10236TIP3    H154903   4.324   6.605  12.518
10236TIP3    H254904   4.368   6.603  12.661
10237TIP3   OH254905   4.738   7.190  12.657
10237TIP3    H154906   4.832   7.172  12.674
10237TIP3    H254907   4.743   7.203  12.561
10238TIP3   OH254908   5.444   5.668  12.167
10238TIP3    H154909   5.353   5.681  12.202
10238TIP3    H254910   5.473   5.760  12.153
10239TIP3   OH254911   4.222   6.527  12.313
10239TIP3    H154912   4.197   6.612  12.271
10239TIP3    H254913   4.171   6.464  12.262
10240TIP3   OH254914   5.562   7.117  11.989
10240TIP3    H154915   5.596   7.210  11.994
10240TIP3    H254916   5.645   7.066  12.003
10241TIP3   OH254917   4.714   7.520  12.289
10241TIP3    H154918   4.738   7.426  12.289
10241TIP3    H254919   4.739   7.539  12.380
10242TIP3   OH254920   4.181   7.310  12.507
10242TIP3    H154921   4.188   7.293  12.604
10242TIP3    H254922   4.085   7.306  12.498
10243TIP3   OH254923   5.086   7.333  12.037
10243TIP3    H154924   5.152   7.279  11.990
10243TIP3    H254925   5.122   7.337  12.128
10244TIP3   OH254926   5.117   7.378  12.296
10244TIP3    H154927   5.021   7.359  12.314
10244TIP3    H254928   5.153   7.338  12.376
10245TIP3   OH254929   4.316   5.777  12.879
10245TIP3    H154930   4.231   5.749  12.845
10245TIP3    H254931   4.287   5.842  12.945
10246TIP3   OH254932   4.795   5.998  11.970
10246TIP3    H154933   4.770   5.991  12.063
10246TIP3    H254934   4.735   5.932  11.931
10247TIP3   OH254935   4.354   6.257  12.520
10247TIP3    H154936   4.258   6.239  12.505
10247TIP3    H254937   4.392   6.228  12.434
10248TIP3   OH254938   4.888   6.351  12.405
10248TIP3    H154939   4.875   6.429  12.349
10248TIP3    H254940   4.976   6.322  12.375
10249TIP3   OH254941   4.401   5.997  11.879
10249TIP3    H154942   4.363   5.980  11.968
10249TIP3    H254943   4.365   6.083  11.851
10250TIP3   OH254944   3.802   5.995  12.618
10250TIP3    H154945   3.877   6.000  12.679
10250TIP3    H254946   3.844   5.976  12.533
10251TIP3   OH254947   3.879   6.070  12.131
10251TIP3    H154948   3.934   6.114  12.063
10251TIP3    H254949   3.819   6.143  12.155
10252TIP3   OH254950   4.652   6.004  12.596
10252TIP3    H154951   4.561   6.031  12.619
10252TIP3    H254952   4.680   5.966  12.680
10253TIP3   OH254953   4.095   6.182  12.500
10253TIP3    H154954   4.013   6.212  12.454
10253TIP3    H254955   4.106   6.087  12.471
10254TIP3   OH254956   4.451   6.205  12.272
10254TIP3    H154957   4.542   6.205  12.238
10254TIP3    H254958   4.407   6.272  12.216
10255TIP3   OH254959   4.337   6.327  12.031
10255TIP3    H154960   4.291   6.277  11.962
10255TIP3    H254961   4.410   6.366  11.980
10256TIP3   OH254962   4.684   6.307  12.828
10256TIP3    H154963   4.758   6.309  12.767
10256TIP3    H254964   4.718   6.337  12.913
10257TIP3   OH254965   4.175   5.937  12.458
10257TIP3    H154966   4.131   5.865  12.510
10257TIP3    H254967   4.239   5.886  12.408
10258TIP3   OH254968   4.671   6.741  12.275
10258TIP3    H154969   4.596   6.695  12.231
10258TIP3    H254970   4.623   6.787  12.348
10259TIP3   OH254971   5.026   6.080  12.072
10259TIP3    H154972   4.945   6.061  12.020
10259TIP3    H254973   5.014   6.174  12.097
10260TIP3   OH254974   5.074   6.307  12.191
10260TIP3    H154975   5.139   6.250  12.240
10260TIP3    H254976   5.134   6.340  12.123
10261TIP3   OH254977   4.158   6.681  12.804
10261TIP3    H154978   4.207   6.712  12.726
10261TIP3    H254979   4.136   6.592  12.774
10262TIP3   OH254980   4.856   6.889  12.140
10262TIP3    H154981   4.822   6.981  12.144
10262TIP3    H254982   4.788   6.837  12.189
10263TIP3   OH254983   5.594   6.262  12.196
10263TIP3    H154984   5.525   6.258  12.128
10263TIP3    H254985   5.605   6.358  12.208
10264TIP3   OH254986   5.386   7.146  12.210
10264TIP3    H154987   5.383   7.114  12.302
10264TIP3    H254988   5.457   7.094  12.168
10265TIP3   OH254989   4.391   7.038  12.590
10265TIP3    H154990   4.429   7.127  12.589
10265TIP3    H254991   4.304   7.047  12.548
10266TIP3   OH254992   4.018   6.559  12.021
10266TIP3    H154993   4.061   6.633  12.068
10266TIP3    H254994   3.922   6.574  12.036
10267TIP3   OH254995   4.539   6.827  12.487
10267TIP3    H154996   4.493   6.909  12.516
10267TIP3    H254997   4.505   6.767  12.556
10268TIP3   OH254998   4.477   7.303  12.450
10268TIP3    H154999   4.386   7.306  12.485
10268TIP3    H255000   4.520   7.382  12.491
10269TIP3   OH255001   5.654   7.363  12.024
10269TIP3    H155002   5.719   7.436  12.016
10269TIP3    H255003   5.569   7.412  12.035
10270TIP3   OH255004   4.581   7.068  11.852
10270TIP3    H155005   4.586   7.005  11.779
10270TIP3    H255006   4.534   7.016  11.918
10271TIP3   OH255007   4.475   7.010  12.120
10271TIP3    H155008   4.547   6.962  12.163
10271TIP3    H255009   4.502   7.103  12.141
10272TIP3   OH255010   4.148   6.743  12.166
10272TIP3    H155011   4.064   6.782  12.199
10272TIP3    H255012   4.198   6.822  12.140
10273TIP3   OH255013   5.004   5.914  12.288
10273TIP3    H155014   5.031   5.970  12.213
10273TIP3    H255015   5.051   5.956  12.364
10274TIP3   OH255016   4.749   7.136  12.123
10274TIP3    H155017   4.668   7.183  12.149
10274TIP3    H255018   4.809   7.179  12.188
10275TIP3   OH255019   4.717   6.140  12.342
10275TIP3    H155020   4.765   6.222  12.369
10275TIP3    H255021   4.680   6.111  12.428
10276TIP3   OH255022   4.775   5.834  12.424
10276TIP3    H155023   4.729   5.897  12.484
10276TIP3    H255024   4.848   5.887  12.383
10277TIP3   OH255025   4.524   7.276  12.190
10277TIP3    H155026   4.560   7.360  12.155
10277TIP3    H255027   4.524   7.291  12.288
10278TIP3   OH255028   4.344   5.941  12.138
10278TIP3    H155029   4.340   6.019  12.196
10278TIP3    H255030   4.437   5.913  12.155
10279TIP3   OH255031   4.191   6.991  12.026
10279TIP3    H155032   4.272   7.017  12.076
10279TIP3    H255033   4.233   6.939  11.955
10280TIP3   OH255034   4.005   6.273  11.955
10280TIP3    H155035   4.047   6.355  11.987
10280TIP3    H255036   3.936   6.310  11.897
10281TIP3   OH255037   3.955   7.093  12.412
10281TIP3    H155038   3.891   7.160  12.441
10281TIP3    H255039   4.002   7.145  12.345
10282TIP3   OH255040   4.791   7.246  11.864
10282TIP3    H155041   4.728   7.176  11.894
10282TIP3    H255042   4.874   7.196  11.861
10283TIP3   OH255043   5.257   7.192  11.886
10283TIP3    H155044   5.322   7.152  11.946
10283TIP3    H255045   5.311   7.210  11.806
10284TIP3   OH255046   4.357   6.801  11.874
10284TIP3    H155047   4.401   6.793  11.961
10284TIP3    H255048   4.429   6.774  11.814
10285TIP3   OH255049   4.918   6.923  11.880
10285TIP3    H155050   4.879   6.916  11.970
10285TIP3    H255051   4.905   6.831  11.849
10286TIP3   OH255052   4.460   6.621  12.140
10286TIP3    H155053   4.392   6.567  12.185
10286TIP3    H255054   4.493   6.558  12.073
10287TIP3   OH255055   4.573   6.451  11.931
10287TIP3    H155056   4.555   6.463  11.835
10287TIP3    H255057   4.669   6.436  11.933
10288TIP3   OH255058   5.499   6.660  11.879
10288TIP3    H155059   5.480   6.628  11.788
10288TIP3    H255060   5.488   6.757  11.866
10289TIP3   OH255061   4.576   7.486  12.006
10289TIP3    H155062   4.673   7.491  12.024
10289TIP3    H255063   4.558   7.580  12.002
10290TIP3   OH255064   3.905   6.952  12.003
10290TIP3    H155065   4.003   6.953  11.999
10290TIP3    H255066   3.882   6.903  11.920
10291TIP3   OH255067   3.766   7.480  12.456
10291TIP3    H155068   3.692   7.438  12.407
10291TIP3    H255069   3.770   7.423  12.536
10292TIP3   OH255070   3.858   7.302  12.650
10292TIP3    H155071   3.915   7.228  12.675
10292TIP3    H255072   3.831   7.329  12.738
10293TIP3   OH255073   5.621   6.538  12.103
10293TIP3    H155074   5.559   6.569  12.033
10293TIP3    H255075   5.608   6.600  12.176
10294TIP3   OH255076   5.429   6.248  11.942
10294TIP3    H155077   5.460   6.308  11.874
10294TIP3    H255078   5.414   6.169  11.887
10295TIP3   OH255079   3.895   6.644  12.941
10295TIP3    H155080   3.834   6.631  12.866
10295TIP3    H255081   3.962   6.578  12.920
10296TIP3   OH255082   5.399   5.993  11.828
10296TIP3    H155083   5.438   5.957  11.910
10296TIP3    H255084   5.304   5.980  11.841
10297TIP3   OH255085   5.308   6.201  12.308
10297TIP3    H155086   5.345   6.111  12.309
10297TIP3    H255087   5.382   6.251  12.345
10298TIP3   OH255088   5.436   5.926  12.354
10298TIP3    H155089   5.446   5.885  12.442
10298TIP3    H255090   5.361   5.876  12.319
10299TIP3   OH255091   3.751   6.255  12.941
10299TIP3    H155092   3.798   6.169  12.951
10299TIP3    H255093   3.818   6.301  12.888
10300TIP3   OH255094   5.567   5.899  12.044
10300TIP3    H155095   5.605   5.849  11.969
10300TIP3    H255096   5.633   5.970  12.059
10301TIP3   OH255097   3.816   5.916  12.349
10301TIP3    H155098   3.720   5.925  12.342
10301TIP3    H255099   3.842   5.962  12.266
10302TIP3   OH255100   5.309   7.377  12.546
10302TIP3    H155101   5.369   7.390  12.471
10302TIP3    H255102   5.332   7.453  12.602
10303TIP3   OH255103   4.172   7.220  12.754
10303TIP3    H155104   4.176   7.125  12.781
10303TIP3    H255105   4.250   7.252  12.803
10304TIP3   OH255106   4.451   7.266  12.818
10304TIP3    H155107   4.509   7.188  12.809
10304TIP3    H255108   4.490   7.308  12.897
10305TIP3   OH255109   5.524   5.766  12.593
10305TIP3    H155110   5.592   5.713  12.550
10305TIP3    H255111   5.577   5.846  12.613
10306TIP3   OH255112   4.075   5.714  12.545
10306TIP3    H155113   3.997   5.697  12.491
10306TIP3    H255114   4.109   5.624  12.561
10307TIP3   OH255115   3.942   5.692  12.118
10307TIP3    H155116   3.972   5.763  12.057
10307TIP3    H255117   3.874   5.739  12.170
10308TIP3   OH255118   4.490   5.664  12.549
10308TIP3    H155119   4.576   5.668  12.506
10308TIP3    H255120   4.512   5.681  12.642
10309TIP3   OH255121   5.217   5.737  12.311
10309TIP3    H155122   5.137   5.790  12.293
10309TIP3    H255123   5.176   5.650  12.335
10310TIP3   OH255124   3.912   7.291  12.225
10310TIP3    H155125   3.844   7.301  12.155
10310TIP3    H255126   3.884   7.365  12.281
10311TIP3   OH255127   4.076   5.903  11.969
10311TIP3    H155128   4.146   5.854  11.921
10311TIP3    H255129   4.121   5.921  12.053
10312TIP3   OH255130   4.620   5.916  12.218
10312TIP3    H155131   4.667   5.861  12.285
10312TIP3    H255132   4.650   6.005  12.245
10313TIP3   OH255133   4.843   7.470  12.001
10313TIP3    H155134   4.931   7.431  12.019
10313TIP3    H255135   4.800   7.390  11.962
10314TIP3   OH255136   5.503   7.380  12.309
10314TIP3    H155137   5.476   7.296  12.266
10314TIP3    H255138   5.490   7.445  12.237
10315TIP3   OH255139   4.046   7.344  11.894
10315TIP3    H155140   4.016   7.344  11.987
10315TIP3    H255141   4.138   7.316  11.903
10316TIP3   OH255142   6.875   6.696  12.515
10316TIP3    H155143   6.841   6.748  12.588
10316TIP3    H255144   6.807   6.704  12.447
10317TIP3   OH255145   6.740   6.534  12.856
10317TIP3    H155146   6.750   6.514  12.950
10317TIP3    H255147   6.775   6.452  12.819
10318TIP3   OH255148   5.894   6.539  12.629
10318TIP3    H155149   5.843   6.468  12.673
10318TIP3    H255150   5.826   6.579  12.572
10319TIP3   OH255151   6.249   6.044  12.700
10319TIP3    H155152   6.231   6.124  12.646
10319TIP3    H255153   6.186   5.980  12.661
10320TIP3   OH255154   7.004   6.103  12.518
10320TIP3    H155155   7.049   6.048  12.586
10320TIP3    H255156   7.077   6.153  12.477
10321TIP3   OH255157   5.880   6.281  12.757
10321TIP3    H155158   5.954   6.239  12.802
10321TIP3    H255159   5.894   6.250  12.665
10322TIP3   OH255160   7.128   5.976  12.718
10322TIP3    H155161   7.057   5.946  12.778
10322TIP3    H255162   7.179   6.035  12.778
10323TIP3   OH255163   5.810   6.836  12.262
10323TIP3    H155164   5.772   6.874  12.181
10323TIP3    H255165   5.824   6.914  12.319
10324TIP3   OH255166   6.701   6.562  12.278
10324TIP3    H155167   6.649   6.642  12.254
10324TIP3    H255168   6.788   6.584  12.235
10325TIP3   OH255169   6.718   6.478  11.981
10325TIP3    H155170   6.799   6.516  12.021
10325TIP3    H255171   6.741   6.383  11.982
10326TIP3   OH255172   7.083   6.549  12.398
10326TIP3    H155173   7.025   6.621  12.430
10326TIP3    H255174   7.144   6.534  12.472
10327TIP3   OH255175   6.362   7.036  12.836
10327TIP3    H155176   6.375   6.973  12.764
10327TIP3    H255177   6.408   6.993  12.910
10328TIP3   OH255178   6.940   6.543  12.153
10328TIP3    H155179   7.008   6.510  12.215
10328TIP3    H255180   6.996   6.567  12.074
10329TIP3   OH255181   7.349   5.662  12.159
10329TIP3    H155182   7.261   5.679  12.200
10329TIP3    H255183   7.373   5.752  12.130
10330TIP3   OH255184   6.111   6.531  12.336
10330TIP3    H155185   6.082   6.617  12.297
10330TIP3    H255186   6.036   6.476  12.312
10331TIP3   OH255187   7.457   7.110  11.986
10331TIP3    H155188   7.469   7.207  11.999
10331TIP3    H255189   7.546   7.083  12.014
10332TIP3   OH255190   5.694   7.114  12.923
10332TIP3    H155191   5.784   7.077  12.908
10332TIP3    H255192   5.712   7.147  13.013
10333TIP3   OH255193   6.051   7.326  12.512
10333TIP3    H155194   6.040   7.317  12.608
10333TIP3    H255195   6.017   7.242  12.476
10334TIP3   OH255196   6.975   7.374  12.066
10334TIP3    H155197   7.016   7.308  12.006
10334TIP3    H255198   6.970   7.321  12.147
10335TIP3   OH255199   7.065   6.663  11.954
10335TIP3    H155200   7.054   6.642  11.859
10335TIP3    H255201   7.163   6.659  11.955
10336TIP3   OH255202   6.681   5.993  11.983
10336TIP3    H155203   6.653   5.968  12.072
10336TIP3    H255204   6.617   5.939  11.933
10337TIP3   OH255205   6.222   6.271  12.547
10337TIP3    H155206   6.136   6.266  12.503
10337TIP3    H255207   6.281   6.259  12.469
10338TIP3   OH255208   6.807   6.372  12.411
10338TIP3    H155209   6.789   6.448  12.350
10338TIP3    H255210   6.875   6.328  12.356
10339TIP3   OH255211   6.820   6.289  12.656
10339TIP3    H155212   6.822   6.323  12.565
10339TIP3    H255213   6.889   6.221  12.646
10340TIP3   OH255214   6.313   6.034  11.908
10340TIP3    H155215   6.266   5.989  11.981
10340TIP3    H255216   6.240   6.075  11.858
10341TIP3   OH255217   5.706   5.971  12.609
10341TIP3    H155218   5.727   6.065  12.622
10341TIP3    H255219   5.741   5.954  12.519
10342TIP3   OH255220   5.769   6.072  12.141
10342TIP3    H155221   5.823   6.111  12.069
10342TIP3    H255222   5.708   6.148  12.157
10343TIP3   OH255223   6.535   6.027  12.619
10343TIP3    H155224   6.444   6.006  12.648
10343TIP3    H255225   6.569   6.066  12.702
10344TIP3   OH255226   5.927   6.183  12.497
10344TIP3    H155227   5.876   6.184  12.415
10344TIP3    H255228   5.975   6.097  12.487
10345TIP3   OH255229   6.341   6.235  12.301
10345TIP3    H155230   6.422   6.208  12.256
10345TIP3    H255231   6.289   6.273  12.228
10346TIP3   OH255232   6.213   6.325  12.036
10346TIP3    H155233   6.185   6.265  11.965
10346TIP3    H255234   6.296   6.358  11.997
10347TIP3   OH255235   6.609   6.255  12.819
10347TIP3    H155236   6.692   6.256  12.766
10347TIP3    H255237   6.650   6.257  12.908
10348TIP3   OH255238   6.063   5.957  12.480
10348TIP3    H155239   6.008   5.887  12.522
10348TIP3    H255240   6.125   5.901  12.431
10349TIP3   OH255241   6.552   6.786  12.255
10349TIP3    H155242   6.476   6.747  12.206
10349TIP3    H255243   6.509   6.803  12.343
10350TIP3   OH255244   6.937   6.050  12.075
10350TIP3    H155245   6.852   6.063  12.029
10350TIP3    H255246   6.972   6.141  12.077
10351TIP3   OH255247   6.988   6.280  12.222
10351TIP3    H155248   7.076   6.257  12.257
10351TIP3    H255249   7.017   6.330  12.142
10352TIP3   OH255250   6.725   6.931  12.087
10352TIP3    H155251   6.744   7.005  12.147
10352TIP3    H255252   6.672   6.876  12.148
10353TIP3   OH255253   7.455   6.320  12.188
10353TIP3    H155254   7.443   6.271  12.104
10353TIP3    H255255   7.472   6.409  12.148
10354TIP3   OH255256   7.283   7.102  12.225
10354TIP3    H155257   7.217   7.033  12.241
10354TIP3    H255258   7.333   7.070  12.148
10355TIP3   OH255259   6.299   7.084  12.508
10355TIP3    H155260   6.313   7.160  12.565
10355TIP3    H255261   6.204   7.087  12.493
10356TIP3   OH255262   5.901   6.566  12.006
10356TIP3    H155263   5.948   6.623  12.071
10356TIP3    H255264   5.808   6.574  12.034
10357TIP3   OH255265   6.414   6.835  12.478
10357TIP3    H155266   6.400   6.932  12.468
10357TIP3    H255267   6.364   6.818  12.557
10358TIP3   OH255268   7.081   6.953  12.021
10358TIP3    H155269   7.096   6.921  12.113
10358TIP3    H255270   6.991   6.920  12.013
10359TIP3   OH255271   7.534   7.356  12.049
10359TIP3    H155272   7.598   7.427  12.045
10359TIP3    H255273   7.450   7.405  12.035
10360TIP3   OH255274   7.151   6.832  12.243
10360TIP3    H155275   7.105   6.749  12.224
10360TIP3    H255276   7.243   6.805  12.222
10361TIP3   OH255277   6.478   7.053  11.848
10361TIP3    H155278   6.485   6.969  11.801
10361TIP3    H255279   6.415   7.029  11.918
10362TIP3   OH255280   6.368   7.026  12.127
10362TIP3    H155281   6.440   6.969  12.158
10362TIP3    H255282   6.395   7.109  12.169
10363TIP3   OH255283   6.031   6.727  12.163
10363TIP3    H155284   5.948   6.771  12.192
10363TIP3    H255285   6.077   6.799  12.118
10364TIP3   OH255286   6.862   5.970  12.321
10364TIP3    H155287   6.895   5.997  12.233
10364TIP3    H255288   6.922   6.019  12.382
10365TIP3   OH255289   6.626   6.156  12.408
10365TIP3    H155290   6.718   6.125  12.423
10365TIP3    H255291   6.583   6.106  12.482
10366TIP3   OH255292   6.659   5.825  12.435
10366TIP3    H155293   6.627   5.883  12.507
10366TIP3    H255294   6.734   5.877  12.400
10367TIP3   OH255295   6.234   5.938  12.139
10367TIP3    H155296   6.213   6.010  12.200
10367TIP3    H255297   6.329   5.923  12.156
10368TIP3   OH255298   6.052   6.978  12.026
10368TIP3    H155299   6.109   7.019  12.093
10368TIP3    H255300   6.118   6.940  11.964
10369TIP3   OH255301   5.890   6.274  11.957
10369TIP3    H155302   5.932   6.358  11.985
10369TIP3    H255303   5.812   6.304  11.908
10370TIP3   OH255304   6.005   5.731  12.835
10370TIP3    H155305   5.989   5.737  12.740
10370TIP3    H255306   5.988   5.639  12.855
10371TIP3   OH255307   5.898   7.092  12.400
10371TIP3    H155308   5.840   7.102  12.476
10371TIP3    H255309   5.854   7.151  12.334
10372TIP3   OH255310   6.674   7.246  11.875
10372TIP3    H155311   6.624   7.161  11.881
10372TIP3    H255312   6.765   7.214  11.855
10373TIP3   OH255313   7.122   7.205  11.898
10373TIP3    H155314   7.169   7.138  11.950
10373TIP3    H255315   7.169   7.198  11.812
10374TIP3   OH255316   6.226   6.817  11.865
10374TIP3    H155317   6.259   6.763  11.939
10374TIP3    H255318   6.302   6.805  11.803
10375TIP3   OH255319   6.756   6.922  11.801
10375TIP3    H155320   6.731   6.925  11.895
10375TIP3    H255321   6.765   6.825  11.792
10376TIP3   OH255322   6.347   6.625  12.123
10376TIP3    H155323   6.279   6.565  12.160
10376TIP3    H255324   6.392   6.566  12.060
10377TIP3   OH255325   6.456   6.457  11.932
10377TIP3    H155326   6.421   6.491  11.848
10377TIP3    H255327   6.552   6.479  11.921
10378TIP3   OH255328   7.342   6.653  11.876
10378TIP3    H155329   7.324   6.613  11.789
10378TIP3    H255330   7.367   6.744  11.855
10379TIP3   OH255331   5.783   6.944  12.006
10379TIP3    H155332   5.881   6.955  12.005
10379TIP3    H255333   5.768   6.888  11.927
10380TIP3   OH255334   5.664   7.530  12.485
10380TIP3    H155335   5.605   7.504  12.411
10380TIP3    H255336   5.669   7.444  12.531
10381TIP3   OH255337   5.754   7.280  12.664
10381TIP3    H155338   5.733   7.200  12.716
10381TIP3    H255339   5.781   7.340  12.734
10382TIP3   OH255340   7.435   6.770  12.236
10382TIP3    H155341   7.489   6.841  12.273
10382TIP3    H255342   7.442   6.698  12.302
10383TIP3   OH255343   7.462   6.577  12.466
10383TIP3    H155344   7.378   6.533  12.491
10383TIP3    H255345   7.493   6.608  12.553
10384TIP3   OH255346   7.520   6.551  12.080
10384TIP3    H155347   7.450   6.561  12.013
10384TIP3    H255348   7.501   6.627  12.138
10385TIP3   OH255349   7.410   6.194  11.940
10385TIP3    H155350   7.341   6.262  11.965
10385TIP3    H255351   7.359   6.149  11.869
10386TIP3   OH255352   7.258   6.417  12.566
10386TIP3    H155353   7.268   6.351  12.493
10386TIP3    H255354   7.216   6.364  12.635
10387TIP3   OH255355   5.816   6.593  12.916
10387TIP3    H155356   5.753   6.620  12.849
10387TIP3    H255357   5.819   6.667  12.978
10388TIP3   OH255358   7.253   5.976  11.838
10388TIP3    H155359   7.248   5.983  11.935
10388TIP3    H255360   7.158   5.976  11.817
10389TIP3   OH255361   7.233   6.197  12.364
10389TIP3    H155362   7.246   6.100  12.355
10389TIP3    H255363   7.298   6.226  12.297
10390TIP3   OH255364   7.229   6.204  12.877
10390TIP3    H155365   7.323   6.224  12.897
10390TIP3    H255366   7.190   6.202  12.967
10391TIP3   OH255367   7.250   5.907  12.380
10391TIP3    H155368   7.275   5.910  12.473
10391TIP3    H255369   7.227   5.812  12.372
10392TIP3   OH255370   7.486   5.902  12.043
10392TIP3    H155371   7.538   5.850  11.979
10392TIP3    H255372   7.484   5.991  12.002
10393TIP3   OH255373   5.709   5.893  12.336
10393TIP3    H155374   5.611   5.895  12.334
10393TIP3    H255375   5.726   5.954  12.261
10394TIP3   OH255376   6.406   7.304  12.851
10394TIP3    H155377   6.408   7.207  12.841
10394TIP3    H255378   6.327   7.318  12.905
10395TIP3   OH255379   7.241   5.727  12.737
10395TIP3    H155380   7.165   5.769  12.691
10395TIP3    H255381   7.194   5.681  12.808
10396TIP3   OH255382   5.962   5.722  12.557
10396TIP3    H155383   5.881   5.722  12.503
10396TIP3    H255384   5.993   5.630  12.544
10397TIP3   OH255385   5.829   5.698  12.120
10397TIP3    H155386   5.865   5.758  12.052
10397TIP3    H255387   5.790   5.761  12.183
10398TIP3   OH255388   6.395   5.692  12.581
10398TIP3    H155389   6.478   5.687  12.532
10398TIP3    H255390   6.424   5.706  12.672
10399TIP3   OH255391   6.956   5.713  12.594
10399TIP3    H155392   6.913   5.687  12.511
10399TIP3    H255393   6.933   5.640  12.654
10400TIP3   OH255394   7.113   5.694  12.283
10400TIP3    H155395   7.028   5.740  12.278
10400TIP3    H255396   7.082   5.606  12.316
10401TIP3   OH255397   5.809   7.279  12.230
10401TIP3    H155398   5.728   7.298  12.178
10401TIP3    H255399   5.854   7.364  12.217
10402TIP3   OH255400   5.963   5.909  11.988
10402TIP3    H155401   6.023   5.850  11.938
10402TIP3    H255402   6.018   5.931  12.066
10403TIP3   OH255403   6.515   5.933  12.224
10403TIP3    H155404   6.564   5.879  12.289
10403TIP3    H255405   6.541   6.022  12.250
10404TIP3   OH255406   7.401   7.370  12.310
10404TIP3    H155407   7.369   7.278  12.302
10404TIP3    H255408   7.355   7.413  12.236
10405TIP3   OH255409   6.013   7.427  11.918
10405TIP3    H155410   5.937   7.441  11.977
10405TIP3    H255411   6.055   7.351  11.961
10406TIP3   OH255412   7.555   6.304  12.444
10406TIP3    H155413   7.536   6.398  12.454
10406TIP3    H255414   7.520   6.290  12.353
10407TIP3   OH255415   7.501   7.558  12.513
10407TIP3    H155416   7.452   7.537  12.431
10407TIP3    H255417   7.494   7.469  12.553
10408TIP3   OH255418   7.531   7.301  12.675
10408TIP3    H155419   7.527   7.229  12.743
10408TIP3    H255420   7.547   7.376  12.732
10409TIP3   OH255421  -0.031   6.608  12.904
10409TIP3    H155422  -0.005   6.660  12.828
10409TIP3    H255423   0.028   6.644  12.973
10410TIP3   OH255424   7.514   6.293  12.888
10410TIP3    H155425   7.574   6.299  12.813
10410TIP3    H255426   7.548   6.362  12.948
10411TIP3   OH255427   7.520   5.942  12.316
10411TIP3    H155428   7.422   5.943  12.316
10411TIP3    H255429   7.541   5.936  12.221
10412TIP3   OH255430   1.650   7.508  12.084
10412TIP3    H155431   1.578   7.505  12.149
10412TIP3    H255432   1.669   7.604  12.091
10413TIP3   OH255433   0.234   7.550  12.586
10413TIP3    H155434   0.204   7.643  12.579
10413TIP3    H255435   0.302   7.554  12.656
10414TIP3   OH255436   1.570   7.497  12.728
10414TIP3    H155437   1.656   7.461  12.751
10414TIP3    H255438   1.581   7.592  12.743
10415TIP3   OH255439   0.316   7.486  12.329
10415TIP3    H155440   0.246   7.505  12.395
10415TIP3    H255441   0.396   7.514  12.376
10416TIP3   OH255442   0.187   7.551  12.097
10416TIP3    H155443   0.254   7.619  12.080
10416TIP3    H255444   0.207   7.531  12.191
10417TIP3   OH255445   1.449   7.563  12.269
10417TIP3    H155446   1.370   7.542  12.217
10417TIP3    H255447   1.434   7.501  12.343
10418TIP3   OH255448   2.649   7.454  12.768
10418TIP3    H155449   2.715   7.512  12.810
10418TIP3    H255450   2.568   7.458  12.823
10419TIP3   OH255451   3.508   7.505  12.101
10419TIP3    H155452   3.431   7.521  12.159
10419TIP3    H255453   3.533   7.599  12.086
10420TIP3   OH255454   3.463   7.460  12.768
10420TIP3    H155455   3.503   7.547  12.786
10420TIP3    H255456   3.369   7.487  12.773
10421TIP3   OH255457   2.158   7.537  12.440
10421TIP3    H155458   2.064   7.507  12.441
10421TIP3    H255459   2.199   7.468  12.494
10422TIP3   OH255460   2.067   7.526  12.132
10422TIP3    H155461   2.132   7.597  12.122
10422TIP3    H255462   2.011   7.572  12.196
10423TIP3   OH255463   2.528   7.575  12.541
10423TIP3    H155464   2.598   7.632  12.502
10423TIP3    H255465   2.572   7.545  12.623
10424TIP3   OH255466   3.226   7.558  12.707
10424TIP3    H155467   3.165   7.585  12.636
10424TIP3    H255468   3.172   7.498  12.762
10425TIP3   OH255469   3.281   7.571  12.253
10425TIP3    H155470   3.208   7.539  12.197
10425TIP3    H255471   3.286   7.499  12.320
10426TIP3   OH255472   4.657   7.550  12.783
10426TIP3    H155473   4.685   7.486  12.715
10426TIP3    H255474   4.631   7.491  12.855
10427TIP3   OH255475   5.436   7.507  12.061
10427TIP3    H155476   5.362   7.501  12.124
10427TIP3    H255477   5.466   7.598  12.081
10428TIP3   OH255478   4.484   7.471  13.009
10428TIP3    H155479   4.407   7.444  12.956
10428TIP3    H255480   4.440   7.534  13.067
10429TIP3   OH255481   3.897   7.589  12.875
10429TIP3    H155482   3.909   7.606  12.780
10429TIP3    H255483   3.945   7.506  12.884
10430TIP3   OH255484   3.962   7.586  12.608
10430TIP3    H155485   3.888   7.561  12.548
10430TIP3    H255486   4.036   7.597  12.548
10431TIP3   OH255487   3.856   7.615  12.126
10431TIP3    H155488   3.856   7.676  12.051
10431TIP3    H255489   3.834   7.674  12.200
10432TIP3   OH255490   4.575   7.558  12.521
10432TIP3    H155491   4.586   7.647  12.479
10432TIP3    H255492   4.561   7.584  12.613
10433TIP3   OH255493   5.269   7.592  12.269
10433TIP3    H155494   5.212   7.625  12.197
10433TIP3    H255495   5.209   7.522  12.304
10434TIP3   OH255496   6.466   7.628  12.777
10434TIP3    H155497   6.504   7.538  12.774
10434TIP3    H255498   6.389   7.611  12.834
10435TIP3   OH255499   7.302   7.507  12.071
10435TIP3    H155500   7.227   7.488  12.132
10435TIP3    H255501   7.321   7.598  12.099
10436TIP3   OH255502   6.242   7.589  12.954
10436TIP3    H155503   6.158   7.570  12.907
10436TIP3    H255504   6.203   7.623  13.035
10437TIP3   OH255505   5.902   7.533  12.626
10437TIP3    H155506   5.817   7.538  12.578
10437TIP3    H255507   5.950   7.469  12.570
10438TIP3   OH255508   5.847   7.524  12.115
10438TIP3    H155509   5.897   7.598  12.077
10438TIP3    H255510   5.810   7.580  12.186
10439TIP3   OH255511   7.123   7.534  12.271
10439TIP3    H155512   7.065   7.602  12.234
10439TIP3    H255513   7.062   7.484  12.328
   7.68049   7.68049  30.00000
